<LesHouchesEvents version="3.0">
<header>
<!--
#*********************************************************************
#                                                                    *
#                        MadGraph5_aMC@NLO                           *
#                                                                    *
#                           Going Beyond                             *
#                                                                    *
#                   http://madgraph.hep.uiuc.edu                     *
#                   http://madgraph.phys.ucl.ac.be                   *
#                   http://amcatnlo.cern.ch                          *
#                                                                    *
#                     The MadGraph5_aMC@NLO team                     *
#                                                                    *
#....................................................................*
#                                                                    *
# This file contains all the information necessary to reproduce      *
# the events generated:                                              *
#                                                                    *
# 1. software version                                                *
# 2. proc_card          : code generation info including model       *
# 3. param_card         : model primary parameters in the LH format  *
# 4. run_card           : running parameters (collider and cuts)     *
# 5. pythia_card        : present only if pythia has been run        *
# 6. pgs_card           : present only if pgs has been run           *
# 7. delphes_cards      : present only if delphes has been run       *
#                                                                    *
#                                                                    *
#*********************************************************************
-->
<MGVersion>
#5.2.2.3
</MGVersion>
<MG5ProcCard>
#************************************************************
#*                     MadGraph5_aMC@NLO                    *
#*                                                          *
#*                *                       *                 *
#*                  *        * *        *                   *
#*                    * * * * 5 * * * *                     *
#*                  *        * *        *                   *
#*                *                       *                 *
#*                                                          *
#*                                                          *
#*         VERSION 2.2.3                 2015-02-10         *
#*                                                          *
#*    The MadGraph5_aMC@NLO Development Team - Find us at   *
#*    https://server06.fynu.ucl.ac.be/projects/madgraph     *
#*                                                          *
#************************************************************
#*                                                          *
#*               Command File for MadGraph5_aMC@NLO         *
#*                                                          *
#*     run as ./bin/mg5_aMC  filename                       *
#*                                                          *
#************************************************************
set group_subprocesses Auto
set ignore_six_quark_processes False
set loop_optimized_output True
set gauge unitary
set complex_mass_scheme False
import model sm
define p = g u c d s u~ c~ d~ s~
define j = g u c d s u~ c~ d~ s~
define l+ = e+ mu+
define l- = e- mu-
define vl = ve vm vt
define vl~ = ve~ vm~ vt~
import model Zprime_UFO
generate p p > zph, zph > j j
add process p p > zph, zph > b b~
output Dijet_signal
</MG5ProcCard>
<MGProcCard>
#*********************************************************************
#                        MadGraph/MadEvent                           *
#                   http://madgraph.hep.uiuc.edu                     *
#                                                                    *
#                          proc_card.dat                             *
#*********************************************************************
#                                                                    *
#            This Files is generated by MADGRAPH 5                   *
#                                                                    *
# WARNING: This Files is generated for MADEVENT (compatibility issue)*
#          This files is NOT a valid MG4 proc_card.dat               *
#          Running this in MG4 will NEVER reproduce the result of MG5*
#                                                                    *
#*********************************************************************
#*********************************************************************
# Process(es) requested : mg2 input                                  *
#*********************************************************************
# Begin PROCESS # This is TAG. Do not modify this line
p p > zph , zph > j j           #Process
# Be carefull the coupling are here in MG5 convention
          
end_coup           # End the couplings input

done               # this tells MG there are no more procs
# End PROCESS  # This is TAG. Do not modify this line
#*********************************************************************
# Model information                                                  *
#*********************************************************************
# Begin MODEL  # This is TAG. Do not modify this line
Zprime_UFO
# End   MODEL  # This is TAG. Do not modify this line
#*********************************************************************
# Start multiparticle definitions                                    *
#*********************************************************************
# Begin MULTIPARTICLES # This is TAG. Do not modify this line

# End  MULTIPARTICLES # This is TAG. Do not modify this line
</MGProcCard>
<MGRunCard>
#*********************************************************************
#                       MadGraph5_aMC@NLO                            *
#                                                                    *
#                     run_card.dat MadEvent                          *
#                                                                    *
#  This file is used to set the parameters of the run.               *
#                                                                    *
#  Some notation/conventions:                                        *
#                                                                    *
#   Lines starting with a '# ' are info or comments                  *
#                                                                    *
#   mind the format:   value    = variable     ! comment             *
#*********************************************************************
#
#*******************                                                 
# Running parameters
#*******************                                                 
#                                                                    
#*********************************************************************
# Tag name for the run (one word)                                    *
#*********************************************************************
  tag_1     = run_tag ! name of the run 
#*********************************************************************
# Run to generate the grid pack                                      *
#*********************************************************************
  .false.     = gridpack  !True = setting up the grid pack
#*********************************************************************
# Number of events and rnd seed                                      *
# Warning: Do not generate more than 1M events in a single run       *
# If you want to run Pythia, avoid more than 50k events in a run.    *
#*********************************************************************
  2000 = nevents ! Number of unweighted events requested 
 2667 = iseed   ! rnd seed (0=assigned automatically=default))
#*********************************************************************
# Collider type and energy                                           *
# lpp: 0=No PDF, 1=proton, -1=antiproton, 2=photon from proton,      *
#                                         3=photon from electron     *
#*********************************************************************
        1     = lpp1    ! beam 1 type 
        1     = lpp2    ! beam 2 type
     4000     = ebeam1  ! beam 1 total energy in GeV
     4000     = ebeam2  ! beam 2 total energy in GeV
#*********************************************************************
# Beam polarization from -100 (left-handed) to 100 (right-handed)    *
#*********************************************************************
        0     = polbeam1 ! beam polarization for beam 1
        0     = polbeam2 ! beam polarization for beam 2
#*********************************************************************
# PDF CHOICE: this automatically fixes also alpha_s and its evol.    *
#*********************************************************************
 'nn23lo1'    = pdlabel     ! PDF set                                     
 230000    = lhaid     ! if pdlabel=lhapdf, this is the lhapdf number
#*********************************************************************
# Renormalization and factorization scales                           *
#*********************************************************************
 F        = fixed_ren_scale  ! if .true. use fixed ren scale
 F        = fixed_fac_scale  ! if .true. use fixed fac scale
 91.1880  = scale            ! fixed ren scale
 91.1880  = dsqrt_q2fact1    ! fixed fact scale for pdf1
 91.1880  = dsqrt_q2fact2    ! fixed fact scale for pdf2
 1        = scalefact        ! scale factor for event-by-event scales
#*********************************************************************
# Matching - Warning! ickkw > 1 is still beta
#*********************************************************************
 0        = ickkw            ! 0 no matching, 1 MLM, 2 CKKW matching
 1        = highestmult      ! for ickkw=2, highest mult group
 1        = ktscheme         ! for ickkw=1, 1 Durham kT, 2 Pythia pTE
 1        = alpsfact         ! scale factor for QCD emission vx
 F        = chcluster        ! cluster only according to channel diag
 T        = pdfwgt           ! for ickkw=1, perform pdf reweighting
 5        = asrwgtflavor     ! highest quark flavor for a_s reweight
 T        = clusinfo         ! include clustering tag in output
 3.0      = lhe_version       ! Change the way clustering information pass to shower.        
#*********************************************************************
#**********************************************************
#
#**********************************************************
# Automatic ptj and mjj cuts if xqcut > 0
# (turn off for VBF and single top processes)
#**********************************************************
   T  = auto_ptj_mjj  ! Automatic setting of ptj and mjj
#**********************************************************
#                                                                    
#**********************************
# BW cutoff (M+/-bwcutoff*Gamma)
#**********************************
  15  = bwcutoff      ! (M+/-bwcutoff*Gamma)
#**********************************************************
# Apply pt/E/eta/dr/mij cuts on decay products or not
# (note that etmiss/ptll/ptheavy/ht/sorted cuts always apply)
#**********************************************************
   T  = cut_decays    ! Cut decay products 
#*************************************************************
# Number of helicities to sum per event (0 = all helicities)
# 0 gives more stable result, but longer run time (needed for
# long decay chains e.g.).
# Use >=2 if most helicities contribute, e.g. pure QCD.
#*************************************************************
   0  = nhel          ! Number of helicities used per event
#*******************                                                 
# Standard Cuts
#*******************                                                 
#                                                                    
#*********************************************************************
# Minimum and maximum pt's (for max, -1 means no cut)                *
#*********************************************************************
 20  = ptj       ! minimum pt for the jets 
  0  = ptb       ! minimum pt for the b 
 10  = pta       ! minimum pt for the photons 
 10  = ptl       ! minimum pt for the charged leptons 
  0  = misset    ! minimum missing Et (sum of neutrino's momenta)
  0  = ptheavy   ! minimum pt for one heavy final state
 1.0 = ptonium   ! minimum pt for the quarkonium states
 -1  = ptjmax    ! maximum pt for the jets
 -1  = ptbmax    ! maximum pt for the b
 -1  = ptamax    ! maximum pt for the photons
 -1  = ptlmax    ! maximum pt for the charged leptons
 -1  = missetmax ! maximum missing Et (sum of neutrino's momenta)
#*********************************************************************
# Minimum and maximum E's (in the center of mass frame)              *
#*********************************************************************
  0  = ej     ! minimum E for the jets 
  0  = eb     ! minimum E for the b 
  0  = ea     ! minimum E for the photons 
  0  = el     ! minimum E for the charged leptons 
 -1   = ejmax ! maximum E for the jets
 -1   = ebmax ! maximum E for the b
 -1   = eamax ! maximum E for the photons
 -1   = elmax ! maximum E for the charged leptons
#*********************************************************************
# Maximum and minimum absolute rapidity (for max, -1 means no cut)   *
#*********************************************************************
   5  = etaj    ! max rap for the jets 
  -1  = etab    ! max rap for the b
 2.5  = etaa    ! max rap for the photons 
 2.5  = etal    ! max rap for the charged leptons 
 0.6  = etaonium ! max rap for the quarkonium states
   0  = etajmin ! min rap for the jets
   0  = etabmin ! min rap for the b
   0  = etaamin ! min rap for the photons
   0  = etalmin ! main rap for the charged leptons
#*********************************************************************
# Minimum and maximum DeltaR distance                                *
#*********************************************************************
 0.4 = drjj    ! min distance between jets 
 0   = drbb    ! min distance between b's 
 0.4 = drll    ! min distance between leptons 
 0.4 = draa    ! min distance between gammas 
 0   = drbj    ! min distance between b and jet 
 0.4 = draj    ! min distance between gamma and jet 
 0.4 = drjl    ! min distance between jet and lepton 
 0   = drab    ! min distance between gamma and b 
 0   = drbl    ! min distance between b and lepton 
 0.4 = dral    ! min distance between gamma and lepton 
 -1  = drjjmax ! max distance between jets
 -1  = drbbmax ! max distance between b's
 -1  = drllmax ! max distance between leptons
 -1  = draamax ! max distance between gammas
 -1  = drbjmax ! max distance between b and jet
 -1  = drajmax ! max distance between gamma and jet
 -1  = drjlmax ! max distance between jet and lepton
 -1  = drabmax ! max distance between gamma and b
 -1  = drblmax ! max distance between b and lepton
 -1  = dralmax ! maxdistance between gamma and lepton
#*********************************************************************
# Minimum and maximum invariant mass for pairs                       *
# WARNING: for four lepton final state mmll cut require to have      *
#          different lepton masses for each flavor!                  *           
#*********************************************************************
 0   = mmjj    ! min invariant mass of a jet pair 
 0   = mmbb    ! min invariant mass of a b pair 
 0   = mmaa    ! min invariant mass of gamma gamma pair
 0   = mmll    ! min invariant mass of l+l- (same flavour) lepton pair
 -1  = mmjjmax ! max invariant mass of a jet pair
 -1  = mmbbmax ! max invariant mass of a b pair
 -1  = mmaamax ! max invariant mass of gamma gamma pair
 -1  = mmllmax ! max invariant mass of l+l- (same flavour) lepton pair
#*********************************************************************
# Minimum and maximum invariant mass for all letpons                 *
#*********************************************************************
 0   = mmnl    ! min invariant mass for all letpons (l+- and vl) 
 -1  = mmnlmax ! max invariant mass for all letpons (l+- and vl) 
#*********************************************************************
# Minimum and maximum pt for 4-momenta sum of leptons                *
#*********************************************************************
 0   = ptllmin  ! Minimum pt for 4-momenta sum of leptons(l and vl)
 -1  = ptllmax  ! Maximum pt for 4-momenta sum of leptons(l and vl)
#*********************************************************************
# Inclusive cuts                                                     *
#*********************************************************************
 0  = xptj ! minimum pt for at least one jet  
 0  = xptb ! minimum pt for at least one b 
 0  = xpta ! minimum pt for at least one photon 
 0  = xptl ! minimum pt for at least one charged lepton 
#*********************************************************************
# Control the pt's of the jets sorted by pt                          *
#*********************************************************************
 0   = ptj1min ! minimum pt for the leading jet in pt
 0   = ptj2min ! minimum pt for the second jet in pt
 0   = ptj3min ! minimum pt for the third jet in pt
 0   = ptj4min ! minimum pt for the fourth jet in pt
 -1  = ptj1max ! maximum pt for the leading jet in pt 
 -1  = ptj2max ! maximum pt for the second jet in pt
 -1  = ptj3max ! maximum pt for the third jet in pt
 -1  = ptj4max ! maximum pt for the fourth jet in pt
 0   = cutuse  ! reject event if fails any (0) / all (1) jet pt cuts
#*********************************************************************
# Control the pt's of leptons sorted by pt                           *
#*********************************************************************
 0   = ptl1min ! minimum pt for the leading lepton in pt
 0   = ptl2min ! minimum pt for the second lepton in pt
 0   = ptl3min ! minimum pt for the third lepton in pt
 0   = ptl4min ! minimum pt for the fourth lepton in pt
 -1  = ptl1max ! maximum pt for the leading lepton in pt 
 -1  = ptl2max ! maximum pt for the second lepton in pt
 -1  = ptl3max ! maximum pt for the third lepton in pt
 -1  = ptl4max ! maximum pt for the fourth lepton in pt
#*********************************************************************
# Control the Ht(k)=Sum of k leading jets                            *
#*********************************************************************
 0   = htjmin ! minimum jet HT=Sum(jet pt)
 -1  = htjmax ! maximum jet HT=Sum(jet pt)
 0   = ihtmin  !inclusive Ht for all partons (including b)
 -1  = ihtmax  !inclusive Ht for all partons (including b)
 0   = ht2min ! minimum Ht for the two leading jets
 0   = ht3min ! minimum Ht for the three leading jets
 0   = ht4min ! minimum Ht for the four leading jets
 -1  = ht2max ! maximum Ht for the two leading jets
 -1  = ht3max ! maximum Ht for the three leading jets
 -1  = ht4max ! maximum Ht for the four leading jets
#***********************************************************************
# Photon-isolation cuts, according to hep-ph/9801442                   *
# When ptgmin=0, all the other parameters are ignored                  *
# When ptgmin>0, pta and draj are not going to be used                 *
#***********************************************************************
   0 = ptgmin ! Min photon transverse momentum
 0.4 = R0gamma ! Radius of isolation code
 1.0 = xn ! n parameter of eq.(3.4) in hep-ph/9801442
 1.0 = epsgamma ! epsilon_gamma parameter of eq.(3.4) in hep-ph/9801442
 .true. = isoEM ! isolate photons from EM energy (photons and leptons)
#*********************************************************************
# WBF cuts                                                           *
#*********************************************************************
 0   = xetamin ! minimum rapidity for two jets in the WBF case  
 0   = deltaeta ! minimum rapidity for two jets in the WBF case 
#*********************************************************************
# KT DURHAM CUT                                                      *
#*********************************************************************
 -1    =  ktdurham        
 0.4  =  dparameter 
#*********************************************************************
# maximal pdg code for quark to be considered as a light jet         *
# (otherwise b cuts are applied)                                     *
#*********************************************************************
 4 = maxjetflavor    ! Maximum jet pdg code
#*********************************************************************
# Jet measure cuts                                                   *
#*********************************************************************
 0   = xqcut   ! minimum kt jet measure between partons
#*********************************************************************
#
#*********************************************************************
# Store info for systematics studies                                 *
# WARNING: If use_syst is T, matched Pythia output is                *
#          meaningful ONLY if plotted taking matchscale              *
#          reweighting into account!                                 *
#*********************************************************************
   F  = use_syst      ! Enable systematics studies
#
#**************************************
# Parameter of the systematics study
#  will be used by SysCalc (if installed)
#**************************************                                  
#
0.5 1 2 = sys_scalefact  # factorization/renormalization scale factor
0.5 1 2 = sys_alpsfact  # \alpha_s emission scale factors
30 50 = sys_matchscale # variation of merging scale
# PDF sets and number of members (0 or none for all members).
CT10nlo.LHgrid = sys_pdf # matching scales
# MSTW2008nlo68cl.LHgrid 1  = sys_pdf
</MGRunCard>
<slha>
######################################################################
## PARAM_CARD AUTOMATICALY GENERATED BY MG5 FOLLOWING UFO MODEL   ####
######################################################################
##                                                                  ##
##  Width set on Auto will be computed following the information    ##
##        present in the decay.py files of the model.               ##
##        See  arXiv:1402.1178 for more details.                    ##
##                                                                  ##
######################################################################

###################################
## INFORMATION FOR CKMBLOCK
###################################
Block ckmblock 
    1 2.277360e-01 # cabi 

###################################
## INFORMATION FOR FRBLOCK
###################################
Block frblock 
    1 1.400000e+00 # gz 

###################################
## INFORMATION FOR MASS
###################################
Block mass 
    1 5.040000e-03 # MD 
    2 2.550000e-03 # MU 
    3 1.010000e-01 # MS 
    4 1.270000e+00 # MC 
    5 4.700000e+00 # MB 
    6 1.720000e+02 # MT 
   11 5.110000e-04 # Me 
   13 1.056600e-01 # MM 
   15 1.777000e+00 # MTA 
   23 9.118760e+01 # MZ 
   25 1.200000e+02 # MH 
  10030 3.000000e+03 # MZph 
  10031 3.000000e+02 # MZpl 
## Dependent parameters, given by model restrictions.
## Those values should be edited following the 
## analytical expression. MG5 ignores those values 
## but they are important for interfacing the output of MG5
## to external program such as Pythia.
  12 0.000000 # ve : 0.0 
  14 0.000000 # vm : 0.0 
  16 0.000000 # vt : 0.0 
  21 0.000000 # g : 0.0 
  22 0.000000 # a : 0.0 
  24 79.824360 # w+ : cmath.sqrt(MZ__exp__2/2. + cmath.sqrt(MZ__exp__4/4. - (aEW*cmath.pi*MZ__exp__2)/(Gf*sqrt__2))) 

###################################
## INFORMATION FOR SMINPUTS
###################################
Block sminputs 
    1 1.279000e+02 # aEWM1 
    2 1.166370e-05 # Gf 
    3 1.184000e-01 # aS 

###################################
## INFORMATION FOR YUKAWA
###################################
Block yukawa 
    1 5.040000e-03 # ymdo 
    2 2.550000e-03 # ymup 
    3 1.010000e-01 # yms 
    4 1.270000e+00 # ymc 
    5 4.700000e+00 # ymb 
    6 1.720000e+02 # ymt 
   11 5.110000e-04 # yme 
   13 1.056600e-01 # ymm 
   15 1.777000e+00 # ymtau 

###################################
## INFORMATION FOR DECAY
###################################
DECAY   6 1.508336e+00 # WT 
DECAY  23 2.495200e+00 # WZ 
DECAY  24 2.085000e+00 # WW 
DECAY  25 5.753088e-03 # WH 
## Dependent parameters, given by model restrictions.
## Those values should be edited following the 
## analytical expression. MG5 ignores those values 
## but they are important for interfacing the output of MG5
## to external program such as Pythia.
DECAY  1 0.000000 # d : 0.0 
DECAY  2 0.000000 # u : 0.0 
DECAY  3 0.000000 # s : 0.0 
DECAY  4 0.000000 # c : 0.0 
DECAY  5 0.000000 # b : 0.0 
DECAY  11 0.000000 # e- : 0.0 
DECAY  12 0.000000 # ve : 0.0 
DECAY  13 0.000000 # mu- : 0.0 
DECAY  14 0.000000 # vm : 0.0 
DECAY  15 0.000000 # ta- : 0.0 
DECAY  16 0.000000 # vt : 0.0 
DECAY  21 0.000000 # g : 0.0 
DECAY  22 0.000000 # a : 0.0 
DECAY  10030 0.308725 # zph : (gz__exp__2*MZph*(5 + cmath.sqrt(1 - (4*MT__exp__2)/MZph__exp__2)))/(144.*cmath.pi) 
DECAY  10031 0.132629 # zpl : (5*gz__exp__2*MZpl)/(144.*cmath.pi) 
#===========================================================
# QUANTUM NUMBERS OF NEW STATE(S) (NON SM PDG CODE)
#===========================================================

Block QNUMBERS 10030  # zph 
        1 0  # 3 times electric charge
        2 3  # number of spin states (2S+1)
        3 1  # colour rep (1: singlet, 3: triplet, 8: octet)
        4 0  # Particle/Antiparticle distinction (0=own anti)
Block QNUMBERS 10031  # zpl 
        1 0  # 3 times electric charge
        2 3  # number of spin states (2S+1)
        3 1  # colour rep (1: singlet, 3: triplet, 8: octet)
        4 0  # Particle/Antiparticle distinction (0=own anti)
</slha>
## END BANNER##
<MGGenerationInfo>
#  Number of Events        :         3864
#  Integrated weight (pb)  :  0.26510E-02
#  Max wgt                 :  0.10896E-05
#  Average wgt             :  0.68608E-06
</MGGenerationInfo>
</header>
<init>
     2212     2212  0.40000000000E+04  0.40000000000E+04 0 0  247000  247000 2   1
  0.26537140615E-02  0.89754795887E-05  0.10895690000E-05   0
</init>
<event>
 5   0  0.1029922E-05  0.2927430E+04  0.7818609E-02  0.8264763E-01
       -2   -1    0    0    0  501  0.00000000000E+00  0.00000000000E+00  0.14068974492E+04  0.14068974492E+04  0.25500000920E-02 0.  1.
        2   -1    0    0  501    0  0.00000000000E+00  0.00000000000E+00 -0.15228271948E+04  0.15228271948E+04  0.25500000920E-02 0. -1.
    10030    2    1    2    0    0  0.00000000000E+00  0.00000000000E+00 -0.11592974557E+03  0.29297246440E+04  0.29274300647E+04 0.  0.
        1    1    3    3  502    0 -0.48501197933E+03  0.78370053274E+03 -0.11959746993E+04  0.15098935812E+04  0.50400001928E-02 0. -1.
       -1    1    3    3    0  502  0.48501197933E+03 -0.78370053274E+03  0.10800449537E+04  0.14198310629E+04  0.50400001928E-02 0.  1.
</event>
<event>
 5   0  0.1029922E-05  0.2490001E+04  0.7818609E-02  0.8406556E-01
        2   -1    0    0  501    0  0.00000000000E+00  0.00000000000E+00  0.20301158377E+04  0.20301158377E+04  0.25500000920E-02 0. -1.
       -2   -1    0    0    0  501  0.00000000000E+00  0.00000000000E+00 -0.76351622708E+03  0.76351622708E+03  0.25500000920E-02 0.  1.
    10030    2    1    2    0    0  0.00000000000E+00  0.00000000000E+00  0.12665996106E+04  0.27936320648E+04  0.24900011124E+04 0.  0.
        1    1    3    3  502    0  0.90498796118E+03 -0.82951711807E+03  0.86574598824E+03  0.15022043720E+04  0.50400001928E-02 0. -1.
       -1    1    3    3    0  502 -0.90498796118E+03  0.82951711807E+03  0.40085362236E+03  0.12914276928E+04  0.50400001928E-02 0.  1.
</event>
<event>
 5   0  0.1028450E-05  0.3057522E+04  0.7818609E-02  0.8227493E-01
        2   -1    0    0  501    0  0.00000000000E+00  0.00000000000E+00  0.22806275210E+04  0.22806275210E+04  0.25500000920E-02 0. -1.
       -2   -1    0    0    0  501  0.00000000000E+00  0.00000000000E+00 -0.10247664273E+04  0.10247664273E+04  0.25500000920E-02 0.  1.
    10030    2    1    2    0    0  0.00000000000E+00  0.00000000000E+00  0.12558610937E+04  0.33053939482E+04  0.30575222103E+04 0.  0.
        3    1    3    3  502    0  0.55013857667E+03 -0.18755408999E+03 -0.90065793416E+03  0.10719205730E+04  0.10100000352E+00 0.  1.
       -3    1    3    3    0  502 -0.55013857667E+03  0.18755408999E+03  0.21565190279E+04  0.22334733753E+04  0.10100000352E+00 0. -1.
</event>
<event>
 5   0  0.1029922E-05  0.3001230E+04  0.7818609E-02  0.8243380E-01
        2   -1    0    0  501    0  0.00000000000E+00  0.00000000000E+00  0.12800323124E+04  0.12800323124E+04  0.25500000920E-02 0.  1.
       -2   -1    0    0    0  501  0.00000000000E+00  0.00000000000E+00 -0.17592094008E+04  0.17592094008E+04  0.25500000920E-02 0. -1.
    10030    2    1    2    0    0  0.00000000000E+00  0.00000000000E+00 -0.47917708839E+03  0.30392417132E+04  0.30012296662E+04 0.  0.
        1    1    3    3  502    0  0.79214176813E+03  0.10927423868E+04 -0.90384644976E+03  0.16243499960E+04  0.50400001928E-02 0. -1.
       -1    1    3    3    0  502 -0.79214176813E+03 -0.10927423868E+04  0.42466936138E+03  0.14148917172E+04  0.50400001928E-02 0.  1.
</event>
<event>
 5   0  0.1028450E-05  0.3042870E+04  0.7818609E-02  0.8231594E-01
       -2   -1    0    0    0  501  0.00000000000E+00  0.00000000000E+00  0.13223950170E+04  0.13223950170E+04  0.25500000920E-02 0. -1.
        2   -1    0    0  501    0  0.00000000000E+00  0.00000000000E+00 -0.17504336205E+04  0.17504336205E+04  0.25500000920E-02 0.  1.
    10030    2    1    2    0    0  0.00000000000E+00  0.00000000000E+00 -0.42803860356E+03  0.30728286375E+04  0.30428701565E+04 0.  0.
        3    1    3    3  502    0  0.61004955534E+03 -0.12416222324E+04 -0.85348233324E+03  0.16254901818E+04  0.10100000352E+00 0.  1.
       -3    1    3    3    0  502 -0.61004955534E+03  0.12416222324E+04  0.42544372968E+03  0.14473384557E+04  0.10100000352E+00 0. -1.
</event>
<event>
 5   0  0.3852126E-06  0.2989516E+04  0.7818609E-02  0.8246731E-01
        1   -1    0    0  501    0  0.00000000000E+00  0.00000000000E+00  0.72718111124E+03  0.72718111126E+03  0.50400001928E-02 0.  1.
       -1   -1    0    0    0  501  0.00000000000E+00  0.00000000000E+00 -0.30725522345E+04  0.30725522345E+04  0.50400001928E-02 0. -1.
    10030    2    1    2    0    0  0.00000000000E+00  0.00000000000E+00 -0.23453711233E+04  0.37997333458E+04  0.29895163143E+04 0.  0.
        1    1    3    3  502    0 -0.11469314826E+04 -0.91637668511E+03 -0.15301650454E+04  0.21205195404E+04  0.50400001928E-02 0. -1.
       -1    1    3    3    0  502  0.11469314826E+04  0.91637668511E+03 -0.81520607788E+03  0.16792138054E+04  0.50400001928E-02 0.  1.
</event>
<event>
 5   0  0.3592331E-06  0.2917649E+04  0.7818609E-02  0.8267646E-01
        1   -1    0    0  501    0  0.00000000000E+00  0.00000000000E+00  0.26041099144E+04  0.26041099144E+04  0.50400001928E-02 0.  1.
       -1   -1    0    0    0  501  0.00000000000E+00  0.00000000000E+00 -0.81723487711E+03  0.81723487713E+03  0.50400001928E-02 0. -1.
    10030    2    1    2    0    0  0.00000000000E+00  0.00000000000E+00  0.17868750373E+04  0.34213447916E+04  0.29176493593E+04 0.  0.
        3    1    3    3  502    0  0.92941124040E+02 -0.14358189324E+04  0.61113769181E+03  0.15632348984E+04  0.10100000352E+00 0. -1.
       -3    1    3    3    0  502 -0.92941124040E+02  0.14358189324E+04  0.11757373455E+04  0.18581098931E+04  0.10100000352E+00 0.  1.
</event>
<event>
 5   0  0.1029922E-05  0.3044031E+04  0.7818609E-02  0.8231268E-01
        2   -1    0    0  501    0  0.00000000000E+00  0.00000000000E+00  0.20856033351E+04  0.20856033351E+04  0.25500000920E-02 0.  1.
       -2   -1    0    0    0  501  0.00000000000E+00  0.00000000000E+00 -0.11107246136E+04  0.11107246136E+04  0.25500000920E-02 0. -1.
    10030    2    1    2    0    0  0.00000000000E+00  0.00000000000E+00  0.97487872152E+03  0.31963279487E+04  0.30440308530E+04 0.  0.
        1    1    3    3  502    0 -0.12978730206E+03  0.15146282840E+04  0.56592789765E+03  0.16221029461E+04  0.50400001928E-02 0. -1.
       -1    1    3    3    0  502  0.12978730206E+03 -0.15146282840E+04  0.40895082388E+03  0.15742250026E+04  0.50400001928E-02 0.  1.
</event>
<event>
 5   0  0.3725232E-06  0.2815698E+04  0.7818609E-02  0.8298411E-01
        1   -1    0    0  501    0  0.00000000000E+00  0.00000000000E+00  0.17898379557E+04  0.17898379557E+04  0.50400001928E-02 0.  1.
       -1   -1    0    0    0  501  0.00000000000E+00  0.00000000000E+00 -0.11073845428E+04  0.11073845428E+04  0.50400001928E-02 0. -1.
    10030    2    1    2    0    0  0.00000000000E+00  0.00000000000E+00  0.68245341288E+03  0.28972224984E+04  0.28156980564E+04 0.  0.
        2    1    3    3  502    0 -0.86168694094E+03  0.10006154746E+04 -0.16107040589E+03  0.13302929707E+04  0.25500000920E-02 0. -1.
       -2    1    3    3    0  502  0.86168694094E+03 -0.10006154746E+04  0.84352381877E+03  0.15669295278E+04  0.25500000920E-02 0.  1.
</event>
<event>
 5   0  0.1029922E-05  0.3063133E+04  0.7818609E-02  0.8225929E-01
       -2   -1    0    0    0  501  0.00000000000E+00  0.00000000000E+00  0.13249302276E+04  0.13249302276E+04  0.25500000920E-02 0. -1.
        2   -1    0    0  501    0  0.00000000000E+00  0.00000000000E+00 -0.17704302972E+04  0.17704302973E+04  0.25500000920E-02 0.  1.
    10030    2    1    2    0    0  0.00000000000E+00  0.00000000000E+00 -0.44550006967E+03  0.30953605248E+04  0.30631334392E+04 0.  0.
        1    1    3    3  502    0 -0.17775208980E+03 -0.85869763702E+03 -0.14916437694E+04  0.17303059187E+04  0.50400001928E-02 0.  1.
       -1    1    3    3    0  502  0.17775208980E+03  0.85869763702E+03  0.10461436998E+04  0.13650546062E+04  0.50400001928E-02 0. -1.
</event>
<event>
 5   0  0.3725232E-06  0.2962666E+04  0.7818609E-02  0.8254473E-01
       -1   -1    0    0    0  501  0.00000000000E+00  0.00000000000E+00  0.10024404865E+04  0.10024404865E+04  0.50400001928E-02 0.  1.
        1   -1    0    0  501    0  0.00000000000E+00  0.00000000000E+00 -0.21890049496E+04  0.21890049496E+04  0.50400001928E-02 0. -1.
    10030    2    1    2    0    0  0.00000000000E+00  0.00000000000E+00 -0.11865644630E+04  0.31914454361E+04  0.29626658176E+04 0.  0.
        2    1    3    3  502    0 -0.11630251137E+04 -0.88117311942E+03 -0.86845619887E+03  0.16980311101E+04  0.25500000920E-02 0. -1.
       -2    1    3    3    0  502  0.11630251137E+04  0.88117311942E+03 -0.31810826416E+03  0.14934143260E+04  0.25500000920E-02 0.  1.
</event>
<event>
 5   0  0.1089569E-05  0.2748501E+04  0.7818609E-02  0.8319437E-01
       -2   -1    0    0    0  501  0.00000000000E+00  0.00000000000E+00  0.10854485065E+04  0.10854485065E+04  0.25500000920E-02 0. -1.
        2   -1    0    0  501    0  0.00000000000E+00  0.00000000000E+00 -0.17398933328E+04  0.17398933328E+04  0.25500000920E-02 0.  1.
    10030    2    1    2    0    0  0.00000000000E+00  0.00000000000E+00 -0.65444482630E+03  0.28253418393E+04  0.27485011331E+04 0.  0.
        5    1    3    3  502    0 -0.44784742192E+03  0.11992831620E+03  0.10026192345E+04  0.11046345702E+04  0.46999998093E+01 0. -1.
       -5    1    3    3    0  502  0.44784742192E+03 -0.11992831620E+03 -0.16570640608E+04  0.17207072691E+04  0.46999998093E+01 0.  1.
</event>
<event>
 5   0  0.3896630E-06  0.2991258E+04  0.7818609E-02  0.8246232E-01
       -1   -1    0    0    0  501  0.00000000000E+00  0.00000000000E+00  0.11999374692E+04  0.11999374692E+04  0.50400001928E-02 0.  1.
        1   -1    0    0  501    0  0.00000000000E+00  0.00000000000E+00 -0.18641856845E+04  0.18641856845E+04  0.50400001928E-02 0. -1.
    10030    2    1    2    0    0  0.00000000000E+00  0.00000000000E+00 -0.66424821526E+03  0.30641231537E+04  0.29912580982E+04 0.  0.
        5    1    3    3  502    0 -0.10556019585E+04  0.96846015462E+03 -0.77232886615E+03  0.16274902560E+04  0.46999998093E+01 0.  1.
       -5    1    3    3    0  502  0.10556019585E+04 -0.96846015462E+03  0.10808065089E+03  0.14366328978E+04  0.46999998093E+01 0. -1.
</event>
<event>
 5   0  0.3852126E-06  0.2686678E+04  0.7818609E-02  0.8339340E-01
        1   -1    0    0  501    0  0.00000000000E+00  0.00000000000E+00  0.24367354171E+04  0.24367354171E+04  0.50400001928E-02 0. -1.
       -1   -1    0    0    0  501  0.00000000000E+00  0.00000000000E+00 -0.74056473034E+03  0.74056473036E+03  0.50400001928E-02 0.  1.
    10030    2    1    2    0    0  0.00000000000E+00  0.00000000000E+00  0.16961706868E+04  0.31773001475E+04  0.26866784751E+04 0.  0.
        1    1    3    3  502    0 -0.54465599403E+03 -0.11038747369E+04  0.21192024370E+03  0.12490395415E+04  0.50400001928E-02 0. -1.
       -1    1    3    3    0  502  0.54465599403E+03  0.11038747369E+04  0.14842504431E+04  0.19282606059E+04  0.50400001928E-02 0.  1.
</event>
<event>
 5   0  0.3592331E-06  0.3005401E+04  0.7818609E-02  0.8242190E-01
       -1   -1    0    0    0  501  0.00000000000E+00  0.00000000000E+00  0.13447365111E+04  0.13447365111E+04  0.50400001928E-02 0.  1.
        1   -1    0    0  501    0  0.00000000000E+00  0.00000000000E+00 -0.16792199793E+04  0.16792199793E+04  0.50400001928E-02 0. -1.
    10030    2    1    2    0    0  0.00000000000E+00  0.00000000000E+00 -0.33448346819E+03  0.30239564904E+04  0.30054007496E+04 0.  0.
        3    1    3    3  502    0  0.13942438566E+04  0.37013454216E+03 -0.59078355556E+03  0.15588267160E+04  0.10100000352E+00 0. -1.
       -3    1    3    3    0  502 -0.13942438566E+04 -0.37013454216E+03  0.25630008736E+03  0.14651297744E+04  0.10100000352E+00 0.  1.
</event>
<event>
 5   0  0.3592331E-06  0.2793038E+04  0.7818609E-02  0.8305433E-01
        1   -1    0    0  501    0  0.00000000000E+00  0.00000000000E+00  0.21462215465E+04  0.21462215465E+04  0.50400001928E-02 0.  1.
       -1   -1    0    0    0  501  0.00000000000E+00  0.00000000000E+00 -0.90869722320E+03  0.90869722322E+03  0.50400001928E-02 0. -1.
    10030    2    1    2    0    0  0.00000000000E+00  0.00000000000E+00  0.12375243233E+04  0.30549187697E+04  0.27930381735E+04 0.  0.
        3    1    3    3  502    0  0.10212314406E+04  0.90760841073E+03  0.30251765448E+03  0.13993511439E+04  0.10100000352E+00 0.  1.
       -3    1    3    3    0  502 -0.10212314406E+04 -0.90760841073E+03  0.93500666882E+03  0.16555676258E+04  0.10100000352E+00 0. -1.
</event>
<event>
 5   0  0.1029922E-05  0.3094298E+04  0.7818609E-02  0.8217305E-01
       -2   -1    0    0    0  501  0.00000000000E+00  0.00000000000E+00  0.86356132819E+03  0.86356132820E+03  0.25500000920E-02 0.  1.
        2   -1    0    0  501    0  0.00000000000E+00  0.00000000000E+00 -0.27718580321E+04  0.27718580321E+04  0.25500000920E-02 0. -1.
    10030    2    1    2    0    0  0.00000000000E+00  0.00000000000E+00 -0.19082967039E+04  0.36354193603E+04  0.30942975964E+04 0.  0.
        1    1    3    3  502    0 -0.50514409825E+03  0.49953732117E+03 -0.25688934207E+04  0.26653182741E+04  0.50400001928E-02 0. -1.
       -1    1    3    3    0  502  0.50514409825E+03 -0.49953732117E+03  0.66059671678E+03  0.97010108622E+03  0.50400001928E-02 0.  1.
</event>
<event>
 5   0  0.3636718E-06  0.2824335E+04  0.7818609E-02  0.8295753E-01
       -1   -1    0    0    0  501  0.00000000000E+00  0.00000000000E+00  0.92122448157E+03  0.92122448159E+03  0.50400001928E-02 0. -1.
        1   -1    0    0  501    0  0.00000000000E+00  0.00000000000E+00 -0.21647461081E+04  0.21647461081E+04  0.50400001928E-02 0.  1.
    10030    2    1    2    0    0  0.00000000000E+00  0.00000000000E+00 -0.12435216265E+04  0.30859705897E+04  0.28243350447E+04 0.  0.
        4    1    3    3  502    0 -0.72826881643E+03  0.55902998186E+03  0.55063600573E+03  0.10705566838E+04  0.12699999809E+01 0. -1.
       -4    1    3    3    0  502  0.72826881643E+03 -0.55902998186E+03 -0.17941576323E+04  0.20154139059E+04  0.12699999809E+01 0.  1.
</event>
<event>
 5   0  0.3852126E-06  0.3000528E+04  0.7818609E-02  0.8243580E-01
        1   -1    0    0  501    0  0.00000000000E+00  0.00000000000E+00  0.18241658839E+04  0.18241658839E+04  0.50400001928E-02 0. -1.
       -1   -1    0    0    0  501  0.00000000000E+00  0.00000000000E+00 -0.12338744604E+04  0.12338744604E+04  0.50400001928E-02 0.  1.
    10030    2    1    2    0    0  0.00000000000E+00  0.00000000000E+00  0.59029142351E+03  0.30580403443E+04  0.30005277507E+04 0.  0.
        1    1    3    3  502    0  0.22333179405E+03 -0.59745266982E+03 -0.10888090346E+04  0.12618763397E+04  0.50400001928E-02 0.  1.
       -1    1    3    3    0  502 -0.22333179405E+03  0.59745266982E+03  0.16791004581E+04  0.17961640046E+04  0.50400001928E-02 0. -1.
</event>
<event>
 5   0  0.9647945E-06  0.2752547E+04  0.7818609E-02  0.8318154E-01
        2   -1    0    0  501    0  0.00000000000E+00  0.00000000000E+00  0.11332286546E+04  0.11332286546E+04  0.25500000920E-02 0. -1.
       -2   -1    0    0    0  501  0.00000000000E+00  0.00000000000E+00 -0.16714440707E+04  0.16714440707E+04  0.25500000920E-02 0.  1.
    10030    2    1    2    0    0  0.00000000000E+00  0.00000000000E+00 -0.53821541603E+03  0.28046727253E+04  0.27525466866E+04 0.  0.
        2    1    3    3  502    0  0.86308492370E+03  0.40320633076E+03 -0.12812143639E+04  0.15965591680E+04  0.25500000920E-02 0.  1.
       -2    1    3    3    0  502 -0.86308492370E+03 -0.40320633076E+03  0.74299894790E+03  0.12081135573E+04  0.25500000920E-02 0. -1.
</event>
<event>
 5   0  0.3592331E-06  0.2642839E+04  0.7818609E-02  0.8353794E-01
        1   -1    0    0  501    0  0.00000000000E+00  0.00000000000E+00  0.13945219683E+04  0.13945219683E+04  0.50400001928E-02 0.  1.
       -1   -1    0    0    0  501  0.00000000000E+00  0.00000000000E+00 -0.12521496197E+04  0.12521496197E+04  0.50400001928E-02 0. -1.
    10030    2    1    2    0    0  0.00000000000E+00  0.00000000000E+00  0.14237234862E+03  0.26466715881E+04  0.26428394975E+04 0.  0.
        3    1    3    3  502    0 -0.96555271804E+02  0.13172052449E+04  0.28727003119E+02  0.13210517887E+04  0.10100000352E+00 0. -1.
       -3    1    3    3    0  502  0.96555271804E+02 -0.13172052449E+04  0.11364534550E+03  0.13256197993E+04  0.10100000352E+00 0.  1.
</event>
<event>
 5   0  0.1028450E-05  0.2189527E+04  0.7818609E-02  0.8522800E-01
       -2   -1    0    0    0  501  0.00000000000E+00  0.00000000000E+00  0.48501727668E+03  0.48501727668E+03  0.25500000920E-02 0. -1.
        2   -1    0    0  501    0  0.00000000000E+00  0.00000000000E+00 -0.24710617047E+04  0.24710617047E+04  0.25500000920E-02 0.  1.
    10030    2    1    2    0    0  0.00000000000E+00  0.00000000000E+00 -0.19860444280E+04  0.29560789814E+04  0.21895274545E+04 0.  0.
        3    1    3    3  502    0  0.49052849933E+03 -0.44392691887E+03 -0.21706447568E+04  0.22692262973E+04  0.10100000352E+00 0.  1.
       -3    1    3    3    0  502 -0.49052849933E+03  0.44392691887E+03  0.18460032882E+03  0.68685268403E+03  0.10100000352E+00 0. -1.
</event>
<event>
 5   0  0.3852126E-06  0.2028611E+04  0.7818609E-02  0.8593360E-01
        1   -1    0    0  501    0  0.00000000000E+00  0.00000000000E+00  0.10388332247E+04  0.10388332247E+04  0.50400001928E-02 0. -1.
       -1   -1    0    0    0  501  0.00000000000E+00  0.00000000000E+00 -0.99035733273E+03  0.99035733274E+03  0.50400001928E-02 0.  1.
    10030    2    1    2    0    0  0.00000000000E+00  0.00000000000E+00  0.48475891993E+02  0.20291905575E+04  0.20286114479E+04 0.  0.
        1    1    3    3  502    0  0.19093514197E+02  0.96302709437E+03  0.34218140875E+03  0.10221907177E+04  0.50400001928E-02 0.  1.
       -1    1    3    3    0  502 -0.19093514197E+02 -0.96302709437E+03 -0.29370551675E+03  0.10069998398E+04  0.50400001928E-02 0. -1.
</event>
<event>
 5   0  0.9647945E-06  0.2915913E+04  0.7818609E-02  0.8268159E-01
       -2   -1    0    0    0  501  0.00000000000E+00  0.00000000000E+00  0.10598716651E+04  0.10598716651E+04  0.25500000920E-02 0. -1.
        2   -1    0    0  501    0  0.00000000000E+00  0.00000000000E+00 -0.20055610523E+04  0.20055610523E+04  0.25500000920E-02 0.  1.
    10030    2    1    2    0    0  0.00000000000E+00  0.00000000000E+00 -0.94568938727E+03  0.30654327174E+04  0.29159131207E+04 0.  0.
        2    1    3    3  502    0 -0.77701525431E+02  0.38543882907E+02  0.10571569291E+04  0.10607091641E+04  0.25500000920E-02 0. -1.
       -2    1    3    3    0  502  0.77701525431E+02 -0.38543882907E+02 -0.20028463164E+04  0.20047235533E+04  0.25500000920E-02 0.  1.
</event>
<event>
 5   0  0.3725232E-06  0.2996937E+04  0.7818609E-02  0.8244606E-01
        1   -1    0    0  501    0  0.00000000000E+00  0.00000000000E+00  0.15588199394E+04  0.15588199394E+04  0.50400001928E-02 0. -1.
       -1   -1    0    0    0  501  0.00000000000E+00  0.00000000000E+00 -0.14404539966E+04  0.14404539966E+04  0.50400001928E-02 0.  1.
    10030    2    1    2    0    0  0.00000000000E+00  0.00000000000E+00  0.11836594277E+03  0.29992739360E+04  0.29969373778E+04 0.  0.
        2    1    3    3  502    0  0.73980486917E+03  0.31554067788E+03  0.13244990603E+04  0.15495724974E+04  0.25500000920E-02 0. -1.
       -2    1    3    3    0  502 -0.73980486917E+03 -0.31554067788E+03 -0.12061331175E+04  0.14497014386E+04  0.25500000920E-02 0.  1.
</event>
<event>
 5   0  0.1028450E-05  0.2973071E+04  0.7818609E-02  0.8251463E-01
       -2   -1    0    0    0  501  0.00000000000E+00  0.00000000000E+00  0.14679874211E+04  0.14679874211E+04  0.25500000920E-02 0. -1.
        2   -1    0    0  501    0  0.00000000000E+00  0.00000000000E+00 -0.15053181845E+04  0.15053181845E+04  0.25500000920E-02 0.  1.
    10030    2    1    2    0    0  0.00000000000E+00  0.00000000000E+00 -0.37330763469E+02  0.29733056056E+04  0.29730712468E+04 0.  0.
        3    1    3    3  502    0 -0.65848270055E+03  0.13039855941E+04 -0.29402370314E+03  0.14901100109E+04  0.10100000352E+00 0.  1.
       -3    1    3    3    0  502  0.65848270055E+03 -0.13039855941E+04  0.25669293967E+03  0.14831955947E+04  0.10100000352E+00 0. -1.
</event>
<event>
 5   0  0.1089569E-05  0.3037561E+04  0.7818609E-02  0.8233086E-01
       -2   -1    0    0    0  501  0.00000000000E+00  0.00000000000E+00  0.16779849489E+04  0.16779849489E+04  0.25500000920E-02 0.  1.
        2   -1    0    0  501    0  0.00000000000E+00  0.00000000000E+00 -0.13746811081E+04  0.13746811081E+04  0.25500000920E-02 0. -1.
    10030    2    1    2    0    0  0.00000000000E+00  0.00000000000E+00  0.30330384080E+03  0.30526660571E+04  0.30375610012E+04 0.  0.
        5    1    3    3  502    0 -0.56694771106E+03  0.14025056034E+04  0.28730628472E+03  0.15398112436E+04  0.46999998093E+01 0. -1.
       -5    1    3    3    0  502  0.56694771106E+03 -0.14025056034E+04  0.15997556075E+02  0.15128548134E+04  0.46999998093E+01 0.  1.
</event>
<event>
 5   0  0.3725232E-06  0.3050512E+04  0.7818609E-02  0.8229452E-01
       -1   -1    0    0    0  501  0.00000000000E+00  0.00000000000E+00  0.12718394696E+04  0.12718394696E+04  0.50400001928E-02 0. -1.
        1   -1    0    0  501    0  0.00000000000E+00  0.00000000000E+00 -0.18291665570E+04  0.18291665571E+04  0.50400001928E-02 0.  1.
    10030    2    1    2    0    0  0.00000000000E+00  0.00000000000E+00 -0.55732708746E+03  0.31010060267E+04  0.30505122348E+04 0.  0.
        2    1    3    3  502    0  0.20844985055E+03 -0.96977574329E+03  0.89917388554E+03  0.13388166450E+04  0.25500000920E-02 0. -1.
       -2    1    3    3    0  502 -0.20844985055E+03  0.96977574329E+03 -0.14565009730E+04  0.17621893817E+04  0.25500000920E-02 0.  1.
</event>
<event>
 5   0  0.1028450E-05  0.2903585E+04  0.7818609E-02  0.8271812E-01
       -2   -1    0    0    0  501  0.00000000000E+00  0.00000000000E+00  0.87227446136E+03  0.87227446136E+03  0.25500000920E-02 0. -1.
        2   -1    0    0  501    0  0.00000000000E+00  0.00000000000E+00 -0.24163275112E+04  0.24163275112E+04  0.25500000920E-02 0.  1.
    10030    2    1    2    0    0  0.00000000000E+00  0.00000000000E+00 -0.15440530498E+04  0.32886019725E+04  0.29035845283E+04 0.  0.
        3    1    3    3  502    0 -0.80111131161E+03  0.45730226584E+02  0.59829407940E+03  0.10009127848E+04  0.10100000352E+00 0. -1.
       -3    1    3    3    0  502  0.80111131161E+03 -0.45730226584E+02 -0.21423471292E+04  0.22876891877E+04  0.10100000352E+00 0.  1.
</event>
<event>
 5   0  0.1029922E-05  0.2831367E+04  0.7818609E-02  0.8293596E-01
       -2   -1    0    0    0  501  0.00000000000E+00  0.00000000000E+00  0.10395334983E+04  0.10395334983E+04  0.25500000920E-02 0. -1.
        2   -1    0    0  501    0  0.00000000000E+00  0.00000000000E+00 -0.19279420940E+04  0.19279420940E+04  0.25500000920E-02 0.  1.
    10030    2    1    2    0    0  0.00000000000E+00  0.00000000000E+00 -0.88840859572E+03  0.29674755922E+04  0.28313674360E+04 0.  0.
        1    1    3    3  502    0  0.10066536505E+04  0.70978329199E+03  0.28720884230E+03  0.12647659123E+04  0.50400001928E-02 0. -1.
       -1    1    3    3    0  502 -0.10066536505E+04 -0.70978329199E+03 -0.11756174380E+04  0.17027096800E+04  0.50400001928E-02 0.  1.
</event>
<event>
 5   0  0.3896630E-06  0.2887000E+04  0.7818609E-02  0.8276756E-01
       -1   -1    0    0    0  501  0.00000000000E+00  0.00000000000E+00  0.18358375674E+04  0.18358375674E+04  0.50400001928E-02 0. -1.
        1   -1    0    0  501    0  0.00000000000E+00  0.00000000000E+00 -0.11350090507E+04  0.11350090507E+04  0.50400001928E-02 0.  1.
    10030    2    1    2    0    0  0.00000000000E+00  0.00000000000E+00  0.70082851666E+03  0.29708466181E+04  0.28870000032E+04 0.  0.
        5    1    3    3  502    0  0.51304222944E+02  0.48180832337E+03 -0.10488186602E+04  0.11553415321E+04  0.46999998093E+01 0.  1.
       -5    1    3    3    0  502 -0.51304222944E+02 -0.48180832337E+03  0.17496471769E+04  0.18155050860E+04  0.46999998093E+01 0. -1.
</event>
<event>
 5   0  0.1028450E-05  0.3000902E+04  0.7818609E-02  0.8243473E-01
        2   -1    0    0  501    0  0.00000000000E+00  0.00000000000E+00  0.17470939468E+04  0.17470939468E+04  0.25500000920E-02 0. -1.
       -2   -1    0    0    0  501  0.00000000000E+00  0.00000000000E+00 -0.12886273160E+04  0.12886273160E+04  0.25500000920E-02 0.  1.
    10030    2    1    2    0    0  0.00000000000E+00  0.00000000000E+00  0.45846663079E+03  0.30357212627E+04  0.30009018533E+04 0.  0.
        3    1    3    3  502    0  0.25742405746E+03  0.10508808400E+04  0.12808797817E+04  0.16766844398E+04  0.10100000352E+00 0. -1.
       -3    1    3    3    0  502 -0.25742405746E+03 -0.10508808400E+04 -0.82241315088E+03  0.13590368230E+04  0.10100000352E+00 0.  1.
</event>
<event>
 5   0  0.3636718E-06  0.3008177E+04  0.7818609E-02  0.8241400E-01
       -1   -1    0    0    0  501  0.00000000000E+00  0.00000000000E+00  0.92370707670E+03  0.92370707672E+03  0.50400001928E-02 0.  1.
        1   -1    0    0  501    0  0.00000000000E+00  0.00000000000E+00 -0.24491341730E+04  0.24491341731E+04  0.50400001928E-02 0. -1.
    10030    2    1    2    0    0  0.00000000000E+00  0.00000000000E+00 -0.15254270963E+04  0.33728412498E+04  0.30081772338E+04 0.  0.
        4    1    3    3  502    0 -0.99068658628E+03  0.11146572706E+04 -0.54311322391E+03  0.15871024951E+04  0.12699999809E+01 0.  1.
       -4    1    3    3    0  502  0.99068658628E+03 -0.11146572706E+04 -0.98231387243E+03  0.17857387547E+04  0.12699999809E+01 0. -1.
</event>
<event>
 5   0  0.3852126E-06  0.3002003E+04  0.7818609E-02  0.8243159E-01
        1   -1    0    0  501    0  0.00000000000E+00  0.00000000000E+00  0.23150499468E+04  0.23150499468E+04  0.50400001928E-02 0.  1.
       -1   -1    0    0    0  501  0.00000000000E+00  0.00000000000E+00 -0.97319982913E+03  0.97319982915E+03  0.50400001928E-02 0. -1.
    10030    2    1    2    0    0  0.00000000000E+00  0.00000000000E+00  0.13418501176E+04  0.32882497759E+04  0.30020034728E+04 0.  0.
        1    1    3    3  502    0 -0.99017447669E+03  0.32022352533E+03 -0.51388793511E+03  0.11606331937E+04  0.50400001928E-02 0. -1.
       -1    1    3    3    0  502  0.99017447669E+03 -0.32022352533E+03  0.18557380527E+04  0.21276165822E+04  0.50400001928E-02 0.  1.
</event>
<event>
 5   0  0.3592331E-06  0.2940341E+04  0.7818609E-02  0.8260975E-01
       -1   -1    0    0    0  501  0.00000000000E+00  0.00000000000E+00  0.17504004986E+04  0.17504004986E+04  0.50400001928E-02 0.  1.
        1   -1    0    0  501    0  0.00000000000E+00  0.00000000000E+00 -0.12348040758E+04  0.12348040758E+04  0.50400001928E-02 0. -1.
    10030    2    1    2    0    0  0.00000000000E+00  0.00000000000E+00  0.51559642274E+03  0.29852045744E+04  0.29403412523E+04 0.  0.
        3    1    3    3  502    0 -0.11988015199E+04  0.83816015312E+03  0.10802054808E+03  0.14667330962E+04  0.10100000352E+00 0.  1.
       -3    1    3    3    0  502  0.11988015199E+04 -0.83816015312E+03  0.40757587466E+03  0.15184714782E+04  0.10100000352E+00 0. -1.
</event>
<event>
 5   0  0.1057036E-05  0.2736277E+04  0.7818609E-02  0.8323330E-01
       -2   -1    0    0    0  501  0.00000000000E+00  0.00000000000E+00  0.97462187505E+03  0.97462187505E+03  0.25500000920E-02 0.  1.
        2   -1    0    0  501    0  0.00000000000E+00  0.00000000000E+00 -0.19205420935E+04  0.19205420935E+04  0.25500000920E-02 0. -1.
    10030    2    1    2    0    0  0.00000000000E+00  0.00000000000E+00 -0.94592021845E+03  0.28951639686E+04  0.27362765476E+04 0.  0.
        4    1    3    3  502    0 -0.33771462305E+03 -0.90200945672E+03  0.55512419803E+03  0.11116819306E+04  0.12699999809E+01 0. -1.
       -4    1    3    3    0  502  0.33771462305E+03  0.90200945672E+03 -0.15010444165E+04  0.17834820380E+04  0.12699999809E+01 0.  1.
</event>
<event>
 5   0  0.1057036E-05  0.3050037E+04  0.7818609E-02  0.8229585E-01
       -2   -1    0    0    0  501  0.00000000000E+00  0.00000000000E+00  0.32358711697E+04  0.32358711697E+04  0.25500000920E-02 0. -1.
        2   -1    0    0  501    0  0.00000000000E+00  0.00000000000E+00 -0.71871875154E+03  0.71871875155E+03  0.25500000920E-02 0.  1.
    10030    2    1    2    0    0  0.00000000000E+00  0.00000000000E+00  0.25171524182E+04  0.39545899213E+04  0.30500369095E+04 0.  0.
        4    1    3    3  502    0  0.89022162814E+03  0.91186584271E+03  0.23446709429E+04  0.26686096203E+04  0.12699999809E+01 0. -1.
       -4    1    3    3    0  502 -0.89022162814E+03 -0.91186584271E+03  0.17248147532E+03  0.12859803010E+04  0.12699999809E+01 0.  1.
</event>
<event>
 5   0  0.3725232E-06  0.2991058E+04  0.7818609E-02  0.8246289E-01
        1   -1    0    0  501    0  0.00000000000E+00  0.00000000000E+00  0.16476814155E+04  0.16476814155E+04  0.50400001928E-02 0. -1.
       -1   -1    0    0    0  501  0.00000000000E+00  0.00000000000E+00 -0.13574267204E+04  0.13574267204E+04  0.50400001928E-02 0.  1.
    10030    2    1    2    0    0  0.00000000000E+00  0.00000000000E+00  0.29025469509E+03  0.30051081358E+04  0.29910578597E+04 0.  0.
        2    1    3    3  502    0 -0.62231342306E+03  0.38791526302E+03 -0.11643964244E+04  0.13760709578E+04  0.25500000920E-02 0.  1.
       -2    1    3    3    0  502  0.62231342306E+03 -0.38791526302E+03  0.14546511195E+04  0.16290371780E+04  0.25500000920E-02 0. -1.
</event>
<event>
 5   0  0.3896630E-06  0.3175554E+04  0.7818609E-02  0.8195303E-01
        1   -1    0    0  501    0  0.00000000000E+00  0.00000000000E+00  0.27670478315E+04  0.27670478315E+04  0.50400001928E-02 0. -1.
       -1   -1    0    0    0  501  0.00000000000E+00  0.00000000000E+00 -0.91109197582E+03  0.91109197583E+03  0.50400001928E-02 0.  1.
    10030    2    1    2    0    0  0.00000000000E+00  0.00000000000E+00  0.18559558557E+04  0.36781398074E+04  0.31755535429E+04 0.  0.
        5    1    3    3  502    0  0.10079832494E+04 -0.59180497845E+03  0.21726435877E+04  0.24671168624E+04  0.46999998093E+01 0. -1.
       -5    1    3    3    0  502 -0.10079832494E+04  0.59180497845E+03 -0.31668773198E+03  0.12110229450E+04  0.46999998093E+01 0.  1.
</event>
<event>
 5   0  0.3896630E-06  0.2958496E+04  0.7818609E-02  0.8255683E-01
       -1   -1    0    0    0  501  0.00000000000E+00  0.00000000000E+00  0.18052110176E+04  0.18052110176E+04  0.50400001928E-02 0.  1.
        1   -1    0    0  501    0  0.00000000000E+00  0.00000000000E+00 -0.12121436363E+04  0.12121436363E+04  0.50400001928E-02 0. -1.
    10030    2    1    2    0    0  0.00000000000E+00  0.00000000000E+00  0.59306738125E+03  0.30173546539E+04  0.29584962716E+04 0.  0.
        5    1    3    3  502    0  0.26778961453E+03 -0.81679899703E+03 -0.93127766022E+03  0.12673484326E+04  0.46999998093E+01 0. -1.
       -5    1    3    3    0  502 -0.26778961453E+03  0.81679899703E+03  0.15243450415E+04  0.17500062213E+04  0.46999998093E+01 0.  1.
</event>
<event>
 5   0  0.9647945E-06  0.3002971E+04  0.7818609E-02  0.8242883E-01
       -2   -1    0    0    0  501  0.00000000000E+00  0.00000000000E+00  0.94519530689E+03  0.94519530689E+03  0.25500000920E-02 0. -1.
        2   -1    0    0  501    0  0.00000000000E+00  0.00000000000E+00 -0.23851769135E+04  0.23851769135E+04  0.25500000920E-02 0.  1.
    10030    2    1    2    0    0  0.00000000000E+00  0.00000000000E+00 -0.14399816066E+04  0.33303722204E+04  0.30029705458E+04 0.  0.
        2    1    3    3  502    0 -0.18311496521E+03 -0.12937372996E+04 -0.15403482658E+04  0.20198911037E+04  0.25500000920E-02 0.  1.
       -2    1    3    3    0  502  0.18311496521E+03  0.12937372996E+04  0.10036665921E+03  0.13104811167E+04  0.25500000920E-02 0. -1.
</event>
<event>
 5   0  0.1028450E-05  0.2999807E+04  0.7818609E-02  0.8243786E-01
       -2   -1    0    0    0  501  0.00000000000E+00  0.00000000000E+00  0.14630005563E+04  0.14630005563E+04  0.25500000920E-02 0. -1.
        2   -1    0    0  501    0  0.00000000000E+00  0.00000000000E+00 -0.15377373914E+04  0.15377373914E+04  0.25500000920E-02 0.  1.
    10030    2    1    2    0    0  0.00000000000E+00  0.00000000000E+00 -0.74736835151E+02  0.30007379477E+04  0.29998070999E+04 0.  0.
        3    1    3    3  502    0 -0.12243561444E+04  0.25933441698E+03 -0.86431009217E+03  0.15209649088E+04  0.10100000352E+00 0.  1.
       -3    1    3    3    0  502  0.12243561444E+04 -0.25933441698E+03  0.78957325702E+03  0.14797730389E+04  0.10100000352E+00 0. -1.
</event>
<event>
 5   0  0.1029922E-05  0.3378412E+04  0.7818609E-02  0.8143225E-01
       -2   -1    0    0    0  501  0.00000000000E+00  0.00000000000E+00  0.16349320243E+04  0.16349320243E+04  0.25500000920E-02 0. -1.
        2   -1    0    0  501    0  0.00000000000E+00  0.00000000000E+00 -0.17452812179E+04  0.17452812179E+04  0.25500000920E-02 0.  1.
    10030    2    1    2    0    0  0.00000000000E+00  0.00000000000E+00 -0.11034919357E+03  0.33802132422E+04  0.33784115526E+04 0.  0.
        1    1    3    3  502    0  0.14051146811E+04 -0.96815032182E+01  0.88286213593E+03  0.16594838203E+04  0.50400001928E-02 0. -1.
       -1    1    3    3    0  502 -0.14051146811E+04  0.96815032182E+01 -0.99321132950E+03  0.17207294220E+04  0.50400001928E-02 0.  1.
</event>
<event>
 5   0  0.9647945E-06  0.2997821E+04  0.7818609E-02  0.8244353E-01
       -2   -1    0    0    0  501  0.00000000000E+00  0.00000000000E+00  0.18696035465E+04  0.18696035465E+04  0.25500000920E-02 0.  1.
        2   -1    0    0  501    0  0.00000000000E+00  0.00000000000E+00 -0.12017159699E+04  0.12017159699E+04  0.25500000920E-02 0. -1.
    10030    2    1    2    0    0  0.00000000000E+00  0.00000000000E+00  0.66788757654E+03  0.30713195164E+04  0.29978208347E+04 0.  0.
        2    1    3    3  502    0 -0.48146878596E+03  0.69432837825E+03  0.16023725701E+04  0.18114916346E+04  0.25500000920E-02 0.  1.
       -2    1    3    3    0  502  0.48146878596E+03 -0.69432837825E+03 -0.93448499356E+03  0.12598278819E+04  0.25500000920E-02 0. -1.
</event>
<event>
 5   0  0.1028450E-05  0.2961665E+04  0.7818609E-02  0.8254763E-01
        2   -1    0    0  501    0  0.00000000000E+00  0.00000000000E+00  0.12164018610E+04  0.12164018610E+04  0.25500000920E-02 0. -1.
       -2   -1    0    0    0  501  0.00000000000E+00  0.00000000000E+00 -0.18027467179E+04  0.18027467179E+04  0.25500000920E-02 0.  1.
    10030    2    1    2    0    0  0.00000000000E+00  0.00000000000E+00 -0.58634485693E+03  0.30191485789E+04  0.29616647092E+04 0.  0.
        3    1    3    3  502    0  0.26022199896E+03  0.71368739047E+03  0.10026404737E+04  0.12579161776E+04  0.10100000352E+00 0. -1.
       -3    1    3    3    0  502 -0.26022199896E+03 -0.71368739047E+03 -0.15889853307E+04  0.17612324013E+04  0.10100000352E+00 0.  1.
</event>
<event>
 5   0  0.3896630E-06  0.2991642E+04  0.7818609E-02  0.8246122E-01
       -1   -1    0    0    0  501  0.00000000000E+00  0.00000000000E+00  0.10817917849E+04  0.10817917849E+04  0.50400001928E-02 0.  1.
        1   -1    0    0  501    0  0.00000000000E+00  0.00000000000E+00 -0.20683091056E+04  0.20683091056E+04  0.50400001928E-02 0. -1.
    10030    2    1    2    0    0  0.00000000000E+00  0.00000000000E+00 -0.98651732069E+03  0.31501008904E+04  0.29916415554E+04 0.  0.
        5    1    3    3  502    0  0.80499137954E+03  0.55717251907E+03  0.69757496863E+03  0.12021169926E+04  0.46999998093E+01 0.  1.
       -5    1    3    3    0  502 -0.80499137954E+03 -0.55717251907E+03 -0.16840922893E+04  0.19479838978E+04  0.46999998093E+01 0. -1.
</event>
<event>
 5   0  0.1089569E-05  0.2925485E+04  0.7818609E-02  0.8265335E-01
       -2   -1    0    0    0  501  0.00000000000E+00  0.00000000000E+00  0.10107311068E+04  0.10107311068E+04  0.25500000920E-02 0. -1.
        2   -1    0    0  501    0  0.00000000000E+00  0.00000000000E+00 -0.21168992404E+04  0.21168992404E+04  0.25500000920E-02 0.  1.
    10030    2    1    2    0    0  0.00000000000E+00  0.00000000000E+00 -0.11061681336E+04  0.31276303472E+04  0.29254851989E+04 0.  0.
        5    1    3    3  502    0 -0.13796082430E+04  0.12678382645E+01 -0.33417416813E+02  0.13800214945E+04  0.46999998093E+01 0. -1.
       -5    1    3    3    0  502  0.13796082430E+04 -0.12678382645E+01 -0.10727507168E+04  0.17476088527E+04  0.46999998093E+01 0.  1.
</event>
<event>
 5   0  0.3896630E-06  0.2936086E+04  0.7818609E-02  0.8262221E-01
        1   -1    0    0  501    0  0.00000000000E+00  0.00000000000E+00  0.20969908307E+04  0.20969908307E+04  0.50400001928E-02 0.  1.
       -1   -1    0    0    0  501  0.00000000000E+00  0.00000000000E+00 -0.10277347241E+04  0.10277347241E+04  0.50400001928E-02 0. -1.
    10030    2    1    2    0    0  0.00000000000E+00  0.00000000000E+00  0.10692561066E+04  0.31247255547E+04  0.29360860292E+04 0.  0.
        5    1    3    3  502    0 -0.65978024463E+03  0.59749788942E+03 -0.70777204217E+03  0.11372233961E+04  0.46999998093E+01 0. -1.
       -5    1    3    3    0  502  0.65978024463E+03 -0.59749788942E+03  0.17770281487E+04  0.19875021586E+04  0.46999998093E+01 0.  1.
</event>
<event>
 5   0  0.3592331E-06  0.2853408E+04  0.7818609E-02  0.8286876E-01
       -1   -1    0    0    0  501  0.00000000000E+00  0.00000000000E+00  0.83696379230E+03  0.83696379232E+03  0.50400001928E-02 0. -1.
        1   -1    0    0  501    0  0.00000000000E+00  0.00000000000E+00 -0.24319864964E+04  0.24319864965E+04  0.50400001928E-02 0.  1.
    10030    2    1    2    0    0  0.00000000000E+00  0.00000000000E+00 -0.15950227041E+04  0.32689502888E+04  0.28534082364E+04 0.  0.
        3    1    3    3  502    0 -0.10687102120E+04 -0.20874993103E+02  0.28503775039E+03  0.11062657058E+04  0.10100000352E+00 0.  1.
       -3    1    3    3    0  502  0.10687102120E+04  0.20874993103E+02 -0.18800604545E+04  0.21626845830E+04  0.10100000352E+00 0. -1.
</event>
<event>
 5   0  0.1028450E-05  0.2911518E+04  0.7818609E-02  0.8269459E-01
       -2   -1    0    0    0  501  0.00000000000E+00  0.00000000000E+00  0.11563025916E+04  0.11563025916E+04  0.25500000920E-02 0. -1.
        2   -1    0    0  501    0  0.00000000000E+00  0.00000000000E+00 -0.18327682611E+04  0.18327682611E+04  0.25500000920E-02 0.  1.
    10030    2    1    2    0    0  0.00000000000E+00  0.00000000000E+00 -0.67646566946E+03  0.29890708527E+04  0.29115182913E+04 0.  0.
        3    1    3    3  502    0 -0.50869959851E+03 -0.77412589010E+03  0.81470711691E+03  0.12336100972E+04  0.10100000352E+00 0. -1.
       -3    1    3    3    0  502  0.50869959851E+03  0.77412589010E+03 -0.14911727864E+04  0.17554607555E+04  0.10100000352E+00 0.  1.
</event>
<event>
 5   0  0.3852126E-06  0.3002801E+04  0.7818609E-02  0.8242932E-01
       -1   -1    0    0    0  501  0.00000000000E+00  0.00000000000E+00  0.26630843287E+04  0.26630843287E+04  0.50400001928E-02 0.  1.
        1   -1    0    0  501    0  0.00000000000E+00  0.00000000000E+00 -0.84646327177E+03  0.84646327178E+03  0.50400001928E-02 0. -1.
    10030    2    1    2    0    0  0.00000000000E+00  0.00000000000E+00  0.18166210570E+04  0.35095476005E+04  0.30028007419E+04 0.  0.
        1    1    3    3  502    0 -0.85800238744E+03  0.40324907185E+03  0.22690105594E+04  0.24591028505E+04  0.50400001928E-02 0.  1.
       -1    1    3    3    0  502  0.85800238744E+03 -0.40324907185E+03 -0.45238950244E+03  0.10504447500E+04  0.50400001928E-02 0. -1.
</event>
<event>
 5   0  0.3592331E-06  0.2961455E+04  0.7818609E-02  0.8254824E-01
       -1   -1    0    0    0  501  0.00000000000E+00  0.00000000000E+00  0.13962419687E+04  0.13962419687E+04  0.50400001928E-02 0. -1.
        1   -1    0    0  501    0  0.00000000000E+00  0.00000000000E+00 -0.15703252381E+04  0.15703252381E+04  0.50400001928E-02 0.  1.
    10030    2    1    2    0    0  0.00000000000E+00  0.00000000000E+00 -0.17408326942E+03  0.29665672069E+04  0.29614550491E+04 0.  0.
        3    1    3    3  502    0  0.43674670983E+03  0.11887131424E+04 -0.85567797309E+03  0.15283885067E+04  0.10100000352E+00 0.  1.
       -3    1    3    3    0  502 -0.43674670983E+03 -0.11887131424E+04  0.68159470366E+03  0.14381787002E+04  0.10100000352E+00 0. -1.
</event>
<event>
 5   0  0.3636718E-06  0.3107075E+04  0.7818609E-02  0.8213799E-01
       -1   -1    0    0    0  501  0.00000000000E+00  0.00000000000E+00  0.13996705061E+04  0.13996705062E+04  0.50400001928E-02 0. -1.
        1   -1    0    0  501    0  0.00000000000E+00  0.00000000000E+00 -0.17243193447E+04  0.17243193447E+04  0.50400001928E-02 0.  1.
    10030    2    1    2    0    0  0.00000000000E+00  0.00000000000E+00 -0.32464883859E+03  0.31239898509E+04  0.31070751069E+04 0.  0.
        4    1    3    3  502    0 -0.15439844853E+04 -0.13182689515E+03 -0.27342891392E+03  0.15735410401E+04  0.12699999809E+01 0. -1.
       -4    1    3    3    0  502  0.15439844853E+04  0.13182689515E+03 -0.51219924677E+02  0.15504488107E+04  0.12699999809E+01 0.  1.
</event>
<event>
 5   0  0.3896630E-06  0.3430907E+04  0.7818609E-02  0.8130362E-01
       -1   -1    0    0    0  501  0.00000000000E+00  0.00000000000E+00  0.24016022527E+04  0.24016022527E+04  0.50400001928E-02 0. -1.
        1   -1    0    0  501    0  0.00000000000E+00  0.00000000000E+00 -0.12253407836E+04  0.12253407836E+04  0.50400001928E-02 0.  1.
    10030    2    1    2    0    0  0.00000000000E+00  0.00000000000E+00  0.11762614691E+04  0.36269430363E+04  0.34309072772E+04 0.  0.
        5    1    3    3  502    0  0.23019476041E+03 -0.46209695344E+03 -0.11412632644E+04  0.12526081394E+04  0.46999998093E+01 0.  1.
       -5    1    3    3    0  502 -0.23019476041E+03  0.46209695344E+03  0.23175247335E+04  0.23743348969E+04  0.46999998093E+01 0. -1.
</event>
<event>
 5   0  0.1057036E-05  0.3010599E+04  0.7818609E-02  0.8240711E-01
        2   -1    0    0  501    0  0.00000000000E+00  0.00000000000E+00  0.70106399740E+03  0.70106399740E+03  0.25500000920E-02 0. -1.
       -2   -1    0    0    0  501  0.00000000000E+00  0.00000000000E+00 -0.32321250703E+04  0.32321250703E+04  0.25500000920E-02 0.  1.
    10030    2    1    2    0    0  0.00000000000E+00  0.00000000000E+00 -0.25310610729E+04  0.39331890677E+04  0.30105989583E+04 0.  0.
        4    1    3    3  502    0  0.49426161637E+03  0.93755625977E+03 -0.26620357632E+04  0.28652647876E+04  0.12699999809E+01 0.  1.
       -4    1    3    3    0  502 -0.49426161637E+03 -0.93755625977E+03  0.13097469029E+03  0.10679242801E+04  0.12699999809E+01 0. -1.
</event>
<event>
 5   0  0.1029922E-05  0.3022717E+04  0.7818609E-02  0.8237274E-01
        2   -1    0    0  501    0  0.00000000000E+00  0.00000000000E+00  0.15949279296E+04  0.15949279296E+04  0.25500000920E-02 0.  1.
       -2   -1    0    0    0  501  0.00000000000E+00  0.00000000000E+00 -0.14321674726E+04  0.14321674726E+04  0.25500000920E-02 0. -1.
    10030    2    1    2    0    0  0.00000000000E+00  0.00000000000E+00  0.16276045700E+03  0.30270954022E+04  0.30227165940E+04 0.  0.
        1    1    3    3  502    0  0.39503685685E+02 -0.93860009783E+03  0.12670181074E+04  0.15772969186E+04  0.50400001928E-02 0.  1.
       -1    1    3    3    0  502 -0.39503685685E+02  0.93860009783E+03 -0.11042576504E+04  0.14497984837E+04  0.50400001928E-02 0. -1.
</event>
<event>
 5   0  0.3636718E-06  0.3065431E+04  0.7818609E-02  0.8225290E-01
        1   -1    0    0  501    0  0.00000000000E+00  0.00000000000E+00  0.96887937515E+03  0.96887937516E+03  0.50400001928E-02 0.  1.
       -1   -1    0    0    0  501  0.00000000000E+00  0.00000000000E+00 -0.24246743511E+04  0.24246743511E+04  0.50400001928E-02 0. -1.
    10030    2    1    2    0    0  0.00000000000E+00  0.00000000000E+00 -0.14557949759E+04  0.33935537262E+04  0.30654311085E+04 0.  0.
        4    1    3    3  502    0 -0.19105028749E+03 -0.16049888027E+03  0.94624339696E+03  0.97858994584E+03  0.12699999809E+01 0.  1.
       -4    1    3    3    0  502  0.19105028749E+03  0.16049888027E+03 -0.24020383729E+04  0.24149637804E+04  0.12699999809E+01 0. -1.
</event>
<event>
 5   0  0.9647945E-06  0.2705669E+04  0.7818609E-02  0.8333168E-01
       -2   -1    0    0    0  501  0.00000000000E+00  0.00000000000E+00  0.98157211451E+03  0.98157211452E+03  0.25500000920E-02 0. -1.
        2   -1    0    0  501    0  0.00000000000E+00  0.00000000000E+00 -0.18645197121E+04  0.18645197121E+04  0.25500000920E-02 0.  1.
    10030    2    1    2    0    0  0.00000000000E+00  0.00000000000E+00 -0.88294759759E+03  0.28460918266E+04  0.27056685358E+04 0.  0.
        2    1    3    3  502    0  0.66707036015E+03 -0.83469805085E+03  0.43132206829E+03  0.11522770622E+04  0.25500000920E-02 0. -1.
       -2    1    3    3    0  502 -0.66707036015E+03  0.83469805085E+03 -0.13142696659E+04  0.16938147644E+04  0.25500000920E-02 0.  1.
</event>
<event>
 5   0  0.3896630E-06  0.2976100E+04  0.7818609E-02  0.8250589E-01
        1   -1    0    0  501    0  0.00000000000E+00  0.00000000000E+00  0.20712086084E+04  0.20712086084E+04  0.50400001928E-02 0. -1.
       -1   -1    0    0    0  501  0.00000000000E+00  0.00000000000E+00 -0.10690824556E+04  0.10690824556E+04  0.50400001928E-02 0.  1.
    10030    2    1    2    0    0  0.00000000000E+00  0.00000000000E+00  0.10021261528E+04  0.31402910640E+04  0.29760999884E+04 0.  0.
        5    1    3    3  502    0  0.78087389630E+03 -0.11917898729E+04  0.95385705554E+03  0.17146406374E+04  0.46999998093E+01 0. -1.
       -5    1    3    3    0  502 -0.78087389630E+03  0.11917898729E+04  0.48269097220E+02  0.14256504266E+04  0.46999998093E+01 0.  1.
</event>
<event>
 5   0  0.9647945E-06  0.2487508E+04  0.7818609E-02  0.8407449E-01
       -2   -1    0    0    0  501  0.00000000000E+00  0.00000000000E+00  0.92349063814E+03  0.92349063815E+03  0.25500000920E-02 0. -1.
        2   -1    0    0  501    0  0.00000000000E+00  0.00000000000E+00 -0.16750834374E+04  0.16750834374E+04  0.25500000920E-02 0.  1.
    10030    2    1    2    0    0  0.00000000000E+00  0.00000000000E+00 -0.75159279928E+03  0.25985740756E+04  0.24875078875E+04 0.  0.
        2    1    3    3  502    0  0.11176178333E+04  0.12810595885E+03  0.17840286998E+03  0.11389944433E+04  0.25500000920E-02 0. -1.
       -2    1    3    3    0  502 -0.11176178333E+04 -0.12810595885E+03 -0.92999566926E+03  0.14595796322E+04  0.25500000920E-02 0.  1.
</event>
<event>
 5   0  0.3636718E-06  0.3007299E+04  0.7818609E-02  0.8241650E-01
       -1   -1    0    0    0  501  0.00000000000E+00  0.00000000000E+00  0.11760445394E+04  0.11760445395E+04  0.50400001928E-02 0.  1.
        1   -1    0    0  501    0  0.00000000000E+00  0.00000000000E+00 -0.19225135947E+04  0.19225135947E+04  0.50400001928E-02 0. -1.
    10030    2    1    2    0    0  0.00000000000E+00  0.00000000000E+00 -0.74646905522E+03  0.30985581341E+04  0.30072988645E+04 0.  0.
        4    1    3    3  502    0  0.31002911099E+02  0.35967720765E+03 -0.18771976667E+04  0.19115966015E+04  0.12699999809E+01 0. -1.
       -4    1    3    3    0  502 -0.31002911099E+02 -0.35967720765E+03  0.11307286115E+04  0.11869615326E+04  0.12699999809E+01 0.  1.
</event>
<event>
 5   0  0.3636718E-06  0.2959001E+04  0.7818609E-02  0.8255536E-01
        1   -1    0    0  501    0  0.00000000000E+00  0.00000000000E+00  0.23985254524E+04  0.23985254524E+04  0.50400001928E-02 0.  1.
       -1   -1    0    0    0  501  0.00000000000E+00  0.00000000000E+00 -0.91261139330E+03  0.91261139331E+03  0.50400001928E-02 0. -1.
    10030    2    1    2    0    0  0.00000000000E+00  0.00000000000E+00  0.14859140591E+04  0.33111368457E+04  0.29590009496E+04 0.  0.
        4    1    3    3  502    0 -0.94014349064E+03  0.84883340914E+03  0.15984889329E+04  0.20394990613E+04  0.12699999809E+01 0. -1.
       -4    1    3    3    0  502  0.94014349064E+03 -0.84883340914E+03 -0.11257487389E+03  0.12716377844E+04  0.12699999809E+01 0.  1.
</event>
<event>
 5   0  0.3636718E-06  0.3070254E+04  0.7818609E-02  0.8223949E-01
       -1   -1    0    0    0  501  0.00000000000E+00  0.00000000000E+00  0.12278440759E+04  0.12278440759E+04  0.50400001928E-02 0. -1.
        1   -1    0    0  501    0  0.00000000000E+00  0.00000000000E+00 -0.19193114191E+04  0.19193114191E+04  0.50400001928E-02 0.  1.
    10030    2    1    2    0    0  0.00000000000E+00  0.00000000000E+00 -0.69146734319E+03  0.31471554950E+04  0.30702541626E+04 0.  0.
        4    1    3    3  502    0 -0.43604697890E+03 -0.13672664623E+04  0.21294903287E+03  0.14508285392E+04  0.12699999809E+01 0. -1.
       -4    1    3    3    0  502  0.43604697890E+03  0.13672664623E+04 -0.90441637606E+03  0.16963269558E+04  0.12699999809E+01 0.  1.
</event>
<event>
 5   0  0.9647945E-06  0.2949932E+04  0.7818609E-02  0.8258174E-01
        2   -1    0    0  501    0  0.00000000000E+00  0.00000000000E+00  0.25322749643E+04  0.25322749643E+04  0.25500000920E-02 0. -1.
       -2   -1    0    0    0  501  0.00000000000E+00  0.00000000000E+00 -0.85911888502E+03  0.85911888503E+03  0.25500000920E-02 0.  1.
    10030    2    1    2    0    0  0.00000000000E+00  0.00000000000E+00  0.16731560792E+04  0.33913938493E+04  0.29499323680E+04 0.  0.
        2    1    3    3  502    0  0.12378112388E+04  0.33586140622E+02 -0.84737229419E+02  0.12411627974E+04  0.25500000920E-02 0.  1.
       -2    1    3    3    0  502 -0.12378112388E+04 -0.33586140622E+02  0.17578933087E+04  0.21502310518E+04  0.25500000920E-02 0. -1.
</event>
<event>
 5   0  0.3313750E-06  0.2221022E+04  0.7818609E-02  0.8509729E-01
        3   -1    0    0  501    0  0.00000000000E+00  0.00000000000E+00  0.10048488926E+04  0.10048488977E+04  0.10100000352E+00 0.  1.
       -3   -1    0    0    0  501  0.00000000000E+00  0.00000000000E+00 -0.12272833146E+04  0.12272833187E+04  0.10100000352E+00 0. -1.
    10030    2    1    2    0    0  0.00000000000E+00  0.00000000000E+00 -0.22243442196E+03  0.22321322164E+04  0.22210216477E+04 0.  0.
        5    1    3    3  502    0  0.80171754396E+03  0.50300827454E+03  0.47258789136E+03  0.10578892899E+04  0.46999998093E+01 0.  1.
       -5    1    3    3    0  502 -0.80171754396E+03 -0.50300827454E+03 -0.69502231333E+03  0.11742429266E+04  0.46999998093E+01 0. -1.
</event>
<event>
 5   0  0.1089569E-05  0.2836735E+04  0.7818609E-02  0.8291953E-01
        2   -1    0    0  501    0  0.00000000000E+00  0.00000000000E+00  0.18958893802E+04  0.18958893802E+04  0.25500000920E-02 0. -1.
       -2   -1    0    0    0  501  0.00000000000E+00  0.00000000000E+00 -0.10611202332E+04  0.10611202332E+04  0.25500000920E-02 0.  1.
    10030    2    1    2    0    0  0.00000000000E+00  0.00000000000E+00  0.83476914696E+03  0.29570096134E+04  0.28367351525E+04 0.  0.
        5    1    3    3  502    0  0.30583327587E+02 -0.45748272974E+03 -0.98173017189E+03  0.10835321907E+04  0.46999998093E+01 0.  1.
       -5    1    3    3    0  502 -0.30583327587E+02  0.45748272974E+03  0.18164993189E+04  0.18734774227E+04  0.46999998093E+01 0. -1.
</event>
<event>
 5   0  0.1089569E-05  0.2979479E+04  0.7818609E-02  0.8249615E-01
        2   -1    0    0  501    0  0.00000000000E+00  0.00000000000E+00  0.11470693998E+04  0.11470693998E+04  0.25500000920E-02 0.  1.
       -2   -1    0    0    0  501  0.00000000000E+00  0.00000000000E+00 -0.19347772813E+04  0.19347772813E+04  0.25500000920E-02 0. -1.
    10030    2    1    2    0    0  0.00000000000E+00  0.00000000000E+00 -0.78770788153E+03  0.30818466811E+04  0.29794790248E+04 0.  0.
        5    1    3    3  502    0  0.60485407188E+03 -0.39842442598E+03  0.95268387169E+03  0.11967535757E+04  0.46999998093E+01 0.  1.
       -5    1    3    3    0  502 -0.60485407188E+03  0.39842442598E+03 -0.17403917532E+04  0.18850931054E+04  0.46999998093E+01 0. -1.
</event>
<event>
 5   0  0.1057036E-05  0.2973842E+04  0.7818609E-02  0.8251240E-01
        2   -1    0    0  501    0  0.00000000000E+00  0.00000000000E+00  0.10945321511E+04  0.10945321511E+04  0.25500000920E-02 0. -1.
       -2   -1    0    0    0  501  0.00000000000E+00  0.00000000000E+00 -0.20199809743E+04  0.20199809743E+04  0.25500000920E-02 0.  1.
    10030    2    1    2    0    0  0.00000000000E+00  0.00000000000E+00 -0.92544882326E+03  0.31145131254E+04  0.29738420408E+04 0.  0.
        4    1    3    3  502    0 -0.69320490422E+03  0.74445906978E+02 -0.18381872180E+04  0.19659626379E+04  0.12699999809E+01 0.  1.
       -4    1    3    3    0  502  0.69320490422E+03 -0.74445906978E+02  0.91273839472E+03  0.11485504875E+04  0.12699999809E+01 0. -1.
</event>
<event>
 5   0  0.3852126E-06  0.3020264E+04  0.7818609E-02  0.8237968E-01
       -1   -1    0    0    0  501  0.00000000000E+00  0.00000000000E+00  0.12363312780E+04  0.12363312780E+04  0.50400001928E-02 0. -1.
        1   -1    0    0  501    0  0.00000000000E+00  0.00000000000E+00 -0.18445697921E+04  0.18445697921E+04  0.50400001928E-02 0.  1.
    10030    2    1    2    0    0  0.00000000000E+00  0.00000000000E+00 -0.60823851413E+03  0.30809010702E+04  0.30202644444E+04 0.  0.
        1    1    3    3  502    0 -0.59320748235E+03 -0.49026562129E+03  0.10212911273E+04  0.12787849949E+04  0.50400001928E-02 0. -1.
       -1    1    3    3    0  502  0.59320748235E+03  0.49026562129E+03 -0.16295296414E+04  0.18021160753E+04  0.50400001928E-02 0.  1.
</event>
<event>
 5   0  0.3725232E-06  0.2053166E+04  0.7818609E-02  0.8582160E-01
       -1   -1    0    0    0  501  0.00000000000E+00  0.00000000000E+00  0.63902717999E+03  0.63902718001E+03  0.50400001928E-02 0. -1.
        1   -1    0    0  501    0  0.00000000000E+00  0.00000000000E+00 -0.16491823573E+04  0.16491823573E+04  0.50400001928E-02 0.  1.
    10030    2    1    2    0    0  0.00000000000E+00  0.00000000000E+00 -0.10101551773E+04  0.22882095373E+04  0.20531657031E+04 0.  0.
        2    1    3    3  502    0 -0.37672333956E+03  0.32624814442E+03  0.49517191272E+03  0.70253366429E+03  0.25500000920E-02 0. -1.
       -2    1    3    3    0  502  0.37672333956E+03 -0.32624814442E+03 -0.15053270900E+04  0.15856758730E+04  0.25500000920E-02 0.  1.
</event>
<event>
 5   0  0.9647945E-06  0.1893607E+04  0.7818609E-02  0.8658045E-01
       -2   -1    0    0    0  501  0.00000000000E+00  0.00000000000E+00  0.35543682956E+03  0.35543682956E+03  0.25500000920E-02 0.  1.
        2   -1    0    0  501    0  0.00000000000E+00  0.00000000000E+00 -0.25220704338E+04  0.25220704338E+04  0.25500000920E-02 0. -1.
    10030    2    1    2    0    0  0.00000000000E+00  0.00000000000E+00 -0.21666336042E+04  0.28775072633E+04  0.18936068429E+04 0.  0.
        2    1    3    3  502    0 -0.68678377426E+03  0.35530879757E+03 -0.25305771120E+03  0.81360586246E+03  0.25500000920E-02 0.  1.
       -2    1    3    3    0  502  0.68678377426E+03 -0.35530879757E+03 -0.19135758930E+04  0.20639014009E+04  0.25500000920E-02 0. -1.
</event>
<event>
 5   0  0.3725232E-06  0.3035383E+04  0.7818609E-02  0.8233699E-01
        1   -1    0    0  501    0  0.00000000000E+00  0.00000000000E+00  0.13144038622E+04  0.13144038622E+04  0.50400001928E-02 0.  1.
       -1   -1    0    0    0  501  0.00000000000E+00  0.00000000000E+00 -0.17524194231E+04  0.17524194231E+04  0.50400001928E-02 0. -1.
    10030    2    1    2    0    0  0.00000000000E+00  0.00000000000E+00 -0.43801556087E+03  0.30668232853E+04  0.30353825841E+04 0.  0.
        2    1    3    3  502    0  0.32855442541E+03 -0.43725422424E+03 -0.16493863646E+04  0.17377038432E+04  0.25500000920E-02 0. -1.
       -2    1    3    3    0  502 -0.32855442541E+03  0.43725422424E+03  0.12113708037E+04  0.13291194420E+04  0.25500000920E-02 0.  1.
</event>
<event>
 5   0  0.1028450E-05  0.2943314E+04  0.7818609E-02  0.8260106E-01
        2   -1    0    0  501    0  0.00000000000E+00  0.00000000000E+00  0.16477413227E+04  0.16477413227E+04  0.25500000920E-02 0. -1.
       -2   -1    0    0    0  501  0.00000000000E+00  0.00000000000E+00 -0.13143894785E+04  0.13143894785E+04  0.25500000920E-02 0.  1.
    10030    2    1    2    0    0  0.00000000000E+00  0.00000000000E+00  0.33335184414E+03  0.29621308012E+04  0.29433136822E+04 0.  0.
        3    1    3    3  502    0 -0.11882241133E+04 -0.52051066586E+03  0.86607642434E+03  0.15597744323E+04  0.10100000352E+00 0. -1.
       -3    1    3    3    0  502  0.11882241133E+04  0.52051066586E+03 -0.53272458021E+03  0.14023563689E+04  0.10100000352E+00 0.  1.
</event>
<event>
 5   0  0.1089569E-05  0.2822545E+04  0.7818609E-02  0.8296303E-01
       -2   -1    0    0    0  501  0.00000000000E+00  0.00000000000E+00  0.11475278052E+04  0.11475278052E+04  0.25500000920E-02 0. -1.
        2   -1    0    0  501    0  0.00000000000E+00  0.00000000000E+00 -0.17356358261E+04  0.17356358261E+04  0.25500000920E-02 0.  1.
    10030    2    1    2    0    0  0.00000000000E+00  0.00000000000E+00 -0.58810802095E+03  0.28831636313E+04  0.28225452132E+04 0.  0.
        5    1    3    3  502    0  0.19832380297E+03 -0.76536405125E+03  0.90004889106E+03  0.11980085801E+04  0.46999998093E+01 0. -1.
       -5    1    3    3    0  502 -0.19832380297E+03  0.76536405125E+03 -0.14881569120E+04  0.16851550512E+04  0.46999998093E+01 0.  1.
</event>
<event>
 5   0  0.3896630E-06  0.3054762E+04  0.7818609E-02  0.8228264E-01
       -1   -1    0    0    0  501  0.00000000000E+00  0.00000000000E+00  0.16463800340E+04  0.16463800340E+04  0.50400001928E-02 0. -1.
        1   -1    0    0  501    0  0.00000000000E+00  0.00000000000E+00 -0.14169826884E+04  0.14169826885E+04  0.50400001928E-02 0.  1.
    10030    2    1    2    0    0  0.00000000000E+00  0.00000000000E+00  0.22939734557E+03  0.30633627225E+04  0.30547615336E+04 0.  0.
        5    1    3    3  502    0 -0.12844655130E+04  0.27718516662E+03 -0.66607343903E+03  0.14732138972E+04  0.46999998093E+01 0.  1.
       -5    1    3    3    0  502  0.12844655130E+04 -0.27718516662E+03  0.89547078460E+03  0.15901488253E+04  0.46999998093E+01 0. -1.
</event>
<event>
 5   0  0.3592331E-06  0.2995672E+04  0.7818609E-02  0.8244968E-01
        1   -1    0    0  501    0  0.00000000000E+00  0.00000000000E+00  0.18486683528E+04  0.18486683528E+04  0.50400001928E-02 0. -1.
       -1   -1    0    0    0  501  0.00000000000E+00  0.00000000000E+00 -0.12135834150E+04  0.12135834150E+04  0.50400001928E-02 0.  1.
    10030    2    1    2    0    0  0.00000000000E+00  0.00000000000E+00  0.63508493785E+03  0.30622517678E+04  0.29956723805E+04 0.  0.
        3    1    3    3  502    0  0.86560160615E+03 -0.85900218189E+03 -0.57147753046E+03  0.13467507071E+04  0.10100000352E+00 0.  1.
       -3    1    3    3    0  502 -0.86560160615E+03  0.85900218189E+03  0.12065624683E+04  0.17155010607E+04  0.10100000352E+00 0. -1.
</event>
<event>
 5   0  0.1028450E-05  0.3018775E+04  0.7818609E-02  0.8238390E-01
        2   -1    0    0  501    0  0.00000000000E+00  0.00000000000E+00  0.19512004560E+04  0.19512004560E+04  0.25500000920E-02 0. -1.
       -2   -1    0    0    0  501  0.00000000000E+00  0.00000000000E+00 -0.11676145418E+04  0.11676145418E+04  0.25500000920E-02 0.  1.
    10030    2    1    2    0    0  0.00000000000E+00  0.00000000000E+00  0.78358591419E+03  0.31188149979E+04  0.30187746034E+04 0.  0.
        3    1    3    3  502    0  0.12095832133E+04  0.22599728329E+03  0.12948795447E+04  0.17863032686E+04  0.10100000352E+00 0. -1.
       -3    1    3    3    0  502 -0.12095832133E+04 -0.22599728329E+03 -0.51129363052E+03  0.13325117293E+04  0.10100000352E+00 0.  1.
</event>
<event>
 5   0  0.1029922E-05  0.3001100E+04  0.7818609E-02  0.8243417E-01
        2   -1    0    0  501    0  0.00000000000E+00  0.00000000000E+00  0.89542283772E+03  0.89542283772E+03  0.25500000920E-02 0.  1.
       -2   -1    0    0    0  501  0.00000000000E+00  0.00000000000E+00 -0.25146228704E+04  0.25146228704E+04  0.25500000920E-02 0. -1.
    10030    2    1    2    0    0  0.00000000000E+00  0.00000000000E+00 -0.16192000327E+04  0.34100457082E+04  0.30011002959E+04 0.  0.
        1    1    3    3  502    0  0.11160441974E+04  0.49937351938E+03 -0.17980345804E+04  0.21743635655E+04  0.50400001928E-02 0. -1.
       -1    1    3    3    0  502 -0.11160441974E+04 -0.49937351938E+03  0.17883454772E+03  0.12356821427E+04  0.50400001928E-02 0.  1.
</event>
<event>
 5   0  0.1029922E-05  0.3011094E+04  0.7818609E-02  0.8240570E-01
       -2   -1    0    0    0  501  0.00000000000E+00  0.00000000000E+00  0.29165316118E+04  0.29165316118E+04  0.25500000920E-02 0. -1.
        2   -1    0    0  501    0  0.00000000000E+00  0.00000000000E+00 -0.77718059409E+03  0.77718059409E+03  0.25500000920E-02 0.  1.
    10030    2    1    2    0    0  0.00000000000E+00  0.00000000000E+00  0.21393510177E+04  0.36937122059E+04  0.30110940010E+04 0.  0.
        1    1    3    3  502    0 -0.14150344384E+04  0.10271879644E+03  0.16876676802E+04  0.22047892897E+04  0.50400001928E-02 0. -1.
       -1    1    3    3    0  502  0.14150344384E+04 -0.10271879644E+03  0.45168333751E+03  0.14889229162E+04  0.50400001928E-02 0.  1.
</event>
<event>
 5   0  0.9647945E-06  0.2052267E+04  0.7818609E-02  0.8582567E-01
        2   -1    0    0  501    0  0.00000000000E+00  0.00000000000E+00  0.97072132825E+03  0.97072132825E+03  0.25500000920E-02 0.  1.
       -2   -1    0    0    0  501  0.00000000000E+00  0.00000000000E+00 -0.10847089683E+04  0.10847089683E+04  0.25500000920E-02 0. -1.
    10030    2    1    2    0    0  0.00000000000E+00  0.00000000000E+00 -0.11398764008E+03  0.20554302966E+04  0.20522671663E+04 0.  0.
        2    1    3    3  502    0 -0.83658927997E+03 -0.47919708077E+03 -0.40887372381E+03  0.10472292908E+04  0.25500000920E-02 0.  1.
       -2    1    3    3    0  502  0.83658927997E+03  0.47919708077E+03  0.29488608373E+03  0.10082010057E+04  0.25500000920E-02 0. -1.
</event>
<event>
 5   0  0.3852126E-06  0.2991970E+04  0.7818609E-02  0.8246027E-01
       -1   -1    0    0    0  501  0.00000000000E+00  0.00000000000E+00  0.14654674486E+04  0.14654674486E+04  0.50400001928E-02 0.  1.
        1   -1    0    0  501    0  0.00000000000E+00  0.00000000000E+00 -0.15271385689E+04  0.15271385689E+04  0.50400001928E-02 0. -1.
    10030    2    1    2    0    0  0.00000000000E+00  0.00000000000E+00 -0.61671120247E+02  0.29926060175E+04  0.29919704960E+04 0.  0.
        1    1    3    3  502    0 -0.83288002585E+03 -0.99895886308E+03 -0.77015690062E+03  0.15115388183E+04  0.50400001928E-02 0. -1.
       -1    1    3    3    0  502  0.83288002585E+03  0.99895886308E+03  0.70848578037E+03  0.14810671992E+04  0.50400001928E-02 0.  1.
</event>
<event>
 5   0  0.1029922E-05  0.3000325E+04  0.7818609E-02  0.8243638E-01
        2   -1    0    0  501    0  0.00000000000E+00  0.00000000000E+00  0.15064989348E+04  0.15064989348E+04  0.25500000920E-02 0.  1.
       -2   -1    0    0    0  501  0.00000000000E+00  0.00000000000E+00 -0.14938529239E+04  0.14938529239E+04  0.25500000920E-02 0. -1.
    10030    2    1    2    0    0  0.00000000000E+00  0.00000000000E+00  0.12646010886E+02  0.30003518587E+04  0.30003252081E+04 0.  0.
        1    1    3    3  502    0 -0.14741826691E+04 -0.90607850083E+02 -0.25647870881E+03  0.14990682615E+04  0.50400001928E-02 0. -1.
       -1    1    3    3    0  502  0.14741826691E+04  0.90607850083E+02  0.26912471969E+03  0.15012835972E+04  0.50400001928E-02 0.  1.
</event>
<event>
 5   0  0.1057036E-05  0.3081048E+04  0.7818609E-02  0.8220958E-01
        2   -1    0    0  501    0  0.00000000000E+00  0.00000000000E+00  0.32009817501E+04  0.32009817501E+04  0.25500000920E-02 0. -1.
       -2   -1    0    0    0  501  0.00000000000E+00  0.00000000000E+00 -0.74140221177E+03  0.74140221178E+03  0.25500000920E-02 0.  1.
    10030    2    1    2    0    0  0.00000000000E+00  0.00000000000E+00  0.24595795383E+04  0.39423839619E+04  0.30810484900E+04 0.  0.
        4    1    3    3  502    0 -0.13262704189E+04  0.54895435033E+03  0.51407197418E+03  0.15246690494E+04  0.12699999809E+01 0. -1.
       -4    1    3    3    0  502  0.13262704189E+04 -0.54895435033E+03  0.19455075641E+04  0.24177149124E+04  0.12699999809E+01 0.  1.
</event>
<event>
 5   0  0.1028450E-05  0.3006217E+04  0.7818609E-02  0.8241958E-01
       -2   -1    0    0    0  501  0.00000000000E+00  0.00000000000E+00  0.16381243562E+04  0.16381243562E+04  0.25500000920E-02 0. -1.
        2   -1    0    0  501    0  0.00000000000E+00  0.00000000000E+00 -0.13792209202E+04  0.13792209202E+04  0.25500000920E-02 0.  1.
    10030    2    1    2    0    0  0.00000000000E+00  0.00000000000E+00  0.25890343591E+03  0.30173452764E+04  0.30062171458E+04 0.  0.
        3    1    3    3  502    0 -0.40220872930E+03  0.13378981353E+04  0.68611457351E+03  0.15564371175E+04  0.10100000352E+00 0. -1.
       -3    1    3    3    0  502  0.40220872930E+03 -0.13378981353E+04 -0.42721113760E+03  0.14609081589E+04  0.10100000352E+00 0.  1.
</event>
<event>
 5   0  0.3896630E-06  0.2548101E+04  0.7818609E-02  0.8386047E-01
       -1   -1    0    0    0  501  0.00000000000E+00  0.00000000000E+00  0.13447859959E+04  0.13447859959E+04  0.50400001928E-02 0.  1.
        1   -1    0    0  501    0  0.00000000000E+00  0.00000000000E+00 -0.12070358033E+04  0.12070358033E+04  0.50400001928E-02 0. -1.
    10030    2    1    2    0    0  0.00000000000E+00  0.00000000000E+00  0.13775019265E+03  0.25518217992E+04  0.25481011321E+04 0.  0.
        5    1    3    3  502    0  0.12429541439E+04  0.25995624615E+03 -0.34573853948E+02  0.12703266096E+04  0.46999998093E+01 0. -1.
       -5    1    3    3    0  502 -0.12429541439E+04 -0.25995624615E+03  0.17232404660E+03  0.12814951895E+04  0.46999998093E+01 0.  1.
</event>
<event>
 5   0  0.3725232E-06  0.3030334E+04  0.7818609E-02  0.8235122E-01
       -1   -1    0    0    0  501  0.00000000000E+00  0.00000000000E+00  0.79060633647E+03  0.79060633649E+03  0.50400001928E-02 0.  1.
        1   -1    0    0  501    0  0.00000000000E+00  0.00000000000E+00 -0.29037600050E+04  0.29037600050E+04  0.50400001928E-02 0. -1.
    10030    2    1    2    0    0  0.00000000000E+00  0.00000000000E+00 -0.21131536685E+04  0.36943663415E+04  0.30303340143E+04 0.  0.
        2    1    3    3  502    0 -0.15035499577E+04  0.18725706394E+03 -0.10543366779E+04  0.18459018158E+04  0.25500000920E-02 0. -1.
       -2    1    3    3    0  502  0.15035499577E+04 -0.18725706394E+03 -0.10588169906E+04  0.18484645257E+04  0.25500000920E-02 0.  1.
</event>
<event>
 5   0  0.1029922E-05  0.2835545E+04  0.7818609E-02  0.8292317E-01
       -2   -1    0    0    0  501  0.00000000000E+00  0.00000000000E+00  0.10905729599E+04  0.10905729599E+04  0.25500000920E-02 0. -1.
        2   -1    0    0  501    0  0.00000000000E+00  0.00000000000E+00 -0.18431402833E+04  0.18431402833E+04  0.25500000920E-02 0.  1.
    10030    2    1    2    0    0  0.00000000000E+00  0.00000000000E+00 -0.75256732338E+03  0.29337132431E+04  0.28355450652E+04 0.  0.
        1    1    3    3  502    0 -0.13762195411E+04  0.18628003350E+02 -0.24281892661E+02  0.13765597837E+04  0.50400001928E-02 0.  1.
       -1    1    3    3    0  502  0.13762195411E+04 -0.18628003350E+02 -0.72828543072E+03  0.15571534595E+04  0.50400001928E-02 0. -1.
</event>
<event>
 5   0  0.1057036E-05  0.3038841E+04  0.7818609E-02  0.8232726E-01
        2   -1    0    0  501    0  0.00000000000E+00  0.00000000000E+00  0.17736198055E+04  0.17736198055E+04  0.25500000920E-02 0.  1.
       -2   -1    0    0    0  501  0.00000000000E+00  0.00000000000E+00 -0.13016540253E+04  0.13016540253E+04  0.25500000920E-02 0. -1.
    10030    2    1    2    0    0  0.00000000000E+00  0.00000000000E+00  0.47196578021E+03  0.30752738307E+04  0.30388414628E+04 0.  0.
        4    1    3    3  502    0  0.89619904690E+03 -0.18634692966E+03  0.14632629471E+04  0.17259889847E+04  0.12699999809E+01 0.  1.
       -4    1    3    3    0  502 -0.89619904690E+03  0.18634692966E+03 -0.99129716690E+03  0.13492848461E+04  0.12699999809E+01 0. -1.
</event>
<event>
 5   0  0.1028450E-05  0.2719716E+04  0.7818609E-02  0.8328636E-01
       -2   -1    0    0    0  501  0.00000000000E+00  0.00000000000E+00  0.10849335490E+04  0.10849335490E+04  0.25500000920E-02 0.  1.
        2   -1    0    0  501    0  0.00000000000E+00  0.00000000000E+00 -0.17044487465E+04  0.17044487465E+04  0.25500000920E-02 0. -1.
    10030    2    1    2    0    0  0.00000000000E+00  0.00000000000E+00 -0.61951519754E+03  0.27893822956E+04  0.27197158879E+04 0.  0.
        3    1    3    3  502    0  0.13198751033E+04 -0.27018568281E+02 -0.64432414310E+03  0.14689975844E+04  0.10100000352E+00 0.  1.
       -3    1    3    3    0  502 -0.13198751033E+04  0.27018568281E+02  0.24808945560E+02  0.13203847111E+04  0.10100000352E+00 0. -1.
</event>
<event>
 5   0  0.3592331E-06  0.3004207E+04  0.7818609E-02  0.8242531E-01
       -1   -1    0    0    0  501  0.00000000000E+00  0.00000000000E+00  0.15040357639E+04  0.15040357639E+04  0.50400001928E-02 0.  1.
        1   -1    0    0  501    0  0.00000000000E+00  0.00000000000E+00 -0.15001738755E+04  0.15001738755E+04  0.50400001928E-02 0. -1.
    10030    2    1    2    0    0  0.00000000000E+00  0.00000000000E+00  0.38618883678E+01  0.30042096395E+04  0.30042071572E+04 0.  0.
        3    1    3    3  502    0 -0.34127381679E+03  0.83413394103E+03 -0.11997638122E+04  0.15005600504E+04  0.10100000352E+00 0. -1.
       -3    1    3    3    0  502  0.34127381679E+03 -0.83413394103E+03  0.12036257005E+04  0.15036495891E+04  0.10100000352E+00 0.  1.
</event>
<event>
 5   0  0.9647945E-06  0.2825504E+04  0.7818609E-02  0.8295394E-01
        2   -1    0    0  501    0  0.00000000000E+00  0.00000000000E+00  0.68117627543E+03  0.68117627544E+03  0.25500000920E-02 0.  1.
       -2   -1    0    0    0  501  0.00000000000E+00  0.00000000000E+00 -0.29300315380E+04  0.29300315380E+04  0.25500000920E-02 0. -1.
    10030    2    1    2    0    0  0.00000000000E+00  0.00000000000E+00 -0.22488552626E+04  0.36112078134E+04  0.28255038276E+04 0.  0.
        2    1    3    3  502    0 -0.66859090999E+03  0.11488028907E+04 -0.17361789185E+04  0.21865678868E+04  0.25500000920E-02 0. -1.
       -2    1    3    3    0  502  0.66859090999E+03 -0.11488028907E+04 -0.51267634408E+03  0.14246399266E+04  0.25500000920E-02 0.  1.
</event>
<event>
 5   0  0.3852126E-06  0.2923577E+04  0.7818609E-02  0.8265897E-01
        1   -1    0    0  501    0  0.00000000000E+00  0.00000000000E+00  0.15967340619E+04  0.15967340619E+04  0.50400001928E-02 0. -1.
       -1   -1    0    0    0  501  0.00000000000E+00  0.00000000000E+00 -0.13382477901E+04  0.13382477901E+04  0.50400001928E-02 0.  1.
    10030    2    1    2    0    0  0.00000000000E+00  0.00000000000E+00  0.25848627178E+03  0.29349818520E+04  0.29235771443E+04 0.  0.
        1    1    3    3  502    0 -0.11955126879E+03  0.52307635970E+03  0.14942990612E+04  0.15877125269E+04  0.50400001928E-02 0. -1.
       -1    1    3    3    0  502  0.11955126879E+03 -0.52307635970E+03 -0.12358127894E+04  0.13472693251E+04  0.50400001928E-02 0.  1.
</event>
<event>
 5   0  0.3725232E-06  0.3111870E+04  0.7818609E-02  0.8212488E-01
       -1   -1    0    0    0  501  0.00000000000E+00  0.00000000000E+00  0.16888677748E+04  0.16888677748E+04  0.50400001928E-02 0.  1.
        1   -1    0    0  501    0  0.00000000000E+00  0.00000000000E+00 -0.14334657097E+04  0.14334657097E+04  0.50400001928E-02 0. -1.
    10030    2    1    2    0    0  0.00000000000E+00  0.00000000000E+00  0.25540206503E+03  0.31223334845E+04  0.31118702051E+04 0.  0.
        2    1    3    3  502    0  0.15112501234E+04  0.20516855419E+03 -0.18149574705E+03  0.15358749224E+04  0.25500000920E-02 0.  1.
       -2    1    3    3    0  502 -0.15112501234E+04 -0.20516855419E+03  0.43689781208E+03  0.15864585621E+04  0.25500000920E-02 0. -1.
</event>
<event>
 5   0  0.1089569E-05  0.2953190E+04  0.7818609E-02  0.8257226E-01
        2   -1    0    0  501    0  0.00000000000E+00  0.00000000000E+00  0.16970026383E+04  0.16970026383E+04  0.25500000920E-02 0. -1.
       -2   -1    0    0    0  501  0.00000000000E+00  0.00000000000E+00 -0.12848139433E+04  0.12848139433E+04  0.25500000920E-02 0.  1.
    10030    2    1    2    0    0  0.00000000000E+00  0.00000000000E+00  0.41218869496E+03  0.29818165816E+04  0.29531899035E+04 0.  0.
        5    1    3    3  502    0 -0.74618742245E+03  0.10605621740E+04  0.91914297429E+03  0.15894759172E+04  0.46999998093E+01 0. -1.
       -5    1    3    3    0  502  0.74618742245E+03 -0.10605621740E+04 -0.50695427933E+03  0.13923406643E+04  0.46999998093E+01 0.  1.
</event>
<event>
 5   0  0.3852126E-06  0.3028162E+04  0.7818609E-02  0.8235735E-01
       -1   -1    0    0    0  501  0.00000000000E+00  0.00000000000E+00  0.22375471934E+04  0.22375471934E+04  0.50400001928E-02 0. -1.
        1   -1    0    0  501    0  0.00000000000E+00  0.00000000000E+00 -0.10245330600E+04  0.10245330600E+04  0.50400001928E-02 0.  1.
    10030    2    1    2    0    0  0.00000000000E+00  0.00000000000E+00  0.12130141334E+04  0.32620802534E+04  0.30281618668E+04 0.  0.
        1    1    3    3  502    0  0.18473393207E+03 -0.12184181520E+04  0.15541003270E+04  0.19834054666E+04  0.50400001928E-02 0. -1.
       -1    1    3    3    0  502 -0.18473393207E+03  0.12184181520E+04 -0.34108619355E+03  0.12786747867E+04  0.50400001928E-02 0.  1.
</event>
<event>
 5   0  0.1057036E-05  0.2973807E+04  0.7818609E-02  0.8251250E-01
       -2   -1    0    0    0  501  0.00000000000E+00  0.00000000000E+00  0.12309549901E+04  0.12309549901E+04  0.25500000920E-02 0. -1.
        2   -1    0    0  501    0  0.00000000000E+00  0.00000000000E+00 -0.17960699713E+04  0.17960699713E+04  0.25500000920E-02 0.  1.
    10030    2    1    2    0    0  0.00000000000E+00  0.00000000000E+00 -0.56511498115E+03  0.30270249614E+04  0.29738065127E+04 0.  0.
        4    1    3    3  502    0  0.84106282093E+03 -0.64590797673E+03  0.77834962861E+03  0.13154518389E+04  0.12699999809E+01 0. -1.
       -4    1    3    3    0  502 -0.84106282093E+03  0.64590797673E+03 -0.13434646098E+04  0.17115731225E+04  0.12699999809E+01 0.  1.
</event>
<event>
 5   0  0.1028450E-05  0.3098905E+04  0.7818609E-02  0.8216038E-01
        2   -1    0    0  501    0  0.00000000000E+00  0.00000000000E+00  0.14549882016E+04  0.14549882016E+04  0.25500000920E-02 0. -1.
       -2   -1    0    0    0  501  0.00000000000E+00  0.00000000000E+00 -0.16500498006E+04  0.16500498006E+04  0.25500000920E-02 0.  1.
    10030    2    1    2    0    0  0.00000000000E+00  0.00000000000E+00 -0.19506159895E+03  0.31050380022E+04  0.30989049626E+04 0.  0.
        3    1    3    3  502    0 -0.88247594213E+03  0.53739158146E+03  0.10594186241E+04  0.14798382789E+04  0.10100000352E+00 0. -1.
       -3    1    3    3    0  502  0.88247594213E+03 -0.53739158146E+03 -0.12544802231E+04  0.16251997233E+04  0.10100000352E+00 0.  1.
</event>
<event>
 5   0  0.1089569E-05  0.2050743E+04  0.7818609E-02  0.8583257E-01
       -2   -1    0    0    0  501  0.00000000000E+00  0.00000000000E+00  0.14615938019E+04  0.14615938019E+04  0.25500000920E-02 0.  1.
        2   -1    0    0  501    0  0.00000000000E+00  0.00000000000E+00 -0.71934245194E+03  0.71934245195E+03  0.25500000920E-02 0. -1.
    10030    2    1    2    0    0  0.00000000000E+00  0.00000000000E+00  0.74225134993E+03  0.21809362538E+04  0.20507427622E+04 0.  0.
        5    1    3    3  502    0  0.20362177868E+03 -0.78721084190E+03 -0.29319279931E+03  0.86437656488E+03  0.46999998093E+01 0. -1.
       -5    1    3    3    0  502 -0.20362177868E+03  0.78721084190E+03  0.10354441492E+04  0.13165596889E+04  0.46999998093E+01 0.  1.
</event>
<event>
 5   0  0.3592331E-06  0.2878707E+04  0.7818609E-02  0.8279241E-01
        1   -1    0    0  501    0  0.00000000000E+00  0.00000000000E+00  0.13277036744E+04  0.13277036744E+04  0.50400001928E-02 0.  1.
       -1   -1    0    0    0  501  0.00000000000E+00  0.00000000000E+00 -0.15603921173E+04  0.15603921173E+04  0.50400001928E-02 0. -1.
    10030    2    1    2    0    0  0.00000000000E+00  0.00000000000E+00 -0.23268844296E+03  0.28880957917E+04  0.28787068956E+04 0.  0.
        3    1    3    3  502    0  0.63989419371E+01 -0.12076585645E+04 -0.90200635401E+03  0.15073472154E+04  0.10100000352E+00 0. -1.
       -3    1    3    3    0  502 -0.63989419371E+01  0.12076585645E+04  0.66931791105E+03  0.13807485763E+04  0.10100000352E+00 0.  1.
</event>
<event>
 5   0  0.9647945E-06  0.3156120E+04  0.7818609E-02  0.8200503E-01
       -2   -1    0    0    0  501  0.00000000000E+00  0.00000000000E+00  0.19611567887E+04  0.19611567887E+04  0.25500000920E-02 0.  1.
        2   -1    0    0  501    0  0.00000000000E+00  0.00000000000E+00 -0.12697979604E+04  0.12697979604E+04  0.25500000920E-02 0. -1.
    10030    2    1    2    0    0  0.00000000000E+00  0.00000000000E+00  0.69135882832E+03  0.32309547492E+04  0.31561197001E+04 0.  0.
        2    1    3    3  502    0  0.23053562580E+02  0.98058383887E+03  0.16111936841E+04  0.18862717777E+04  0.25500000920E-02 0. -1.
       -2    1    3    3    0  502 -0.23053562580E+02 -0.98058383887E+03 -0.91983485577E+03  0.13446829714E+04  0.25500000920E-02 0.  1.
</event>
<event>
 5   0  0.1057036E-05  0.2634366E+04  0.7818609E-02  0.8356621E-01
       -2   -1    0    0    0  501  0.00000000000E+00  0.00000000000E+00  0.11534566123E+04  0.11534566123E+04  0.25500000920E-02 0.  1.
        2   -1    0    0  501    0  0.00000000000E+00  0.00000000000E+00 -0.15041494576E+04  0.15041494576E+04  0.25500000920E-02 0. -1.
    10030    2    1    2    0    0  0.00000000000E+00  0.00000000000E+00 -0.35069284528E+03  0.26576060699E+04  0.26343660625E+04 0.  0.
        4    1    3    3  502    0  0.59796956107E+03  0.27403670847E+01  0.10086316074E+04  0.11725674556E+04  0.12699999809E+01 0.  1.
       -4    1    3    3    0  502 -0.59796956107E+03 -0.27403670847E+01 -0.13593244527E+04  0.14850386143E+04  0.12699999809E+01 0. -1.
</event>
<event>
 5   0  0.1057036E-05  0.3005168E+04  0.7818609E-02  0.8242257E-01
       -2   -1    0    0    0  501  0.00000000000E+00  0.00000000000E+00  0.15904407408E+04  0.15904407408E+04  0.25500000920E-02 0.  1.
        2   -1    0    0  501    0  0.00000000000E+00  0.00000000000E+00 -0.14195802444E+04  0.14195802444E+04  0.25500000920E-02 0. -1.
    10030    2    1    2    0    0  0.00000000000E+00  0.00000000000E+00  0.17086049639E+03  0.30100209852E+04  0.30051677195E+04 0.  0.
        4    1    3    3  502    0 -0.68824349508E+03  0.11408783282E+04  0.78115562409E+03  0.15445025705E+04  0.12699999809E+01 0.  1.
       -4    1    3    3    0  502  0.68824349508E+03 -0.11408783282E+04 -0.61029512770E+03  0.14655184148E+04  0.12699999809E+01 0. -1.
</event>
<event>
 5   0  0.3636718E-06  0.3009549E+04  0.7818609E-02  0.8241009E-01
       -1   -1    0    0    0  501  0.00000000000E+00  0.00000000000E+00  0.12479609540E+04  0.12479609540E+04  0.50400001928E-02 0.  1.
        1   -1    0    0  501    0  0.00000000000E+00  0.00000000000E+00 -0.18144371468E+04  0.18144371468E+04  0.50400001928E-02 0. -1.
    10030    2    1    2    0    0  0.00000000000E+00  0.00000000000E+00 -0.56647619285E+03  0.30623981008E+04  0.30095492770E+04 0.  0.
        4    1    3    3  502    0  0.58982660509E+03  0.88041823111E+03  0.80384476512E+03  0.13301126663E+04  0.12699999809E+01 0.  1.
       -4    1    3    3    0  502 -0.58982660509E+03 -0.88041823111E+03 -0.13703209580E+04  0.17322854345E+04  0.12699999809E+01 0. -1.
</event>
<event>
 5   0  0.3896630E-06  0.2856688E+04  0.7818609E-02  0.8285882E-01
        1   -1    0    0  501    0  0.00000000000E+00  0.00000000000E+00  0.26329609526E+04  0.26329609526E+04  0.50400001928E-02 0.  1.
       -1   -1    0    0    0  501  0.00000000000E+00  0.00000000000E+00 -0.77485656965E+03  0.77485656966E+03  0.50400001928E-02 0. -1.
    10030    2    1    2    0    0  0.00000000000E+00  0.00000000000E+00  0.18581043829E+04  0.34078175223E+04  0.28566883567E+04 0.  0.
        5    1    3    3  502    0 -0.10192288364E+04 -0.81439779341E+03  0.23543598148E+03  0.13257161756E+04  0.46999998093E+01 0. -1.
       -5    1    3    3    0  502  0.10192288364E+04  0.81439779341E+03  0.16226684015E+04  0.20821013467E+04  0.46999998093E+01 0.  1.
</event>
<event>
 5   0  0.3852126E-06  0.3039842E+04  0.7818609E-02  0.8232444E-01
        1   -1    0    0  501    0  0.00000000000E+00  0.00000000000E+00  0.15867911022E+04  0.15867911022E+04  0.50400001928E-02 0. -1.
       -1   -1    0    0    0  501  0.00000000000E+00  0.00000000000E+00 -0.14558687746E+04  0.14558687746E+04  0.50400001928E-02 0.  1.
    10030    2    1    2    0    0  0.00000000000E+00  0.00000000000E+00  0.13092232762E+03  0.30426598768E+04  0.30398418495E+04 0.  0.
        1    1    3    3  502    0 -0.14912017956E+04 -0.24319812009E+03  0.23093682466E+03  0.15284501752E+04  0.50400001928E-02 0.  1.
       -1    1    3    3    0  502  0.14912017956E+04  0.24319812009E+03 -0.10001449704E+03  0.15142097016E+04  0.50400001928E-02 0. -1.
</event>
<event>
 5   0  0.3636718E-06  0.3013044E+04  0.7818609E-02  0.8240016E-01
        1   -1    0    0  501    0  0.00000000000E+00  0.00000000000E+00  0.10361907010E+04  0.10361907010E+04  0.50400001928E-02 0. -1.
       -1   -1    0    0    0  501  0.00000000000E+00  0.00000000000E+00 -0.21903389502E+04  0.21903389503E+04  0.50400001928E-02 0.  1.
    10030    2    1    2    0    0  0.00000000000E+00  0.00000000000E+00 -0.11541482492E+04  0.32265296513E+04  0.30130442097E+04 0.  0.
        4    1    3    3  502    0 -0.44437158998E+03  0.21707043434E+03 -0.21009338175E+04  0.21583582191E+04  0.12699999809E+01 0.  1.
       -4    1    3    3    0  502  0.44437158998E+03 -0.21707043434E+03  0.94678556827E+03  0.10681714322E+04  0.12699999809E+01 0. -1.
</event>
<event>
 5   0  0.3852126E-06  0.3056075E+04  0.7818609E-02  0.8227897E-01
        1   -1    0    0  501    0  0.00000000000E+00  0.00000000000E+00  0.77036525268E+03  0.77036525269E+03  0.50400001928E-02 0. -1.
       -1   -1    0    0    0  501  0.00000000000E+00  0.00000000000E+00 -0.30308975483E+04  0.30308975483E+04  0.50400001928E-02 0.  1.
    10030    2    1    2    0    0  0.00000000000E+00  0.00000000000E+00 -0.22605322956E+04  0.38012628010E+04  0.30560747083E+04 0.  0.
        1    1    3    3  502    0 -0.25311964652E+03  0.14650576396E+04 -0.15690339027E+04  0.21615575011E+04  0.50400001928E-02 0. -1.
       -1    1    3    3    0  502  0.25311964652E+03 -0.14650576396E+04 -0.69149839295E+03  0.16397052999E+04  0.50400001928E-02 0.  1.
</event>
<event>
 5   0  0.9647945E-06  0.2788824E+04  0.7818609E-02  0.8306746E-01
       -2   -1    0    0    0  501  0.00000000000E+00  0.00000000000E+00  0.10593933516E+04  0.10593933516E+04  0.25500000920E-02 0. -1.
        2   -1    0    0  501    0  0.00000000000E+00  0.00000000000E+00 -0.18353759557E+04  0.18353759557E+04  0.25500000920E-02 0.  1.
    10030    2    1    2    0    0  0.00000000000E+00  0.00000000000E+00 -0.77598260409E+03  0.28947693073E+04  0.27888241861E+04 0.  0.
        2    1    3    3  502    0 -0.65421867444E+02  0.13790392842E+04 -0.18470511193E+03  0.13928910031E+04  0.25500000920E-02 0. -1.
       -2    1    3    3    0  502  0.65421867444E+02 -0.13790392842E+04 -0.59127749215E+03  0.15018783043E+04  0.25500000920E-02 0.  1.
</event>
<event>
 5   0  0.3636718E-06  0.2870507E+04  0.7818609E-02  0.8281707E-01
       -1   -1    0    0    0  501  0.00000000000E+00  0.00000000000E+00  0.98290221142E+03  0.98290221143E+03  0.50400001928E-02 0. -1.
        1   -1    0    0  501    0  0.00000000000E+00  0.00000000000E+00 -0.20957862679E+04  0.20957862679E+04  0.50400001928E-02 0.  1.
    10030    2    1    2    0    0  0.00000000000E+00  0.00000000000E+00 -0.11128840565E+04  0.30786884793E+04  0.28705072425E+04 0.  0.
        4    1    3    3  502    0 -0.48263377617E+03  0.79718933878E+03 -0.17271674792E+04  0.19625379787E+04  0.12699999809E+01 0.  1.
       -4    1    3    3    0  502  0.48263377617E+03 -0.79718933878E+03  0.61428342271E+03  0.11161505006E+04  0.12699999809E+01 0. -1.
</event>
<event>
 5   0  0.9647945E-06  0.2916132E+04  0.7818609E-02  0.8268094E-01
       -2   -1    0    0    0  501  0.00000000000E+00  0.00000000000E+00  0.12731556959E+04  0.12731556959E+04  0.25500000920E-02 0. -1.
        2   -1    0    0  501    0  0.00000000000E+00  0.00000000000E+00 -0.16698323421E+04  0.16698323421E+04  0.25500000920E-02 0.  1.
    10030    2    1    2    0    0  0.00000000000E+00  0.00000000000E+00 -0.39667664619E+03  0.29429880380E+04  0.29161320666E+04 0.  0.
        2    1    3    3  502    0  0.19641743453E+03 -0.48745223256E+03 -0.15709251616E+04  0.16565009360E+04  0.25500000920E-02 0.  1.
       -2    1    3    3    0  502 -0.19641743453E+03  0.48745223256E+03  0.11742485154E+04  0.12864871020E+04  0.25500000920E-02 0. -1.
</event>
<event>
 5   0  0.3852126E-06  0.2924991E+04  0.7818609E-02  0.8265480E-01
       -1   -1    0    0    0  501  0.00000000000E+00  0.00000000000E+00  0.12701188229E+04  0.12701188229E+04  0.50400001928E-02 0.  1.
        1   -1    0    0  501    0  0.00000000000E+00  0.00000000000E+00 -0.16840104806E+04  0.16840104806E+04  0.50400001928E-02 0. -1.
    10030    2    1    2    0    0  0.00000000000E+00  0.00000000000E+00 -0.41389165765E+03  0.29541293035E+04  0.29249912201E+04 0.  0.
        1    1    3    3  502    0 -0.20967174438E+03 -0.31525140024E+03  0.12197651165E+04  0.12771736864E+04  0.50400001928E-02 0.  1.
       -1    1    3    3    0  502  0.20967174438E+03  0.31525140024E+03 -0.16336567742E+04  0.16769556171E+04  0.50400001928E-02 0. -1.
</event>
<event>
 5   0  0.3592331E-06  0.2945622E+04  0.7818609E-02  0.8259432E-01
        1   -1    0    0  501    0  0.00000000000E+00  0.00000000000E+00  0.19840136550E+04  0.19840136550E+04  0.50400001928E-02 0.  1.
       -1   -1    0    0    0  501  0.00000000000E+00  0.00000000000E+00 -0.10933253356E+04  0.10933253356E+04  0.50400001928E-02 0. -1.
    10030    2    1    2    0    0  0.00000000000E+00  0.00000000000E+00  0.89068831941E+03  0.30773389907E+04  0.29456221043E+04 0.  0.
        3    1    3    3  502    0  0.34969652243E+03 -0.22710057807E+02  0.19398247582E+04  0.19712238602E+04  0.10100000352E+00 0.  1.
       -3    1    3    3    0  502 -0.34969652243E+03  0.22710057807E+02 -0.10491364387E+04  0.11061151305E+04  0.10100000352E+00 0. -1.
</event>
<event>
 5   0  0.9647945E-06  0.2996737E+04  0.7818609E-02  0.8244663E-01
       -2   -1    0    0    0  501  0.00000000000E+00  0.00000000000E+00  0.10595099476E+04  0.10595099476E+04  0.25500000920E-02 0. -1.
        2   -1    0    0  501    0  0.00000000000E+00  0.00000000000E+00 -0.21190055738E+04  0.21190055738E+04  0.25500000920E-02 0.  1.
    10030    2    1    2    0    0  0.00000000000E+00  0.00000000000E+00 -0.10594956262E+04  0.31785155214E+04  0.29967365480E+04 0.  0.
        2    1    3    3  502    0  0.31522845154E+03 -0.12957427012E+04 -0.12544110777E+04  0.18308100055E+04  0.25500000920E-02 0.  1.
       -2    1    3    3    0  502 -0.31522845154E+03  0.12957427012E+04  0.19491545146E+03  0.13477055159E+04  0.25500000920E-02 0. -1.
</event>
<event>
 5   0  0.1028450E-05  0.3018301E+04  0.7818609E-02  0.8238524E-01
        2   -1    0    0  501    0  0.00000000000E+00  0.00000000000E+00  0.16213819177E+04  0.16213819177E+04  0.25500000920E-02 0.  1.
       -2   -1    0    0    0  501  0.00000000000E+00  0.00000000000E+00 -0.14046874855E+04  0.14046874855E+04  0.25500000920E-02 0. -1.
    10030    2    1    2    0    0  0.00000000000E+00  0.00000000000E+00  0.21669443219E+03  0.30260694032E+04  0.30183007730E+04 0.  0.
        3    1    3    3  502    0 -0.14997354378E+03 -0.14334377592E+04 -0.34035247043E+03  0.14809036726E+04  0.10100000352E+00 0. -1.
       -3    1    3    3    0  502  0.14997354378E+03  0.14334377592E+04  0.55704690262E+03  0.15451657306E+04  0.10100000352E+00 0.  1.
</event>
<event>
 5   0  0.1089569E-05  0.3024488E+04  0.7818609E-02  0.8236773E-01
        2   -1    0    0  501    0  0.00000000000E+00  0.00000000000E+00  0.15517813326E+04  0.15517813326E+04  0.25500000920E-02 0. -1.
       -2   -1    0    0    0  501  0.00000000000E+00  0.00000000000E+00 -0.14737138686E+04  0.14737138686E+04  0.25500000920E-02 0.  1.
    10030    2    1    2    0    0  0.00000000000E+00  0.00000000000E+00  0.78067463992E+02  0.30254952011E+04  0.30244878381E+04 0.  0.
        5    1    3    3  502    0 -0.40942022348E+03  0.36562501584E+03  0.14485995806E+04  0.15491189130E+04  0.46999998093E+01 0. -1.
       -5    1    3    3    0  502  0.40942022348E+03 -0.36562501584E+03 -0.13705321166E+04  0.14763762882E+04  0.46999998093E+01 0.  1.
</event>
<event>
 5   0  0.3636718E-06  0.3010081E+04  0.7818609E-02  0.8240858E-01
        1   -1    0    0  501    0  0.00000000000E+00  0.00000000000E+00  0.13882368040E+04  0.13882368041E+04  0.50400001928E-02 0. -1.
       -1   -1    0    0    0  501  0.00000000000E+00  0.00000000000E+00 -0.16316718282E+04  0.16316718282E+04  0.50400001928E-02 0.  1.
    10030    2    1    2    0    0  0.00000000000E+00  0.00000000000E+00 -0.24343502413E+03  0.30199086322E+04  0.30100809850E+04 0.  0.
        4    1    3    3  502    0 -0.72269718345E+03  0.17383912176E+03 -0.14346666596E+04  0.16157912292E+04  0.12699999809E+01 0.  1.
       -4    1    3    3    0  502  0.72269718345E+03 -0.17383912176E+03  0.11912316355E+04  0.14041174030E+04  0.12699999809E+01 0. -1.
</event>
<event>
 5   0  0.3852126E-06  0.2883629E+04  0.7818609E-02  0.8277765E-01
       -1   -1    0    0    0  501  0.00000000000E+00  0.00000000000E+00  0.11689191988E+04  0.11689191988E+04  0.50400001928E-02 0. -1.
        1   -1    0    0  501    0  0.00000000000E+00  0.00000000000E+00 -0.17784193837E+04  0.17784193837E+04  0.50400001928E-02 0.  1.
    10030    2    1    2    0    0  0.00000000000E+00  0.00000000000E+00 -0.60950018489E+03  0.29473385826E+04  0.28836286593E+04 0.  0.
        1    1    3    3  502    0  0.10423798205E+03  0.70055453117E+03  0.97885727604E+03  0.12082233961E+04  0.50400001928E-02 0. -1.
       -1    1    3    3    0  502 -0.10423798205E+03 -0.70055453117E+03 -0.15883574609E+04  0.17391151865E+04  0.50400001928E-02 0.  1.
</event>
<event>
 5   0  0.3896630E-06  0.2811638E+04  0.7818609E-02  0.8299664E-01
       -1   -1    0    0    0  501  0.00000000000E+00  0.00000000000E+00  0.10515273832E+04  0.10515273833E+04  0.50400001928E-02 0.  1.
        1   -1    0    0  501    0  0.00000000000E+00  0.00000000000E+00 -0.18794817432E+04  0.18794817432E+04  0.50400001928E-02 0. -1.
    10030    2    1    2    0    0  0.00000000000E+00  0.00000000000E+00 -0.82795435997E+03  0.29310091265E+04  0.28116376149E+04 0.  0.
        5    1    3    3  502    0 -0.58390837864E+03 -0.34374164031E+03 -0.16980180011E+04  0.18282216857E+04  0.46999998093E+01 0. -1.
       -5    1    3    3    0  502  0.58390837864E+03  0.34374164031E+03  0.87006364114E+03  0.11027874408E+04  0.46999998093E+01 0.  1.
</event>
<event>
 5   0  0.1028450E-05  0.2830094E+04  0.7818609E-02  0.8293986E-01
        2   -1    0    0  501    0  0.00000000000E+00  0.00000000000E+00  0.25152339545E+04  0.25152339545E+04  0.25500000920E-02 0.  1.
       -2   -1    0    0    0  501  0.00000000000E+00  0.00000000000E+00 -0.79609226768E+03  0.79609226768E+03  0.25500000920E-02 0. -1.
    10030    2    1    2    0    0  0.00000000000E+00  0.00000000000E+00  0.17191416869E+04  0.33113262222E+04  0.28300942052E+04 0.  0.
        3    1    3    3  502    0 -0.10854314830E+04  0.68437160353E+03  0.15575199536E+04  0.20180174459E+04  0.10100000352E+00 0.  1.
       -3    1    3    3    0  502  0.10854314830E+04 -0.68437160353E+03  0.16162173328E+03  0.12933087763E+04  0.10100000352E+00 0. -1.
</event>
<event>
 5   0  0.9647945E-06  0.2997956E+04  0.7818609E-02  0.8244315E-01
       -2   -1    0    0    0  501  0.00000000000E+00  0.00000000000E+00  0.14039807648E+04  0.14039807648E+04  0.25500000920E-02 0.  1.
        2   -1    0    0  501    0  0.00000000000E+00  0.00000000000E+00 -0.16004027886E+04  0.16004027886E+04  0.25500000920E-02 0. -1.
    10030    2    1    2    0    0  0.00000000000E+00  0.00000000000E+00 -0.19642202379E+03  0.30043835535E+04  0.29979557910E+04 0.  0.
        2    1    3    3  502    0 -0.57100203986E+03  0.74391028492E+03 -0.12701150612E+04  0.15788090797E+04  0.25500000920E-02 0. -1.
       -2    1    3    3    0  502  0.57100203986E+03 -0.74391028492E+03  0.10736930374E+04  0.14255744737E+04  0.25500000920E-02 0.  1.
</event>
<event>
 5   0  0.3725232E-06  0.3025188E+04  0.7818609E-02  0.8236575E-01
       -1   -1    0    0    0  501  0.00000000000E+00  0.00000000000E+00  0.14945861141E+04  0.14945861141E+04  0.50400001928E-02 0.  1.
        1   -1    0    0  501    0  0.00000000000E+00  0.00000000000E+00 -0.15308186678E+04  0.15308186678E+04  0.50400001928E-02 0. -1.
    10030    2    1    2    0    0  0.00000000000E+00  0.00000000000E+00 -0.36232553775E+02  0.30254047819E+04  0.30251878118E+04 0.  0.
        2    1    3    3  502    0 -0.12106113204E+04  0.76681421329E+03  0.46602227278E+03  0.15069042987E+04  0.25500000920E-02 0.  1.
       -2    1    3    3    0  502  0.12106113204E+04 -0.76681421329E+03 -0.50225482655E+03  0.15185004832E+04  0.25500000920E-02 0. -1.
</event>
<event>
 5   0  0.3725232E-06  0.2971121E+04  0.7818609E-02  0.8252026E-01
        1   -1    0    0  501    0  0.00000000000E+00  0.00000000000E+00  0.11477863109E+04  0.11477863109E+04  0.50400001928E-02 0.  1.
       -1   -1    0    0    0  501  0.00000000000E+00  0.00000000000E+00 -0.19227363911E+04  0.19227363911E+04  0.50400001928E-02 0. -1.
    10030    2    1    2    0    0  0.00000000000E+00  0.00000000000E+00 -0.77495008025E+03  0.30705227020E+04  0.29711213433E+04 0.  0.
        2    1    3    3  502    0 -0.88549575967E+03  0.11906197948E+04 -0.46208649332E+03  0.15540920705E+04  0.25500000920E-02 0.  1.
       -2    1    3    3    0  502  0.88549575967E+03 -0.11906197948E+04 -0.31286358693E+03  0.15164306315E+04  0.25500000920E-02 0. -1.
</event>
<event>
 5   0  0.1029922E-05  0.3044292E+04  0.7818609E-02  0.8231195E-01
        2   -1    0    0  501    0  0.00000000000E+00  0.00000000000E+00  0.21140022442E+04  0.21140022442E+04  0.25500000920E-02 0.  1.
       -2   -1    0    0    0  501  0.00000000000E+00  0.00000000000E+00 -0.10959917634E+04  0.10959917634E+04  0.25500000920E-02 0. -1.
    10030    2    1    2    0    0  0.00000000000E+00  0.00000000000E+00  0.10180104808E+04  0.32099940076E+04  0.30442923956E+04 0.  0.
        1    1    3    3  502    0  0.55091919427E+03  0.14122367882E+04  0.65436502997E+03  0.16510960896E+04  0.50400001928E-02 0. -1.
       -1    1    3    3    0  502 -0.55091919427E+03 -0.14122367882E+04  0.36364545081E+03  0.15588979180E+04  0.50400001928E-02 0.  1.
</event>
<event>
 5   0  0.3592331E-06  0.2949577E+04  0.7818609E-02  0.8258278E-01
        1   -1    0    0  501    0  0.00000000000E+00  0.00000000000E+00  0.21934105643E+04  0.21934105643E+04  0.50400001928E-02 0. -1.
       -1   -1    0    0    0  501  0.00000000000E+00  0.00000000000E+00 -0.99160705227E+03  0.99160705228E+03  0.50400001928E-02 0.  1.
    10030    2    1    2    0    0  0.00000000000E+00  0.00000000000E+00  0.12018035120E+04  0.31850176166E+04  0.29495771793E+04 0.  0.
        3    1    3    3  502    0 -0.97316732330E+03  0.19200020308E+02 -0.59549889105E+03  0.11410706461E+04  0.10100000352E+00 0.  1.
       -3    1    3    3    0  502  0.97316732330E+03 -0.19200020308E+02  0.17973024031E+04  0.20439469705E+04  0.10100000352E+00 0. -1.
</event>
<event>
 5   0  0.1029922E-05  0.3087157E+04  0.7818609E-02  0.8219271E-01
        2   -1    0    0  501    0  0.00000000000E+00  0.00000000000E+00  0.12174639104E+04  0.12174639104E+04  0.25500000920E-02 0.  1.
       -2   -1    0    0    0  501  0.00000000000E+00  0.00000000000E+00 -0.19570470614E+04  0.19570470614E+04  0.25500000920E-02 0. -1.
    10030    2    1    2    0    0  0.00000000000E+00  0.00000000000E+00 -0.73958315098E+03  0.31745109717E+04  0.30871567295E+04 0.  0.
        1    1    3    3  502    0  0.28733557708E+03 -0.10794017866E+04 -0.14652836470E+04  0.18424782541E+04  0.50400001928E-02 0. -1.
       -1    1    3    3    0  502 -0.28733557708E+03  0.10794017866E+04  0.72570049600E+03  0.13320327176E+04  0.50400001928E-02 0.  1.
</event>
<event>
 5   0  0.3725232E-06  0.3024261E+04  0.7818609E-02  0.8236837E-01
        1   -1    0    0  501    0  0.00000000000E+00  0.00000000000E+00  0.18773188084E+04  0.18773188084E+04  0.50400001928E-02 0. -1.
       -1   -1    0    0    0  501  0.00000000000E+00  0.00000000000E+00 -0.12179813123E+04  0.12179813123E+04  0.50400001928E-02 0.  1.
    10030    2    1    2    0    0  0.00000000000E+00  0.00000000000E+00  0.65933749609E+03  0.30953001207E+04  0.30242613814E+04 0.  0.
        2    1    3    3  502    0 -0.13644609950E+04 -0.38487283187E+03  0.86800708708E+03  0.16623228348E+04  0.25500000920E-02 0. -1.
       -2    1    3    3    0  502  0.13644609950E+04  0.38487283187E+03 -0.20866959099E+03  0.14329772859E+04  0.25500000920E-02 0.  1.
</event>
<event>
 5   0  0.3636718E-06  0.2479584E+04  0.7818609E-02  0.8410295E-01
       -1   -1    0    0    0  501  0.00000000000E+00  0.00000000000E+00  0.91910012498E+03  0.91910012499E+03  0.50400001928E-02 0.  1.
        1   -1    0    0  501    0  0.00000000000E+00  0.00000000000E+00 -0.16723798373E+04  0.16723798373E+04  0.50400001928E-02 0. -1.
    10030    2    1    2    0    0  0.00000000000E+00  0.00000000000E+00 -0.75327971228E+03  0.25914799623E+04  0.24795842534E+04 0.  0.
        4    1    3    3  502    0 -0.35257475355E+03  0.42455158847E+03 -0.15369329750E+04  0.16330087540E+04  0.12699999809E+01 0. -1.
       -4    1    3    3    0  502  0.35257475355E+03 -0.42455158847E+03  0.78365326268E+03  0.95847120829E+03  0.12699999809E+01 0.  1.
</event>
<event>
 5   0  0.1057036E-05  0.2927490E+04  0.7818609E-02  0.8264745E-01
       -2   -1    0    0    0  501  0.00000000000E+00  0.00000000000E+00  0.10046286045E+04  0.10046286045E+04  0.25500000920E-02 0. -1.
        2   -1    0    0  501    0  0.00000000000E+00  0.00000000000E+00 -0.21326784377E+04  0.21326784377E+04  0.25500000920E-02 0.  1.
    10030    2    1    2    0    0  0.00000000000E+00  0.00000000000E+00 -0.11280498332E+04  0.31373070422E+04  0.29274902307E+04 0.  0.
        4    1    3    3  502    0 -0.74291298360E+03  0.85430599186E+03  0.43025829395E+03  0.12111491408E+04  0.12699999809E+01 0. -1.
       -4    1    3    3    0  502  0.74291298360E+03 -0.85430599186E+03 -0.15583081271E+04  0.19261579013E+04  0.12699999809E+01 0.  1.
</event>
<event>
 5   0  0.9647945E-06  0.2993812E+04  0.7818609E-02  0.8245500E-01
       -2   -1    0    0    0  501  0.00000000000E+00  0.00000000000E+00  0.13045789849E+04  0.13045789849E+04  0.25500000920E-02 0.  1.
        2   -1    0    0  501    0  0.00000000000E+00  0.00000000000E+00 -0.17175868713E+04  0.17175868713E+04  0.25500000920E-02 0. -1.
    10030    2    1    2    0    0  0.00000000000E+00  0.00000000000E+00 -0.41300788644E+03  0.30221658562E+04  0.29938121097E+04 0.  0.
        2    1    3    3  502    0 -0.39900264501E+03 -0.53834723192E+03  0.11447196981E+04  0.13264252863E+04  0.25500000920E-02 0.  1.
       -2    1    3    3    0  502  0.39900264501E+03  0.53834723192E+03 -0.15577275846E+04  0.16957405699E+04  0.25500000920E-02 0. -1.
</event>
<event>
 5   0  0.3896630E-06  0.2992730E+04  0.7818609E-02  0.8245810E-01
        1   -1    0    0  501    0  0.00000000000E+00  0.00000000000E+00  0.13634870314E+04  0.13634870314E+04  0.50400001928E-02 0.  1.
       -1   -1    0    0    0  501  0.00000000000E+00  0.00000000000E+00 -0.16421926374E+04  0.16421926374E+04  0.50400001928E-02 0. -1.
    10030    2    1    2    0    0  0.00000000000E+00  0.00000000000E+00 -0.27870560596E+03  0.30056796689E+04  0.29927301009E+04 0.  0.
        5    1    3    3  502    0 -0.18138509560E+03  0.38865886411E+03  0.13004227406E+04  0.13693347509E+04  0.46999998093E+01 0.  1.
       -5    1    3    3    0  502  0.18138509560E+03 -0.38865886411E+03 -0.15791283466E+04  0.16363449180E+04  0.46999998093E+01 0. -1.
</event>
<event>
 5   0  0.1089569E-05  0.2686862E+04  0.7818609E-02  0.8339280E-01
       -2   -1    0    0    0  501  0.00000000000E+00  0.00000000000E+00  0.10973480246E+04  0.10973480246E+04  0.25500000920E-02 0. -1.
        2   -1    0    0  501    0  0.00000000000E+00  0.00000000000E+00 -0.16446989554E+04  0.16446989554E+04  0.25500000920E-02 0.  1.
    10030    2    1    2    0    0  0.00000000000E+00  0.00000000000E+00 -0.54735093080E+03  0.27420469799E+04  0.26868622217E+04 0.  0.
        5    1    3    3  502    0  0.25177800342E+03 -0.92831975896E+03  0.68346546208E+03  0.11799647731E+04  0.46999998093E+01 0. -1.
       -5    1    3    3    0  502 -0.25177800342E+03  0.92831975896E+03 -0.12308163929E+04  0.15620822068E+04  0.46999998093E+01 0.  1.
</event>
<event>
 5   0  0.9647945E-06  0.3018833E+04  0.7818609E-02  0.8238373E-01
        2   -1    0    0  501    0  0.00000000000E+00  0.00000000000E+00  0.18180239740E+04  0.18180239740E+04  0.25500000920E-02 0. -1.
       -2   -1    0    0    0  501  0.00000000000E+00  0.00000000000E+00 -0.12531949804E+04  0.12531949804E+04  0.25500000920E-02 0.  1.
    10030    2    1    2    0    0  0.00000000000E+00  0.00000000000E+00  0.56482899361E+03  0.30712189543E+04  0.30188332305E+04 0.  0.
        2    1    3    3  502    0  0.29929898855E+03 -0.38275222672E+03 -0.11714606272E+04  0.12682267749E+04  0.25500000920E-02 0.  1.
       -2    1    3    3    0  502 -0.29929898855E+03  0.38275222672E+03  0.17362896208E+04  0.18029921794E+04  0.25500000920E-02 0. -1.
</event>
<event>
 5   0  0.3725232E-06  0.2345641E+04  0.7818609E-02  0.8460140E-01
        1   -1    0    0  501    0  0.00000000000E+00  0.00000000000E+00  0.20188206310E+04  0.20188206310E+04  0.50400001928E-02 0. -1.
       -1   -1    0    0    0  501  0.00000000000E+00  0.00000000000E+00 -0.68134248362E+03  0.68134248363E+03  0.50400001928E-02 0.  1.
    10030    2    1    2    0    0  0.00000000000E+00  0.00000000000E+00  0.13374781474E+04  0.27001631146E+04  0.23456412878E+04 0.  0.
        2    1    3    3  502    0  0.63802339651E+03  0.32898042948E+03  0.17363910508E+04  0.18789241227E+04  0.25500000920E-02 0. -1.
       -2    1    3    3    0  502 -0.63802339651E+03 -0.32898042948E+03 -0.39891290339E+03  0.82123899199E+03  0.25500000920E-02 0.  1.
</event>
<event>
 5   0  0.3592331E-06  0.3004776E+04  0.7818609E-02  0.8242368E-01
       -1   -1    0    0    0  501  0.00000000000E+00  0.00000000000E+00  0.13910326655E+04  0.13910326656E+04  0.50400001928E-02 0. -1.
        1   -1    0    0  501    0  0.00000000000E+00  0.00000000000E+00 -0.16226578057E+04  0.16226578057E+04  0.50400001928E-02 0.  1.
    10030    2    1    2    0    0  0.00000000000E+00  0.00000000000E+00 -0.23162514012E+03  0.30136904712E+04  0.30047762065E+04 0.  0.
        3    1    3    3  502    0 -0.10553011138E+04 -0.28458625093E+03  0.91803167992E+03  0.14273864055E+04  0.10100000352E+00 0. -1.
       -3    1    3    3    0  502  0.10553011138E+04  0.28458625093E+03 -0.11496568200E+04  0.15863040658E+04  0.10100000352E+00 0.  1.
</event>
<event>
 5   0  0.1029922E-05  0.3071234E+04  0.7818609E-02  0.8223677E-01
        2   -1    0    0  501    0  0.00000000000E+00  0.00000000000E+00  0.13230274782E+04  0.13230274782E+04  0.25500000920E-02 0. -1.
       -2   -1    0    0    0  501  0.00000000000E+00  0.00000000000E+00 -0.17823657917E+04  0.17823657917E+04  0.25500000920E-02 0.  1.
    10030    2    1    2    0    0  0.00000000000E+00  0.00000000000E+00 -0.45933831351E+03  0.31053932699E+04  0.30712335754E+04 0.  0.
        1    1    3    3  502    0 -0.11856402318E+04  0.10546480722E+03  0.75130377559E+03  0.14075947386E+04  0.50400001928E-02 0. -1.
       -1    1    3    3    0  502  0.11856402318E+04 -0.10546480722E+03 -0.12106420891E+04  0.16977985313E+04  0.50400001928E-02 0.  1.
</event>
<event>
 5   0  0.3592331E-06  0.3016679E+04  0.7818609E-02  0.8238984E-01
       -1   -1    0    0    0  501  0.00000000000E+00  0.00000000000E+00  0.81403743406E+03  0.81403743408E+03  0.50400001928E-02 0. -1.
        1   -1    0    0  501    0  0.00000000000E+00  0.00000000000E+00 -0.27948200386E+04  0.27948200386E+04  0.50400001928E-02 0.  1.
    10030    2    1    2    0    0  0.00000000000E+00  0.00000000000E+00 -0.19807826046E+04  0.36088574727E+04  0.30166790568E+04 0.  0.
        3    1    3    3  502    0 -0.29309139552E+02  0.14547103779E+04 -0.14659821566E+04  0.20654648394E+04  0.10100000352E+00 0.  1.
       -3    1    3    3    0  502  0.29309139552E+02 -0.14547103779E+04 -0.51480044797E+03  0.15433926333E+04  0.10100000352E+00 0. -1.
</event>
<event>
 5   0  0.9647945E-06  0.2890670E+04  0.7818609E-02  0.8275659E-01
       -2   -1    0    0    0  501  0.00000000000E+00  0.00000000000E+00  0.84785794801E+03  0.84785794801E+03  0.25500000920E-02 0.  1.
        2   -1    0    0  501    0  0.00000000000E+00  0.00000000000E+00 -0.24638481497E+04  0.24638481497E+04  0.25500000920E-02 0. -1.
    10030    2    1    2    0    0  0.00000000000E+00  0.00000000000E+00 -0.16159902017E+04  0.33117060977E+04  0.28906699822E+04 0.  0.
        2    1    3    3  502    0  0.61693687885E+02  0.80948282744E+02 -0.24597375906E+04  0.24618423488E+04  0.25500000920E-02 0. -1.
       -2    1    3    3    0  502 -0.61693687885E+02 -0.80948282744E+02  0.84374738887E+03  0.84986374898E+03  0.25500000920E-02 0.  1.
</event>
<event>
 5   0  0.1028450E-05  0.2968183E+04  0.7818609E-02  0.8252875E-01
        2   -1    0    0  501    0  0.00000000000E+00  0.00000000000E+00  0.18926272461E+04  0.18926272461E+04  0.25500000920E-02 0.  1.
       -2   -1    0    0    0  501  0.00000000000E+00  0.00000000000E+00 -0.11637411782E+04  0.11637411782E+04  0.25500000920E-02 0. -1.
    10030    2    1    2    0    0  0.00000000000E+00  0.00000000000E+00  0.72888606785E+03  0.30563684243E+04  0.29681834588E+04 0.  0.
        3    1    3    3  502    0  0.93105967778E+03  0.58814709908E+03  0.13888566242E+04  0.17724874800E+04  0.10100000352E+00 0.  1.
       -3    1    3    3    0  502 -0.93105967778E+03 -0.58814709908E+03 -0.65997055637E+03  0.12838809443E+04  0.10100000352E+00 0. -1.
</event>
<event>
 5   0  0.1029922E-05  0.3010484E+04  0.7818609E-02  0.8240743E-01
        2   -1    0    0  501    0  0.00000000000E+00  0.00000000000E+00  0.18840167177E+04  0.18840167177E+04  0.25500000920E-02 0.  1.
       -2   -1    0    0    0  501  0.00000000000E+00  0.00000000000E+00 -0.12026184299E+04  0.12026184299E+04  0.25500000920E-02 0. -1.
    10030    2    1    2    0    0  0.00000000000E+00  0.00000000000E+00  0.68139828780E+03  0.30866351477E+04  0.30104838329E+04 0.  0.
        1    1    3    3  502    0 -0.11494396417E+04  0.82485860651E+03  0.86765510159E+03  0.16596471269E+04  0.50400001928E-02 0.  1.
       -1    1    3    3    0  502  0.11494396417E+04 -0.82485860651E+03 -0.18625681378E+03  0.14269880207E+04  0.50400001928E-02 0. -1.
</event>
<event>
 5   0  0.1089569E-05  0.2968694E+04  0.7818609E-02  0.8252727E-01
       -2   -1    0    0    0  501  0.00000000000E+00  0.00000000000E+00  0.14146514637E+04  0.14146514637E+04  0.25500000920E-02 0.  1.
        2   -1    0    0  501    0  0.00000000000E+00  0.00000000000E+00 -0.15574765991E+04  0.15574765991E+04  0.25500000920E-02 0. -1.
    10030    2    1    2    0    0  0.00000000000E+00  0.00000000000E+00 -0.14282513541E+03  0.29721280628E+04  0.29686943598E+04 0.  0.
        5    1    3    3  502    0 -0.60613552257E+03  0.95046188968E+03  0.89535768930E+03  0.14396060424E+04  0.46999998093E+01 0.  1.
       -5    1    3    3    0  502  0.60613552257E+03 -0.95046188968E+03 -0.10381828247E+04  0.15325220204E+04  0.46999998093E+01 0. -1.
</event>
<event>
 5   0  0.3636718E-06  0.3014098E+04  0.7818609E-02  0.8239717E-01
        1   -1    0    0  501    0  0.00000000000E+00  0.00000000000E+00  0.18830059619E+04  0.18830059619E+04  0.50400001928E-02 0.  1.
       -1   -1    0    0    0  501  0.00000000000E+00  0.00000000000E+00 -0.12061546179E+04  0.12061546179E+04  0.50400001928E-02 0. -1.
    10030    2    1    2    0    0  0.00000000000E+00  0.00000000000E+00  0.67685134404E+03  0.30891605799E+04  0.30140977665E+04 0.  0.
        4    1    3    3  502    0  0.97858731856E+03  0.11454133456E+04  0.29755973922E+03  0.15356263489E+04  0.12699999809E+01 0.  1.
       -4    1    3    3    0  502 -0.97858731856E+03 -0.11454133456E+04  0.37929160482E+03  0.15535342309E+04  0.12699999809E+01 0. -1.
</event>
<event>
 5   0  0.3896630E-06  0.3040961E+04  0.7818609E-02  0.8232130E-01
        1   -1    0    0  501    0  0.00000000000E+00  0.00000000000E+00  0.19926132228E+04  0.19926132228E+04  0.50400001928E-02 0.  1.
       -1   -1    0    0    0  501  0.00000000000E+00  0.00000000000E+00 -0.11602155876E+04  0.11602155876E+04  0.50400001928E-02 0. -1.
    10030    2    1    2    0    0  0.00000000000E+00  0.00000000000E+00  0.83239763518E+03  0.31528288104E+04  0.30409609805E+04 0.  0.
        5    1    3    3  502    0 -0.13442617460E+04  0.44899524108E+03 -0.15469574305E+03  0.14256890374E+04  0.46999998093E+01 0.  1.
       -5    1    3    3    0  502  0.13442617460E+04 -0.44899524108E+03  0.98709337822E+03  0.17271397730E+04  0.46999998093E+01 0. -1.
</event>
<event>
 5   0  0.1057036E-05  0.2603574E+04  0.7818609E-02  0.8366988E-01
       -2   -1    0    0    0  501  0.00000000000E+00  0.00000000000E+00  0.69003777210E+03  0.69003777211E+03  0.25500000920E-02 0. -1.
        2   -1    0    0  501    0  0.00000000000E+00  0.00000000000E+00 -0.24558788373E+04  0.24558788373E+04  0.25500000920E-02 0.  1.
    10030    2    1    2    0    0  0.00000000000E+00  0.00000000000E+00 -0.17658410652E+04  0.31459166094E+04  0.26035738218E+04 0.  0.
        4    1    3    3  502    0  0.11919499374E+04  0.10911350977E+03 -0.26444064237E+03  0.12257980574E+04  0.12699999809E+01 0. -1.
       -4    1    3    3    0  502 -0.11919499374E+04 -0.10911350977E+03 -0.15014004228E+04  0.19201185520E+04  0.12699999809E+01 0.  1.
</event>
<event>
 5   0  0.3636718E-06  0.3057519E+04  0.7818609E-02  0.8227494E-01
       -1   -1    0    0    0  501  0.00000000000E+00  0.00000000000E+00  0.11568946808E+04  0.11568946808E+04  0.50400001928E-02 0.  1.
        1   -1    0    0  501    0  0.00000000000E+00  0.00000000000E+00 -0.20201535864E+04  0.20201535864E+04  0.50400001928E-02 0. -1.
    10030    2    1    2    0    0  0.00000000000E+00  0.00000000000E+00 -0.86325890560E+03  0.31770482672E+04  0.30575185616E+04 0.  0.
        4    1    3    3  502    0  0.10182724142E+04 -0.89782227636E+03 -0.11620611611E+04  0.17869950488E+04  0.12699999809E+01 0. -1.
       -4    1    3    3    0  502 -0.10182724142E+04  0.89782227636E+03  0.29880225547E+03  0.13900532185E+04  0.12699999809E+01 0.  1.
</event>
<event>
 5   0  0.3592331E-06  0.2944067E+04  0.7818609E-02  0.8259886E-01
        1   -1    0    0  501    0  0.00000000000E+00  0.00000000000E+00  0.13255953583E+04  0.13255953583E+04  0.50400001928E-02 0.  1.
       -1   -1    0    0    0  501  0.00000000000E+00  0.00000000000E+00 -0.16346490909E+04  0.16346490909E+04  0.50400001928E-02 0. -1.
    10030    2    1    2    0    0  0.00000000000E+00  0.00000000000E+00 -0.30905373258E+03  0.29602444492E+04  0.29440674227E+04 0.  0.
        3    1    3    3  502    0  0.10106114238E+04 -0.87493806437E+03 -0.77438090263E+03  0.15448358680E+04  0.10100000352E+00 0. -1.
       -3    1    3    3    0  502 -0.10106114238E+04  0.87493806437E+03  0.46532717006E+03  0.14154085812E+04  0.10100000352E+00 0.  1.
</event>
<event>
 5   0  0.1029922E-05  0.2975598E+04  0.7818609E-02  0.8250734E-01
        2   -1    0    0  501    0  0.00000000000E+00  0.00000000000E+00  0.18624845198E+04  0.18624845198E+04  0.25500000920E-02 0.  1.
       -2   -1    0    0    0  501  0.00000000000E+00  0.00000000000E+00 -0.11884906626E+04  0.11884906626E+04  0.25500000920E-02 0. -1.
    10030    2    1    2    0    0  0.00000000000E+00  0.00000000000E+00  0.67399385720E+03  0.30509751823E+04  0.29755977288E+04 0.  0.
        1    1    3    3  502    0 -0.64002283112E+03  0.35201638052E+03  0.16659792025E+04  0.18190743414E+04  0.50400001928E-02 0.  1.
       -1    1    3    3    0  502  0.64002283112E+03 -0.35201638052E+03 -0.99198534529E+03  0.12319008409E+04  0.50400001928E-02 0. -1.
</event>
<event>
 5   0  0.3896630E-06  0.3025655E+04  0.7818609E-02  0.8236443E-01
       -1   -1    0    0    0  501  0.00000000000E+00  0.00000000000E+00  0.10344664849E+04  0.10344664849E+04  0.50400001928E-02 0.  1.
        1   -1    0    0  501    0  0.00000000000E+00  0.00000000000E+00 -0.22123930469E+04  0.22123930469E+04  0.50400001928E-02 0. -1.
    10030    2    1    2    0    0  0.00000000000E+00  0.00000000000E+00 -0.11779265620E+04  0.32468595318E+04  0.30256546125E+04 0.  0.
        5    1    3    3  502    0  0.29463396107E+02  0.89361584817E+03  0.72058550759E+03  0.11483392093E+04  0.46999998093E+01 0.  1.
       -5    1    3    3    0  502 -0.29463396107E+02 -0.89361584817E+03 -0.18985120696E+04  0.20985203226E+04  0.46999998093E+01 0. -1.
</event>
<event>
 5   0  0.1057036E-05  0.3011710E+04  0.7818609E-02  0.8240395E-01
        2   -1    0    0  501    0  0.00000000000E+00  0.00000000000E+00  0.14052250339E+04  0.14052250339E+04  0.25500000920E-02 0.  1.
       -2   -1    0    0    0  501  0.00000000000E+00  0.00000000000E+00 -0.16136913747E+04  0.16136913747E+04  0.25500000920E-02 0. -1.
    10030    2    1    2    0    0  0.00000000000E+00  0.00000000000E+00 -0.20846634075E+03  0.30189164086E+04  0.30117101565E+04 0.  0.
        4    1    3    3  502    0 -0.15993254201E+03  0.61906528164E+01 -0.16051405534E+04  0.16131009117E+04  0.12699999809E+01 0. -1.
       -4    1    3    3    0  502  0.15993254201E+03 -0.61906528164E+01  0.13966742126E+04  0.14058154969E+04  0.12699999809E+01 0.  1.
</event>
<event>
 5   0  0.1029922E-05  0.2898387E+04  0.7818609E-02  0.8273358E-01
       -2   -1    0    0    0  501  0.00000000000E+00  0.00000000000E+00  0.10581796636E+04  0.10581796636E+04  0.25500000920E-02 0. -1.
        2   -1    0    0  501    0  0.00000000000E+00  0.00000000000E+00 -0.19846928701E+04  0.19846928701E+04  0.25500000920E-02 0.  1.
    10030    2    1    2    0    0  0.00000000000E+00  0.00000000000E+00 -0.92651320659E+03  0.30428725337E+04  0.28983868849E+04 0.  0.
        1    1    3    3  502    0  0.59646934555E+03 -0.75256300217E+03 -0.16027360059E+04  0.18683922117E+04  0.50400001928E-02 0.  1.
       -1    1    3    3    0  502 -0.59646934555E+03  0.75256300217E+03  0.67622279926E+03  0.11744803220E+04  0.50400001928E-02 0. -1.
</event>
<event>
 5   0  0.1028450E-05  0.3021490E+04  0.7818609E-02  0.8237621E-01
        2   -1    0    0  501    0  0.00000000000E+00  0.00000000000E+00  0.19897463305E+04  0.19897463305E+04  0.25500000920E-02 0. -1.
       -2   -1    0    0    0  501  0.00000000000E+00  0.00000000000E+00 -0.11470556183E+04  0.11470556183E+04  0.25500000920E-02 0.  1.
    10030    2    1    2    0    0  0.00000000000E+00  0.00000000000E+00  0.84269071220E+03  0.31368019487E+04  0.30214895051E+04 0.  0.
        3    1    3    3  502    0 -0.89104295069E+03  0.11986692837E+04  0.65713458415E+03  0.16317449138E+04  0.10100000352E+00 0. -1.
       -3    1    3    3    0  502  0.89104295069E+03 -0.11986692837E+04  0.18555612805E+03  0.15050570350E+04  0.10100000352E+00 0.  1.
</event>
<event>
 5   0  0.9647945E-06  0.2978855E+04  0.7818609E-02  0.8249795E-01
       -2   -1    0    0    0  501  0.00000000000E+00  0.00000000000E+00  0.11672842924E+04  0.11672842924E+04  0.25500000920E-02 0. -1.
        2   -1    0    0  501    0  0.00000000000E+00  0.00000000000E+00 -0.19004745363E+04  0.19004745363E+04  0.25500000920E-02 0.  1.
    10030    2    1    2    0    0  0.00000000000E+00  0.00000000000E+00 -0.73319024390E+03  0.30677588286E+04  0.29788548634E+04 0.  0.
        2    1    3    3  502    0 -0.65107879731E+03 -0.64830238087E+03  0.84065142878E+03  0.12453491085E+04  0.25500000920E-02 0. -1.
       -2    1    3    3    0  502  0.65107879731E+03  0.64830238087E+03 -0.15738416727E+04  0.18224097201E+04  0.25500000920E-02 0.  1.
</event>
<event>
 5   0  0.1029922E-05  0.2999469E+04  0.7818609E-02  0.8243882E-01
       -2   -1    0    0    0  501  0.00000000000E+00  0.00000000000E+00  0.91453944208E+03  0.91453944209E+03  0.25500000920E-02 0.  1.
        2   -1    0    0  501    0  0.00000000000E+00  0.00000000000E+00 -0.24593842406E+04  0.24593842406E+04  0.25500000920E-02 0. -1.
    10030    2    1    2    0    0  0.00000000000E+00  0.00000000000E+00 -0.15448447986E+04  0.33739236827E+04  0.29994692139E+04 0.  0.
        1    1    3    3  502    0  0.76314448987E+03 -0.99437061106E+03  0.15380787775E+03  0.12628615474E+04  0.50400001928E-02 0.  1.
       -1    1    3    3    0  502 -0.76314448987E+03  0.99437061106E+03 -0.16986526763E+04  0.21110621354E+04  0.50400001928E-02 0. -1.
</event>
<event>
 5   0  0.1089569E-05  0.3166733E+04  0.7818609E-02  0.8197658E-01
       -2   -1    0    0    0  501  0.00000000000E+00  0.00000000000E+00  0.22677571448E+04  0.22677571448E+04  0.25500000920E-02 0.  1.
        2   -1    0    0  501    0  0.00000000000E+00  0.00000000000E+00 -0.11055195216E+04  0.11055195216E+04  0.25500000920E-02 0. -1.
    10030    2    1    2    0    0  0.00000000000E+00  0.00000000000E+00  0.11622376232E+04  0.33732766664E+04  0.31667332024E+04 0.  0.
        5    1    3    3  502    0 -0.38720724600E+03 -0.15006764552E+04  0.23583469051E+03  0.15676732331E+04  0.46999998093E+01 0.  1.
       -5    1    3    3    0  502  0.38720724600E+03  0.15006764552E+04  0.92640293268E+03  0.18056034333E+04  0.46999998093E+01 0. -1.
</event>
<event>
 5   0  0.9647945E-06  0.2997686E+04  0.7818609E-02  0.8244392E-01
       -2   -1    0    0    0  501  0.00000000000E+00  0.00000000000E+00  0.15052988891E+04  0.15052988891E+04  0.25500000920E-02 0. -1.
        2   -1    0    0  501    0  0.00000000000E+00  0.00000000000E+00 -0.14924149460E+04  0.14924149460E+04  0.25500000920E-02 0.  1.
    10030    2    1    2    0    0  0.00000000000E+00  0.00000000000E+00  0.12883943072E+02  0.29977138351E+04  0.29976861478E+04 0.  0.
        2    1    3    3  502    0  0.11231563098E+04  0.88491920320E+03  0.45585514304E+03  0.15007884607E+04  0.25500000920E-02 0. -1.
       -2    1    3    3    0  502 -0.11231563098E+04 -0.88491920320E+03 -0.44297119997E+03  0.14969253744E+04  0.25500000920E-02 0.  1.
</event>
<event>
 5   0  0.3592331E-06  0.2967770E+04  0.7818609E-02  0.8252995E-01
       -1   -1    0    0    0  501  0.00000000000E+00  0.00000000000E+00  0.23595779979E+04  0.23595779979E+04  0.50400001928E-02 0.  1.
        1   -1    0    0  501    0  0.00000000000E+00  0.00000000000E+00 -0.93318186963E+03  0.93318186964E+03  0.50400001928E-02 0. -1.
    10030    2    1    2    0    0  0.00000000000E+00  0.00000000000E+00  0.14263961283E+04  0.32927598676E+04  0.29677704815E+04 0.  0.
        3    1    3    3  502    0  0.74281779069E+03  0.11603593337E+04  0.10175709357E+03  0.13815088019E+04  0.10100000352E+00 0.  1.
       -3    1    3    3    0  502 -0.74281779069E+03 -0.11603593337E+04  0.13246390347E+04  0.19112510657E+04  0.10100000352E+00 0. -1.
</event>
<event>
 5   0  0.3852126E-06  0.2935793E+04  0.7818609E-02  0.8262307E-01
       -1   -1    0    0    0  501  0.00000000000E+00  0.00000000000E+00  0.16889344745E+04  0.16889344745E+04  0.50400001928E-02 0.  1.
        1   -1    0    0  501    0  0.00000000000E+00  0.00000000000E+00 -0.12757865537E+04  0.12757865537E+04  0.50400001928E-02 0. -1.
    10030    2    1    2    0    0  0.00000000000E+00  0.00000000000E+00  0.41314792082E+03  0.29647210282E+04  0.29357928351E+04 0.  0.
        1    1    3    3  502    0 -0.49355054569E+03  0.46966470522E+02  0.16018254921E+04  0.16767954251E+04  0.50400001928E-02 0.  1.
       -1    1    3    3    0  502  0.49355054569E+03 -0.46966470522E+02 -0.11886775713E+04  0.12879256031E+04  0.50400001928E-02 0. -1.
</event>
<event>
 5   0  0.9647945E-06  0.2958431E+04  0.7818609E-02  0.8255702E-01
       -2   -1    0    0    0  501  0.00000000000E+00  0.00000000000E+00  0.37893589137E+04  0.37893589137E+04  0.25500000920E-02 0.  1.
        2   -1    0    0  501    0  0.00000000000E+00  0.00000000000E+00 -0.57742724586E+03  0.57742724587E+03  0.25500000920E-02 0. -1.
    10030    2    1    2    0    0  0.00000000000E+00  0.00000000000E+00  0.32119316678E+04  0.43667861595E+04  0.29584313959E+04 0.  0.
        2    1    3    3  502    0  0.39210703656E+03  0.71276470799E+03 -0.21759407861E+03  0.84209776162E+03  0.25500000920E-02 0. -1.
       -2    1    3    3    0  502 -0.39210703656E+03 -0.71276470799E+03  0.34295257464E+04  0.35246883979E+04  0.25500000920E-02 0.  1.
</event>
<event>
 5   0  0.1089569E-05  0.2763402E+04  0.7818609E-02  0.8314721E-01
        2   -1    0    0  501    0  0.00000000000E+00  0.00000000000E+00  0.11051518521E+04  0.11051518521E+04  0.25500000920E-02 0.  1.
       -2   -1    0    0    0  501  0.00000000000E+00  0.00000000000E+00 -0.17274531332E+04  0.17274531332E+04  0.25500000920E-02 0. -1.
    10030    2    1    2    0    0  0.00000000000E+00  0.00000000000E+00 -0.62230128111E+03  0.28326049854E+04  0.27634022723E+04 0.  0.
        5    1    3    3  502    0  0.51758492244E+03  0.15664311732E+03  0.99216377565E+03  0.11299744536E+04  0.46999998093E+01 0.  1.
       -5    1    3    3    0  502 -0.51758492244E+03 -0.15664311732E+03 -0.16144650568E+04  0.17026305317E+04  0.46999998093E+01 0. -1.
</event>
<event>
 5   0  0.1089569E-05  0.2900407E+04  0.7818609E-02  0.8272756E-01
       -2   -1    0    0    0  501  0.00000000000E+00  0.00000000000E+00  0.20224772220E+04  0.20224772220E+04  0.25500000920E-02 0. -1.
        2   -1    0    0  501    0  0.00000000000E+00  0.00000000000E+00 -0.10398586669E+04  0.10398586669E+04  0.25500000920E-02 0.  1.
    10030    2    1    2    0    0  0.00000000000E+00  0.00000000000E+00  0.98261855508E+03  0.30623358889E+04  0.29004071906E+04 0.  0.
        5    1    3    3  502    0 -0.11461663331E+04 -0.47446983959E+03 -0.30179343818E+03  0.12766833050E+04  0.46999998093E+01 0.  1.
       -5    1    3    3    0  502  0.11461663331E+04  0.47446983959E+03  0.12844119933E+04  0.17856525839E+04  0.46999998093E+01 0. -1.
</event>
<event>
 5   0  0.3636718E-06  0.3083446E+04  0.7818609E-02  0.8220296E-01
        1   -1    0    0  501    0  0.00000000000E+00  0.00000000000E+00  0.17262477930E+04  0.17262477930E+04  0.50400001928E-02 0.  1.
       -1   -1    0    0    0  501  0.00000000000E+00  0.00000000000E+00 -0.13769225484E+04  0.13769225484E+04  0.50400001928E-02 0. -1.
    10030    2    1    2    0    0  0.00000000000E+00  0.00000000000E+00  0.34932524462E+03  0.31031703414E+04  0.30834458065E+04 0.  0.
        4    1    3    3  502    0 -0.11457287735E+04 -0.96026765100E+03  0.55403489963E+03  0.15942912742E+04  0.12699999809E+01 0. -1.
       -4    1    3    3    0  502  0.11457287735E+04  0.96026765100E+03 -0.20470965501E+03  0.15088790673E+04  0.12699999809E+01 0.  1.
</event>
<event>
 5   0  0.3313750E-06  0.2613581E+04  0.7818609E-02  0.8363603E-01
        3   -1    0    0  501    0  0.00000000000E+00  0.00000000000E+00  0.13077697387E+04  0.13077697426E+04  0.10100000352E+00 0.  1.
       -3   -1    0    0    0  501  0.00000000000E+00  0.00000000000E+00 -0.13058115196E+04  0.13058115236E+04  0.10100000352E+00 0. -1.
    10030    2    1    2    0    0  0.00000000000E+00  0.00000000000E+00  0.19582190458E+01  0.26135812661E+04  0.26135805326E+04 0.  0.
        2    1    3    3  502    0  0.60474417105E+03  0.35662695769E+03  0.11031602120E+04  0.13076164394E+04  0.25500000920E-02 0.  1.
       -2    1    3    3    0  502 -0.60474417105E+03 -0.35662695769E+03 -0.11012019929E+04  0.13059648267E+04  0.25500000920E-02 0. -1.
</event>
<event>
 5   0  0.1029922E-05  0.3303133E+04  0.7818609E-02  0.8162099E-01
        2   -1    0    0  501    0  0.00000000000E+00  0.00000000000E+00  0.16517528638E+04  0.16517528638E+04  0.25500000920E-02 0.  1.
       -2   -1    0    0    0  501  0.00000000000E+00  0.00000000000E+00 -0.16513804956E+04  0.16513804956E+04  0.25500000920E-02 0. -1.
    10030    2    1    2    0    0  0.00000000000E+00  0.00000000000E+00  0.37236817811E+00  0.33031333594E+04  0.33031333384E+04 0.  0.
        1    1    3    3  502    0 -0.11971707023E+02  0.83353338632E+03  0.14259320453E+04  0.16517274066E+04  0.50400001928E-02 0.  1.
       -1    1    3    3    0  502  0.11971707023E+02 -0.83353338632E+03 -0.14255596771E+04  0.16514059528E+04  0.50400001928E-02 0. -1.
</event>
<event>
 5   0  0.1057036E-05  0.2737025E+04  0.7818609E-02  0.8323091E-01
       -2   -1    0    0    0  501  0.00000000000E+00  0.00000000000E+00  0.15231691259E+04  0.15231691259E+04  0.25500000920E-02 0.  1.
        2   -1    0    0  501    0  0.00000000000E+00  0.00000000000E+00 -0.12295588511E+04  0.12295588511E+04  0.25500000920E-02 0. -1.
    10030    2    1    2    0    0  0.00000000000E+00  0.00000000000E+00  0.29361027482E+03  0.27527279770E+04  0.27370247207E+04 0.  0.
        4    1    3    3  502    0  0.92018065152E+03 -0.98248999819E+03  0.39480748567E+03  0.14028163072E+04  0.12699999809E+01 0.  1.
       -4    1    3    3    0  502 -0.92018065152E+03  0.98248999819E+03 -0.10119721085E+03  0.13499116698E+04  0.12699999809E+01 0. -1.
</event>
<event>
 5   0  0.9647945E-06  0.3342366E+04  0.7818609E-02  0.8152198E-01
        2   -1    0    0  501    0  0.00000000000E+00  0.00000000000E+00  0.14910658624E+04  0.14910658624E+04  0.25500000920E-02 0. -1.
       -2   -1    0    0    0  501  0.00000000000E+00  0.00000000000E+00 -0.18730574668E+04  0.18730574668E+04  0.25500000920E-02 0.  1.
    10030    2    1    2    0    0  0.00000000000E+00  0.00000000000E+00 -0.38199160447E+03  0.33641233292E+04  0.33423656575E+04 0.  0.
        2    1    3    3  502    0 -0.20552680098E+03 -0.11318468848E+04  0.10291386230E+04  0.15435170688E+04  0.25500000920E-02 0. -1.
       -2    1    3    3    0  502  0.20552680098E+03  0.11318468848E+04 -0.14111302274E+04  0.18206062604E+04  0.25500000920E-02 0.  1.
</event>
<event>
 5   0  0.9647945E-06  0.3042392E+04  0.7818609E-02  0.8231728E-01
       -2   -1    0    0    0  501  0.00000000000E+00  0.00000000000E+00  0.13163833647E+04  0.13163833647E+04  0.25500000920E-02 0.  1.
        2   -1    0    0  501    0  0.00000000000E+00  0.00000000000E+00 -0.17578746193E+04  0.17578746193E+04  0.25500000920E-02 0. -1.
    10030    2    1    2    0    0  0.00000000000E+00  0.00000000000E+00 -0.44149125463E+03  0.30742579840E+04  0.30423917604E+04 0.  0.
        2    1    3    3  502    0  0.13449135523E+04  0.22972662706E+03 -0.90045009668E+03  0.16347407020E+04  0.25500000920E-02 0. -1.
       -2    1    3    3    0  502 -0.13449135523E+04 -0.22972662706E+03  0.45895884205E+03  0.14395172819E+04  0.25500000920E-02 0.  1.
</event>
<event>
 5   0  0.3725232E-06  0.2988851E+04  0.7818609E-02  0.8246922E-01
        1   -1    0    0  501    0  0.00000000000E+00  0.00000000000E+00  0.16353998474E+04  0.16353998474E+04  0.50400001928E-02 0.  1.
       -1   -1    0    0    0  501  0.00000000000E+00  0.00000000000E+00 -0.13656031119E+04  0.13656031119E+04  0.50400001928E-02 0. -1.
    10030    2    1    2    0    0  0.00000000000E+00  0.00000000000E+00  0.26979673545E+03  0.30010029593E+04  0.29888506960E+04 0.  0.
        2    1    3    3  502    0  0.15039569837E+03  0.12386624453E+04  0.96067988517E+03  0.15747410458E+04  0.25500000920E-02 0.  1.
       -2    1    3    3    0  502 -0.15039569837E+03 -0.12386624453E+04 -0.69088314972E+03  0.14262619135E+04  0.25500000920E-02 0. -1.
</event>
<event>
 5   0  0.3592331E-06  0.2793941E+04  0.7818609E-02  0.8305152E-01
        1   -1    0    0  501    0  0.00000000000E+00  0.00000000000E+00  0.13361675014E+04  0.13361675014E+04  0.50400001928E-02 0. -1.
       -1   -1    0    0    0  501  0.00000000000E+00  0.00000000000E+00 -0.14605399505E+04  0.14605399505E+04  0.50400001928E-02 0.  1.
    10030    2    1    2    0    0  0.00000000000E+00  0.00000000000E+00 -0.12437244912E+03  0.27967074520E+04  0.27939405981E+04 0.  0.
        3    1    3    3  502    0  0.65620731134E+03  0.60245947326E+03 -0.11393376337E+04  0.14462557540E+04  0.10100000352E+00 0.  1.
       -3    1    3    3    0  502 -0.65620731134E+03 -0.60245947326E+03  0.10149651846E+04  0.13504516979E+04  0.10100000352E+00 0. -1.
</event>
<event>
 5   0  0.1089569E-05  0.3000070E+04  0.7818609E-02  0.8243711E-01
       -2   -1    0    0    0  501  0.00000000000E+00  0.00000000000E+00  0.11616717170E+04  0.11616717170E+04  0.25500000920E-02 0. -1.
        2   -1    0    0  501    0  0.00000000000E+00  0.00000000000E+00 -0.19369545855E+04  0.19369545855E+04  0.25500000920E-02 0.  1.
    10030    2    1    2    0    0  0.00000000000E+00  0.00000000000E+00 -0.77528286846E+03  0.30986263025E+04  0.30000702385E+04 0.  0.
        5    1    3    3  502    0 -0.73511733463E+03 -0.18406442472E+02 -0.17380117867E+04  0.18871786755E+04  0.46999998093E+01 0.  1.
       -5    1    3    3    0  502  0.73511733463E+03  0.18406442472E+02  0.96272891821E+03  0.12114476269E+04  0.46999998093E+01 0. -1.
</event>
<event>
 5   0  0.1029922E-05  0.2149739E+04  0.7818609E-02  0.8539644E-01
        2   -1    0    0  501    0  0.00000000000E+00  0.00000000000E+00  0.12488504558E+04  0.12488504558E+04  0.25500000920E-02 0.  1.
       -2   -1    0    0    0  501  0.00000000000E+00  0.00000000000E+00 -0.92512644518E+03  0.92512644518E+03  0.25500000920E-02 0. -1.
    10030    2    1    2    0    0  0.00000000000E+00  0.00000000000E+00  0.32372401061E+03  0.21739769010E+04  0.21497391309E+04 0.  0.
        1    1    3    3  502    0  0.62728099839E+03  0.84112986499E+03 -0.73927024298E+02  0.10518774195E+04  0.50400001928E-02 0. -1.
       -1    1    3    3    0  502 -0.62728099839E+03 -0.84112986499E+03  0.39765103490E+03  0.11220994815E+04  0.50400001928E-02 0.  1.
</event>
<event>
 5   0  0.3636718E-06  0.2982120E+04  0.7818609E-02  0.8248855E-01
       -1   -1    0    0    0  501  0.00000000000E+00  0.00000000000E+00  0.12315435131E+04  0.12315435131E+04  0.50400001928E-02 0. -1.
        1   -1    0    0  501    0  0.00000000000E+00  0.00000000000E+00 -0.18052630722E+04  0.18052630722E+04  0.50400001928E-02 0.  1.
    10030    2    1    2    0    0  0.00000000000E+00  0.00000000000E+00 -0.57371955911E+03  0.30368065853E+04  0.29821200687E+04 0.  0.
        4    1    3    3  502    0 -0.12088026312E+04  0.48298449889E+03  0.45364822585E+03  0.13785050428E+04  0.12699999809E+01 0. -1.
       -4    1    3    3    0  502  0.12088026312E+04 -0.48298449889E+03 -0.10273677850E+04  0.16583015425E+04  0.12699999809E+01 0.  1.
</event>
<event>
 5   0  0.3592331E-06  0.2999752E+04  0.7818609E-02  0.8243802E-01
       -1   -1    0    0    0  501  0.00000000000E+00  0.00000000000E+00  0.16685972124E+04  0.16685972124E+04  0.50400001928E-02 0. -1.
        1   -1    0    0  501    0  0.00000000000E+00  0.00000000000E+00 -0.13482151624E+04  0.13482151624E+04  0.50400001928E-02 0.  1.
    10030    2    1    2    0    0  0.00000000000E+00  0.00000000000E+00  0.32038204994E+03  0.30168123748E+04  0.29997520309E+04 0.  0.
        3    1    3    3  502    0  0.66559601237E+03 -0.46586140212E+03  0.14281481562E+04  0.16430617955E+04  0.10100000352E+00 0. -1.
       -3    1    3    3    0  502 -0.66559601237E+03  0.46586140212E+03 -0.11077661063E+04  0.13737505793E+04  0.10100000352E+00 0.  1.
</event>
<event>
 5   0  0.1089569E-05  0.3034912E+04  0.7818609E-02  0.8233831E-01
       -2   -1    0    0    0  501  0.00000000000E+00  0.00000000000E+00  0.13012547846E+04  0.13012547846E+04  0.25500000920E-02 0.  1.
        2   -1    0    0  501    0  0.00000000000E+00  0.00000000000E+00 -0.17695785437E+04  0.17695785437E+04  0.25500000920E-02 0. -1.
    10030    2    1    2    0    0  0.00000000000E+00  0.00000000000E+00 -0.46832375910E+03  0.30708333283E+04  0.30349118911E+04 0.  0.
        5    1    3    3  502    0 -0.99513303800E+03 -0.90086962884E+03 -0.95020632324E+03  0.16446184962E+04  0.46999998093E+01 0. -1.
       -5    1    3    3    0  502  0.99513303800E+03  0.90086962884E+03  0.48188256415E+03  0.14262148320E+04  0.46999998093E+01 0.  1.
</event>
<event>
 5   0  0.3725232E-06  0.2970053E+04  0.7818609E-02  0.8252334E-01
        1   -1    0    0  501    0  0.00000000000E+00  0.00000000000E+00  0.14653580572E+04  0.14653580572E+04  0.50400001928E-02 0.  1.
       -1   -1    0    0    0  501  0.00000000000E+00  0.00000000000E+00 -0.15049590303E+04  0.15049590303E+04  0.50400001928E-02 0. -1.
    10030    2    1    2    0    0  0.00000000000E+00  0.00000000000E+00 -0.39600973129E+02  0.29703170875E+04  0.29700530909E+04 0.  0.
        2    1    3    3  502    0  0.13266234047E+04 -0.80061883524E+00  0.64762195869E+03  0.14762603091E+04  0.25500000920E-02 0.  1.
       -2    1    3    3    0  502 -0.13266234047E+04  0.80061883524E+00 -0.68722293182E+03  0.14940567783E+04  0.25500000920E-02 0. -1.
</event>
<event>
 5   0  0.9647945E-06  0.2970032E+04  0.7818609E-02  0.8252341E-01
       -2   -1    0    0    0  501  0.00000000000E+00  0.00000000000E+00  0.89077568474E+03  0.89077568474E+03  0.25500000920E-02 0.  1.
        2   -1    0    0  501    0  0.00000000000E+00  0.00000000000E+00 -0.24756763784E+04  0.24756763784E+04  0.25500000920E-02 0. -1.
    10030    2    1    2    0    0  0.00000000000E+00  0.00000000000E+00 -0.15849006937E+04  0.33664520632E+04  0.29700318659E+04 0.  0.
        2    1    3    3  502    0  0.13621512456E+04  0.50011267253E+03 -0.11503545420E+04  0.18517246754E+04  0.25500000920E-02 0.  1.
       -2    1    3    3    0  502 -0.13621512456E+04 -0.50011267253E+03 -0.43454615163E+03  0.15147273877E+04  0.25500000920E-02 0. -1.
</event>
<event>
 5   0  0.1057036E-05  0.2965643E+04  0.7818609E-02  0.8253610E-01
        2   -1    0    0  501    0  0.00000000000E+00  0.00000000000E+00  0.14362701371E+04  0.14362701371E+04  0.25500000920E-02 0.  1.
       -2   -1    0    0    0  501  0.00000000000E+00  0.00000000000E+00 -0.15308821230E+04  0.15308821230E+04  0.25500000920E-02 0. -1.
    10030    2    1    2    0    0  0.00000000000E+00  0.00000000000E+00 -0.94611985909E+02  0.29671522601E+04  0.29656434558E+04 0.  0.
        4    1    3    3  502    0  0.35203147700E+03  0.13097526619E+04  0.55248250175E+03  0.14644509974E+04  0.12699999809E+01 0. -1.
       -4    1    3    3    0  502 -0.35203147700E+03 -0.13097526619E+04 -0.64709448766E+03  0.15027012627E+04  0.12699999809E+01 0.  1.
</event>
<event>
 5   0  0.3852126E-06  0.2142255E+04  0.7818609E-02  0.8542855E-01
        1   -1    0    0  501    0  0.00000000000E+00  0.00000000000E+00  0.21395862897E+04  0.21395862897E+04  0.50400001928E-02 0. -1.
       -1   -1    0    0    0  501  0.00000000000E+00  0.00000000000E+00 -0.53623198152E+03  0.53623198155E+03  0.50400001928E-02 0.  1.
    10030    2    1    2    0    0  0.00000000000E+00  0.00000000000E+00  0.16033543082E+04  0.26758182713E+04  0.21422554430E+04 0.  0.
        1    1    3    3  502    0 -0.64328562254E+03 -0.67383540011E+03  0.14619642334E+04  0.17335541406E+04  0.50400001928E-02 0. -1.
       -1    1    3    3    0  502  0.64328562254E+03  0.67383540011E+03  0.14139007474E+03  0.94226413063E+03  0.50400001928E-02 0.  1.
</event>
<event>
 5   0  0.3852126E-06  0.3021691E+04  0.7818609E-02  0.8237564E-01
        1   -1    0    0  501    0  0.00000000000E+00  0.00000000000E+00  0.18892916757E+04  0.18892916757E+04  0.50400001928E-02 0.  1.
       -1   -1    0    0    0  501  0.00000000000E+00  0.00000000000E+00 -0.12082067028E+04  0.12082067028E+04  0.50400001928E-02 0. -1.
    10030    2    1    2    0    0  0.00000000000E+00  0.00000000000E+00  0.68108497289E+03  0.30974983785E+04  0.30216914906E+04 0.  0.
        1    1    3    3  502    0 -0.10632351464E+04 -0.52989227783E+03 -0.61636457563E+03  0.13383422928E+04  0.50400001928E-02 0. -1.
       -1    1    3    3    0  502  0.10632351464E+04  0.52989227783E+03  0.12974495485E+04  0.17591560856E+04  0.50400001928E-02 0.  1.
</event>
<event>
 5   0  0.3896630E-06  0.2982844E+04  0.7818609E-02  0.8248647E-01
       -1   -1    0    0    0  501  0.00000000000E+00  0.00000000000E+00  0.15201182348E+04  0.15201182348E+04  0.50400001928E-02 0.  1.
        1   -1    0    0  501    0  0.00000000000E+00  0.00000000000E+00 -0.14632670208E+04  0.14632670208E+04  0.50400001928E-02 0. -1.
    10030    2    1    2    0    0  0.00000000000E+00  0.00000000000E+00  0.56851213997E+02  0.29833852556E+04  0.29828435297E+04 0.  0.
        5    1    3    3  502    0 -0.41043466122E+03 -0.14333266984E+04 -0.94594342550E+01  0.14909706927E+04  0.46999998093E+01 0. -1.
       -5    1    3    3    0  502  0.41043466122E+03  0.14333266984E+04  0.66310648252E+02  0.14924145629E+04  0.46999998093E+01 0.  1.
</event>
<event>
 5   0  0.1029922E-05  0.2952975E+04  0.7818609E-02  0.8257288E-01
        2   -1    0    0  501    0  0.00000000000E+00  0.00000000000E+00  0.81550340942E+03  0.81550340942E+03  0.25500000920E-02 0.  1.
       -2   -1    0    0    0  501  0.00000000000E+00  0.00000000000E+00 -0.26732136164E+04  0.26732136164E+04  0.25500000920E-02 0. -1.
    10030    2    1    2    0    0  0.00000000000E+00  0.00000000000E+00 -0.18577102070E+04  0.34887170258E+04  0.29529746482E+04 0.  0.
        1    1    3    3  502    0  0.43034444771E+03 -0.12925748253E+04 -0.25630501570E+03  0.13862316847E+04  0.50400001928E-02 0.  1.
       -1    1    3    3    0  502 -0.43034444771E+03  0.12925748253E+04 -0.16014051913E+04  0.21024853410E+04  0.50400001928E-02 0. -1.
</event>
<event>
 5   0  0.9647945E-06  0.2668093E+04  0.7818609E-02  0.8345433E-01
       -2   -1    0    0    0  501  0.00000000000E+00  0.00000000000E+00  0.16329982303E+04  0.16329982303E+04  0.25500000920E-02 0.  1.
        2   -1    0    0  501    0  0.00000000000E+00  0.00000000000E+00 -0.10898232636E+04  0.10898232636E+04  0.25500000920E-02 0. -1.
    10030    2    1    2    0    0  0.00000000000E+00  0.00000000000E+00  0.54317496675E+03  0.27228214939E+04  0.26680925477E+04 0.  0.
        2    1    3    3  502    0  0.10923316358E+04 -0.76565544907E+03  0.28813084950E+03  0.13647109788E+04  0.25500000920E-02 0. -1.
       -2    1    3    3    0  502 -0.10923316358E+04  0.76565544907E+03  0.25504411726E+03  0.13581105150E+04  0.25500000920E-02 0.  1.
</event>
<event>
 5   0  0.3636718E-06  0.2491162E+04  0.7818609E-02  0.8406141E-01
       -1   -1    0    0    0  501  0.00000000000E+00  0.00000000000E+00  0.76922375481E+03  0.76922375482E+03  0.50400001928E-02 0. -1.
        1   -1    0    0  501    0  0.00000000000E+00  0.00000000000E+00 -0.20169325282E+04  0.20169325282E+04  0.50400001928E-02 0.  1.
    10030    2    1    2    0    0  0.00000000000E+00  0.00000000000E+00 -0.12477087734E+04  0.27861562830E+04  0.24911623091E+04 0.  0.
        4    1    3    3  502    0  0.86001947009E+03 -0.90036709720E+03 -0.66221461166E+03  0.14102567863E+04  0.12699999809E+01 0.  1.
       -4    1    3    3    0  502 -0.86001947009E+03  0.90036709720E+03 -0.58549416173E+03  0.13758994967E+04  0.12699999809E+01 0. -1.
</event>
<event>
 5   0  0.3313750E-06  0.2981697E+04  0.7818609E-02  0.8248977E-01
        3   -1    0    0  501    0  0.00000000000E+00  0.00000000000E+00  0.16263155540E+04  0.16263155572E+04  0.10100000352E+00 0. -1.
       -3   -1    0    0    0  501  0.00000000000E+00  0.00000000000E+00 -0.13666653948E+04  0.13666653986E+04  0.10100000352E+00 0.  1.
    10030    2    1    2    0    0  0.00000000000E+00  0.00000000000E+00  0.25965015921E+03  0.29929809558E+04  0.29816969659E+04 0.  0.
        2    1    3    3  502    0  0.93408235690E+03 -0.27877356694E+03 -0.10024529318E+04  0.13982619324E+04  0.25500000920E-02 0.  1.
       -2    1    3    3    0  502 -0.93408235690E+03  0.27877356694E+03  0.12621030910E+04  0.15947190234E+04  0.25500000920E-02 0. -1.
</event>
<event>
 5   0  0.1029922E-05  0.2298345E+04  0.7818609E-02  0.8478574E-01
       -2   -1    0    0    0  501  0.00000000000E+00  0.00000000000E+00  0.92996629623E+03  0.92996629624E+03  0.25500000920E-02 0. -1.
        2   -1    0    0  501    0  0.00000000000E+00  0.00000000000E+00 -0.14200489364E+04  0.14200489364E+04  0.25500000920E-02 0.  1.
    10030    2    1    2    0    0  0.00000000000E+00  0.00000000000E+00 -0.49008264014E+03  0.23500152326E+04  0.22983451872E+04 0.  0.
        1    1    3    3  502    0  0.59496851406E+03 -0.25457620291E+03  0.72593982293E+03  0.97251488541E+03  0.50400001928E-02 0. -1.
       -1    1    3    3    0  502 -0.59496851406E+03  0.25457620291E+03 -0.12160224631E+04  0.13775003472E+04  0.50400001928E-02 0.  1.
</event>
<event>
 5   0  0.3592331E-06  0.3009468E+04  0.7818609E-02  0.8241033E-01
        1   -1    0    0  501    0  0.00000000000E+00  0.00000000000E+00  0.12308545286E+04  0.12308545287E+04  0.50400001928E-02 0. -1.
       -1   -1    0    0    0  501  0.00000000000E+00  0.00000000000E+00 -0.18395543670E+04  0.18395543670E+04  0.50400001928E-02 0.  1.
    10030    2    1    2    0    0  0.00000000000E+00  0.00000000000E+00 -0.60869983833E+03  0.30704088956E+04  0.30094676096E+04 0.  0.
        3    1    3    3  502    0 -0.54862935341E+03 -0.37585232038E+03  0.10727850898E+04  0.12621913457E+04  0.10100000352E+00 0. -1.
       -3    1    3    3    0  502  0.54862935341E+03  0.37585232038E+03 -0.16814849281E+04  0.18082175499E+04  0.10100000352E+00 0.  1.
</event>
<event>
 5   0  0.9647945E-06  0.2927437E+04  0.7818609E-02  0.8264761E-01
        2   -1    0    0  501    0  0.00000000000E+00  0.00000000000E+00  0.21482931559E+04  0.21482931559E+04  0.25500000920E-02 0.  1.
       -2   -1    0    0    0  501  0.00000000000E+00  0.00000000000E+00 -0.99728997989E+03  0.99728997989E+03  0.25500000920E-02 0. -1.
    10030    2    1    2    0    0  0.00000000000E+00  0.00000000000E+00  0.11510031760E+04  0.31455831358E+04  0.29274365840E+04 0.  0.
        2    1    3    3  502    0 -0.72622685792E+03  0.12644454799E+04  0.71244854085E+03  0.16229019515E+04  0.25500000920E-02 0.  1.
       -2    1    3    3    0  502  0.72622685792E+03 -0.12644454799E+04  0.43855463519E+03  0.15226811843E+04  0.25500000920E-02 0. -1.
</event>
<event>
 5   0  0.9647945E-06  0.3006770E+04  0.7818609E-02  0.8241800E-01
        2   -1    0    0  501    0  0.00000000000E+00  0.00000000000E+00  0.19366498149E+04  0.19366498149E+04  0.25500000920E-02 0.  1.
       -2   -1    0    0    0  501  0.00000000000E+00  0.00000000000E+00 -0.11670497284E+04  0.11670497284E+04  0.25500000920E-02 0. -1.
    10030    2    1    2    0    0  0.00000000000E+00  0.00000000000E+00  0.76960008655E+03  0.31036995433E+04  0.30067701212E+04 0.  0.
        2    1    3    3  502    0 -0.52717265131E+03  0.30836644546E+03 -0.10332268644E+04  0.12002327367E+04  0.25500000920E-02 0. -1.
       -2    1    3    3    0  502  0.52717265131E+03 -0.30836644546E+03  0.18028269509E+04  0.19034668066E+04  0.25500000920E-02 0.  1.
</event>
<event>
 5   0  0.9647945E-06  0.3019380E+04  0.7818609E-02  0.8238219E-01
       -2   -1    0    0    0  501  0.00000000000E+00  0.00000000000E+00  0.14380840129E+04  0.14380840129E+04  0.25500000920E-02 0. -1.
        2   -1    0    0  501    0  0.00000000000E+00  0.00000000000E+00 -0.15848609457E+04  0.15848609457E+04  0.25500000920E-02 0.  1.
    10030    2    1    2    0    0  0.00000000000E+00  0.00000000000E+00 -0.14677693280E+03  0.30229449585E+04  0.30193795313E+04 0.  0.
        2    1    3    3  502    0 -0.11046157598E+04  0.10140173532E+04 -0.24896949727E+03  0.15199976908E+04  0.25500000920E-02 0.  1.
       -2    1    3    3    0  502  0.11046157598E+04 -0.10140173532E+04  0.10219256447E+03  0.15029472677E+04  0.25500000920E-02 0. -1.
</event>
<event>
 5   0  0.1089569E-05  0.3026263E+04  0.7818609E-02  0.8236271E-01
        2   -1    0    0  501    0  0.00000000000E+00  0.00000000000E+00  0.17138335629E+04  0.17138335629E+04  0.25500000920E-02 0. -1.
       -2   -1    0    0    0  501  0.00000000000E+00  0.00000000000E+00 -0.13359332832E+04  0.13359332832E+04  0.25500000920E-02 0.  1.
    10030    2    1    2    0    0  0.00000000000E+00  0.00000000000E+00  0.37790027971E+03  0.30497668461E+04  0.30262632394E+04 0.  0.
        5    1    3    3  502    0 -0.36740086979E+03 -0.24216228496E+03  0.16479229838E+04  0.17056665037E+04  0.46999998093E+01 0. -1.
       -5    1    3    3    0  502  0.36740086979E+03  0.24216228496E+03 -0.12700227041E+04  0.13441003423E+04  0.46999998093E+01 0.  1.
</event>
<event>
 5   0  0.1029922E-05  0.2997545E+04  0.7818609E-02  0.8244432E-01
        2   -1    0    0  501    0  0.00000000000E+00  0.00000000000E+00  0.16813805939E+04  0.16813805939E+04  0.25500000920E-02 0. -1.
       -2   -1    0    0    0  501  0.00000000000E+00  0.00000000000E+00 -0.13359967155E+04  0.13359967155E+04  0.25500000920E-02 0.  1.
    10030    2    1    2    0    0  0.00000000000E+00  0.00000000000E+00  0.34538387845E+03  0.30173773094E+04  0.29975449628E+04 0.  0.
        1    1    3    3  502    0  0.59511271847E+03 -0.88386469455E+03  0.12336783058E+04  0.16301343835E+04  0.50400001928E-02 0. -1.
       -1    1    3    3    0  502 -0.59511271847E+03  0.88386469455E+03 -0.88829442734E+03  0.13872429260E+04  0.50400001928E-02 0.  1.
</event>
<event>
 5   0  0.1089569E-05  0.3043070E+04  0.7818609E-02  0.8231538E-01
        2   -1    0    0  501    0  0.00000000000E+00  0.00000000000E+00  0.16553238497E+04  0.16553238497E+04  0.25500000920E-02 0. -1.
       -2   -1    0    0    0  501  0.00000000000E+00  0.00000000000E+00 -0.13985598007E+04  0.13985598007E+04  0.25500000920E-02 0.  1.
    10030    2    1    2    0    0  0.00000000000E+00  0.00000000000E+00  0.25676404903E+03  0.30538836504E+04  0.30430704187E+04 0.  0.
        5    1    3    3  502    0  0.15147095883E+04  0.13786155046E+03  0.16971526180E+03  0.15304170360E+04  0.46999998093E+01 0.  1.
       -5    1    3    3    0  502 -0.15147095883E+04 -0.13786155046E+03  0.87048787227E+02  0.15234666144E+04  0.46999998093E+01 0. -1.
</event>
<event>
 5   0  0.3636718E-06  0.3046747E+04  0.7818609E-02  0.8230507E-01
       -1   -1    0    0    0  501  0.00000000000E+00  0.00000000000E+00  0.13464944086E+04  0.13464944086E+04  0.50400001928E-02 0. -1.
        1   -1    0    0  501    0  0.00000000000E+00  0.00000000000E+00 -0.17234878820E+04  0.17234878820E+04  0.50400001928E-02 0.  1.
    10030    2    1    2    0    0  0.00000000000E+00  0.00000000000E+00 -0.37699347337E+03  0.30699822906E+04  0.30467469842E+04 0.  0.
        4    1    3    3  502    0  0.58551257128E+03  0.19132717017E+03  0.12154105852E+04  0.13625914871E+04  0.12699999809E+01 0. -1.
       -4    1    3    3    0  502 -0.58551257128E+03 -0.19132717017E+03 -0.15924040586E+04  0.17073908035E+04  0.12699999809E+01 0.  1.
</event>
<event>
 5   0  0.3896630E-06  0.3006511E+04  0.7818609E-02  0.8241874E-01
       -1   -1    0    0    0  501  0.00000000000E+00  0.00000000000E+00  0.10779418819E+04  0.10779418819E+04  0.50400001928E-02 0. -1.
        1   -1    0    0  501    0  0.00000000000E+00  0.00000000000E+00 -0.20963807407E+04  0.20963807407E+04  0.50400001928E-02 0.  1.
    10030    2    1    2    0    0  0.00000000000E+00  0.00000000000E+00 -0.10184388588E+04  0.31743226226E+04  0.30065106691E+04 0.  0.
        5    1    3    3  502    0 -0.85841544951E+03 -0.69152480693E+03 -0.15883600911E+04  0.19333891257E+04  0.46999998093E+01 0.  1.
       -5    1    3    3    0  502  0.85841544951E+03  0.69152480693E+03  0.56992123231E+03  0.12409334968E+04  0.46999998093E+01 0. -1.
</event>
<event>
 5   0  0.1057036E-05  0.3061889E+04  0.7818609E-02  0.8226276E-01
        2   -1    0    0  501    0  0.00000000000E+00  0.00000000000E+00  0.20214410350E+04  0.20214410350E+04  0.25500000920E-02 0. -1.
       -2   -1    0    0    0  501  0.00000000000E+00  0.00000000000E+00 -0.11594653021E+04  0.11594653021E+04  0.25500000920E-02 0.  1.
    10030    2    1    2    0    0  0.00000000000E+00  0.00000000000E+00  0.86197573299E+03  0.31809063371E+04  0.30618887898E+04 0.  0.
        4    1    3    3  502    0 -0.12291988300E+04  0.90108140248E+03  0.28075815790E+03  0.15497432735E+04  0.12699999809E+01 0.  1.
       -4    1    3    3    0  502  0.12291988300E+04 -0.90108140248E+03  0.58121757509E+03  0.16311630636E+04  0.12699999809E+01 0. -1.
</event>
<event>
 5   0  0.9647945E-06  0.2969650E+04  0.7818609E-02  0.8252451E-01
       -2   -1    0    0    0  501  0.00000000000E+00  0.00000000000E+00  0.11818883598E+04  0.11818883598E+04  0.25500000920E-02 0. -1.
        2   -1    0    0  501    0  0.00000000000E+00  0.00000000000E+00 -0.18654095523E+04  0.18654095523E+04  0.25500000920E-02 0.  1.
    10030    2    1    2    0    0  0.00000000000E+00  0.00000000000E+00 -0.68352119250E+03  0.30472979120E+04  0.29696503741E+04 0.  0.
        2    1    3    3  502    0  0.11002506349E+03 -0.10403606363E+04 -0.14229953504E+04  0.17661742653E+04  0.25500000920E-02 0.  1.
       -2    1    3    3    0  502 -0.11002506349E+03  0.10403606363E+04  0.73947415787E+03  0.12811236468E+04  0.25500000920E-02 0. -1.
</event>
<event>
 5   0  0.3896630E-06  0.2986767E+04  0.7818609E-02  0.8247520E-01
       -1   -1    0    0    0  501  0.00000000000E+00  0.00000000000E+00  0.86124573088E+03  0.86124573090E+03  0.50400001928E-02 0. -1.
        1   -1    0    0  501    0  0.00000000000E+00  0.00000000000E+00 -0.25894985712E+04  0.25894985712E+04  0.50400001928E-02 0.  1.
    10030    2    1    2    0    0  0.00000000000E+00  0.00000000000E+00 -0.17282528403E+04  0.34507443021E+04  0.29867672086E+04 0.  0.
        5    1    3    3  502    0  0.62399855647E+03  0.10907495969E+04 -0.17963565141E+04  0.21922654258E+04  0.46999998093E+01 0.  1.
       -5    1    3    3    0  502 -0.62399855647E+03 -0.10907495969E+04  0.68103673810E+02  0.12584788762E+04  0.46999998093E+01 0. -1.
</event>
<event>
 5   0  0.3636718E-06  0.2912312E+04  0.7818609E-02  0.8269224E-01
        1   -1    0    0  501    0  0.00000000000E+00  0.00000000000E+00  0.20501877473E+04  0.20501877473E+04  0.50400001928E-02 0.  1.
       -1   -1    0    0    0  501  0.00000000000E+00  0.00000000000E+00 -0.10342417225E+04  0.10342417225E+04  0.50400001928E-02 0. -1.
    10030    2    1    2    0    0  0.00000000000E+00  0.00000000000E+00  0.10159460248E+04  0.30844294699E+04  0.29123115955E+04 0.  0.
        4    1    3    3  502    0  0.82596337803E+03 -0.11307306493E+04  0.93111072522E+03  0.16815873747E+04  0.12699999809E+01 0.  1.
       -4    1    3    3    0  502 -0.82596337803E+03  0.11307306493E+04  0.84835299587E+02  0.14028420952E+04  0.12699999809E+01 0. -1.
</event>
<event>
 5   0  0.1089569E-05  0.2780758E+04  0.7818609E-02  0.8309267E-01
       -2   -1    0    0    0  501  0.00000000000E+00  0.00000000000E+00  0.12743485289E+04  0.12743485289E+04  0.25500000920E-02 0. -1.
        2   -1    0    0  501    0  0.00000000000E+00  0.00000000000E+00 -0.15169738039E+04  0.15169738039E+04  0.25500000920E-02 0.  1.
    10030    2    1    2    0    0  0.00000000000E+00  0.00000000000E+00 -0.24262527500E+03  0.27913223328E+04  0.27807576919E+04 0.  0.
        5    1    3    3  502    0 -0.13392517640E+04  0.31883899088E+02 -0.49490854015E+03  0.14281345957E+04  0.46999998093E+01 0. -1.
       -5    1    3    3    0  502  0.13392517640E+04 -0.31883899088E+02  0.25228326515E+03  0.13631877370E+04  0.46999998093E+01 0.  1.
</event>
<event>
 5   0  0.3725232E-06  0.2997723E+04  0.7818609E-02  0.8244381E-01
        1   -1    0    0  501    0  0.00000000000E+00  0.00000000000E+00  0.10148702732E+04  0.10148702732E+04  0.50400001928E-02 0. -1.
       -1   -1    0    0    0  501  0.00000000000E+00  0.00000000000E+00 -0.22136679013E+04  0.22136679013E+04  0.50400001928E-02 0.  1.
    10030    2    1    2    0    0  0.00000000000E+00  0.00000000000E+00 -0.11987976281E+04  0.32285381746E+04  0.29977229678E+04 0.  0.
        2    1    3    3  502    0  0.37367909548E+03 -0.14495665704E+04 -0.68075621060E+03  0.16444781320E+04  0.25500000920E-02 0.  1.
       -2    1    3    3    0  502 -0.37367909548E+03  0.14495665704E+04 -0.51804141751E+03  0.15840600426E+04  0.25500000920E-02 0. -1.
</event>
<event>
 5   0  0.3592331E-06  0.2977610E+04  0.7818609E-02  0.8250153E-01
       -1   -1    0    0    0  501  0.00000000000E+00  0.00000000000E+00  0.11074453125E+04  0.11074453125E+04  0.50400001928E-02 0.  1.
        1   -1    0    0  501    0  0.00000000000E+00  0.00000000000E+00 -0.20014897216E+04  0.20014897216E+04  0.50400001928E-02 0. -1.
    10030    2    1    2    0    0  0.00000000000E+00  0.00000000000E+00 -0.89404440910E+03  0.31089350342E+04  0.29776100553E+04 0.  0.
        3    1    3    3  502    0  0.37148611780E+03 -0.25414086131E+03  0.10347050261E+04  0.11283634230E+04  0.10100000352E+00 0.  1.
       -3    1    3    3    0  502 -0.37148611780E+03  0.25414086131E+03 -0.19287494352E+04  0.19805716112E+04  0.10100000352E+00 0. -1.
</event>
<event>
 5   0  0.3852126E-06  0.3074637E+04  0.7818609E-02  0.8222733E-01
        1   -1    0    0  501    0  0.00000000000E+00  0.00000000000E+00  0.15681090369E+04  0.15681090369E+04  0.50400001928E-02 0.  1.
       -1   -1    0    0    0  501  0.00000000000E+00  0.00000000000E+00 -0.15071324200E+04  0.15071324200E+04  0.50400001928E-02 0. -1.
    10030    2    1    2    0    0  0.00000000000E+00  0.00000000000E+00  0.60976616953E+02  0.30752414569E+04  0.30746368681E+04 0.  0.
        1    1    3    3  502    0 -0.47379280995E+03  0.12305297834E+04 -0.76002448853E+03  0.15219462532E+04  0.50400001928E-02 0. -1.
       -1    1    3    3    0  502  0.47379280995E+03 -0.12305297834E+04  0.82100110549E+03  0.15532952037E+04  0.50400001928E-02 0.  1.
</event>
<event>
 5   0  0.1029922E-05  0.3105625E+04  0.7818609E-02  0.8214196E-01
        2   -1    0    0  501    0  0.00000000000E+00  0.00000000000E+00  0.11393369804E+04  0.11393369804E+04  0.25500000920E-02 0. -1.
       -2   -1    0    0    0  501  0.00000000000E+00  0.00000000000E+00 -0.21163420986E+04  0.21163420986E+04  0.25500000920E-02 0.  1.
    10030    2    1    2    0    0  0.00000000000E+00  0.00000000000E+00 -0.97700511820E+03  0.32556790789E+04  0.31056251004E+04 0.  0.
        1    1    3    3  502    0 -0.18959681907E+03 -0.54403048251E+02  0.11261504688E+04  0.11432941546E+04  0.50400001928E-02 0. -1.
       -1    1    3    3    0  502  0.18959681907E+03  0.54403048251E+02 -0.21031555870E+04  0.21123849244E+04  0.50400001928E-02 0.  1.
</event>
<event>
 5   0  0.1028450E-05  0.3055036E+04  0.7818609E-02  0.8228187E-01
        2   -1    0    0  501    0  0.00000000000E+00  0.00000000000E+00  0.23672629361E+04  0.23672629361E+04  0.25500000920E-02 0. -1.
       -2   -1    0    0    0  501  0.00000000000E+00  0.00000000000E+00 -0.98565783263E+03  0.98565783263E+03  0.25500000920E-02 0.  1.
    10030    2    1    2    0    0  0.00000000000E+00  0.00000000000E+00  0.13816051035E+04  0.33529207687E+04  0.30550360095E+04 0.  0.
        3    1    3    3  502    0 -0.20954912328E+03  0.11315857185E+04  0.17931895144E+04  0.21307101441E+04  0.10100000352E+00 0. -1.
       -3    1    3    3    0  502  0.20954912328E+03 -0.11315857185E+04 -0.41158441098E+03  0.12222106246E+04  0.10100000352E+00 0.  1.
</event>
<event>
 5   0  0.1089569E-05  0.2995265E+04  0.7818609E-02  0.8245084E-01
        2   -1    0    0  501    0  0.00000000000E+00  0.00000000000E+00  0.14965941119E+04  0.14965941119E+04  0.25500000920E-02 0. -1.
       -2   -1    0    0    0  501  0.00000000000E+00  0.00000000000E+00 -0.14986718928E+04  0.14986718928E+04  0.25500000920E-02 0.  1.
    10030    2    1    2    0    0  0.00000000000E+00  0.00000000000E+00 -0.20777808938E+01  0.29952660047E+04  0.29952652840E+04 0.  0.
        5    1    3    3  502    0 -0.18700942310E+03  0.50328329721E+03 -0.13991146321E+04  0.14986028311E+04  0.46999998093E+01 0.  1.
       -5    1    3    3    0  502  0.18700942310E+03 -0.50328329721E+03  0.13970368512E+04  0.14966631736E+04  0.46999998093E+01 0. -1.
</event>
<event>
 5   0  0.1057036E-05  0.3010424E+04  0.7818609E-02  0.8240761E-01
        2   -1    0    0  501    0  0.00000000000E+00  0.00000000000E+00  0.11774400255E+04  0.11774400255E+04  0.25500000920E-02 0.  1.
       -2   -1    0    0    0  501  0.00000000000E+00  0.00000000000E+00 -0.19242274570E+04  0.19242274570E+04  0.25500000920E-02 0. -1.
    10030    2    1    2    0    0  0.00000000000E+00  0.00000000000E+00 -0.74678743148E+03  0.31016674826E+04  0.30104235092E+04 0.  0.
        4    1    3    3  502    0 -0.14572383782E+04  0.37697803211E+03 -0.37562395947E+03  0.15513707163E+04  0.12699999809E+01 0. -1.
       -4    1    3    3    0  502  0.14572383782E+04 -0.37697803211E+03 -0.37116347201E+03  0.15502967663E+04  0.12699999809E+01 0.  1.
</event>
<event>
 5   0  0.1029922E-05  0.3017842E+04  0.7818609E-02  0.8238654E-01
       -2   -1    0    0    0  501  0.00000000000E+00  0.00000000000E+00  0.97899984502E+03  0.97899984503E+03  0.25500000920E-02 0. -1.
        2   -1    0    0  501    0  0.00000000000E+00  0.00000000000E+00 -0.23256826577E+04  0.23256826577E+04  0.25500000920E-02 0.  1.
    10030    2    1    2    0    0  0.00000000000E+00  0.00000000000E+00 -0.13466828127E+04  0.33046825028E+04  0.30178422500E+04 0.  0.
        1    1    3    3  502    0  0.22277506564E+03  0.11214276633E+04 -0.17516242526E+04  0.20917495682E+04  0.50400001928E-02 0.  1.
       -1    1    3    3    0  502 -0.22277506564E+03 -0.11214276633E+04  0.40494143990E+03  0.12129329345E+04  0.50400001928E-02 0. -1.
</event>
<event>
 5   0  0.3636718E-06  0.1890096E+04  0.7818609E-02  0.8659802E-01
       -1   -1    0    0    0  501  0.00000000000E+00  0.00000000000E+00  0.86462574579E+03  0.86462574581E+03  0.50400001928E-02 0. -1.
        1   -1    0    0  501    0  0.00000000000E+00  0.00000000000E+00 -0.10329504615E+04  0.10329504615E+04  0.50400001928E-02 0.  1.
    10030    2    1    2    0    0  0.00000000000E+00  0.00000000000E+00 -0.16832471568E+03  0.18975762073E+04  0.18900958316E+04 0.  0.
        4    1    3    3  502    0  0.17933335848E+03 -0.16310147658E+03 -0.10012057859E+04  0.10301345464E+04  0.12699999809E+01 0.  1.
       -4    1    3    3    0  502 -0.17933335848E+03  0.16310147658E+03  0.83288107018E+03  0.86744166091E+03  0.12699999809E+01 0. -1.
</event>
<event>
 5   0  0.3592331E-06  0.2949390E+04  0.7818609E-02  0.8258332E-01
        1   -1    0    0  501    0  0.00000000000E+00  0.00000000000E+00  0.18837581125E+04  0.18837581125E+04  0.50400001928E-02 0. -1.
       -1   -1    0    0    0  501  0.00000000000E+00  0.00000000000E+00 -0.11544610997E+04  0.11544610997E+04  0.50400001928E-02 0.  1.
    10030    2    1    2    0    0  0.00000000000E+00  0.00000000000E+00  0.72929701280E+03  0.30382192123E+04  0.29493900808E+04 0.  0.
        3    1    3    3  502    0  0.13600877946E+04 -0.10205532335E+03 -0.21301833002E+03  0.13804459124E+04  0.10100000352E+00 0.  1.
       -3    1    3    3    0  502 -0.13600877946E+04  0.10205532335E+03  0.94231534282E+03  0.16577732998E+04  0.10100000352E+00 0. -1.
</event>
<event>
 5   0  0.1028450E-05  0.2983685E+04  0.7818609E-02  0.8248405E-01
        2   -1    0    0  501    0  0.00000000000E+00  0.00000000000E+00  0.83385724706E+03  0.83385724706E+03  0.25500000920E-02 0. -1.
       -2   -1    0    0    0  501  0.00000000000E+00  0.00000000000E+00 -0.26690341465E+04  0.26690341465E+04  0.25500000920E-02 0.  1.
    10030    2    1    2    0    0  0.00000000000E+00  0.00000000000E+00 -0.18351768994E+04  0.35028913935E+04  0.29836846118E+04 0.  0.
        3    1    3    3  502    0  0.49025291989E+03 -0.14053219934E+04 -0.10368283297E+04  0.18139158817E+04  0.10100000352E+00 0. -1.
       -3    1    3    3    0  502 -0.49025291989E+03  0.14053219934E+04 -0.79834856968E+03  0.16889755118E+04  0.10100000352E+00 0.  1.
</event>
<event>
 5   0  0.1028450E-05  0.3018039E+04  0.7818609E-02  0.8238598E-01
        2   -1    0    0  501    0  0.00000000000E+00  0.00000000000E+00  0.26850904587E+04  0.26850904587E+04  0.25500000920E-02 0. -1.
       -2   -1    0    0    0  501  0.00000000000E+00  0.00000000000E+00 -0.84806822733E+03  0.84806822733E+03  0.25500000920E-02 0.  1.
    10030    2    1    2    0    0  0.00000000000E+00  0.00000000000E+00  0.18370222314E+04  0.35331586861E+04  0.30180390359E+04 0.  0.
        3    1    3    3  502    0 -0.83226132055E+03 -0.68072138783E+03  0.21580505486E+04  0.24110625653E+04  0.10100000352E+00 0. -1.
       -3    1    3    3    0  502  0.83226132055E+03  0.68072138783E+03 -0.32102831717E+03  0.11220961207E+04  0.10100000352E+00 0.  1.
</event>
<event>
 5   0  0.3636718E-06  0.2952290E+04  0.7818609E-02  0.8257487E-01
        1   -1    0    0  501    0  0.00000000000E+00  0.00000000000E+00  0.78982303316E+03  0.78982303317E+03  0.50400001928E-02 0. -1.
       -1   -1    0    0    0  501  0.00000000000E+00  0.00000000000E+00 -0.27588514578E+04  0.27588514578E+04  0.50400001928E-02 0.  1.
    10030    2    1    2    0    0  0.00000000000E+00  0.00000000000E+00 -0.19690284247E+04  0.35486744910E+04  0.29522902476E+04 0.  0.
        4    1    3    3  502    0  0.41118904869E+03 -0.14142289935E+04 -0.86502033206E+03  0.17080345042E+04  0.12699999809E+01 0.  1.
       -4    1    3    3    0  502 -0.41118904869E+03  0.14142289935E+04 -0.11040080926E+04  0.18406399868E+04  0.12699999809E+01 0. -1.
</event>
<event>
 5   0  0.3852126E-06  0.2908331E+04  0.7818609E-02  0.8270403E-01
        1   -1    0    0  501    0  0.00000000000E+00  0.00000000000E+00  0.27587113807E+04  0.27587113807E+04  0.50400001928E-02 0.  1.
       -1   -1    0    0    0  501  0.00000000000E+00  0.00000000000E+00 -0.76651618828E+03  0.76651618830E+03  0.50400001928E-02 0. -1.
    10030    2    1    2    0    0  0.00000000000E+00  0.00000000000E+00  0.19921951924E+04  0.35252275690E+04  0.29083307461E+04 0.  0.
        1    1    3    3  502    0  0.88652724362E+03 -0.17042305776E+03 -0.38572391967E+03  0.98171152307E+03  0.50400001928E-02 0. -1.
       -1    1    3    3    0  502 -0.88652724362E+03  0.17042305776E+03  0.23779191120E+04  0.25435160459E+04  0.50400001928E-02 0.  1.
</event>
<event>
 5   0  0.1089569E-05  0.2944369E+04  0.7818609E-02  0.8259798E-01
       -2   -1    0    0    0  501  0.00000000000E+00  0.00000000000E+00  0.19128738765E+04  0.19128738765E+04  0.25500000920E-02 0.  1.
        2   -1    0    0  501    0  0.00000000000E+00  0.00000000000E+00 -0.11330211966E+04  0.11330211966E+04  0.25500000920E-02 0. -1.
    10030    2    1    2    0    0  0.00000000000E+00  0.00000000000E+00  0.77985267988E+03  0.30458950732E+04  0.29443686241E+04 0.  0.
        5    1    3    3  502    0 -0.87126469561E+03  0.32483521964E+03  0.15706339841E+04  0.18252488301E+04  0.46999998093E+01 0.  1.
       -5    1    3    3    0  502  0.87126469561E+03 -0.32483521964E+03 -0.79078130419E+03  0.12206462431E+04  0.46999998093E+01 0. -1.
</event>
<event>
 5   0  0.3852126E-06  0.3074415E+04  0.7818609E-02  0.8222795E-01
       -1   -1    0    0    0  501  0.00000000000E+00  0.00000000000E+00  0.15312174506E+04  0.15312174506E+04  0.50400001928E-02 0.  1.
        1   -1    0    0  501    0  0.00000000000E+00  0.00000000000E+00 -0.15432207996E+04  0.15432207996E+04  0.50400001928E-02 0. -1.
    10030    2    1    2    0    0  0.00000000000E+00  0.00000000000E+00 -0.12003348981E+02  0.30744382503E+04  0.30744148182E+04 0.  0.
        1    1    3    3  502    0 -0.40325066676E+03 -0.76070258950E+03 -0.12794818703E+04  0.15421910992E+04  0.50400001928E-02 0. -1.
       -1    1    3    3    0  502  0.40325066676E+03  0.76070258950E+03  0.12674785213E+04  0.15322471511E+04  0.50400001928E-02 0.  1.
</event>
<event>
 5   0  0.3852126E-06  0.2464997E+04  0.7818609E-02  0.8415563E-01
        1   -1    0    0  501    0  0.00000000000E+00  0.00000000000E+00  0.12494985895E+04  0.12494985895E+04  0.50400001928E-02 0. -1.
       -1   -1    0    0    0  501  0.00000000000E+00  0.00000000000E+00 -0.12157294685E+04  0.12157294685E+04  0.50400001928E-02 0.  1.
    10030    2    1    2    0    0  0.00000000000E+00  0.00000000000E+00  0.33769121031E+02  0.24652280580E+04  0.24649967595E+04 0.  0.
        1    1    3    3  502    0 -0.22586220119E+02  0.27377714015E+03 -0.11847223311E+04  0.12161542096E+04  0.50400001928E-02 0.  1.
       -1    1    3    3    0  502  0.22586220119E+02 -0.27377714015E+03  0.12184914521E+04  0.12490738484E+04  0.50400001928E-02 0. -1.
</event>
<event>
 5   0  0.1057036E-05  0.2100481E+04  0.7818609E-02  0.8561032E-01
       -2   -1    0    0    0  501  0.00000000000E+00  0.00000000000E+00  0.80394570134E+03  0.80394570135E+03  0.25500000920E-02 0. -1.
        2   -1    0    0  501    0  0.00000000000E+00  0.00000000000E+00 -0.13719891762E+04  0.13719891762E+04  0.25500000920E-02 0.  1.
    10030    2    1    2    0    0  0.00000000000E+00  0.00000000000E+00 -0.56804347489E+03  0.21759348776E+04  0.21004807074E+04 0.  0.
        4    1    3    3  502    0  0.66677337414E+03 -0.75200926450E+03 -0.59976318595E+03  0.11703940185E+04  0.12699999809E+01 0.  1.
       -4    1    3    3    0  502 -0.66677337414E+03  0.75200926450E+03  0.31719711062E+02  0.10055408591E+04  0.12699999809E+01 0. -1.
</event>
<event>
 5   0  0.3592331E-06  0.3034176E+04  0.7818609E-02  0.8234038E-01
       -1   -1    0    0    0  501  0.00000000000E+00  0.00000000000E+00  0.15885337085E+04  0.15885337085E+04  0.50400001928E-02 0.  1.
        1   -1    0    0  501    0  0.00000000000E+00  0.00000000000E+00 -0.14488557763E+04  0.14488557763E+04  0.50400001928E-02 0. -1.
    10030    2    1    2    0    0  0.00000000000E+00  0.00000000000E+00  0.13967793222E+03  0.30373894848E+04  0.30341761580E+04 0.  0.
        3    1    3    3  502    0  0.24616362718E+03  0.14889197334E+04  0.22517328677E+03  0.15258379741E+04  0.10100000352E+00 0.  1.
       -3    1    3    3    0  502 -0.24616362718E+03 -0.14889197334E+04 -0.85495354547E+02  0.15115515107E+04  0.10100000352E+00 0. -1.
</event>
<event>
 5   0  0.3592331E-06  0.3202562E+04  0.7818609E-02  0.8188141E-01
       -1   -1    0    0    0  501  0.00000000000E+00  0.00000000000E+00  0.13561738094E+04  0.13561738094E+04  0.50400001928E-02 0.  1.
        1   -1    0    0  501    0  0.00000000000E+00  0.00000000000E+00 -0.18906876905E+04  0.18906876905E+04  0.50400001928E-02 0. -1.
    10030    2    1    2    0    0  0.00000000000E+00  0.00000000000E+00 -0.53451388108E+03  0.32468614999E+04  0.32025621791E+04 0.  0.
        3    1    3    3  502    0  0.85050924748E+03 -0.13367213556E+04 -0.31857454148E+02  0.15846781598E+04  0.10100000352E+00 0.  1.
       -3    1    3    3    0  502 -0.85050924748E+03  0.13367213556E+04 -0.50265642693E+03  0.16621833401E+04  0.10100000352E+00 0. -1.
</event>
<event>
 5   0  0.3852126E-06  0.3018363E+04  0.7818609E-02  0.8238507E-01
       -1   -1    0    0    0  501  0.00000000000E+00  0.00000000000E+00  0.11652810688E+04  0.11652810688E+04  0.50400001928E-02 0.  1.
        1   -1    0    0  501    0  0.00000000000E+00  0.00000000000E+00 -0.19545744655E+04  0.19545744655E+04  0.50400001928E-02 0. -1.
    10030    2    1    2    0    0  0.00000000000E+00  0.00000000000E+00 -0.78929339672E+03  0.31198555343E+04  0.30183628822E+04 0.  0.
        1    1    3    3  502    0 -0.56700960645E+03 -0.74235239765E+02  0.10489608050E+04  0.11947089750E+04  0.50400001928E-02 0.  1.
       -1    1    3    3    0  502  0.56700960645E+03  0.74235239765E+02 -0.18382542017E+04  0.19251465593E+04  0.50400001928E-02 0. -1.
</event>
<event>
 5   0  0.3896630E-06  0.2951877E+04  0.7818609E-02  0.8257608E-01
        1   -1    0    0  501    0  0.00000000000E+00  0.00000000000E+00  0.93035169753E+03  0.93035169754E+03  0.50400001928E-02 0. -1.
       -1   -1    0    0    0  501  0.00000000000E+00  0.00000000000E+00 -0.23414742842E+04  0.23414742842E+04  0.50400001928E-02 0.  1.
    10030    2    1    2    0    0  0.00000000000E+00  0.00000000000E+00 -0.14111225867E+04  0.32718259818E+04  0.29518770808E+04 0.  0.
        5    1    3    3  502    0 -0.10038192260E+04 -0.91220650210E+03 -0.60598592734E+02  0.13577437241E+04  0.46999998093E+01 0. -1.
       -5    1    3    3    0  502  0.10038192260E+04  0.91220650210E+03 -0.13505239940E+04  0.19140822577E+04  0.46999998093E+01 0.  1.
</event>
<event>
 5   0  0.3896630E-06  0.3239498E+04  0.7818609E-02  0.8178463E-01
       -1   -1    0    0    0  501  0.00000000000E+00  0.00000000000E+00  0.16171974338E+04  0.16171974338E+04  0.50400001928E-02 0.  1.
        1   -1    0    0  501    0  0.00000000000E+00  0.00000000000E+00 -0.16223041797E+04  0.16223041797E+04  0.50400001928E-02 0. -1.
    10030    2    1    2    0    0  0.00000000000E+00  0.00000000000E+00 -0.51067459583E+01  0.32395016135E+04  0.32394975884E+04 0.  0.
        5    1    3    3  502    0  0.15117788295E+04  0.30789203245E+03 -0.49579969870E+03  0.16205283596E+04  0.46999998093E+01 0. -1.
       -5    1    3    3    0  502 -0.15117788295E+04 -0.30789203245E+03  0.49069295274E+03  0.16189732539E+04  0.46999998093E+01 0.  1.
</event>
<event>
 5   0  0.3725232E-06  0.1945712E+04  0.7818609E-02  0.8632431E-01
       -1   -1    0    0    0  501  0.00000000000E+00  0.00000000000E+00  0.80562705812E+03  0.80562705813E+03  0.50400001928E-02 0. -1.
        1   -1    0    0  501    0  0.00000000000E+00  0.00000000000E+00 -0.11747982294E+04  0.11747982294E+04  0.50400001928E-02 0.  1.
    10030    2    1    2    0    0  0.00000000000E+00  0.00000000000E+00 -0.36917117124E+03  0.19804252875E+04  0.19457124571E+04 0.  0.
        2    1    3    3  502    0 -0.61658817957E+03  0.72840568482E+03 -0.37688318557E+03  0.10260588484E+04  0.25500000920E-02 0.  1.
       -2    1    3    3    0  502  0.61658817957E+03 -0.72840568482E+03  0.77120143350E+01  0.95436643908E+03  0.25500000920E-02 0. -1.
</event>
<event>
 5   0  0.3725232E-06  0.2890632E+04  0.7818609E-02  0.8275670E-01
        1   -1    0    0  501    0  0.00000000000E+00  0.00000000000E+00  0.19164426404E+04  0.19164426404E+04  0.50400001928E-02 0. -1.
       -1   -1    0    0    0  501  0.00000000000E+00  0.00000000000E+00 -0.10900084707E+04  0.10900084708E+04  0.50400001928E-02 0.  1.
    10030    2    1    2    0    0  0.00000000000E+00  0.00000000000E+00  0.82643416963E+03  0.30064511111E+04  0.28906322573E+04 0.  0.
        2    1    3    3  502    0 -0.30989637859E+03  0.14107760825E+04  0.36004340077E+03  0.14886088039E+04  0.25500000920E-02 0.  1.
       -2    1    3    3    0  502  0.30989637859E+03 -0.14107760825E+04  0.46639076886E+03  0.15178423073E+04  0.25500000920E-02 0. -1.
</event>
<event>
 5   0  0.3725232E-06  0.2174300E+04  0.7818609E-02  0.8529202E-01
       -1   -1    0    0    0  501  0.00000000000E+00  0.00000000000E+00  0.97763801813E+03  0.97763801814E+03  0.50400001928E-02 0. -1.
        1   -1    0    0  501    0  0.00000000000E+00  0.00000000000E+00 -0.12089291440E+04  0.12089291440E+04  0.50400001928E-02 0.  1.
    10030    2    1    2    0    0  0.00000000000E+00  0.00000000000E+00 -0.23129112582E+03  0.21865671621E+04  0.21742999723E+04 0.  0.
        2    1    3    3  502    0 -0.93801288316E+03  0.52549748258E+03  0.46132557375E+02  0.10761709836E+04  0.25500000920E-02 0. -1.
       -2    1    3    3    0  502  0.93801288316E+03 -0.52549748258E+03 -0.27742368319E+03  0.11103961785E+04  0.25500000920E-02 0.  1.
</event>
<event>
 5   0  0.1089569E-05  0.2896472E+04  0.7818609E-02  0.8273928E-01
       -2   -1    0    0    0  501  0.00000000000E+00  0.00000000000E+00  0.12994831005E+04  0.12994831005E+04  0.25500000920E-02 0.  1.
        2   -1    0    0  501    0  0.00000000000E+00  0.00000000000E+00 -0.16140162290E+04  0.16140162290E+04  0.25500000920E-02 0. -1.
    10030    2    1    2    0    0  0.00000000000E+00  0.00000000000E+00 -0.31453312849E+03  0.29134993295E+04  0.28964715179E+04 0.  0.
        5    1    3    3  502    0  0.13620308636E+04 -0.45827610752E+03 -0.33782015650E+03  0.14762417187E+04  0.46999998093E+01 0. -1.
       -5    1    3    3    0  502 -0.13620308636E+04  0.45827610752E+03  0.23287028013E+02  0.14372576108E+04  0.46999998093E+01 0.  1.
</event>
<event>
 5   0  0.3852126E-06  0.3158492E+04  0.7818609E-02  0.8199866E-01
       -1   -1    0    0    0  501  0.00000000000E+00  0.00000000000E+00  0.24331904736E+04  0.24331904736E+04  0.50400001928E-02 0. -1.
        1   -1    0    0  501    0  0.00000000000E+00  0.00000000000E+00 -0.10249990465E+04  0.10249990466E+04  0.50400001928E-02 0.  1.
    10030    2    1    2    0    0  0.00000000000E+00  0.00000000000E+00  0.14081914271E+04  0.34581895201E+04  0.31584919918E+04 0.  0.
        1    1    3    3  502    0 -0.14031628907E+04 -0.20663838035E+03  0.14645905062E+04  0.20387719022E+04  0.50400001928E-02 0. -1.
       -1    1    3    3    0  502  0.14031628907E+04  0.20663838035E+03 -0.56399079177E+02  0.14194176180E+04  0.50400001928E-02 0.  1.
</event>
<event>
 5   0  0.1089569E-05  0.2934504E+04  0.7818609E-02  0.8262685E-01
        2   -1    0    0  501    0  0.00000000000E+00  0.00000000000E+00  0.22333253496E+04  0.22333253496E+04  0.25500000920E-02 0.  1.
       -2   -1    0    0    0  501  0.00000000000E+00  0.00000000000E+00 -0.96395659225E+03  0.96395659226E+03  0.25500000920E-02 0. -1.
    10030    2    1    2    0    0  0.00000000000E+00  0.00000000000E+00  0.12693687574E+04  0.31972819419E+04  0.29345041785E+04 0.  0.
        5    1    3    3  502    0  0.80462758248E+03 -0.12120612079E+04  0.42713003816E+03  0.15162387931E+04  0.46999998093E+01 0.  1.
       -5    1    3    3    0  502 -0.80462758248E+03  0.12120612079E+04  0.84223871921E+03  0.16810431488E+04  0.46999998093E+01 0. -1.
</event>
<event>
 5   0  0.3636718E-06  0.2817967E+04  0.7818609E-02  0.8297712E-01
        1   -1    0    0  501    0  0.00000000000E+00  0.00000000000E+00  0.11616364349E+04  0.11616364349E+04  0.50400001928E-02 0.  1.
       -1   -1    0    0    0  501  0.00000000000E+00  0.00000000000E+00 -0.17089977084E+04  0.17089977084E+04  0.50400001928E-02 0. -1.
    10030    2    1    2    0    0  0.00000000000E+00  0.00000000000E+00 -0.54736127351E+03  0.28706341434E+04  0.28179666466E+04 0.  0.
        4    1    3    3  502    0  0.24026058957E+02  0.52327961398E+03 -0.16061151743E+04  0.16893804698E+04  0.12699999809E+01 0. -1.
       -4    1    3    3    0  502 -0.24026058957E+02 -0.52327961398E+03  0.10587539008E+04  0.11812536735E+04  0.12699999809E+01 0.  1.
</event>
<event>
 5   0  0.1057036E-05  0.2728429E+04  0.7818609E-02  0.8325839E-01
        2   -1    0    0  501    0  0.00000000000E+00  0.00000000000E+00  0.15522030033E+04  0.15522030033E+04  0.25500000920E-02 0. -1.
       -2   -1    0    0    0  501  0.00000000000E+00  0.00000000000E+00 -0.11989932244E+04  0.11989932244E+04  0.25500000920E-02 0.  1.
    10030    2    1    2    0    0  0.00000000000E+00  0.00000000000E+00  0.35320977893E+03  0.27511962277E+04  0.27284287668E+04 0.  0.
        4    1    3    3  502    0 -0.33718248427E+03  0.37450678276E+03  0.14549105441E+04  0.15397122011E+04  0.12699999809E+01 0. -1.
       -4    1    3    3    0  502  0.33718248427E+03 -0.37450678276E+03 -0.11017007651E+04  0.12114840266E+04  0.12699999809E+01 0.  1.
</event>
<event>
 5   0  0.1029922E-05  0.2996329E+04  0.7818609E-02  0.8244780E-01
       -2   -1    0    0    0  501  0.00000000000E+00  0.00000000000E+00  0.11134627026E+04  0.11134627026E+04  0.25500000920E-02 0. -1.
        2   -1    0    0  501    0  0.00000000000E+00  0.00000000000E+00 -0.20157813566E+04  0.20157813566E+04  0.25500000920E-02 0.  1.
    10030    2    1    2    0    0  0.00000000000E+00  0.00000000000E+00 -0.90231865400E+03  0.31292440593E+04  0.29963293259E+04 0.  0.
        1    1    3    3  502    0 -0.10924652958E+04  0.14974292643E+03  0.60802582222E+03  0.12592056095E+04  0.50400001928E-02 0. -1.
       -1    1    3    3    0  502  0.10924652958E+04 -0.14974292643E+03 -0.15103444762E+04  0.18700384497E+04  0.50400001928E-02 0.  1.
</event>
<event>
 5   0  0.3592331E-06  0.2970806E+04  0.7818609E-02  0.8252117E-01
       -1   -1    0    0    0  501  0.00000000000E+00  0.00000000000E+00  0.12809933606E+04  0.12809933606E+04  0.50400001928E-02 0.  1.
        1   -1    0    0  501    0  0.00000000000E+00  0.00000000000E+00 -0.17224306144E+04  0.17224306144E+04  0.50400001928E-02 0. -1.
    10030    2    1    2    0    0  0.00000000000E+00  0.00000000000E+00 -0.44143725377E+03  0.30034239749E+04  0.29708060732E+04 0.  0.
        3    1    3    3  502    0 -0.12088962005E+03  0.15469761295E+03  0.12678182931E+04  0.12829298057E+04  0.10100000352E+00 0.  1.
       -3    1    3    3    0  502  0.12088962005E+03 -0.15469761295E+03 -0.17092555469E+04  0.17204941693E+04  0.10100000352E+00 0. -1.
</event>
<event>
 5   0  0.1028450E-05  0.2969307E+04  0.7818609E-02  0.8252550E-01
       -2   -1    0    0    0  501  0.00000000000E+00  0.00000000000E+00  0.13677657062E+04  0.13677657062E+04  0.25500000920E-02 0. -1.
        2   -1    0    0  501    0  0.00000000000E+00  0.00000000000E+00 -0.16115307224E+04  0.16115307224E+04  0.25500000920E-02 0.  1.
    10030    2    1    2    0    0  0.00000000000E+00  0.00000000000E+00 -0.24376501619E+03  0.29792964286E+04  0.29693072974E+04 0.  0.
        3    1    3    3  502    0 -0.71096240603E+03 -0.12554128282E+04 -0.47330001121E+03  0.15184010744E+04  0.10100000352E+00 0.  1.
       -3    1    3    3    0  502  0.71096240603E+03  0.12554128282E+04  0.22953499502E+03  0.14608953542E+04  0.10100000352E+00 0. -1.
</event>
<event>
 5   0  0.3852126E-06  0.3000391E+04  0.7818609E-02  0.8243619E-01
        1   -1    0    0  501    0  0.00000000000E+00  0.00000000000E+00  0.24460577872E+04  0.24460577872E+04  0.50400001928E-02 0.  1.
       -1   -1    0    0    0  501  0.00000000000E+00  0.00000000000E+00 -0.92008705933E+03  0.92008705934E+03  0.50400001928E-02 0. -1.
    10030    2    1    2    0    0  0.00000000000E+00  0.00000000000E+00  0.15259707279E+04  0.33661448466E+04  0.30003907188E+04 0.  0.
        1    1    3    3  502    0 -0.69432215425E+03  0.33065420932E+03  0.22080940641E+04  0.23381819553E+04  0.50400001928E-02 0.  1.
       -1    1    3    3    0  502  0.69432215425E+03 -0.33065420932E+03 -0.68212333622E+03  0.10279628913E+04  0.50400001928E-02 0. -1.
</event>
<event>
 5   0  0.9647945E-06  0.2641032E+04  0.7818609E-02  0.8354396E-01
       -2   -1    0    0    0  501  0.00000000000E+00  0.00000000000E+00  0.90641356947E+03  0.90641356948E+03  0.25500000920E-02 0. -1.
        2   -1    0    0  501    0  0.00000000000E+00  0.00000000000E+00 -0.19238043475E+04  0.19238043475E+04  0.25500000920E-02 0.  1.
    10030    2    1    2    0    0  0.00000000000E+00  0.00000000000E+00 -0.10173907780E+04  0.28302179170E+04  0.26410318935E+04 0.  0.
        2    1    3    3  502    0 -0.12946190787E+04  0.64493381699E+02 -0.23851536159E+03  0.13179861657E+04  0.25500000920E-02 0. -1.
       -2    1    3    3    0  502  0.12946190787E+04 -0.64493381699E+02 -0.77887541645E+03  0.15122317513E+04  0.25500000920E-02 0.  1.
</event>
<event>
 5   0  0.3636718E-06  0.2936968E+04  0.7818609E-02  0.8261963E-01
       -1   -1    0    0    0  501  0.00000000000E+00  0.00000000000E+00  0.13528336538E+04  0.13528336538E+04  0.50400001928E-02 0.  1.
        1   -1    0    0  501    0  0.00000000000E+00  0.00000000000E+00 -0.15940205167E+04  0.15940205167E+04  0.50400001928E-02 0. -1.
    10030    2    1    2    0    0  0.00000000000E+00  0.00000000000E+00 -0.24118686290E+03  0.29468541705E+04  0.29369675516E+04 0.  0.
        4    1    3    3  502    0 -0.14495563299E+04  0.29811144720E+02 -0.35448912559E+03  0.14925704040E+04  0.12699999809E+01 0. -1.
       -4    1    3    3    0  502  0.14495563299E+04 -0.29811144720E+02  0.11330226269E+03  0.14542837665E+04  0.12699999809E+01 0.  1.
</event>
<event>
 5   0  0.3852126E-06  0.2946980E+04  0.7818609E-02  0.8259035E-01
       -1   -1    0    0    0  501  0.00000000000E+00  0.00000000000E+00  0.16354282378E+04  0.16354282378E+04  0.50400001928E-02 0.  1.
        1   -1    0    0  501    0  0.00000000000E+00  0.00000000000E+00 -0.13275871423E+04  0.13275871423E+04  0.50400001928E-02 0. -1.
    10030    2    1    2    0    0  0.00000000000E+00  0.00000000000E+00  0.30784109552E+03  0.29630153801E+04  0.29469804890E+04 0.  0.
        1    1    3    3  502    0 -0.91261509620E+03  0.85553733522E+03  0.93685068634E+03  0.15628498502E+04  0.50400001928E-02 0.  1.
       -1    1    3    3    0  502  0.91261509620E+03 -0.85553733522E+03 -0.62900959082E+03  0.14001655299E+04  0.50400001928E-02 0. -1.
</event>
<event>
 5   0  0.3725232E-06  0.2981109E+04  0.7818609E-02  0.8249146E-01
       -1   -1    0    0    0  501  0.00000000000E+00  0.00000000000E+00  0.17983065932E+04  0.17983065932E+04  0.50400001928E-02 0.  1.
        1   -1    0    0  501    0  0.00000000000E+00  0.00000000000E+00 -0.12354696089E+04  0.12354696089E+04  0.50400001928E-02 0. -1.
    10030    2    1    2    0    0  0.00000000000E+00  0.00000000000E+00  0.56283698431E+03  0.30337762020E+04  0.29811092857E+04 0.  0.
        2    1    3    3  502    0 -0.51970278991E+03  0.73551521360E+03 -0.92728513192E+03  0.12926450925E+04  0.25500000920E-02 0. -1.
       -2    1    3    3    0  502  0.51970278991E+03 -0.73551521360E+03  0.14901221162E+04  0.17411311095E+04  0.25500000920E-02 0.  1.
</event>
<event>
 5   0  0.9647945E-06  0.3040377E+04  0.7818609E-02  0.8232294E-01
       -2   -1    0    0    0  501  0.00000000000E+00  0.00000000000E+00  0.89166506448E+03  0.89166506448E+03  0.25500000920E-02 0.  1.
        2   -1    0    0  501    0  0.00000000000E+00  0.00000000000E+00 -0.25917496389E+04  0.25917496389E+04  0.25500000920E-02 0. -1.
    10030    2    1    2    0    0  0.00000000000E+00  0.00000000000E+00 -0.17000845744E+04  0.34834147034E+04  0.30403766930E+04 0.  0.
        2    1    3    3  502    0  0.58303382939E+03  0.17353041739E+03 -0.24462259969E+04  0.25207266572E+04  0.25500000920E-02 0. -1.
       -2    1    3    3    0  502 -0.58303382939E+03 -0.17353041739E+03  0.74614142251E+03  0.96268804624E+03  0.25500000920E-02 0.  1.
</event>
<event>
 5   0  0.1029922E-05  0.3002864E+04  0.7818609E-02  0.8242914E-01
        2   -1    0    0  501    0  0.00000000000E+00  0.00000000000E+00  0.20162923024E+04  0.20162923024E+04  0.25500000920E-02 0. -1.
       -2   -1    0    0    0  501  0.00000000000E+00  0.00000000000E+00 -0.11180409456E+04  0.11180409456E+04  0.25500000920E-02 0.  1.
    10030    2    1    2    0    0  0.00000000000E+00  0.00000000000E+00  0.89825135676E+03  0.31343332479E+04  0.30028635349E+04 0.  0.
        1    1    3    3  502    0  0.13829424827E+04 -0.48498555709E+02 -0.15897473904E+03  0.13928944641E+04  0.50400001928E-02 0.  1.
       -1    1    3    3    0  502 -0.13829424827E+04  0.48498555709E+02  0.10572260958E+04  0.17414387839E+04  0.50400001928E-02 0. -1.
</event>
<event>
 5   0  0.3725232E-06  0.1884725E+04  0.7818609E-02  0.8662497E-01
       -1   -1    0    0    0  501  0.00000000000E+00  0.00000000000E+00  0.14951831647E+04  0.14951831647E+04  0.50400001928E-02 0. -1.
        1   -1    0    0  501    0  0.00000000000E+00  0.00000000000E+00 -0.59393859162E+03  0.59393859165E+03  0.50400001928E-02 0.  1.
    10030    2    1    2    0    0  0.00000000000E+00  0.00000000000E+00  0.90124457309E+03  0.20891217564E+04  0.18847248957E+04 0.  0.
        2    1    3    3  502    0 -0.29411260082E+03  0.21827214844E+03  0.14130613484E+04  0.14597559135E+04  0.25500000920E-02 0. -1.
       -2    1    3    3    0  502  0.29411260082E+03 -0.21827214844E+03 -0.51181677526E+03  0.62936584289E+03  0.25500000920E-02 0.  1.
</event>
<event>
 5   0  0.1029922E-05  0.3038504E+04  0.7818609E-02  0.8232820E-01
       -2   -1    0    0    0  501  0.00000000000E+00  0.00000000000E+00  0.14831590086E+04  0.14831590086E+04  0.25500000920E-02 0. -1.
        2   -1    0    0  501    0  0.00000000000E+00  0.00000000000E+00 -0.15562234404E+04  0.15562234404E+04  0.25500000920E-02 0.  1.
    10030    2    1    2    0    0  0.00000000000E+00  0.00000000000E+00 -0.73064431773E+02  0.30393824490E+04  0.30385041155E+04 0.  0.
        1    1    3    3  502    0  0.24227241668E+03 -0.45310986763E+03  0.13936091370E+04  0.14853117191E+04  0.50400001928E-02 0. -1.
       -1    1    3    3    0  502 -0.24227241668E+03  0.45310986763E+03 -0.14666735688E+04  0.15540707299E+04  0.50400001928E-02 0.  1.
</event>
<event>
 5   0  0.3852126E-06  0.3063536E+04  0.7818609E-02  0.8225817E-01
        1   -1    0    0  501    0  0.00000000000E+00  0.00000000000E+00  0.16598538325E+04  0.16598538325E+04  0.50400001928E-02 0. -1.
       -1   -1    0    0    0  501  0.00000000000E+00  0.00000000000E+00 -0.14135660263E+04  0.14135660263E+04  0.50400001928E-02 0.  1.
    10030    2    1    2    0    0  0.00000000000E+00  0.00000000000E+00  0.24628780619E+03  0.30734198588E+04  0.30635358567E+04 0.  0.
        1    1    3    3  502    0  0.58236406873E+03  0.13838674781E+04  0.42756298102E+03  0.15611044835E+04  0.50400001928E-02 0. -1.
       -1    1    3    3    0  502 -0.58236406873E+03 -0.13838674781E+04 -0.18127517483E+03  0.15123153754E+04  0.50400001928E-02 0.  1.
</event>
<event>
 5   0  0.1089569E-05  0.2773546E+04  0.7818609E-02  0.8311529E-01
       -2   -1    0    0    0  501  0.00000000000E+00  0.00000000000E+00  0.11448932859E+04  0.11448932859E+04  0.25500000920E-02 0. -1.
        2   -1    0    0  501    0  0.00000000000E+00  0.00000000000E+00 -0.16797543226E+04  0.16797543226E+04  0.25500000920E-02 0.  1.
    10030    2    1    2    0    0  0.00000000000E+00  0.00000000000E+00 -0.53486103668E+03  0.28246476086E+04  0.27735460667E+04 0.  0.
        5    1    3    3  502    0  0.87414852878E+03  0.25972606522E+03  0.79657909299E+03  0.12108483062E+04  0.46999998093E+01 0. -1.
       -5    1    3    3    0  502 -0.87414852878E+03 -0.25972606522E+03 -0.13314401297E+04  0.16137993023E+04  0.46999998093E+01 0.  1.
</event>
<event>
 5   0  0.1057036E-05  0.2847059E+04  0.7818609E-02  0.8288806E-01
       -2   -1    0    0    0  501  0.00000000000E+00  0.00000000000E+00  0.14062260172E+04  0.14062260172E+04  0.25500000920E-02 0.  1.
        2   -1    0    0  501    0  0.00000000000E+00  0.00000000000E+00 -0.14410454636E+04  0.14410454636E+04  0.25500000920E-02 0. -1.
    10030    2    1    2    0    0  0.00000000000E+00  0.00000000000E+00 -0.34819446424E+02  0.28472714808E+04  0.28470585683E+04 0.  0.
        4    1    3    3  502    0  0.43315469243E+03 -0.39397294990E+03 -0.13150414723E+04  0.14395045535E+04  0.12699999809E+01 0. -1.
       -4    1    3    3    0  502 -0.43315469243E+03  0.39397294990E+03  0.12802220259E+04  0.14077669272E+04  0.12699999809E+01 0.  1.
</event>
<event>
 5   0  0.1057036E-05  0.2975671E+04  0.7818609E-02  0.8250712E-01
       -2   -1    0    0    0  501  0.00000000000E+00  0.00000000000E+00  0.11329526436E+04  0.11329526436E+04  0.25500000920E-02 0.  1.
        2   -1    0    0  501    0  0.00000000000E+00  0.00000000000E+00 -0.19538810108E+04  0.19538810109E+04  0.25500000920E-02 0. -1.
    10030    2    1    2    0    0  0.00000000000E+00  0.00000000000E+00 -0.82092836721E+03  0.30868336545E+04  0.29756711220E+04 0.  0.
        4    1    3    3  502    0  0.23902282363E+02  0.12642135377E+04  0.40294940118E+03  0.13270934484E+04  0.12699999809E+01 0.  1.
       -4    1    3    3    0  502 -0.23902282363E+02 -0.12642135377E+04 -0.12238777684E+04  0.17597402061E+04  0.12699999809E+01 0. -1.
</event>
<event>
 5   0  0.3725232E-06  0.2897674E+04  0.7818609E-02  0.8273570E-01
       -1   -1    0    0    0  501  0.00000000000E+00  0.00000000000E+00  0.90717658664E+03  0.90717658665E+03  0.50400001928E-02 0.  1.
        1   -1    0    0  501    0  0.00000000000E+00  0.00000000000E+00 -0.23139134833E+04  0.23139134833E+04  0.50400001928E-02 0. -1.
    10030    2    1    2    0    0  0.00000000000E+00  0.00000000000E+00 -0.14067368967E+04  0.32210900700E+04  0.28976736432E+04 0.  0.
        2    1    3    3  502    0 -0.11414440000E+04  0.58762702833E+02  0.28639161492E+03  0.11782901245E+04  0.25500000920E-02 0.  1.
       -2    1    3    3    0  502  0.11414440000E+04 -0.58762702833E+02 -0.16931285116E+04  0.20427999455E+04  0.25500000920E-02 0. -1.
</event>
<event>
 5   0  0.3592331E-06  0.3021929E+04  0.7818609E-02  0.8237496E-01
       -1   -1    0    0    0  501  0.00000000000E+00  0.00000000000E+00  0.14032813894E+04  0.14032813894E+04  0.50400001928E-02 0. -1.
        1   -1    0    0  501    0  0.00000000000E+00  0.00000000000E+00 -0.16269112091E+04  0.16269112092E+04  0.50400001928E-02 0.  1.
    10030    2    1    2    0    0  0.00000000000E+00  0.00000000000E+00 -0.22362981977E+03  0.30301925985E+04  0.30219293321E+04 0.  0.
        3    1    3    3  502    0 -0.11625545699E+04  0.88974904136E+03 -0.48677287047E+03  0.15427683955E+04  0.10100000352E+00 0.  1.
       -3    1    3    3    0  502  0.11625545699E+04 -0.88974904136E+03  0.26314305070E+03  0.14874242031E+04  0.10100000352E+00 0. -1.
</event>
<event>
 5   0  0.3896630E-06  0.2779358E+04  0.7818609E-02  0.8309706E-01
        1   -1    0    0  501    0  0.00000000000E+00  0.00000000000E+00  0.17495212327E+04  0.17495212327E+04  0.50400001928E-02 0. -1.
       -1   -1    0    0    0  501  0.00000000000E+00  0.00000000000E+00 -0.11038495090E+04  0.11038495090E+04  0.50400001928E-02 0.  1.
    10030    2    1    2    0    0  0.00000000000E+00  0.00000000000E+00  0.64567172365E+03  0.28533707417E+04  0.27793583099E+04 0.  0.
        5    1    3    3  502    0 -0.31482517061E+02 -0.41970711908E+02  0.17484959262E+04  0.17492892224E+04  0.46999998093E+01 0. -1.
       -5    1    3    3    0  502  0.31482517061E+02  0.41970711908E+02 -0.11028242026E+04  0.11040815193E+04  0.46999998093E+01 0.  1.
</event>
<event>
 5   0  0.1057036E-05  0.3061380E+04  0.7818609E-02  0.8226418E-01
        2   -1    0    0  501    0  0.00000000000E+00  0.00000000000E+00  0.14209439135E+04  0.14209439135E+04  0.25500000920E-02 0. -1.
       -2   -1    0    0    0  501  0.00000000000E+00  0.00000000000E+00 -0.16489119201E+04  0.16489119201E+04  0.25500000920E-02 0.  1.
    10030    2    1    2    0    0  0.00000000000E+00  0.00000000000E+00 -0.22796800665E+03  0.30698558336E+04  0.30613796607E+04 0.  0.
        4    1    3    3  502    0 -0.16018670417E+03  0.12286419183E+04  0.78727528935E+03  0.14680002513E+04  0.12699999809E+01 0. -1.
       -4    1    3    3    0  502  0.16018670417E+03 -0.12286419183E+04 -0.10152432960E+04  0.16018555823E+04  0.12699999809E+01 0.  1.
</event>
<event>
 5   0  0.1089569E-05  0.2420003E+04  0.7818609E-02  0.8432053E-01
       -2   -1    0    0    0  501  0.00000000000E+00  0.00000000000E+00  0.63014817333E+03  0.63014817333E+03  0.25500000920E-02 0. -1.
        2   -1    0    0  501    0  0.00000000000E+00  0.00000000000E+00 -0.23234266654E+04  0.23234266654E+04  0.25500000920E-02 0.  1.
    10030    2    1    2    0    0  0.00000000000E+00  0.00000000000E+00 -0.16932784921E+04  0.29535748388E+04  0.24200025364E+04 0.  0.
        5    1    3    3  502    0  0.49224254453E+03  0.68637610375E+03  0.21080033015E+03  0.87055944520E+03  0.46999998093E+01 0. -1.
       -5    1    3    3    0  502 -0.49224254453E+03 -0.68637610375E+03 -0.19040788223E+04  0.20830153936E+04  0.46999998093E+01 0.  1.
</event>
<event>
 5   0  0.1029922E-05  0.1922450E+04  0.7818609E-02  0.8643762E-01
       -2   -1    0    0    0  501  0.00000000000E+00  0.00000000000E+00  0.68095235360E+03  0.68095235361E+03  0.25500000920E-02 0. -1.
        2   -1    0    0  501    0  0.00000000000E+00  0.00000000000E+00 -0.13568548142E+04  0.13568548142E+04  0.25500000920E-02 0.  1.
    10030    2    1    2    0    0  0.00000000000E+00  0.00000000000E+00 -0.67590246060E+03  0.20378071678E+04  0.19224499778E+04 0.  0.
        1    1    3    3  502    0 -0.58769801370E+03  0.31071221451E+03  0.39798751375E+03  0.77480648983E+03  0.50400001928E-02 0. -1.
       -1    1    3    3    0  502  0.58769801370E+03 -0.31071221451E+03 -0.10738899744E+04  0.12630006780E+04  0.50400001928E-02 0.  1.
</event>
<event>
 5   0  0.1029922E-05  0.3129921E+04  0.7818609E-02  0.8207574E-01
       -2   -1    0    0    0  501  0.00000000000E+00  0.00000000000E+00  0.21554027616E+04  0.21554027616E+04  0.25500000920E-02 0.  1.
        2   -1    0    0  501    0  0.00000000000E+00  0.00000000000E+00 -0.11362616382E+04  0.11362616382E+04  0.25500000920E-02 0. -1.
    10030    2    1    2    0    0  0.00000000000E+00  0.00000000000E+00  0.10191411234E+04  0.32916643997E+04  0.31299210679E+04 0.  0.
        1    1    3    3  502    0 -0.15114110577E+04 -0.87062820781E+02  0.92652583736E+02  0.15167490964E+04  0.50400001928E-02 0. -1.
       -1    1    3    3    0  502  0.15114110577E+04  0.87062820781E+02  0.92648853966E+03  0.17749153034E+04  0.50400001928E-02 0.  1.
</event>
<event>
 5   0  0.3313750E-06  0.2998899E+04  0.7818609E-02  0.8244045E-01
       -3   -1    0    0    0  501  0.00000000000E+00  0.00000000000E+00  0.68735714311E+03  0.68735715053E+03  0.10100000352E+00 0. -1.
        3   -1    0    0  501    0  0.00000000000E+00  0.00000000000E+00 -0.32710058191E+04  0.32710058207E+04  0.10100000352E+00 0.  1.
    10030    2    1    2    0    0  0.00000000000E+00  0.00000000000E+00 -0.25836486760E+04  0.39583629712E+04  0.29988992865E+04 0.  0.
        3    1    3    3  502    0 -0.12118543378E+04 -0.81309062441E+03 -0.83717891519E+03  0.16824315278E+04  0.10100000352E+00 0. -1.
       -3    1    3    3    0  502  0.12118543378E+04  0.81309062441E+03 -0.17464697608E+04  0.22759314434E+04  0.10100000352E+00 0.  1.
</event>
<event>
 5   0  0.3313750E-06  0.2082134E+04  0.7818609E-02  0.8569155E-01
        3   -1    0    0  501    0  0.00000000000E+00  0.00000000000E+00  0.70700204257E+03  0.70700204979E+03  0.10100000352E+00 0. -1.
       -3   -1    0    0    0  501  0.00000000000E+00  0.00000000000E+00 -0.15329808461E+04  0.15329808494E+04  0.10100000352E+00 0.  1.
    10030    2    1    2    0    0  0.00000000000E+00  0.00000000000E+00 -0.82597880349E+03  0.22399828992E+04  0.20821340987E+04 0.  0.
        5    1    3    3  502    0 -0.11825703049E+03 -0.12673221755E+03 -0.15173359112E+04  0.15272118837E+04  0.46999998093E+01 0.  1.
       -5    1    3    3    0  502  0.11825703049E+03  0.12673221755E+03  0.69135710769E+03  0.71277101552E+03  0.46999998093E+01 0. -1.
</event>
<event>
 5   0  0.1057036E-05  0.2975062E+04  0.7818609E-02  0.8250888E-01
        2   -1    0    0  501    0  0.00000000000E+00  0.00000000000E+00  0.14242884643E+04  0.14242884643E+04  0.25500000920E-02 0. -1.
       -2   -1    0    0    0  501  0.00000000000E+00  0.00000000000E+00 -0.15535819485E+04  0.15535819485E+04  0.25500000920E-02 0.  1.
    10030    2    1    2    0    0  0.00000000000E+00  0.00000000000E+00 -0.12929348418E+03  0.29778704129E+04  0.29750622499E+04 0.  0.
        4    1    3    3  502    0 -0.13922914518E+04 -0.26700234543E+03  0.38631319529E+03  0.14693553814E+04  0.12699999809E+01 0. -1.
       -4    1    3    3    0  502  0.13922914518E+04  0.26700234543E+03 -0.51560667947E+03  0.15085150314E+04  0.12699999809E+01 0.  1.
</event>
<event>
 5   0  0.3636718E-06  0.2994441E+04  0.7818609E-02  0.8245320E-01
        1   -1    0    0  501    0  0.00000000000E+00  0.00000000000E+00  0.17678007127E+04  0.17678007127E+04  0.50400001928E-02 0.  1.
       -1   -1    0    0    0  501  0.00000000000E+00  0.00000000000E+00 -0.12680552047E+04  0.12680552047E+04  0.50400001928E-02 0. -1.
    10030    2    1    2    0    0  0.00000000000E+00  0.00000000000E+00  0.49974550799E+03  0.30358559174E+04  0.29944407789E+04 0.  0.
        4    1    3    3  502    0  0.48374022473E+03  0.92630180258E+03 -0.83716349676E+03  0.13389861716E+04  0.12699999809E+01 0. -1.
       -4    1    3    3    0  502 -0.48374022473E+03 -0.92630180258E+03  0.13369090048E+04  0.16968697458E+04  0.12699999809E+01 0.  1.
</event>
<event>
 5   0  0.1057036E-05  0.3024164E+04  0.7818609E-02  0.8236864E-01
       -2   -1    0    0    0  501  0.00000000000E+00  0.00000000000E+00  0.30050634355E+04  0.30050634355E+04  0.25500000920E-02 0.  1.
        2   -1    0    0  501    0  0.00000000000E+00  0.00000000000E+00 -0.76084624955E+03  0.76084624955E+03  0.25500000920E-02 0. -1.
    10030    2    1    2    0    0  0.00000000000E+00  0.00000000000E+00  0.22442171859E+04  0.37659096850E+04  0.30241635171E+04 0.  0.
        4    1    3    3  502    0 -0.41698299276E+03 -0.66731922233E+03  0.27300064804E+04  0.28411488445E+04  0.12699999809E+01 0.  1.
       -4    1    3    3    0  502  0.41698299276E+03  0.66731922233E+03 -0.48578929443E+03  0.92476084056E+03  0.12699999809E+01 0. -1.
</event>
<event>
 5   0  0.3592331E-06  0.3041009E+04  0.7818609E-02  0.8232116E-01
       -1   -1    0    0    0  501  0.00000000000E+00  0.00000000000E+00  0.13674324686E+04  0.13674324686E+04  0.50400001928E-02 0.  1.
        1   -1    0    0  501    0  0.00000000000E+00  0.00000000000E+00 -0.16907119218E+04  0.16907119219E+04  0.50400001928E-02 0. -1.
    10030    2    1    2    0    0  0.00000000000E+00  0.00000000000E+00 -0.32327945329E+03  0.30581443904E+04  0.30410092910E+04 0.  0.
        3    1    3    3  502    0 -0.35112291393E+03  0.42713147485E+03 -0.15860266477E+04  0.16796455385E+04  0.10100000352E+00 0. -1.
       -3    1    3    3    0  502  0.35112291393E+03 -0.42713147485E+03  0.12627471944E+04  0.13784988519E+04  0.10100000352E+00 0.  1.
</event>
<event>
 5   0  0.3636718E-06  0.2993797E+04  0.7818609E-02  0.8245504E-01
        1   -1    0    0  501    0  0.00000000000E+00  0.00000000000E+00  0.12654137232E+04  0.12654137232E+04  0.50400001928E-02 0.  1.
       -1   -1    0    0    0  501  0.00000000000E+00  0.00000000000E+00 -0.17707296245E+04  0.17707296245E+04  0.50400001928E-02 0. -1.
    10030    2    1    2    0    0  0.00000000000E+00  0.00000000000E+00 -0.50531590129E+03  0.30361433478E+04  0.29937972991E+04 0.  0.
        4    1    3    3  502    0 -0.10224020228E+04 -0.10879355168E+04 -0.14251993629E+03  0.14997410210E+04  0.12699999809E+01 0.  1.
       -4    1    3    3    0  502  0.10224020228E+04  0.10879355168E+04 -0.36279596500E+03  0.15364023268E+04  0.12699999809E+01 0. -1.
</event>
<event>
 5   0  0.3725232E-06  0.2943560E+04  0.7818609E-02  0.8260034E-01
        1   -1    0    0  501    0  0.00000000000E+00  0.00000000000E+00  0.25643379717E+04  0.25643379717E+04  0.50400001928E-02 0.  1.
       -1   -1    0    0    0  501  0.00000000000E+00  0.00000000000E+00 -0.84471563940E+03  0.84471563942E+03  0.50400001928E-02 0. -1.
    10030    2    1    2    0    0  0.00000000000E+00  0.00000000000E+00  0.17196223323E+04  0.34090536111E+04  0.29435600143E+04 0.  0.
        2    1    3    3  502    0  0.10862272906E+03 -0.14638962806E+04  0.98316892606E+03  0.17667519223E+04  0.25500000920E-02 0.  1.
       -2    1    3    3    0  502 -0.10862272906E+03  0.14638962806E+04  0.73645340621E+03  0.16423016888E+04  0.25500000920E-02 0. -1.
</event>
<event>
 5   0  0.1029922E-05  0.2895335E+04  0.7818609E-02  0.8274267E-01
       -2   -1    0    0    0  501  0.00000000000E+00  0.00000000000E+00  0.11026931287E+04  0.11026931287E+04  0.25500000920E-02 0.  1.
        2   -1    0    0  501    0  0.00000000000E+00  0.00000000000E+00 -0.19005660546E+04  0.19005660546E+04  0.25500000920E-02 0. -1.
    10030    2    1    2    0    0  0.00000000000E+00  0.00000000000E+00 -0.79787292590E+03  0.30032591832E+04  0.28953349575E+04 0.  0.
        1    1    3    3  502    0 -0.13135139756E+04  0.57826260351E+03 -0.20203297536E+03  0.14493184349E+04  0.50400001928E-02 0.  1.
       -1    1    3    3    0  502  0.13135139756E+04 -0.57826260351E+03 -0.59583995054E+03  0.15539407483E+04  0.50400001928E-02 0. -1.
</event>
<event>
 5   0  0.3592331E-06  0.3027132E+04  0.7818609E-02  0.8236025E-01
        1   -1    0    0  501    0  0.00000000000E+00  0.00000000000E+00  0.20182890796E+04  0.20182890796E+04  0.50400001928E-02 0.  1.
       -1   -1    0    0    0  501  0.00000000000E+00  0.00000000000E+00 -0.11350610686E+04  0.11350610686E+04  0.50400001928E-02 0. -1.
    10030    2    1    2    0    0  0.00000000000E+00  0.00000000000E+00  0.88322801093E+03  0.31533501482E+04  0.30271315528E+04 0.  0.
        3    1    3    3  502    0  0.69051281895E+03 -0.32350644353E+03 -0.92034773900E+03  0.11952005451E+04  0.10100000352E+00 0.  1.
       -3    1    3    3    0  502 -0.69051281895E+03  0.32350644353E+03  0.18035757499E+04  0.19581496031E+04  0.10100000352E+00 0. -1.
</event>
<event>
 5   0  0.1029922E-05  0.2974268E+04  0.7818609E-02  0.8251117E-01
       -2   -1    0    0    0  501  0.00000000000E+00  0.00000000000E+00  0.15450261471E+04  0.15450261471E+04  0.25500000920E-02 0. -1.
        2   -1    0    0  501    0  0.00000000000E+00  0.00000000000E+00 -0.14314111792E+04  0.14314111792E+04  0.25500000920E-02 0.  1.
    10030    2    1    2    0    0  0.00000000000E+00  0.00000000000E+00  0.11361496794E+03  0.29764373263E+04  0.29742681110E+04 0.  0.
        1    1    3    3  502    0 -0.74331803765E+03  0.59939892420E+03 -0.10840972124E+04  0.14446686615E+04  0.50400001928E-02 0.  1.
       -1    1    3    3    0  502  0.74331803765E+03 -0.59939892420E+03  0.11977121804E+04  0.15317686648E+04  0.50400001928E-02 0. -1.
</event>
<event>
 5   0  0.9647945E-06  0.2929604E+04  0.7818609E-02  0.8264123E-01
        2   -1    0    0  501    0  0.00000000000E+00  0.00000000000E+00  0.12333706752E+04  0.12333706752E+04  0.25500000920E-02 0.  1.
       -2   -1    0    0    0  501  0.00000000000E+00  0.00000000000E+00 -0.17396597600E+04  0.17396597600E+04  0.25500000920E-02 0. -1.
    10030    2    1    2    0    0  0.00000000000E+00  0.00000000000E+00 -0.50628908486E+03  0.29730304352E+04  0.29296042960E+04 0.  0.
        2    1    3    3  502    0 -0.11692173019E+04 -0.64436814912E+03 -0.86487835888E+03  0.15906897832E+04  0.25500000920E-02 0.  1.
       -2    1    3    3    0  502  0.11692173019E+04  0.64436814912E+03  0.35858927403E+03  0.13823406520E+04  0.25500000920E-02 0. -1.
</event>
<event>
 5   0  0.1057036E-05  0.2150148E+04  0.7818609E-02  0.8539469E-01
       -2   -1    0    0    0  501  0.00000000000E+00  0.00000000000E+00  0.13514812054E+04  0.13514812054E+04  0.25500000920E-02 0. -1.
        2   -1    0    0  501    0  0.00000000000E+00  0.00000000000E+00 -0.85519769577E+03  0.85519769577E+03  0.25500000920E-02 0.  1.
    10030    2    1    2    0    0  0.00000000000E+00  0.00000000000E+00  0.49628350966E+03  0.22066789012E+04  0.21501475417E+04 0.  0.
        4    1    3    3  502    0  0.80220427397E+03  0.63681791673E+03 -0.87116933122E+02  0.10279395552E+04  0.12699999809E+01 0. -1.
       -4    1    3    3    0  502 -0.80220427397E+03 -0.63681791673E+03  0.58340044278E+03  0.11787393460E+04  0.12699999809E+01 0.  1.
</event>
<event>
 5   0  0.3636718E-06  0.3021314E+04  0.7818609E-02  0.8237671E-01
        1   -1    0    0  501    0  0.00000000000E+00  0.00000000000E+00  0.27711951343E+04  0.27711951343E+04  0.50400001928E-02 0.  1.
       -1   -1    0    0    0  501  0.00000000000E+00  0.00000000000E+00 -0.82350214372E+03  0.82350214374E+03  0.50400001928E-02 0. -1.
    10030    2    1    2    0    0  0.00000000000E+00  0.00000000000E+00  0.19476929906E+04  0.35946972781E+04  0.30213143721E+04 0.  0.
        4    1    3    3  502    0  0.48172812163E+02 -0.43099655541E+03 -0.74784466608E+03  0.86449517528E+03  0.12699999809E+01 0. -1.
       -4    1    3    3    0  502 -0.48172812163E+02  0.43099655541E+03  0.26955376567E+04  0.27302021028E+04  0.12699999809E+01 0.  1.
</event>
<event>
 5   0  0.3852126E-06  0.3480697E+04  0.7818609E-02  0.8118380E-01
        1   -1    0    0  501    0  0.00000000000E+00  0.00000000000E+00  0.22863294722E+04  0.22863294722E+04  0.50400001928E-02 0. -1.
       -1   -1    0    0    0  501  0.00000000000E+00  0.00000000000E+00 -0.13247490637E+04  0.13247490637E+04  0.50400001928E-02 0.  1.
    10030    2    1    2    0    0  0.00000000000E+00  0.00000000000E+00  0.96158040849E+03  0.36110785359E+04  0.34806969576E+04 0.  0.
        1    1    3    3  502    0  0.17170819820E+04  0.15012695694E+03  0.23114356676E+03  0.17390618116E+04  0.50400001928E-02 0. -1.
       -1    1    3    3    0  502 -0.17170819820E+04 -0.15012695694E+03  0.73043684174E+03  0.18720167243E+04  0.50400001928E-02 0.  1.
</event>
<event>
 5   0  0.1057036E-05  0.2987907E+04  0.7818609E-02  0.8247193E-01
        2   -1    0    0  501    0  0.00000000000E+00  0.00000000000E+00  0.15845798216E+04  0.15845798216E+04  0.25500000920E-02 0. -1.
       -2   -1    0    0    0  501  0.00000000000E+00  0.00000000000E+00 -0.14085104415E+04  0.14085104415E+04  0.25500000920E-02 0.  1.
    10030    2    1    2    0    0  0.00000000000E+00  0.00000000000E+00  0.17606938004E+03  0.29930902631E+04  0.29879071098E+04 0.  0.
        4    1    3    3  502    0  0.20523085522E+03 -0.13848727662E+04 -0.43431336819E+03  0.14658178595E+04  0.12699999809E+01 0.  1.
       -4    1    3    3    0  502 -0.20523085522E+03  0.13848727662E+04  0.61038274823E+03  0.15272724036E+04  0.12699999809E+01 0. -1.
</event>
<event>
 5   0  0.1089569E-05  0.2998046E+04  0.7818609E-02  0.8244289E-01
       -2   -1    0    0    0  501  0.00000000000E+00  0.00000000000E+00  0.11662556246E+04  0.11662556246E+04  0.25500000920E-02 0. -1.
        2   -1    0    0  501    0  0.00000000000E+00  0.00000000000E+00 -0.19267382836E+04  0.19267382836E+04  0.25500000920E-02 0.  1.
    10030    2    1    2    0    0  0.00000000000E+00  0.00000000000E+00 -0.76048265906E+03  0.30929939082E+04  0.29980456036E+04 0.  0.
        5    1    3    3  502    0 -0.14685251296E+04  0.30075855207E+03 -0.37503089514E+03  0.15452158507E+04  0.46999998093E+01 0.  1.
       -5    1    3    3    0  502  0.14685251296E+04 -0.30075855207E+03 -0.38545176392E+03  0.15477780575E+04  0.46999998093E+01 0. -1.
</event>
<event>
 5   0  0.3725232E-06  0.2089913E+04  0.7818609E-02  0.8565700E-01
        1   -1    0    0  501    0  0.00000000000E+00  0.00000000000E+00  0.14369085139E+04  0.14369085139E+04  0.50400001928E-02 0. -1.
       -1   -1    0    0    0  501  0.00000000000E+00  0.00000000000E+00 -0.75991919430E+03  0.75991919432E+03  0.50400001928E-02 0.  1.
    10030    2    1    2    0    0  0.00000000000E+00  0.00000000000E+00  0.67698931958E+03  0.21968277082E+04  0.20899132615E+04 0.  0.
        2    1    3    3  502    0  0.62499671578E+03  0.43269636588E+03 -0.41518393668E+03  0.86615514838E+03  0.25500000920E-02 0.  1.
       -2    1    3    3    0  502 -0.62499671578E+03 -0.43269636588E+03  0.10921732563E+04  0.13306725598E+04  0.25500000920E-02 0. -1.
</event>
<event>
 5   0  0.3592331E-06  0.2743973E+04  0.7818609E-02  0.8320877E-01
        1   -1    0    0  501    0  0.00000000000E+00  0.00000000000E+00  0.15689335602E+04  0.15689335602E+04  0.50400001928E-02 0.  1.
       -1   -1    0    0    0  501  0.00000000000E+00  0.00000000000E+00 -0.11997619564E+04  0.11997619564E+04  0.50400001928E-02 0. -1.
    10030    2    1    2    0    0  0.00000000000E+00  0.00000000000E+00  0.36917160383E+03  0.27686955166E+04  0.27439728845E+04 0.  0.
        3    1    3    3  502    0 -0.97664963367E+02  0.10784029182E+04 -0.66553443447E+03  0.12709946470E+04  0.10100000352E+00 0.  1.
       -3    1    3    3    0  502  0.97664963367E+02 -0.10784029182E+04  0.10347060383E+04  0.14977008696E+04  0.10100000352E+00 0. -1.
</event>
<event>
 5   0  0.9647945E-06  0.2965330E+04  0.7818609E-02  0.8253701E-01
        2   -1    0    0  501    0  0.00000000000E+00  0.00000000000E+00  0.31345721857E+04  0.31345721857E+04  0.25500000920E-02 0. -1.
       -2   -1    0    0    0  501  0.00000000000E+00  0.00000000000E+00 -0.70130657264E+03  0.70130657264E+03  0.25500000920E-02 0.  1.
    10030    2    1    2    0    0  0.00000000000E+00  0.00000000000E+00  0.24332656130E+04  0.38358787583E+04  0.29653303871E+04 0.  0.
        2    1    3    3  502    0  0.94446740622E+02 -0.53251404001E+03  0.30024252426E+04  0.30507456018E+04  0.25500000920E-02 0. -1.
       -2    1    3    3    0  502 -0.94446740622E+02  0.53251404001E+03 -0.56915962952E+03  0.78513315654E+03  0.25500000920E-02 0.  1.
</event>
<event>
 5   0  0.1057036E-05  0.3023399E+04  0.7818609E-02  0.8237081E-01
       -2   -1    0    0    0  501  0.00000000000E+00  0.00000000000E+00  0.97309997547E+03  0.97309997548E+03  0.25500000920E-02 0.  1.
        2   -1    0    0  501    0  0.00000000000E+00  0.00000000000E+00 -0.23484077861E+04  0.23484077861E+04  0.25500000920E-02 0. -1.
    10030    2    1    2    0    0  0.00000000000E+00  0.00000000000E+00 -0.13753078106E+04  0.33215077616E+04  0.30233991196E+04 0.  0.
        4    1    3    3  502    0  0.46685136606E+03 -0.59634552170E+03  0.74964800626E+03  0.10656227876E+04  0.12699999809E+01 0.  1.
       -4    1    3    3    0  502 -0.46685136606E+03  0.59634552170E+03 -0.21249558169E+04  0.22558849740E+04  0.12699999809E+01 0. -1.
</event>
<event>
 5   0  0.3852126E-06  0.3006013E+04  0.7818609E-02  0.8242016E-01
       -1   -1    0    0    0  501  0.00000000000E+00  0.00000000000E+00  0.95542612759E+03  0.95542612760E+03  0.50400001928E-02 0. -1.
        1   -1    0    0  501    0  0.00000000000E+00  0.00000000000E+00 -0.23644203744E+04  0.23644203744E+04  0.50400001928E-02 0.  1.
    10030    2    1    2    0    0  0.00000000000E+00  0.00000000000E+00 -0.14089942468E+04  0.33198465020E+04  0.30060133083E+04 0.  0.
        1    1    3    3  502    0 -0.13210498240E+04  0.81811275325E+02  0.82007003774E+02  0.13261187243E+04  0.50400001928E-02 0. -1.
       -1    1    3    3    0  502  0.13210498240E+04 -0.81811275325E+02 -0.14910012506E+04  0.19937277777E+04  0.50400001928E-02 0.  1.
</event>
<event>
 5   0  0.3852126E-06  0.2852814E+04  0.7818609E-02  0.8287057E-01
        1   -1    0    0  501    0  0.00000000000E+00  0.00000000000E+00  0.12313226935E+04  0.12313226936E+04  0.50400001928E-02 0. -1.
       -1   -1    0    0    0  501  0.00000000000E+00  0.00000000000E+00 -0.16523994862E+04  0.16523994862E+04  0.50400001928E-02 0.  1.
    10030    2    1    2    0    0  0.00000000000E+00  0.00000000000E+00 -0.42107679266E+03  0.28837221798E+04  0.28528140396E+04 0.  0.
        1    1    3    3  502    0  0.17551023782E+03 -0.55044099839E+03 -0.15288336464E+04  0.16343565874E+04  0.50400001928E-02 0.  1.
       -1    1    3    3    0  502 -0.17551023782E+03  0.55044099839E+03  0.11077568538E+04  0.12493655924E+04  0.50400001928E-02 0. -1.
</event>
<event>
 5   0  0.1028450E-05  0.2016068E+04  0.7818609E-02  0.8599145E-01
       -2   -1    0    0    0  501  0.00000000000E+00  0.00000000000E+00  0.10257918794E+04  0.10257918794E+04  0.25500000920E-02 0. -1.
        2   -1    0    0  501    0  0.00000000000E+00  0.00000000000E+00 -0.99058398693E+03  0.99058398694E+03  0.25500000920E-02 0.  1.
    10030    2    1    2    0    0  0.00000000000E+00  0.00000000000E+00  0.35207892458E+02  0.20163758663E+04  0.20160684608E+04 0.  0.
        3    1    3    3  502    0  0.93671903552E+03 -0.24940751013E+03  0.29420775774E+03  0.10130177059E+04  0.10100000352E+00 0. -1.
       -3    1    3    3    0  502 -0.93671903552E+03  0.24940751013E+03 -0.25899986528E+03  0.10033581604E+04  0.10100000352E+00 0.  1.
</event>
<event>
 5   0  0.3852126E-06  0.2530989E+04  0.7818609E-02  0.8392028E-01
        1   -1    0    0  501    0  0.00000000000E+00  0.00000000000E+00  0.14413380936E+04  0.14413380936E+04  0.50400001928E-02 0. -1.
       -1   -1    0    0    0  501  0.00000000000E+00  0.00000000000E+00 -0.11111039829E+04  0.11111039829E+04  0.50400001928E-02 0.  1.
    10030    2    1    2    0    0  0.00000000000E+00  0.00000000000E+00  0.33023411070E+03  0.25524420764E+04  0.25309891319E+04 0.  0.
        1    1    3    3  502    0 -0.20332368011E+02 -0.65823780948E+03  0.12549182046E+04  0.14172191501E+04  0.50400001928E-02 0. -1.
       -1    1    3    3    0  502  0.20332368011E+02  0.65823780948E+03 -0.92468409391E+03  0.11352229264E+04  0.50400001928E-02 0.  1.
</event>
<event>
 5   0  0.3592331E-06  0.2934363E+04  0.7818609E-02  0.8262726E-01
       -1   -1    0    0    0  501  0.00000000000E+00  0.00000000000E+00  0.94189320599E+03  0.94189320601E+03  0.50400001928E-02 0. -1.
        1   -1    0    0  501    0  0.00000000000E+00  0.00000000000E+00 -0.22854196982E+04  0.22854196983E+04  0.50400001928E-02 0.  1.
    10030    2    1    2    0    0  0.00000000000E+00  0.00000000000E+00 -0.13435264923E+04  0.32273129043E+04  0.29343628178E+04 0.  0.
        3    1    3    3  502    0  0.12760344292E+04 -0.34042271943E+03  0.31158908319E+02  0.13210308021E+04  0.10100000352E+00 0.  1.
       -3    1    3    3    0  502 -0.12760344292E+04  0.34042271943E+03 -0.13746854006E+04  0.19062821022E+04  0.10100000352E+00 0. -1.
</event>
<event>
 5   0  0.3852126E-06  0.2894024E+04  0.7818609E-02  0.8274658E-01
        1   -1    0    0  501    0  0.00000000000E+00  0.00000000000E+00  0.22428491174E+04  0.22428491174E+04  0.50400001928E-02 0.  1.
       -1   -1    0    0    0  501  0.00000000000E+00  0.00000000000E+00 -0.93356439017E+03  0.93356439019E+03  0.50400001928E-02 0. -1.
    10030    2    1    2    0    0  0.00000000000E+00  0.00000000000E+00  0.13092847273E+04  0.31764135076E+04  0.28940242353E+04 0.  0.
        1    1    3    3  502    0 -0.31298143123E+03  0.13807997784E+04  0.98259317686E+03  0.17233846801E+04  0.50400001928E-02 0.  1.
       -1    1    3    3    0  502  0.31298143123E+03 -0.13807997784E+04  0.32669155040E+03  0.14530288275E+04  0.50400001928E-02 0. -1.
</event>
<event>
 5   0  0.3592331E-06  0.3003005E+04  0.7818609E-02  0.8242873E-01
        1   -1    0    0  501    0  0.00000000000E+00  0.00000000000E+00  0.27204318813E+04  0.27204318813E+04  0.50400001928E-02 0. -1.
       -1   -1    0    0    0  501  0.00000000000E+00  0.00000000000E+00 -0.82873203841E+03  0.82873203843E+03  0.50400001928E-02 0.  1.
    10030    2    1    2    0    0  0.00000000000E+00  0.00000000000E+00  0.18916998429E+04  0.35491639197E+04  0.30030045344E+04 0.  0.
        3    1    3    3  502    0  0.10222411876E+04 -0.10912667944E+03 -0.34754216988E+03  0.10852056247E+04  0.10100000352E+00 0.  1.
       -3    1    3    3    0  502 -0.10222411876E+04  0.10912667944E+03  0.22392420128E+04  0.24639582950E+04  0.10100000352E+00 0. -1.
</event>
<event>
 5   0  0.3725232E-06  0.2976231E+04  0.7818609E-02  0.8250551E-01
        1   -1    0    0  501    0  0.00000000000E+00  0.00000000000E+00  0.19643830278E+04  0.19643830278E+04  0.50400001928E-02 0. -1.
       -1   -1    0    0    0  501  0.00000000000E+00  0.00000000000E+00 -0.11273199394E+04  0.11273199394E+04  0.50400001928E-02 0.  1.
    10030    2    1    2    0    0  0.00000000000E+00  0.00000000000E+00  0.83706308840E+03  0.30917029673E+04  0.29762312786E+04 0.  0.
        2    1    3    3  502    0 -0.74888656236E+03  0.12201673293E+04  0.84029983943E+03  0.16600431364E+04  0.25500000920E-02 0.  1.
       -2    1    3    3    0  502  0.74888656236E+03 -0.12201673293E+04 -0.32367510284E+01  0.14316598308E+04  0.25500000920E-02 0. -1.
</event>
<event>
 5   0  0.3636718E-06  0.2969105E+04  0.7818609E-02  0.8252609E-01
       -1   -1    0    0    0  501  0.00000000000E+00  0.00000000000E+00  0.83540904996E+03  0.83540904998E+03  0.50400001928E-02 0.  1.
        1   -1    0    0  501    0  0.00000000000E+00  0.00000000000E+00 -0.26381033645E+04  0.26381033645E+04  0.50400001928E-02 0. -1.
    10030    2    1    2    0    0  0.00000000000E+00  0.00000000000E+00 -0.18026943146E+04  0.34735124145E+04  0.29691045286E+04 0.  0.
        4    1    3    3  502    0 -0.89161105967E+03  0.10570837594E+04 -0.26972006060E+03  0.14089524052E+04  0.12699999809E+01 0.  1.
       -4    1    3    3    0  502  0.89161105967E+03 -0.10570837594E+04 -0.15329742540E+04  0.20645600093E+04  0.12699999809E+01 0. -1.
</event>
<event>
 5   0  0.3852126E-06  0.2761073E+04  0.7818609E-02  0.8315456E-01
       -1   -1    0    0    0  501  0.00000000000E+00  0.00000000000E+00  0.10280873409E+04  0.10280873410E+04  0.50400001928E-02 0. -1.
        1   -1    0    0  501    0  0.00000000000E+00  0.00000000000E+00 -0.18538128536E+04  0.18538128536E+04  0.50400001928E-02 0.  1.
    10030    2    1    2    0    0  0.00000000000E+00  0.00000000000E+00 -0.82572551262E+03  0.28819001945E+04  0.27610733618E+04 0.  0.
        1    1    3    3  502    0  0.65245570543E+03  0.27828168735E+02  0.85667338954E+03  0.10772010726E+04  0.50400001928E-02 0. -1.
       -1    1    3    3    0  502 -0.65245570543E+03 -0.27828168735E+02 -0.16823989022E+04  0.18046991219E+04  0.50400001928E-02 0.  1.
</event>
<event>
 5   0  0.3592331E-06  0.2966111E+04  0.7818609E-02  0.8253475E-01
       -1   -1    0    0    0  501  0.00000000000E+00  0.00000000000E+00  0.16059086254E+04  0.16059086254E+04  0.50400001928E-02 0. -1.
        1   -1    0    0  501    0  0.00000000000E+00  0.00000000000E+00 -0.13696010052E+04  0.13696010052E+04  0.50400001928E-02 0.  1.
    10030    2    1    2    0    0  0.00000000000E+00  0.00000000000E+00  0.23630762018E+03  0.29755096306E+04  0.29661113044E+04 0.  0.
        3    1    3    3  502    0 -0.11016025043E+04 -0.14288596543E+03 -0.86756310686E+03  0.14094716142E+04  0.10100000352E+00 0.  1.
       -3    1    3    3    0  502  0.11016025043E+04  0.14288596543E+03  0.11038707270E+04  0.15660380164E+04  0.10100000352E+00 0. -1.
</event>
<event>
 5   0  0.1089569E-05  0.3031901E+04  0.7818609E-02  0.8234680E-01
       -2   -1    0    0    0  501  0.00000000000E+00  0.00000000000E+00  0.74005776922E+03  0.74005776923E+03  0.25500000920E-02 0. -1.
        2   -1    0    0  501    0  0.00000000000E+00  0.00000000000E+00 -0.31053056547E+04  0.31053056547E+04  0.25500000920E-02 0.  1.
    10030    2    1    2    0    0  0.00000000000E+00  0.00000000000E+00 -0.23652478855E+04  0.38453634240E+04  0.30319007738E+04 0.  0.
        5    1    3    3  502    0 -0.11459968763E+04  0.54421513078E+03 -0.13015970654E+03  0.12753205825E+04  0.46999998093E+01 0. -1.
       -5    1    3    3    0  502  0.11459968763E+04 -0.54421513078E+03 -0.22350881790E+04  0.25700428414E+04  0.46999998093E+01 0.  1.
</event>
<event>
 5   0  0.1057036E-05  0.2868897E+04  0.7818609E-02  0.8282192E-01
        2   -1    0    0  501    0  0.00000000000E+00  0.00000000000E+00  0.12480982867E+04  0.12480982867E+04  0.25500000920E-02 0. -1.
       -2   -1    0    0    0  501  0.00000000000E+00  0.00000000000E+00 -0.16486226220E+04  0.16486226220E+04  0.25500000920E-02 0.  1.
    10030    2    1    2    0    0  0.00000000000E+00  0.00000000000E+00 -0.40052433535E+03  0.28967209087E+04  0.28688973979E+04 0.  0.
        4    1    3    3  502    0  0.22014506339E+03 -0.13697181888E+04  0.16803516476E+03  0.13974366516E+04  0.12699999809E+01 0. -1.
       -4    1    3    3    0  502 -0.22014506339E+03  0.13697181888E+04 -0.56855950010E+03  0.14992842571E+04  0.12699999809E+01 0.  1.
</event>
<event>
 5   0  0.3896630E-06  0.2107296E+04  0.7818609E-02  0.8558036E-01
       -1   -1    0    0    0  501  0.00000000000E+00  0.00000000000E+00  0.82943209291E+03  0.82943209293E+03  0.50400001928E-02 0. -1.
        1   -1    0    0  501    0  0.00000000000E+00  0.00000000000E+00 -0.13384744850E+04  0.13384744850E+04  0.50400001928E-02 0.  1.
    10030    2    1    2    0    0  0.00000000000E+00  0.00000000000E+00 -0.50904239212E+03  0.21679065780E+04  0.21072956066E+04 0.  0.
        5    1    3    3  502    0 -0.78034349169E+03 -0.65530894194E+03 -0.53015625847E+03  0.11486746810E+04  0.46999998093E+01 0.  1.
       -5    1    3    3    0  502  0.78034349169E+03  0.65530894194E+03  0.21113866351E+02  0.10192318969E+04  0.46999998093E+01 0. -1.
</event>
<event>
 5   0  0.1057036E-05  0.2970758E+04  0.7818609E-02  0.8252131E-01
        2   -1    0    0  501    0  0.00000000000E+00  0.00000000000E+00  0.16344972721E+04  0.16344972721E+04  0.25500000920E-02 0.  1.
       -2   -1    0    0    0  501  0.00000000000E+00  0.00000000000E+00 -0.13498647007E+04  0.13498647007E+04  0.25500000920E-02 0. -1.
    10030    2    1    2    0    0  0.00000000000E+00  0.00000000000E+00  0.28463257137E+03  0.29843619728E+04  0.29707575943E+04 0.  0.
        4    1    3    3  502    0  0.53780875085E+03  0.73689229799E+03 -0.10352719510E+04  0.13798688839E+04  0.12699999809E+01 0. -1.
       -4    1    3    3    0  502 -0.53780875085E+03 -0.73689229799E+03  0.13199045224E+04  0.16044930889E+04  0.12699999809E+01 0.  1.
</event>
<event>
 5   0  0.3896630E-06  0.2875066E+04  0.7818609E-02  0.8280335E-01
        1   -1    0    0  501    0  0.00000000000E+00  0.00000000000E+00  0.19499162916E+04  0.19499162916E+04  0.50400001928E-02 0.  1.
       -1   -1    0    0    0  501  0.00000000000E+00  0.00000000000E+00 -0.10597896898E+04  0.10597896898E+04  0.50400001928E-02 0. -1.
    10030    2    1    2    0    0  0.00000000000E+00  0.00000000000E+00  0.89012660179E+03  0.30097059814E+04  0.28750660388E+04 0.  0.
        5    1    3    3  502    0  0.96959200390E+03 -0.71678061415E+03  0.12644017230E+04  0.17471739782E+04  0.46999998093E+01 0.  1.
       -5    1    3    3    0  502 -0.96959200390E+03  0.71678061415E+03 -0.37427512120E+03  0.12625320032E+04  0.46999998093E+01 0. -1.
</event>
<event>
 5   0  0.9647945E-06  0.2997076E+04  0.7818609E-02  0.8244566E-01
        2   -1    0    0  501    0  0.00000000000E+00  0.00000000000E+00  0.22768630669E+04  0.22768630669E+04  0.25500000920E-02 0. -1.
       -2   -1    0    0    0  501  0.00000000000E+00  0.00000000000E+00 -0.98627664438E+03  0.98627664439E+03  0.25500000920E-02 0.  1.
    10030    2    1    2    0    0  0.00000000000E+00  0.00000000000E+00  0.12905864225E+04  0.32631397113E+04  0.29970764857E+04 0.  0.
        2    1    3    3  502    0  0.15629539308E+03  0.11641012196E+04 -0.36794386195E+03  0.12308300390E+04  0.25500000920E-02 0.  1.
       -2    1    3    3    0  502 -0.15629539308E+03 -0.11641012196E+04  0.16585302844E+04  0.20323096722E+04  0.25500000920E-02 0. -1.
</event>
<event>
 5   0  0.1029922E-05  0.2979826E+04  0.7818609E-02  0.8249515E-01
       -2   -1    0    0    0  501  0.00000000000E+00  0.00000000000E+00  0.15207257501E+04  0.15207257501E+04  0.25500000920E-02 0. -1.
        2   -1    0    0  501    0  0.00000000000E+00  0.00000000000E+00 -0.14597248502E+04  0.14597248502E+04  0.25500000920E-02 0.  1.
    10030    2    1    2    0    0  0.00000000000E+00  0.00000000000E+00  0.61000899910E+02  0.29804506003E+04  0.29798262821E+04 0.  0.
        1    1    3    3  502    0  0.12174695805E+04 -0.54568534601E+03 -0.63284019826E+03  0.14766487032E+04  0.50400001928E-02 0.  1.
       -1    1    3    3    0  502 -0.12174695805E+04  0.54568534601E+03  0.69384109817E+03  0.15038018971E+04  0.50400001928E-02 0. -1.
</event>
<event>
 5   0  0.3636718E-06  0.2951232E+04  0.7818609E-02  0.8257796E-01
        1   -1    0    0  501    0  0.00000000000E+00  0.00000000000E+00  0.26732753686E+04  0.26732753687E+04  0.50400001928E-02 0. -1.
       -1   -1    0    0    0  501  0.00000000000E+00  0.00000000000E+00 -0.81452250343E+03  0.81452250344E+03  0.50400001928E-02 0.  1.
    10030    2    1    2    0    0  0.00000000000E+00  0.00000000000E+00  0.18587528652E+04  0.34877978721E+04  0.29512322482E+04 0.  0.
        4    1    3    3  502    0 -0.14552171374E+04  0.23788660402E+03  0.86258186020E+03  0.17083020903E+04  0.12699999809E+01 0. -1.
       -4    1    3    3    0  502  0.14552171374E+04 -0.23788660402E+03  0.99617100502E+03  0.17794957818E+04  0.12699999809E+01 0.  1.
</event>
<event>
 5   0  0.1029922E-05  0.3306233E+04  0.7818609E-02  0.8161311E-01
       -2   -1    0    0    0  501  0.00000000000E+00  0.00000000000E+00  0.14902081290E+04  0.14902081290E+04  0.25500000920E-02 0.  1.
        2   -1    0    0  501    0  0.00000000000E+00  0.00000000000E+00 -0.18338336223E+04  0.18338336223E+04  0.25500000920E-02 0. -1.
    10030    2    1    2    0    0  0.00000000000E+00  0.00000000000E+00 -0.34362549329E+03  0.33240417514E+04  0.33062327633E+04 0.  0.
        1    1    3    3  502    0 -0.92259976140E+03  0.23160177171E+03 -0.15311176155E+04  0.18025401113E+04  0.50400001928E-02 0. -1.
       -1    1    3    3    0  502  0.92259976140E+03 -0.23160177171E+03  0.11874921222E+04  0.15215016401E+04  0.50400001928E-02 0.  1.
</event>
<event>
 5   0  0.3725232E-06  0.2718322E+04  0.7818609E-02  0.8329085E-01
        1   -1    0    0  501    0  0.00000000000E+00  0.00000000000E+00  0.10370658066E+04  0.10370658066E+04  0.50400001928E-02 0.  1.
       -1   -1    0    0    0  501  0.00000000000E+00  0.00000000000E+00 -0.17812934849E+04  0.17812934849E+04  0.50400001928E-02 0. -1.
    10030    2    1    2    0    0  0.00000000000E+00  0.00000000000E+00 -0.74422767828E+03  0.28183592916E+04  0.27183219565E+04 0.  0.
        2    1    3    3  502    0  0.88444004240E+03 -0.99685454986E+03 -0.64908800522E+03  0.14823185962E+04  0.25500000920E-02 0.  1.
       -2    1    3    3    0  502 -0.88444004240E+03  0.99685454986E+03 -0.95139673053E+02  0.13360406953E+04  0.25500000920E-02 0. -1.
</event>
<event>
 5   0  0.1057036E-05  0.2932903E+04  0.7818609E-02  0.8263155E-01
       -2   -1    0    0    0  501  0.00000000000E+00  0.00000000000E+00  0.13335450965E+04  0.13335450965E+04  0.25500000920E-02 0. -1.
        2   -1    0    0  501    0  0.00000000000E+00  0.00000000000E+00 -0.16126036128E+04  0.16126036128E+04  0.25500000920E-02 0.  1.
    10030    2    1    2    0    0  0.00000000000E+00  0.00000000000E+00 -0.27905851630E+03  0.29461487093E+04  0.29329027536E+04 0.  0.
        4    1    3    3  502    0  0.46507419668E+03 -0.49123574409E+03  0.11674508963E+04  0.13492775003E+04  0.12699999809E+01 0. -1.
       -4    1    3    3    0  502 -0.46507419668E+03  0.49123574409E+03 -0.14465094126E+04  0.15968712090E+04  0.12699999809E+01 0.  1.
</event>
<event>
 5   0  0.1028450E-05  0.3084422E+04  0.7818609E-02  0.8220026E-01
        2   -1    0    0  501    0  0.00000000000E+00  0.00000000000E+00  0.14283618878E+04  0.14283618878E+04  0.25500000920E-02 0.  1.
       -2   -1    0    0    0  501  0.00000000000E+00  0.00000000000E+00 -0.16651345239E+04  0.16651345239E+04  0.25500000920E-02 0. -1.
    10030    2    1    2    0    0  0.00000000000E+00  0.00000000000E+00 -0.23677263610E+03  0.30934964117E+04  0.30844219504E+04 0.  0.
        3    1    3    3  502    0  0.79175708991E+03  0.11105109873E+04 -0.84043544249E+03  0.16020130104E+04  0.10100000352E+00 0. -1.
       -3    1    3    3    0  502 -0.79175708991E+03 -0.11105109873E+04  0.60366280639E+03  0.14914834013E+04  0.10100000352E+00 0.  1.
</event>
<event>
 5   0  0.3725232E-06  0.2992631E+04  0.7818609E-02  0.8245838E-01
       -1   -1    0    0    0  501  0.00000000000E+00  0.00000000000E+00  0.14859455989E+04  0.14859455989E+04  0.50400001928E-02 0.  1.
        1   -1    0    0  501    0  0.00000000000E+00  0.00000000000E+00 -0.15067577744E+04  0.15067577744E+04  0.50400001928E-02 0. -1.
    10030    2    1    2    0    0  0.00000000000E+00  0.00000000000E+00 -0.20812175506E+02  0.29927033733E+04  0.29926310053E+04 0.  0.
        2    1    3    3  502    0  0.42111798616E+03 -0.13938181711E+04 -0.35521963330E+03  0.14987496256E+04  0.25500000920E-02 0.  1.
       -2    1    3    3    0  502 -0.42111798616E+03  0.13938181711E+04  0.33440745779E+03  0.14939537477E+04  0.25500000920E-02 0. -1.
</event>
<event>
 5   0  0.3636718E-06  0.2994042E+04  0.7818609E-02  0.8245434E-01
       -1   -1    0    0    0  501  0.00000000000E+00  0.00000000000E+00  0.96909747066E+03  0.96909747067E+03  0.50400001928E-02 0.  1.
        1   -1    0    0  501    0  0.00000000000E+00  0.00000000000E+00 -0.23125344624E+04  0.23125344624E+04  0.50400001928E-02 0. -1.
    10030    2    1    2    0    0  0.00000000000E+00  0.00000000000E+00 -0.13434369918E+04  0.32816319331E+04  0.29940416152E+04 0.  0.
        4    1    3    3  502    0 -0.12633398080E+03  0.49927176516E+03  0.86894433888E+03  0.10100982364E+04  0.12699999809E+01 0.  1.
       -4    1    3    3    0  502  0.12633398080E+03 -0.49927176516E+03 -0.22123813307E+04  0.22715336967E+04  0.12699999809E+01 0. -1.
</event>
<event>
 5   0  0.3592331E-06  0.2725315E+04  0.7818609E-02  0.8326837E-01
       -1   -1    0    0    0  501  0.00000000000E+00  0.00000000000E+00  0.23953628317E+04  0.23953628317E+04  0.50400001928E-02 0.  1.
        1   -1    0    0  501    0  0.00000000000E+00  0.00000000000E+00 -0.77517941214E+03  0.77517941215E+03  0.50400001928E-02 0. -1.
    10030    2    1    2    0    0  0.00000000000E+00  0.00000000000E+00  0.16201834196E+04  0.31705422439E+04  0.27253153592E+04 0.  0.
        3    1    3    3  502    0  0.45534889007E+03 -0.60233514436E+03 -0.50954083637E+03  0.91092376846E+03  0.10100000352E+00 0. -1.
       -3    1    3    3    0  502 -0.45534889007E+03  0.60233514436E+03  0.21297242559E+04  0.22596184754E+04  0.10100000352E+00 0.  1.
</event>
<event>
 5   0  0.3592331E-06  0.2992908E+04  0.7818609E-02  0.8245759E-01
       -1   -1    0    0    0  501  0.00000000000E+00  0.00000000000E+00  0.15277252684E+04  0.15277252684E+04  0.50400001928E-02 0. -1.
        1   -1    0    0  501    0  0.00000000000E+00  0.00000000000E+00 -0.14658232874E+04  0.14658232874E+04  0.50400001928E-02 0.  1.
    10030    2    1    2    0    0  0.00000000000E+00  0.00000000000E+00  0.61901981036E+02  0.29935485558E+04  0.29929084685E+04 0.  0.
        3    1    3    3  502    0 -0.13679904598E+04  0.23233202510E+03  0.59142714523E+03  0.15083640630E+04  0.10100000352E+00 0. -1.
       -3    1    3    3    0  502  0.13679904598E+04 -0.23233202510E+03 -0.52952516419E+03  0.14851844929E+04  0.10100000352E+00 0.  1.
</event>
<event>
 5   0  0.1028450E-05  0.3036929E+04  0.7818609E-02  0.8233263E-01
       -2   -1    0    0    0  501  0.00000000000E+00  0.00000000000E+00  0.11138960796E+04  0.11138960796E+04  0.25500000920E-02 0. -1.
        2   -1    0    0  501    0  0.00000000000E+00  0.00000000000E+00 -0.20699729117E+04  0.20699729117E+04  0.25500000920E-02 0.  1.
    10030    2    1    2    0    0  0.00000000000E+00  0.00000000000E+00 -0.95607683206E+03  0.31838689913E+04  0.30369291801E+04 0.  0.
        3    1    3    3  502    0  0.39297666713E+03  0.58384382560E+03 -0.18886629885E+04  0.20155277641E+04  0.10100000352E+00 0.  1.
       -3    1    3    3    0  502 -0.39297666713E+03 -0.58384382560E+03  0.93258615646E+03  0.11683412271E+04  0.10100000352E+00 0. -1.
</event>
<event>
 5   0  0.1089569E-05  0.2920359E+04  0.7818609E-02  0.8266846E-01
        2   -1    0    0  501    0  0.00000000000E+00  0.00000000000E+00  0.17377144376E+04  0.17377144376E+04  0.25500000920E-02 0. -1.
       -2   -1    0    0    0  501  0.00000000000E+00  0.00000000000E+00 -0.12269699981E+04  0.12269699981E+04  0.25500000920E-02 0.  1.
    10030    2    1    2    0    0  0.00000000000E+00  0.00000000000E+00  0.51074443948E+03  0.29646844357E+04  0.29203585261E+04 0.  0.
        5    1    3    3  502    0 -0.19888252518E+03 -0.55880498357E+03  0.16098970183E+04  0.17156945439E+04  0.46999998093E+01 0. -1.
       -5    1    3    3    0  502  0.19888252518E+03  0.55880498357E+03 -0.10991525788E+04  0.12489898918E+04  0.46999998093E+01 0.  1.
</event>
<event>
 5   0  0.9647945E-06  0.2680370E+04  0.7818609E-02  0.8341403E-01
        2   -1    0    0  501    0  0.00000000000E+00  0.00000000000E+00  0.14818050276E+04  0.14818050276E+04  0.25500000920E-02 0. -1.
       -2   -1    0    0    0  501  0.00000000000E+00  0.00000000000E+00 -0.12120997173E+04  0.12120997173E+04  0.25500000920E-02 0.  1.
    10030    2    1    2    0    0  0.00000000000E+00  0.00000000000E+00  0.26970531036E+03  0.26939047449E+04  0.26803697171E+04 0.  0.
        2    1    3    3  502    0  0.12951015904E+04  0.68774928795E+02 -0.20460625732E+03  0.13129668087E+04  0.25500000920E-02 0.  1.
       -2    1    3    3    0  502 -0.12951015904E+04 -0.68774928795E+02  0.47431156768E+03  0.13809379362E+04  0.25500000920E-02 0. -1.
</event>
<event>
 5   0  0.3592331E-06  0.2958884E+04  0.7818609E-02  0.8255570E-01
       -1   -1    0    0    0  501  0.00000000000E+00  0.00000000000E+00  0.11273297109E+04  0.11273297109E+04  0.50400001928E-02 0. -1.
        1   -1    0    0  501    0  0.00000000000E+00  0.00000000000E+00 -0.19415336155E+04  0.19415336155E+04  0.50400001928E-02 0.  1.
    10030    2    1    2    0    0  0.00000000000E+00  0.00000000000E+00 -0.81420390458E+03  0.30688633264E+04  0.29588839312E+04 0.  0.
        3    1    3    3  502    0 -0.94032358889E+02  0.13140390525E+04 -0.11053316353E+04  0.17196798394E+04  0.10100000352E+00 0.  1.
       -3    1    3    3    0  502  0.94032358889E+02 -0.13140390525E+04  0.29112773068E+03  0.13491834870E+04  0.10100000352E+00 0. -1.
</event>
<event>
 5   0  0.9647945E-06  0.2193639E+04  0.7818609E-02  0.8521080E-01
       -2   -1    0    0    0  501  0.00000000000E+00  0.00000000000E+00  0.10880187536E+04  0.10880187536E+04  0.25500000920E-02 0.  1.
        2   -1    0    0  501    0  0.00000000000E+00  0.00000000000E+00 -0.11056911863E+04  0.11056911863E+04  0.25500000920E-02 0. -1.
    10030    2    1    2    0    0  0.00000000000E+00  0.00000000000E+00 -0.17672432744E+02  0.21937099399E+04  0.21936387545E+04 0.  0.
        2    1    3    3  502    0  0.76477600789E+03 -0.31927580409E+03  0.70965307886E+03  0.10910668511E+04  0.25500000920E-02 0.  1.
       -2    1    3    3    0  502 -0.76477600789E+03  0.31927580409E+03 -0.72732551160E+03  0.11026430887E+04  0.25500000920E-02 0. -1.
</event>
<event>
 5   0  0.3852126E-06  0.2987819E+04  0.7818609E-02  0.8247218E-01
       -1   -1    0    0    0  501  0.00000000000E+00  0.00000000000E+00  0.14405237446E+04  0.14405237446E+04  0.50400001928E-02 0. -1.
        1   -1    0    0  501    0  0.00000000000E+00  0.00000000000E+00 -0.15492741699E+04  0.15492741699E+04  0.50400001928E-02 0.  1.
    10030    2    1    2    0    0  0.00000000000E+00  0.00000000000E+00 -0.10875042531E+03  0.29897979144E+04  0.29878194246E+04 0.  0.
        1    1    3    3  502    0  0.94653128414E+03  0.10952442971E+04  0.31503680329E+03  0.14814620244E+04  0.50400001928E-02 0. -1.
       -1    1    3    3    0  502 -0.94653128414E+03 -0.10952442971E+04 -0.42378722859E+03  0.15083358901E+04  0.50400001928E-02 0.  1.
</event>
<event>
 5   0  0.3313750E-06  0.2992783E+04  0.7818609E-02  0.8245795E-01
       -3   -1    0    0    0  501  0.00000000000E+00  0.00000000000E+00  0.14590207746E+04  0.14590207781E+04  0.10100000352E+00 0. -1.
        3   -1    0    0  501    0  0.00000000000E+00  0.00000000000E+00 -0.15347192271E+04  0.15347192304E+04  0.10100000352E+00 0.  1.
    10030    2    1    2    0    0  0.00000000000E+00  0.00000000000E+00 -0.75698452481E+02  0.29937400086E+04  0.29927828159E+04 0.  0.
        2    1    3    3  502    0  0.51134538662E+03  0.40424847769E+03 -0.13852381980E+04  0.15309395159E+04  0.25500000920E-02 0.  1.
       -2    1    3    3    0  502 -0.51134538662E+03 -0.40424847769E+03  0.13095397455E+04  0.14628004927E+04  0.25500000920E-02 0. -1.
</event>
<event>
 5   0  0.1057036E-05  0.3006818E+04  0.7818609E-02  0.8241787E-01
        2   -1    0    0  501    0  0.00000000000E+00  0.00000000000E+00  0.19874653238E+04  0.19874653238E+04  0.25500000920E-02 0.  1.
       -2   -1    0    0    0  501  0.00000000000E+00  0.00000000000E+00 -0.11372470412E+04  0.11372470412E+04  0.25500000920E-02 0. -1.
    10030    2    1    2    0    0  0.00000000000E+00  0.00000000000E+00  0.85021828255E+03  0.31247123650E+04  0.30068182912E+04 0.  0.
        4    1    3    3  502    0 -0.38262669727E+03  0.80840243216E+03 -0.83070926473E+03  0.12206544053E+04  0.12699999809E+01 0. -1.
       -4    1    3    3    0  502  0.38262669727E+03 -0.80840243216E+03  0.16809275473E+04  0.19040579597E+04  0.12699999809E+01 0.  1.
</event>
<event>
 5   0  0.3592331E-06  0.2999090E+04  0.7818609E-02  0.8243991E-01
        1   -1    0    0  501    0  0.00000000000E+00  0.00000000000E+00  0.24770444365E+04  0.24770444365E+04  0.50400001928E-02 0.  1.
       -1   -1    0    0    0  501  0.00000000000E+00  0.00000000000E+00 -0.90778936708E+03  0.90778936709E+03  0.50400001928E-02 0. -1.
    10030    2    1    2    0    0  0.00000000000E+00  0.00000000000E+00  0.15692550694E+04  0.33848338036E+04  0.29990895961E+04 0.  0.
        3    1    3    3  502    0  0.16152700441E+03  0.92826890138E+03  0.21012301333E+04  0.23028118051E+04  0.10100000352E+00 0. -1.
       -3    1    3    3    0  502 -0.16152700441E+03 -0.92826890138E+03 -0.53197506389E+03  0.10820219985E+04  0.10100000352E+00 0.  1.
</event>
<event>
 5   0  0.3852126E-06  0.3022263E+04  0.7818609E-02  0.8237402E-01
       -1   -1    0    0    0  501  0.00000000000E+00  0.00000000000E+00  0.15840155589E+04  0.15840155589E+04  0.50400001928E-02 0.  1.
        1   -1    0    0  501    0  0.00000000000E+00  0.00000000000E+00 -0.14416006107E+04  0.14416006107E+04  0.50400001928E-02 0. -1.
    10030    2    1    2    0    0  0.00000000000E+00  0.00000000000E+00  0.14241494815E+03  0.30256161696E+04  0.30222625942E+04 0.  0.
        1    1    3    3  502    0 -0.14104504164E+04  0.18928671922E+03  0.58002133739E+03  0.15367578180E+04  0.50400001928E-02 0.  1.
       -1    1    3    3    0  502  0.14104504164E+04 -0.18928671922E+03 -0.43760638925E+03  0.14888583516E+04  0.50400001928E-02 0. -1.
</event>
<event>
 5   0  0.3725232E-06  0.2353112E+04  0.7818609E-02  0.8457269E-01
       -1   -1    0    0    0  501  0.00000000000E+00  0.00000000000E+00  0.55962164665E+03  0.55962164667E+03  0.50400001928E-02 0. -1.
        1   -1    0    0  501    0  0.00000000000E+00  0.00000000000E+00 -0.24736066884E+04  0.24736066884E+04  0.50400001928E-02 0.  1.
    10030    2    1    2    0    0  0.00000000000E+00  0.00000000000E+00 -0.19139850417E+04  0.30332283351E+04  0.23531118530E+04 0.  0.
        2    1    3    3  502    0 -0.52993384244E+03  0.96228730392E+03 -0.41398075256E+03  0.11739705261E+04  0.25500000920E-02 0.  1.
       -2    1    3    3    0  502  0.52993384244E+03 -0.96228730392E+03 -0.15000042892E+04  0.18592578090E+04  0.25500000920E-02 0. -1.
</event>
<event>
 5   0  0.3636718E-06  0.2837632E+04  0.7818609E-02  0.8291680E-01
        1   -1    0    0  501    0  0.00000000000E+00  0.00000000000E+00  0.59807590525E+03  0.59807590527E+03  0.50400001928E-02 0. -1.
       -1   -1    0    0    0  501  0.00000000000E+00  0.00000000000E+00 -0.33658579414E+04  0.33658579414E+04  0.50400001928E-02 0.  1.
    10030    2    1    2    0    0  0.00000000000E+00  0.00000000000E+00 -0.27677820362E+04  0.39639338467E+04  0.28376317839E+04 0.  0.
        4    1    3    3  502    0 -0.90059679313E+03 -0.59646927473E+03 -0.26688920208E+04  0.28792076013E+04  0.12699999809E+01 0.  1.
       -4    1    3    3    0  502  0.90059679313E+03  0.59646927473E+03 -0.98890015357E+02  0.10847262454E+04  0.12699999809E+01 0. -1.
</event>
<event>
 5   0  0.3313750E-06  0.2435158E+04  0.7818609E-02  0.8426457E-01
        3   -1    0    0  501    0  0.00000000000E+00  0.00000000000E+00  0.10225349195E+04  0.10225349245E+04  0.10100000352E+00 0. -1.
       -3   -1    0    0    0  501  0.00000000000E+00  0.00000000000E+00 -0.14498265664E+04  0.14498265699E+04  0.10100000352E+00 0.  1.
    10030    2    1    2    0    0  0.00000000000E+00  0.00000000000E+00 -0.42729164690E+03  0.24723614944E+04  0.24351577377E+04 0.  0.
        3    1    3    3  502    0  0.11265816044E+03 -0.44650190606E+03  0.93071340518E+03  0.10384041920E+04  0.10100000352E+00 0. -1.
       -3    1    3    3    0  502 -0.11265816044E+03  0.44650190606E+03 -0.13580050521E+04  0.14339573023E+04  0.10100000352E+00 0.  1.
</event>
<event>
 5   0  0.1029922E-05  0.2999973E+04  0.7818609E-02  0.8243739E-01
        2   -1    0    0  501    0  0.00000000000E+00  0.00000000000E+00  0.14287838060E+04  0.14287838060E+04  0.25500000920E-02 0.  1.
       -2   -1    0    0    0  501  0.00000000000E+00  0.00000000000E+00 -0.15747376148E+04  0.15747376148E+04  0.25500000920E-02 0. -1.
    10030    2    1    2    0    0  0.00000000000E+00  0.00000000000E+00 -0.14595380889E+03  0.30035214208E+04  0.29999730684E+04 0.  0.
        1    1    3    3  502    0 -0.12930724475E+04 -0.67410994299E+03 -0.42481685908E+03  0.15188581019E+04  0.50400001928E-02 0.  1.
       -1    1    3    3    0  502  0.12930724475E+04  0.67410994299E+03  0.27886305019E+03  0.14846633189E+04  0.50400001928E-02 0. -1.
</event>
<event>
 5   0  0.3725232E-06  0.3005916E+04  0.7818609E-02  0.8242044E-01
        1   -1    0    0  501    0  0.00000000000E+00  0.00000000000E+00  0.15059662887E+04  0.15059662887E+04  0.50400001928E-02 0.  1.
       -1   -1    0    0    0  501  0.00000000000E+00  0.00000000000E+00 -0.14999558336E+04  0.14999558336E+04  0.50400001928E-02 0. -1.
    10030    2    1    2    0    0  0.00000000000E+00  0.00000000000E+00  0.60104551152E+01  0.30059221223E+04  0.30059161132E+04 0.  0.
        2    1    3    3  502    0 -0.26159450577E+03  0.68630131984E+03  0.13142826991E+04  0.15055830101E+04  0.25500000920E-02 0.  1.
       -2    1    3    3    0  502  0.26159450577E+03 -0.68630131984E+03 -0.13082722440E+04  0.15003391122E+04  0.25500000920E-02 0. -1.
</event>
<event>
 5   0  0.1028450E-05  0.2389588E+04  0.7818609E-02  0.8443412E-01
       -2   -1    0    0    0  501  0.00000000000E+00  0.00000000000E+00  0.95466969090E+03  0.95466969090E+03  0.25500000920E-02 0.  1.
        2   -1    0    0  501    0  0.00000000000E+00  0.00000000000E+00 -0.14953159051E+04  0.14953159051E+04  0.25500000920E-02 0. -1.
    10030    2    1    2    0    0  0.00000000000E+00  0.00000000000E+00 -0.54064621424E+03  0.24499855960E+04  0.23895880590E+04 0.  0.
        3    1    3    3  502    0 -0.40075267761E+03 -0.57535930709E+03  0.72154355795E+03  0.10061143857E+04  0.10100000352E+00 0.  1.
       -3    1    3    3    0  502  0.40075267761E+03  0.57535930709E+03 -0.12621897722E+04  0.14438712103E+04  0.10100000352E+00 0. -1.
</event>
<event>
 5   0  0.3636718E-06  0.3021672E+04  0.7818609E-02  0.8237569E-01
        1   -1    0    0  501    0  0.00000000000E+00  0.00000000000E+00  0.16816414776E+04  0.16816414776E+04  0.50400001928E-02 0.  1.
       -1   -1    0    0    0  501  0.00000000000E+00  0.00000000000E+00 -0.13573792799E+04  0.13573792799E+04  0.50400001928E-02 0. -1.
    10030    2    1    2    0    0  0.00000000000E+00  0.00000000000E+00  0.32426219770E+03  0.30390207575E+04  0.30216719199E+04 0.  0.
        4    1    3    3  502    0 -0.39893761166E+03  0.10638882797E+04 -0.83938451712E+03  0.14126490966E+04  0.12699999809E+01 0. -1.
       -4    1    3    3    0  502  0.39893761166E+03 -0.10638882797E+04  0.11636467148E+04  0.16263716609E+04  0.12699999809E+01 0.  1.
</event>
<event>
 5   0  0.1029922E-05  0.2116871E+04  0.7818609E-02  0.8553848E-01
       -2   -1    0    0    0  501  0.00000000000E+00  0.00000000000E+00  0.17425510681E+04  0.17425510681E+04  0.25500000920E-02 0. -1.
        2   -1    0    0  501    0  0.00000000000E+00  0.00000000000E+00 -0.64289964855E+03  0.64289964856E+03  0.25500000920E-02 0.  1.
    10030    2    1    2    0    0  0.00000000000E+00  0.00000000000E+00  0.10996514196E+04  0.23854507167E+04  0.21168707748E+04 0.  0.
        1    1    3    3  502    0  0.17862383752E+03  0.16822283152E+02  0.17252907282E+04  0.17345943507E+04  0.50400001928E-02 0. -1.
       -1    1    3    3    0  502 -0.17862383752E+03 -0.16822283152E+02 -0.62563930867E+03  0.65085636597E+03  0.50400001928E-02 0.  1.
</event>
<event>
 5   0  0.3592331E-06  0.3011469E+04  0.7818609E-02  0.8240463E-01
       -1   -1    0    0    0  501  0.00000000000E+00  0.00000000000E+00  0.98535322508E+03  0.98535322509E+03  0.50400001928E-02 0. -1.
        1   -1    0    0  501    0  0.00000000000E+00  0.00000000000E+00 -0.23009378376E+04  0.23009378376E+04  0.50400001928E-02 0.  1.
    10030    2    1    2    0    0  0.00000000000E+00  0.00000000000E+00 -0.13155846125E+04  0.32862910627E+04  0.30114690893E+04 0.  0.
        3    1    3    3  502    0  0.13528837784E+04 -0.47445381423E+03 -0.11600505316E+04  0.18442120772E+04  0.10100000352E+00 0. -1.
       -3    1    3    3    0  502 -0.13528837784E+04  0.47445381423E+03 -0.15553408093E+03  0.14420789855E+04  0.10100000352E+00 0.  1.
</event>
<event>
 5   0  0.1057036E-05  0.2642250E+04  0.7818609E-02  0.8353990E-01
       -2   -1    0    0    0  501  0.00000000000E+00  0.00000000000E+00  0.91495868029E+03  0.91495868029E+03  0.25500000920E-02 0.  1.
        2   -1    0    0  501    0  0.00000000000E+00  0.00000000000E+00 -0.19075960062E+04  0.19075960062E+04  0.25500000920E-02 0. -1.
    10030    2    1    2    0    0  0.00000000000E+00  0.00000000000E+00 -0.99263732591E+03  0.28225546865E+04  0.26422501959E+04 0.  0.
        4    1    3    3  502    0  0.70428349384E+03 -0.94313463457E+03 -0.11371300574E+04  0.16366381882E+04  0.12699999809E+01 0. -1.
       -4    1    3    3    0  502 -0.70428349384E+03  0.94313463457E+03  0.14449273151E+03  0.11859164983E+04  0.12699999809E+01 0.  1.
</event>
<event>
 5   0  0.9647945E-06  0.2722956E+04  0.7818609E-02  0.8327595E-01
        2   -1    0    0  501    0  0.00000000000E+00  0.00000000000E+00  0.17752702390E+04  0.17752702390E+04  0.25500000920E-02 0.  1.
       -2   -1    0    0    0  501  0.00000000000E+00  0.00000000000E+00 -0.10441351938E+04  0.10441351938E+04  0.25500000920E-02 0. -1.
    10030    2    1    2    0    0  0.00000000000E+00  0.00000000000E+00  0.73113504520E+03  0.28194054328E+04  0.27229558462E+04 0.  0.
        2    1    3    3  502    0 -0.47358940151E+03  0.12107394546E+04 -0.53036118250E+02  0.13011494064E+04  0.25500000920E-02 0. -1.
       -2    1    3    3    0  502  0.47358940151E+03 -0.12107394546E+04  0.78417116345E+03  0.15182560264E+04  0.25500000920E-02 0.  1.
</event>
<event>
 5   0  0.1089569E-05  0.2981993E+04  0.7818609E-02  0.8248892E-01
        2   -1    0    0  501    0  0.00000000000E+00  0.00000000000E+00  0.18532532973E+04  0.18532532973E+04  0.25500000920E-02 0. -1.
       -2   -1    0    0    0  501  0.00000000000E+00  0.00000000000E+00 -0.11995503367E+04  0.11995503367E+04  0.25500000920E-02 0.  1.
    10030    2    1    2    0    0  0.00000000000E+00  0.00000000000E+00  0.65370296059E+03  0.30528036341E+04  0.29819930361E+04 0.  0.
        5    1    3    3  502    0 -0.71806387156E+03  0.59678633128E+03  0.15169001940E+04  0.17812293332E+04  0.46999998093E+01 0. -1.
       -5    1    3    3    0  502  0.71806387156E+03 -0.59678633128E+03 -0.86319723341E+03  0.12715743009E+04  0.46999998093E+01 0.  1.
</event>
<event>
 5   0  0.9647945E-06  0.3085779E+04  0.7818609E-02  0.8219652E-01
       -2   -1    0    0    0  501  0.00000000000E+00  0.00000000000E+00  0.10989042515E+04  0.10989042515E+04  0.25500000920E-02 0. -1.
        2   -1    0    0  501    0  0.00000000000E+00  0.00000000000E+00 -0.21662562702E+04  0.21662562702E+04  0.25500000920E-02 0.  1.
    10030    2    1    2    0    0  0.00000000000E+00  0.00000000000E+00 -0.10673520186E+04  0.32651605217E+04  0.30857791400E+04 0.  0.
        2    1    3    3  502    0  0.14632098402E+04  0.15495444876E+03 -0.42454074178E+02  0.14720041665E+04  0.25500000920E-02 0. -1.
       -2    1    3    3    0  502 -0.14632098402E+04 -0.15495444876E+03 -0.10248979444E+04  0.17931563552E+04  0.25500000920E-02 0.  1.
</event>
<event>
 5   0  0.1028450E-05  0.2927241E+04  0.7818609E-02  0.8264818E-01
       -2   -1    0    0    0  501  0.00000000000E+00  0.00000000000E+00  0.19167108934E+04  0.19167108934E+04  0.25500000920E-02 0. -1.
        2   -1    0    0  501    0  0.00000000000E+00  0.00000000000E+00 -0.11176356855E+04  0.11176356855E+04  0.25500000920E-02 0.  1.
    10030    2    1    2    0    0  0.00000000000E+00  0.00000000000E+00  0.79907520789E+03  0.30343465789E+04  0.29272406756E+04 0.  0.
        3    1    3    3  502    0  0.65404384594E+03  0.94397678251E+03 -0.54103172375E+03  0.12694805452E+04  0.10100000352E+00 0.  1.
       -3    1    3    3    0  502 -0.65404384594E+03 -0.94397678251E+03  0.13401069316E+04  0.17648660337E+04  0.10100000352E+00 0. -1.
</event>
<event>
 5   0  0.1028450E-05  0.2988399E+04  0.7818609E-02  0.8247051E-01
       -2   -1    0    0    0  501  0.00000000000E+00  0.00000000000E+00  0.11625447998E+04  0.11625447998E+04  0.25500000920E-02 0.  1.
        2   -1    0    0  501    0  0.00000000000E+00  0.00000000000E+00 -0.19204693455E+04  0.19204693455E+04  0.25500000920E-02 0. -1.
    10030    2    1    2    0    0  0.00000000000E+00  0.00000000000E+00 -0.75792454574E+03  0.30830141453E+04  0.29883986687E+04 0.  0.
        3    1    3    3  502    0  0.24638802911E+03  0.36814275776E+03 -0.18511664523E+04  0.19034320043E+04  0.10100000352E+00 0. -1.
       -3    1    3    3    0  502 -0.24638802911E+03 -0.36814275776E+03  0.10932419065E+04  0.11795821410E+04  0.10100000352E+00 0.  1.
</event>
<event>
 5   0  0.9647945E-06  0.2547344E+04  0.7818609E-02  0.8386310E-01
       -2   -1    0    0    0  501  0.00000000000E+00  0.00000000000E+00  0.93653009371E+03  0.93653009371E+03  0.25500000920E-02 0.  1.
        2   -1    0    0  501    0  0.00000000000E+00  0.00000000000E+00 -0.17321819975E+04  0.17321819975E+04  0.25500000920E-02 0. -1.
    10030    2    1    2    0    0  0.00000000000E+00  0.00000000000E+00 -0.79565190375E+03  0.26687120912E+04  0.25473441608E+04 0.  0.
        2    1    3    3  502    0  0.71714746836E+02 -0.68587108565E+03  0.72402437253E+03  0.99988671512E+03  0.25500000920E-02 0.  1.
       -2    1    3    3    0  502 -0.71714746836E+02  0.68587108565E+03 -0.15196762763E+04  0.16688253761E+04  0.25500000920E-02 0. -1.
</event>
<event>
 5   0  0.3725232E-06  0.3042923E+04  0.7818609E-02  0.8231579E-01
        1   -1    0    0  501    0  0.00000000000E+00  0.00000000000E+00  0.19251783853E+04  0.19251783853E+04  0.50400001928E-02 0. -1.
       -1   -1    0    0    0  501  0.00000000000E+00  0.00000000000E+00 -0.12024056855E+04  0.12024056855E+04  0.50400001928E-02 0.  1.
    10030    2    1    2    0    0  0.00000000000E+00  0.00000000000E+00  0.72277269982E+03  0.31275840709E+04  0.30429232236E+04 0.  0.
        2    1    3    3  502    0  0.89539973917E+03 -0.78375386508E+03 -0.61305991243E+03  0.13386012364E+04  0.25500000920E-02 0.  1.
       -2    1    3    3    0  502 -0.89539973917E+03  0.78375386508E+03  0.13358326123E+04  0.17889828344E+04  0.25500000920E-02 0. -1.
</event>
<event>
 5   0  0.1028450E-05  0.2996929E+04  0.7818609E-02  0.8244608E-01
       -2   -1    0    0    0  501  0.00000000000E+00  0.00000000000E+00  0.96678911695E+03  0.96678911696E+03  0.25500000920E-02 0.  1.
        2   -1    0    0  501    0  0.00000000000E+00  0.00000000000E+00 -0.23225294453E+04  0.23225294453E+04  0.25500000920E-02 0. -1.
    10030    2    1    2    0    0  0.00000000000E+00  0.00000000000E+00 -0.13557403284E+04  0.32893185623E+04  0.29969292228E+04 0.  0.
        3    1    3    3  502    0  0.11496309252E+04 -0.25767838845E+02 -0.17323768561E+04  0.20792895007E+04  0.10100000352E+00 0. -1.
       -3    1    3    3    0  502 -0.11496309252E+04  0.25767838845E+02  0.37663652775E+03  0.12100290616E+04  0.10100000352E+00 0.  1.
</event>
<event>
 5   0  0.3852126E-06  0.2440680E+04  0.7818609E-02  0.8424429E-01
       -1   -1    0    0    0  501  0.00000000000E+00  0.00000000000E+00  0.73218461195E+03  0.73218461197E+03  0.50400001928E-02 0.  1.
        1   -1    0    0  501    0  0.00000000000E+00  0.00000000000E+00 -0.20339532666E+04  0.20339532666E+04  0.50400001928E-02 0. -1.
    10030    2    1    2    0    0  0.00000000000E+00  0.00000000000E+00 -0.13017686546E+04  0.27661378786E+04  0.24406796457E+04 0.  0.
        1    1    3    3  502    0 -0.99731319235E+03 -0.49472766954E+03 -0.12173768931E+04  0.16496652904E+04  0.50400001928E-02 0. -1.
       -1    1    3    3    0  502  0.99731319235E+03  0.49472766954E+03 -0.84391761586E+02  0.11164725881E+04  0.50400001928E-02 0.  1.
</event>
<event>
 5   0  0.1029922E-05  0.3052383E+04  0.7818609E-02  0.8228929E-01
        2   -1    0    0  501    0  0.00000000000E+00  0.00000000000E+00  0.21840941237E+04  0.21840941237E+04  0.25500000920E-02 0.  1.
       -2   -1    0    0    0  501  0.00000000000E+00  0.00000000000E+00 -0.10664653017E+04  0.10664653017E+04  0.25500000920E-02 0. -1.
    10030    2    1    2    0    0  0.00000000000E+00  0.00000000000E+00  0.11176288219E+04  0.32505594254E+04  0.30523830681E+04 0.  0.
        1    1    3    3  502    0 -0.59561630916E+03  0.12341119081E+04 -0.15672463035E+03  0.13792583511E+04  0.50400001928E-02 0. -1.
       -1    1    3    3    0  502  0.59561630916E+03 -0.12341119081E+04  0.12743534523E+04  0.18713010743E+04  0.50400001928E-02 0.  1.
</event>
<event>
 5   0  0.9647945E-06  0.2990908E+04  0.7818609E-02  0.8246332E-01
       -2   -1    0    0    0  501  0.00000000000E+00  0.00000000000E+00  0.13590948117E+04  0.13590948117E+04  0.25500000920E-02 0.  1.
        2   -1    0    0  501    0  0.00000000000E+00  0.00000000000E+00 -0.16454945256E+04  0.16454945256E+04  0.25500000920E-02 0. -1.
    10030    2    1    2    0    0  0.00000000000E+00  0.00000000000E+00 -0.28639971393E+03  0.30045893373E+04  0.29909082717E+04 0.  0.
        2    1    3    3  502    0  0.35585819010E+03  0.10343671170E+04 -0.11675861549E+04  0.15999399405E+04  0.25500000920E-02 0. -1.
       -2    1    3    3    0  502 -0.35585819010E+03 -0.10343671170E+04  0.88118644095E+03  0.14046493968E+04  0.25500000920E-02 0.  1.
</event>
<event>
 5   0  0.3636718E-06  0.2982349E+04  0.7818609E-02  0.8248789E-01
       -1   -1    0    0    0  501  0.00000000000E+00  0.00000000000E+00  0.11306504129E+04  0.11306504129E+04  0.50400001928E-02 0. -1.
        1   -1    0    0  501    0  0.00000000000E+00  0.00000000000E+00 -0.19666572453E+04  0.19666572453E+04  0.50400001928E-02 0.  1.
    10030    2    1    2    0    0  0.00000000000E+00  0.00000000000E+00 -0.83600683247E+03  0.30973076582E+04  0.29823492930E+04 0.  0.
        4    1    3    3  502    0  0.14431948503E+04 -0.25858540411E+03 -0.70037042026E+03  0.16248686488E+04  0.12699999809E+01 0. -1.
       -4    1    3    3    0  502 -0.14431948503E+04  0.25858540411E+03 -0.13563641221E+03  0.14724390094E+04  0.12699999809E+01 0.  1.
</event>
<event>
 5   0  0.1089569E-05  0.3056807E+04  0.7818609E-02  0.8227693E-01
        2   -1    0    0  501    0  0.00000000000E+00  0.00000000000E+00  0.24532372839E+04  0.24532372839E+04  0.25500000920E-02 0.  1.
       -2   -1    0    0    0  501  0.00000000000E+00  0.00000000000E+00 -0.95221822822E+03  0.95221822822E+03  0.25500000920E-02 0. -1.
    10030    2    1    2    0    0  0.00000000000E+00  0.00000000000E+00  0.15010190556E+04  0.34054555121E+04  0.30568070007E+04 0.  0.
        5    1    3    3  502    0  0.15946317783E+03 -0.75523618808E+02  0.24418449153E+04  0.24482158815E+04  0.46999998093E+01 0.  1.
       -5    1    3    3    0  502 -0.15946317783E+03  0.75523618808E+02 -0.94082585968E+03  0.95723963056E+03  0.46999998093E+01 0. -1.
</event>
<event>
 5   0  0.3592331E-06  0.2072531E+04  0.7818609E-02  0.8573441E-01
        1   -1    0    0  501    0  0.00000000000E+00  0.00000000000E+00  0.10021655316E+04  0.10021655316E+04  0.50400001928E-02 0. -1.
       -1   -1    0    0    0  501  0.00000000000E+00  0.00000000000E+00 -0.10715257491E+04  0.10715257491E+04  0.50400001928E-02 0.  1.
    10030    2    1    2    0    0  0.00000000000E+00  0.00000000000E+00 -0.69360217451E+02  0.20736912807E+04  0.20725309860E+04 0.  0.
        3    1    3    3  502    0  0.66521776291E+03 -0.53352071054E+03  0.55445097298E+03  0.10171405568E+04  0.10100000352E+00 0. -1.
       -3    1    3    3    0  502 -0.66521776291E+03  0.53352071054E+03 -0.62381119043E+03  0.10565507239E+04  0.10100000352E+00 0.  1.
</event>
<event>
 5   0  0.3592331E-06  0.2729523E+04  0.7818609E-02  0.8325489E-01
        1   -1    0    0  501    0  0.00000000000E+00  0.00000000000E+00  0.20757010057E+04  0.20757010057E+04  0.50400001928E-02 0.  1.
       -1   -1    0    0    0  501  0.00000000000E+00  0.00000000000E+00 -0.89732299195E+03  0.89732299197E+03  0.50400001928E-02 0. -1.
    10030    2    1    2    0    0  0.00000000000E+00  0.00000000000E+00  0.11783780137E+04  0.29730239977E+04  0.27295232088E+04 0.  0.
        3    1    3    3  502    0 -0.47176806257E+03 -0.94354867106E+03 -0.35392159651E+03  0.11127037819E+04  0.10100000352E+00 0. -1.
       -3    1    3    3    0  502  0.47176806257E+03  0.94354867106E+03  0.15322996102E+04  0.18603202158E+04  0.10100000352E+00 0.  1.
</event>
<event>
 5   0  0.3636718E-06  0.2983632E+04  0.7818609E-02  0.8248420E-01
       -1   -1    0    0    0  501  0.00000000000E+00  0.00000000000E+00  0.17875180288E+04  0.17875180288E+04  0.50400001928E-02 0.  1.
        1   -1    0    0  501    0  0.00000000000E+00  0.00000000000E+00 -0.12450306335E+04  0.12450306335E+04  0.50400001928E-02 0. -1.
    10030    2    1    2    0    0  0.00000000000E+00  0.00000000000E+00  0.54248739533E+03  0.30325486623E+04  0.29836318163E+04 0.  0.
        4    1    3    3  502    0  0.49015588694E+03  0.41211809648E+03 -0.10982214490E+04  0.12712930751E+04  0.12699999809E+01 0. -1.
       -4    1    3    3    0  502 -0.49015588694E+03 -0.41211809648E+03  0.16407088443E+04  0.17612555872E+04  0.12699999809E+01 0.  1.
</event>
<event>
 5   0  0.1057036E-05  0.2991297E+04  0.7818609E-02  0.8246220E-01
        2   -1    0    0  501    0  0.00000000000E+00  0.00000000000E+00  0.12642052153E+04  0.12642052153E+04  0.25500000920E-02 0.  1.
       -2   -1    0    0    0  501  0.00000000000E+00  0.00000000000E+00 -0.17694634435E+04  0.17694634435E+04  0.25500000920E-02 0. -1.
    10030    2    1    2    0    0  0.00000000000E+00  0.00000000000E+00 -0.50525822818E+03  0.30336686587E+04  0.29912973195E+04 0.  0.
        4    1    3    3  502    0 -0.12577387333E+04 -0.78117477632E+03 -0.37916858249E+02  0.14810739527E+04  0.12699999809E+01 0.  1.
       -4    1    3    3    0  502  0.12577387333E+04  0.78117477632E+03 -0.46734136993E+03  0.15525947061E+04  0.12699999809E+01 0. -1.
</event>
<event>
 5   0  0.9647945E-06  0.3116469E+04  0.7818609E-02  0.8211233E-01
        2   -1    0    0  501    0  0.00000000000E+00  0.00000000000E+00  0.13994331212E+04  0.13994331212E+04  0.25500000920E-02 0. -1.
       -2   -1    0    0    0  501  0.00000000000E+00  0.00000000000E+00 -0.17350562650E+04  0.17350562650E+04  0.25500000920E-02 0.  1.
    10030    2    1    2    0    0  0.00000000000E+00  0.00000000000E+00 -0.33562314381E+03  0.31344893862E+04  0.31164692871E+04 0.  0.
        2    1    3    3  502    0 -0.56721203626E+03  0.14336452332E+04  0.59386272637E+02  0.15429176511E+04  0.25500000920E-02 0. -1.
       -2    1    3    3    0  502  0.56721203626E+03 -0.14336452332E+04 -0.39500941645E+03  0.15915717351E+04  0.25500000920E-02 0.  1.
</event>
<event>
 5   0  0.1057036E-05  0.2995048E+04  0.7818609E-02  0.8245146E-01
        2   -1    0    0  501    0  0.00000000000E+00  0.00000000000E+00  0.13274139980E+04  0.13274139980E+04  0.25500000920E-02 0.  1.
       -2   -1    0    0    0  501  0.00000000000E+00  0.00000000000E+00 -0.16894334595E+04  0.16894334595E+04  0.25500000920E-02 0. -1.
    10030    2    1    2    0    0  0.00000000000E+00  0.00000000000E+00 -0.36201946155E+03  0.30168474575E+04  0.29950476609E+04 0.  0.
        4    1    3    3  502    0  0.25722800058E+03 -0.13489807650E+04  0.42054787017E+03  0.14362372620E+04  0.12699999809E+01 0.  1.
       -4    1    3    3    0  502 -0.25722800058E+03  0.13489807650E+04 -0.78256733172E+03  0.15806101955E+04  0.12699999809E+01 0. -1.
</event>
<event>
 5   0  0.1029922E-05  0.2936543E+04  0.7818609E-02  0.8262087E-01
       -2   -1    0    0    0  501  0.00000000000E+00  0.00000000000E+00  0.13617979795E+04  0.13617979795E+04  0.25500000920E-02 0. -1.
        2   -1    0    0  501    0  0.00000000000E+00  0.00000000000E+00 -0.15830697931E+04  0.15830697931E+04  0.25500000920E-02 0.  1.
    10030    2    1    2    0    0  0.00000000000E+00  0.00000000000E+00 -0.22127181367E+03  0.29448677726E+04  0.29365430326E+04 0.  0.
        1    1    3    3  502    0  0.26794545781E+03 -0.13729464341E+04 -0.55804478004E+03  0.15060513457E+04  0.50400001928E-02 0. -1.
       -1    1    3    3    0  502 -0.26794545781E+03  0.13729464341E+04  0.33677296636E+03  0.14388164269E+04  0.50400001928E-02 0.  1.
</event>
<event>
 5   0  0.1028450E-05  0.2980560E+04  0.7818609E-02  0.8249304E-01
       -2   -1    0    0    0  501  0.00000000000E+00  0.00000000000E+00  0.20107395171E+04  0.20107395171E+04  0.25500000920E-02 0.  1.
        2   -1    0    0  501    0  0.00000000000E+00  0.00000000000E+00 -0.11045363632E+04  0.11045363632E+04  0.25500000920E-02 0. -1.
    10030    2    1    2    0    0  0.00000000000E+00  0.00000000000E+00  0.90620315391E+03  0.31152758803E+04  0.29805602920E+04 0.  0.
        3    1    3    3  502    0  0.18675798600E+03  0.14179847876E+04  0.15395009676E+02  0.14303133991E+04  0.10100000352E+00 0. -1.
       -3    1    3    3    0  502 -0.18675798600E+03 -0.14179847876E+04  0.89080814423E+03  0.16849624812E+04  0.10100000352E+00 0.  1.
</event>
<event>
 5   0  0.3852126E-06  0.3044048E+04  0.7818609E-02  0.8231263E-01
       -1   -1    0    0    0  501  0.00000000000E+00  0.00000000000E+00  0.22689719839E+04  0.22689719839E+04  0.50400001928E-02 0. -1.
        1   -1    0    0  501    0  0.00000000000E+00  0.00000000000E+00 -0.10209720196E+04  0.10209720196E+04  0.50400001928E-02 0.  1.
    10030    2    1    2    0    0  0.00000000000E+00  0.00000000000E+00  0.12479999643E+04  0.32899440035E+04  0.30440479030E+04 0.  0.
        1    1    3    3  502    0  0.54793733324E+03 -0.80346036411E+03  0.18893765831E+04  0.21249771177E+04  0.50400001928E-02 0. -1.
       -1    1    3    3    0  502 -0.54793733324E+03  0.80346036411E+03 -0.64137661885E+03  0.11649668858E+04  0.50400001928E-02 0.  1.
</event>
<event>
 5   0  0.9647945E-06  0.3042818E+04  0.7818609E-02  0.8231609E-01
        2   -1    0    0  501    0  0.00000000000E+00  0.00000000000E+00  0.13919772375E+04  0.13919772375E+04  0.25500000920E-02 0. -1.
       -2   -1    0    0    0  501  0.00000000000E+00  0.00000000000E+00 -0.16628755815E+04  0.16628755815E+04  0.25500000920E-02 0.  1.
    10030    2    1    2    0    0  0.00000000000E+00  0.00000000000E+00 -0.27089834401E+03  0.30548528190E+04  0.30428177456E+04 0.  0.
        2    1    3    3  502    0  0.48501426441E+03 -0.12973028365E+04  0.49668514540E+03  0.14713699806E+04  0.25500000920E-02 0. -1.
       -2    1    3    3    0  502 -0.48501426441E+03  0.12973028365E+04 -0.76758348941E+03  0.15834828384E+04  0.25500000920E-02 0.  1.
</event>
<event>
 5   0  0.3636718E-06  0.3015156E+04  0.7818609E-02  0.8239416E-01
       -1   -1    0    0    0  501  0.00000000000E+00  0.00000000000E+00  0.10872181522E+04  0.10872181522E+04  0.50400001928E-02 0. -1.
        1   -1    0    0  501    0  0.00000000000E+00  0.00000000000E+00 -0.20904654367E+04  0.20904654367E+04  0.50400001928E-02 0.  1.
    10030    2    1    2    0    0  0.00000000000E+00  0.00000000000E+00 -0.10032472845E+04  0.31776835889E+04  0.30151563604E+04 0.  0.
        4    1    3    3  502    0 -0.86472082499E+03  0.12273573357E+04 -0.64551994928E+03  0.16342722394E+04  0.12699999809E+01 0.  1.
       -4    1    3    3    0  502  0.86472082499E+03 -0.12273573357E+04 -0.35772733520E+03  0.15434113495E+04  0.12699999809E+01 0. -1.
</event>
<event>
 5   0  0.9647945E-06  0.3059705E+04  0.7818609E-02  0.8226884E-01
       -2   -1    0    0    0  501  0.00000000000E+00  0.00000000000E+00  0.83999073873E+03  0.83999073874E+03  0.25500000920E-02 0. -1.
        2   -1    0    0  501    0  0.00000000000E+00  0.00000000000E+00 -0.27862788411E+04  0.27862788411E+04  0.25500000920E-02 0.  1.
    10030    2    1    2    0    0  0.00000000000E+00  0.00000000000E+00 -0.19462881023E+04  0.36262695798E+04  0.30597048368E+04 0.  0.
        2    1    3    3  502    0 -0.10951815039E+04 -0.30247013000E+02 -0.22386206665E+04  0.24923402450E+04  0.25500000920E-02 0.  1.
       -2    1    3    3    0  502  0.10951815039E+04  0.30247013000E+02  0.29233256415E+03  0.11339293348E+04  0.25500000920E-02 0. -1.
</event>
<event>
 5   0  0.1057036E-05  0.2962975E+04  0.7818609E-02  0.8254383E-01
       -2   -1    0    0    0  501  0.00000000000E+00  0.00000000000E+00  0.19211852533E+04  0.19211852533E+04  0.25500000920E-02 0. -1.
        2   -1    0    0  501    0  0.00000000000E+00  0.00000000000E+00 -0.11424226629E+04  0.11424226629E+04  0.25500000920E-02 0.  1.
    10030    2    1    2    0    0  0.00000000000E+00  0.00000000000E+00  0.77876259038E+03  0.30636079162E+04  0.29629752433E+04 0.  0.
        4    1    3    3  502    0 -0.14776251827E+04 -0.19771577079E+02  0.28075674037E+03  0.15041918282E+04  0.12699999809E+01 0.  1.
       -4    1    3    3    0  502  0.14776251827E+04  0.19771577079E+02  0.49800585001E+03  0.15594160880E+04  0.12699999809E+01 0. -1.
</event>
<event>
 5   0  0.3852126E-06  0.3009591E+04  0.7818609E-02  0.8240997E-01
       -1   -1    0    0    0  501  0.00000000000E+00  0.00000000000E+00  0.12946216200E+04  0.12946216200E+04  0.50400001928E-02 0.  1.
        1   -1    0    0  501    0  0.00000000000E+00  0.00000000000E+00 -0.17490902910E+04  0.17490902910E+04  0.50400001928E-02 0. -1.
    10030    2    1    2    0    0  0.00000000000E+00  0.00000000000E+00 -0.45446867103E+03  0.30437119110E+04  0.30095914049E+04 0.  0.
        1    1    3    3  502    0  0.13488845839E+04 -0.50737519194E+03 -0.66514558580E+03  0.15872422173E+04  0.50400001928E-02 0.  1.
       -1    1    3    3    0  502 -0.13488845839E+04  0.50737519194E+03  0.21067691477E+03  0.14564696937E+04  0.50400001928E-02 0. -1.
</event>
<event>
 5   0  0.3896630E-06  0.2962126E+04  0.7818609E-02  0.8254630E-01
        1   -1    0    0  501    0  0.00000000000E+00  0.00000000000E+00  0.23392349764E+04  0.23392349764E+04  0.50400001928E-02 0. -1.
       -1   -1    0    0    0  501  0.00000000000E+00  0.00000000000E+00 -0.93771980431E+03  0.93771980433E+03  0.50400001928E-02 0.  1.
    10030    2    1    2    0    0  0.00000000000E+00  0.00000000000E+00  0.14015151720E+04  0.32769547807E+04  0.29621255641E+04 0.  0.
        5    1    3    3  502    0 -0.33475874263E+03 -0.12613574495E+04 -0.73988541201E+02  0.13071275474E+04  0.46999998093E+01 0.  1.
       -5    1    3    3    0  502  0.33475874263E+03  0.12613574495E+04  0.14755037132E+04  0.19698272332E+04  0.46999998093E+01 0. -1.
</event>
<event>
 5   0  0.1028450E-05  0.2965582E+04  0.7818609E-02  0.8253628E-01
       -2   -1    0    0    0  501  0.00000000000E+00  0.00000000000E+00  0.10559134120E+04  0.10559134120E+04  0.25500000920E-02 0. -1.
        2   -1    0    0  501    0  0.00000000000E+00  0.00000000000E+00 -0.20822433649E+04  0.20822433649E+04  0.25500000920E-02 0.  1.
    10030    2    1    2    0    0  0.00000000000E+00  0.00000000000E+00 -0.10263299529E+04  0.31381567769E+04  0.29655816941E+04 0.  0.
        3    1    3    3  502    0 -0.48624620863E+03 -0.78882288926E+03 -0.17381077728E+04  0.19696942824E+04  0.10100000352E+00 0.  1.
       -3    1    3    3    0  502  0.48624620863E+03  0.78882288926E+03  0.71177781991E+03  0.11684624945E+04  0.10100000352E+00 0. -1.
</event>
<event>
 5   0  0.3896630E-06  0.3076891E+04  0.7818609E-02  0.8222109E-01
        1   -1    0    0  501    0  0.00000000000E+00  0.00000000000E+00  0.21036963970E+04  0.21036963970E+04  0.50400001928E-02 0.  1.
       -1   -1    0    0    0  501  0.00000000000E+00  0.00000000000E+00 -0.11250740702E+04  0.11250740702E+04  0.50400001928E-02 0. -1.
    10030    2    1    2    0    0  0.00000000000E+00  0.00000000000E+00  0.97862232674E+03  0.32287704672E+04  0.30768908124E+04 0.  0.
        5    1    3    3  502    0 -0.12975002962E+04  0.57592425036E+03  0.11115359502E+04  0.18029780973E+04  0.46999998093E+01 0.  1.
       -5    1    3    3    0  502  0.12975002962E+04 -0.57592425036E+03 -0.13291362349E+03  0.14257923699E+04  0.46999998093E+01 0. -1.
</event>
<event>
 5   0  0.3636718E-06  0.3003477E+04  0.7818609E-02  0.8242739E-01
       -1   -1    0    0    0  501  0.00000000000E+00  0.00000000000E+00  0.96808078489E+03  0.96808078491E+03  0.50400001928E-02 0. -1.
        1   -1    0    0  501    0  0.00000000000E+00  0.00000000000E+00 -0.23295771189E+04  0.23295771189E+04  0.50400001928E-02 0.  1.
    10030    2    1    2    0    0  0.00000000000E+00  0.00000000000E+00 -0.13614963340E+04  0.32976579038E+04  0.30034772154E+04 0.  0.
        4    1    3    3  502    0  0.10584198455E+04 -0.10321878013E+04 -0.97030859635E+03  0.17683790916E+04  0.12699999809E+01 0.  1.
       -4    1    3    3    0  502 -0.10584198455E+04  0.10321878013E+04 -0.39118773767E+03  0.15292788122E+04  0.12699999809E+01 0. -1.
</event>
<event>
 5   0  0.1057036E-05  0.3004550E+04  0.7818609E-02  0.8242433E-01
        2   -1    0    0  501    0  0.00000000000E+00  0.00000000000E+00  0.25084184185E+04  0.25084184185E+04  0.25500000920E-02 0.  1.
       -2   -1    0    0    0  501  0.00000000000E+00  0.00000000000E+00 -0.89970260168E+03  0.89970260168E+03  0.25500000920E-02 0. -1.
    10030    2    1    2    0    0  0.00000000000E+00  0.00000000000E+00  0.16087158169E+04  0.34081210202E+04  0.30045502674E+04 0.  0.
        4    1    3    3  502    0  0.14642787765E+04  0.82895345258E+02  0.43532024793E+03  0.15298657800E+04  0.12699999809E+01 0. -1.
       -4    1    3    3    0  502 -0.14642787765E+04 -0.82895345258E+02  0.11733955689E+04  0.18782552403E+04  0.12699999809E+01 0.  1.
</event>
<event>
 5   0  0.1029922E-05  0.2971590E+04  0.7818609E-02  0.8251890E-01
        2   -1    0    0  501    0  0.00000000000E+00  0.00000000000E+00  0.24817022669E+04  0.24817022669E+04  0.25500000920E-02 0. -1.
       -2   -1    0    0    0  501  0.00000000000E+00  0.00000000000E+00 -0.88954542651E+03  0.88954542651E+03  0.25500000920E-02 0.  1.
    10030    2    1    2    0    0  0.00000000000E+00  0.00000000000E+00  0.15921568404E+04  0.33712476934E+04  0.29715900804E+04 0.  0.
        1    1    3    3  502    0  0.19051015958E+03  0.22482432222E+03 -0.85605901959E+03  0.90536022765E+03  0.50400001928E-02 0.  1.
       -1    1    3    3    0  502 -0.19051015958E+03 -0.22482432222E+03  0.24482158600E+04  0.24658874658E+04  0.50400001928E-02 0. -1.
</event>
<event>
 5   0  0.3725232E-06  0.3001912E+04  0.7818609E-02  0.8243185E-01
       -1   -1    0    0    0  501  0.00000000000E+00  0.00000000000E+00  0.17798517072E+04  0.17798517072E+04  0.50400001928E-02 0. -1.
        1   -1    0    0  501    0  0.00000000000E+00  0.00000000000E+00 -0.12657624998E+04  0.12657624998E+04  0.50400001928E-02 0.  1.
    10030    2    1    2    0    0  0.00000000000E+00  0.00000000000E+00  0.51408920742E+03  0.30456142071E+04  0.30019124213E+04 0.  0.
        2    1    3    3  502    0 -0.35317988773E+03 -0.93699044256E+03 -0.87734847030E+03  0.13313254527E+04  0.25500000920E-02 0.  1.
       -2    1    3    3    0  502  0.35317988773E+03  0.93699044256E+03  0.13914376777E+04  0.17142887544E+04  0.25500000920E-02 0. -1.
</event>
<event>
 5   0  0.9647945E-06  0.2997904E+04  0.7818609E-02  0.8244330E-01
        2   -1    0    0  501    0  0.00000000000E+00  0.00000000000E+00  0.79070531625E+03  0.79070531625E+03  0.25500000920E-02 0. -1.
       -2   -1    0    0    0  501  0.00000000000E+00  0.00000000000E+00 -0.28415858649E+04  0.28415858649E+04  0.25500000920E-02 0.  1.
    10030    2    1    2    0    0  0.00000000000E+00  0.00000000000E+00 -0.20508805487E+04  0.36322911812E+04  0.29979039678E+04 0.  0.
        2    1    3    3  502    0  0.56141314359E+03 -0.28548459180E+03 -0.26734844928E+04  0.27466717137E+04  0.25500000920E-02 0.  1.
       -2    1    3    3    0  502 -0.56141314359E+03  0.28548459180E+03  0.62260394408E+03  0.88561946746E+03  0.25500000920E-02 0. -1.
</event>
<event>
 5   0  0.1029922E-05  0.2825758E+04  0.7818609E-02  0.8295316E-01
       -2   -1    0    0    0  501  0.00000000000E+00  0.00000000000E+00  0.10142303149E+04  0.10142303149E+04  0.25500000920E-02 0.  1.
        2   -1    0    0  501    0  0.00000000000E+00  0.00000000000E+00 -0.19682186368E+04  0.19682186368E+04  0.25500000920E-02 0. -1.
    10030    2    1    2    0    0  0.00000000000E+00  0.00000000000E+00 -0.95398832194E+03  0.29824489518E+04  0.28257579570E+04 0.  0.
        1    1    3    3  502    0 -0.95613721379E+02 -0.39587912203E+03 -0.19049240387E+04  0.19479727556E+04  0.50400001928E-02 0. -1.
       -1    1    3    3    0  502  0.95613721379E+02  0.39587912203E+03  0.95093571681E+03  0.10344761962E+04  0.50400001928E-02 0.  1.
</event>
<event>
 5   0  0.1028450E-05  0.1909762E+04  0.7818609E-02  0.8650013E-01
        2   -1    0    0  501    0  0.00000000000E+00  0.00000000000E+00  0.85237229810E+03  0.85237229810E+03  0.25500000920E-02 0. -1.
       -2   -1    0    0    0  501  0.00000000000E+00  0.00000000000E+00 -0.10697171914E+04  0.10697171914E+04  0.25500000920E-02 0.  1.
    10030    2    1    2    0    0  0.00000000000E+00  0.00000000000E+00 -0.21734489332E+03  0.19220894895E+04  0.19097615566E+04 0.  0.
        3    1    3    3  502    0  0.51941255337E+03 -0.10380375970E+03 -0.90830265219E+03  0.10514648541E+04  0.10100000352E+00 0.  1.
       -3    1    3    3    0  502 -0.51941255337E+03  0.10380375970E+03  0.69095775887E+03  0.87062463546E+03  0.10100000352E+00 0. -1.
</event>
<event>
 5   0  0.9647945E-06  0.2988064E+04  0.7818609E-02  0.8247148E-01
        2   -1    0    0  501    0  0.00000000000E+00  0.00000000000E+00  0.15515206967E+04  0.15515206967E+04  0.25500000920E-02 0.  1.
       -2   -1    0    0    0  501  0.00000000000E+00  0.00000000000E+00 -0.14386730396E+04  0.14386730396E+04  0.25500000920E-02 0. -1.
    10030    2    1    2    0    0  0.00000000000E+00  0.00000000000E+00  0.11284765704E+03  0.29901937363E+04  0.29880635848E+04 0.  0.
        2    1    3    3  502    0  0.10473331574E+04 -0.30369354257E+03 -0.96557523733E+03  0.14565273940E+04  0.25500000920E-02 0. -1.
       -2    1    3    3    0  502 -0.10473331574E+04  0.30369354257E+03  0.10784228944E+04  0.15336663423E+04  0.25500000920E-02 0.  1.
</event>
<event>
 5   0  0.3896630E-06  0.2973554E+04  0.7818609E-02  0.8251323E-01
        1   -1    0    0  501    0  0.00000000000E+00  0.00000000000E+00  0.12162188731E+04  0.12162188731E+04  0.50400001928E-02 0. -1.
       -1   -1    0    0    0  501  0.00000000000E+00  0.00000000000E+00 -0.18175232330E+04  0.18175232330E+04  0.50400001928E-02 0.  1.
    10030    2    1    2    0    0  0.00000000000E+00  0.00000000000E+00 -0.60130435994E+03  0.30337421061E+04  0.29735541416E+04 0.  0.
        5    1    3    3  502    0 -0.96962546971E+02  0.39083641838E+03 -0.17608196846E+04  0.18062842781E+04  0.46999998093E+01 0.  1.
       -5    1    3    3    0  502  0.96962546971E+02 -0.39083641838E+03  0.11595153247E+04  0.12274578280E+04  0.46999998093E+01 0. -1.
</event>
<event>
 5   0  0.1057036E-05  0.2906772E+04  0.7818609E-02  0.8270865E-01
       -2   -1    0    0    0  501  0.00000000000E+00  0.00000000000E+00  0.12942422224E+04  0.12942422224E+04  0.25500000920E-02 0.  1.
        2   -1    0    0  501    0  0.00000000000E+00  0.00000000000E+00 -0.16320986723E+04  0.16320986723E+04  0.25500000920E-02 0. -1.
    10030    2    1    2    0    0  0.00000000000E+00  0.00000000000E+00 -0.33785644993E+03  0.29263408947E+04  0.29067721017E+04 0.  0.
        4    1    3    3  502    0  0.32011758332E+03  0.86547179124E+03 -0.12993466367E+04  0.15936812680E+04  0.12699999809E+01 0. -1.
       -4    1    3    3    0  502 -0.32011758332E+03 -0.86547179124E+03  0.96149018679E+03  0.13326596268E+04  0.12699999809E+01 0.  1.
</event>
<event>
 5   0  0.3592331E-06  0.3015044E+04  0.7818609E-02  0.8239448E-01
       -1   -1    0    0    0  501  0.00000000000E+00  0.00000000000E+00  0.27764579933E+04  0.27764579933E+04  0.50400001928E-02 0.  1.
        1   -1    0    0  501    0  0.00000000000E+00  0.00000000000E+00 -0.81853281723E+03  0.81853281725E+03  0.50400001928E-02 0. -1.
    10030    2    1    2    0    0  0.00000000000E+00  0.00000000000E+00  0.19579251761E+04  0.35949908106E+04  0.30150436038E+04 0.  0.
        3    1    3    3  502    0  0.11639559855E+04 -0.46546499630E+03 -0.19463890614E+02  0.12537264662E+04  0.10100000352E+00 0. -1.
       -3    1    3    3    0  502 -0.11639559855E+04  0.46546499630E+03  0.19773890667E+04  0.23412643443E+04  0.10100000352E+00 0.  1.
</event>
<event>
 5   0  0.3592331E-06  0.3020452E+04  0.7818609E-02  0.8237915E-01
        1   -1    0    0  501    0  0.00000000000E+00  0.00000000000E+00  0.12394185038E+04  0.12394185038E+04  0.50400001928E-02 0. -1.
       -1   -1    0    0    0  501  0.00000000000E+00  0.00000000000E+00 -0.18402042058E+04  0.18402042058E+04  0.50400001928E-02 0.  1.
    10030    2    1    2    0    0  0.00000000000E+00  0.00000000000E+00 -0.60078570200E+03  0.30796227096E+04  0.30204523790E+04 0.  0.
        3    1    3    3  502    0 -0.62682049045E+02 -0.73962644475E+03  0.10405933923E+04  0.12782061397E+04  0.10100000352E+00 0. -1.
       -3    1    3    3    0  502  0.62682049045E+02  0.73962644475E+03 -0.16413790943E+04  0.18014165700E+04  0.10100000352E+00 0.  1.
</event>
<event>
 5   0  0.1028450E-05  0.2998554E+04  0.7818609E-02  0.8244144E-01
        2   -1    0    0  501    0  0.00000000000E+00  0.00000000000E+00  0.23628558722E+04  0.23628558722E+04  0.25500000920E-02 0.  1.
       -2   -1    0    0    0  501  0.00000000000E+00  0.00000000000E+00 -0.95131981429E+03  0.95131981429E+03  0.25500000920E-02 0. -1.
    10030    2    1    2    0    0  0.00000000000E+00  0.00000000000E+00  0.14115360580E+04  0.33141756865E+04  0.29985540579E+04 0.  0.
        3    1    3    3  502    0  0.97614584601E+03  0.11008626793E+04  0.38720774798E+03  0.15214102674E+04  0.10100000352E+00 0.  1.
       -3    1    3    3    0  502 -0.97614584601E+03 -0.11008626793E+04  0.10243283100E+04  0.17927654192E+04  0.10100000352E+00 0. -1.
</event>
<event>
 5   0  0.3592331E-06  0.2078168E+04  0.7818609E-02  0.8570922E-01
        1   -1    0    0  501    0  0.00000000000E+00  0.00000000000E+00  0.15373643895E+04  0.15373643896E+04  0.50400001928E-02 0. -1.
       -1   -1    0    0    0  501  0.00000000000E+00  0.00000000000E+00 -0.70230271415E+03  0.70230271417E+03  0.50400001928E-02 0.  1.
    10030    2    1    2    0    0  0.00000000000E+00  0.00000000000E+00  0.83506167540E+03  0.22396671037E+04  0.20781676385E+04 0.  0.
        3    1    3    3  502    0  0.81402955314E+03 -0.55456448045E+03  0.60892202833E+02  0.98686055090E+03  0.10100000352E+00 0. -1.
       -3    1    3    3    0  502 -0.81402955314E+03  0.55456448045E+03  0.77416947256E+03  0.12528065528E+04  0.10100000352E+00 0.  1.
</event>
<event>
 5   0  0.3636718E-06  0.3029716E+04  0.7818609E-02  0.8235296E-01
       -1   -1    0    0    0  501  0.00000000000E+00  0.00000000000E+00  0.18268189165E+04  0.18268189165E+04  0.50400001928E-02 0.  1.
        1   -1    0    0  501    0  0.00000000000E+00  0.00000000000E+00 -0.12561695045E+04  0.12561695045E+04  0.50400001928E-02 0. -1.
    10030    2    1    2    0    0  0.00000000000E+00  0.00000000000E+00  0.57064941194E+03  0.30829884210E+04  0.30297156389E+04 0.  0.
        4    1    3    3  502    0  0.72077803448E+03 -0.12178756314E+04  0.83524412422E+03  0.16432821999E+04  0.12699999809E+01 0.  1.
       -4    1    3    3    0  502 -0.72077803448E+03  0.12178756314E+04 -0.26459471227E+03  0.14397062211E+04  0.12699999809E+01 0. -1.
</event>
<event>
 5   0  0.3896630E-06  0.2982522E+04  0.7818609E-02  0.8248739E-01
       -1   -1    0    0    0  501  0.00000000000E+00  0.00000000000E+00  0.11629318923E+04  0.11629318923E+04  0.50400001928E-02 0. -1.
        1   -1    0    0  501    0  0.00000000000E+00  0.00000000000E+00 -0.19122873676E+04  0.19122873676E+04  0.50400001928E-02 0.  1.
    10030    2    1    2    0    0  0.00000000000E+00  0.00000000000E+00 -0.74935547535E+03  0.30752192599E+04  0.29825224003E+04 0.  0.
        5    1    3    3  502    0  0.14338465384E+03  0.40005066258E+03  0.10991674578E+04  0.11784697204E+04  0.46999998093E+01 0. -1.
       -5    1    3    3    0  502 -0.14338465384E+03 -0.40005066258E+03 -0.18485229331E+04  0.18967495396E+04  0.46999998093E+01 0.  1.
</event>
<event>
 5   0  0.3636718E-06  0.2278097E+04  0.7818609E-02  0.8486608E-01
       -1   -1    0    0    0  501  0.00000000000E+00  0.00000000000E+00  0.57846359692E+03  0.57846359694E+03  0.50400001928E-02 0.  1.
        1   -1    0    0  501    0  0.00000000000E+00  0.00000000000E+00 -0.22428916789E+04  0.22428916789E+04  0.50400001928E-02 0. -1.
    10030    2    1    2    0    0  0.00000000000E+00  0.00000000000E+00 -0.16644280820E+04  0.28213552759E+04  0.22780967391E+04 0.  0.
        4    1    3    3  502    0  0.52366566073E+03  0.93359891445E+03 -0.13144180327E+04  0.16951486763E+04  0.12699999809E+01 0.  1.
       -4    1    3    3    0  502 -0.52366566073E+03 -0.93359891445E+03 -0.35001004929E+03  0.11262065995E+04  0.12699999809E+01 0. -1.
</event>
<event>
 5   0  0.1028450E-05  0.2987907E+04  0.7818609E-02  0.8247193E-01
       -2   -1    0    0    0  501  0.00000000000E+00  0.00000000000E+00  0.14905492350E+04  0.14905492350E+04  0.25500000920E-02 0. -1.
        2   -1    0    0  501    0  0.00000000000E+00  0.00000000000E+00 -0.14973655217E+04  0.14973655217E+04  0.25500000920E-02 0.  1.
    10030    2    1    2    0    0  0.00000000000E+00  0.00000000000E+00 -0.68162867002E+01  0.29879147567E+04  0.29879069818E+04 0.  0.
        3    1    3    3  502    0  0.67578849798E+03 -0.33379989884E+02 -0.13353623235E+04  0.14969959462E+04  0.10100000352E+00 0.  1.
       -3    1    3    3    0  502 -0.67578849798E+03  0.33379989884E+02  0.13285460368E+04  0.14909188106E+04  0.10100000352E+00 0. -1.
</event>
<event>
 5   0  0.3852126E-06  0.3001387E+04  0.7818609E-02  0.8243335E-01
        1   -1    0    0  501    0  0.00000000000E+00  0.00000000000E+00  0.13215117854E+04  0.13215117854E+04  0.50400001928E-02 0.  1.
       -1   -1    0    0    0  501  0.00000000000E+00  0.00000000000E+00 -0.17041702003E+04  0.17041702003E+04  0.50400001928E-02 0. -1.
    10030    2    1    2    0    0  0.00000000000E+00  0.00000000000E+00 -0.38265841494E+03  0.30256819857E+04  0.30013870154E+04 0.  0.
        1    1    3    3  502    0  0.89303685623E+03 -0.11804185538E+04 -0.44067364377E+03  0.15443756178E+04  0.50400001928E-02 0. -1.
       -1    1    3    3    0  502 -0.89303685623E+03  0.11804185538E+04  0.58015228833E+02  0.14813063678E+04  0.50400001928E-02 0.  1.
</event>
<event>
 5   0  0.1028450E-05  0.2968552E+04  0.7818609E-02  0.8252769E-01
        2   -1    0    0  501    0  0.00000000000E+00  0.00000000000E+00  0.18948226434E+04  0.18948226434E+04  0.25500000920E-02 0.  1.
       -2   -1    0    0    0  501  0.00000000000E+00  0.00000000000E+00 -0.11626813656E+04  0.11626813656E+04  0.25500000920E-02 0. -1.
    10030    2    1    2    0    0  0.00000000000E+00  0.00000000000E+00  0.73214127786E+03  0.30575040090E+04  0.29685518211E+04 0.  0.
        3    1    3    3  502    0  0.98662742765E+03 -0.44631148262E+03 -0.67945648322E+03  0.12783930316E+04  0.10100000352E+00 0. -1.
       -3    1    3    3    0  502 -0.98662742765E+03  0.44631148262E+03  0.14115977611E+04  0.17791109774E+04  0.10100000352E+00 0.  1.
</event>
<event>
 5   0  0.1057036E-05  0.2950394E+04  0.7818609E-02  0.8258040E-01
        2   -1    0    0  501    0  0.00000000000E+00  0.00000000000E+00  0.17984318412E+04  0.17984318412E+04  0.25500000920E-02 0.  1.
       -2   -1    0    0    0  501  0.00000000000E+00  0.00000000000E+00 -0.12100577553E+04  0.12100577553E+04  0.25500000920E-02 0. -1.
    10030    2    1    2    0    0  0.00000000000E+00  0.00000000000E+00  0.58837408593E+03  0.30084895965E+04  0.29503941410E+04 0.  0.
        4    1    3    3  502    0  0.10499449651E+04  0.55394295571E+03 -0.59882429635E+03  0.13295974499E+04  0.12699999809E+01 0. -1.
       -4    1    3    3    0  502 -0.10499449651E+04 -0.55394295571E+03  0.11871983823E+04  0.16788921466E+04  0.12699999809E+01 0.  1.
</event>
<event>
 5   0  0.3852126E-06  0.2995729E+04  0.7818609E-02  0.8244951E-01
       -1   -1    0    0    0  501  0.00000000000E+00  0.00000000000E+00  0.11768022884E+04  0.11768022884E+04  0.50400001928E-02 0.  1.
        1   -1    0    0  501    0  0.00000000000E+00  0.00000000000E+00 -0.19065213848E+04  0.19065213848E+04  0.50400001928E-02 0. -1.
    10030    2    1    2    0    0  0.00000000000E+00  0.00000000000E+00 -0.72971909639E+03  0.30833236732E+04  0.29957294461E+04 0.  0.
        1    1    3    3  502    0  0.72488703038E+03  0.86971129693E+03 -0.13742177572E+04  0.17805430045E+04  0.50400001928E-02 0.  1.
       -1    1    3    3    0  502 -0.72488703038E+03 -0.86971129693E+03  0.64449866080E+03  0.13027806687E+04  0.50400001928E-02 0. -1.
</event>
<event>
 5   0  0.3852126E-06  0.2991755E+04  0.7818609E-02  0.8246089E-01
       -1   -1    0    0    0  501  0.00000000000E+00  0.00000000000E+00  0.95716998265E+03  0.95716998266E+03  0.50400001928E-02 0. -1.
        1   -1    0    0  501    0  0.00000000000E+00  0.00000000000E+00 -0.23377764225E+04  0.23377764225E+04  0.50400001928E-02 0.  1.
    10030    2    1    2    0    0  0.00000000000E+00  0.00000000000E+00 -0.13806064398E+04  0.32949464051E+04  0.29917549484E+04 0.  0.
        1    1    3    3  502    0  0.59634903359E+03  0.12532036750E+04 -0.13049842727E+04  0.19050290215E+04  0.50400001928E-02 0.  1.
       -1    1    3    3    0  502 -0.59634903359E+03 -0.12532036750E+04 -0.75622167165E+02  0.13899173836E+04  0.50400001928E-02 0. -1.
</event>
<event>
 5   0  0.9647945E-06  0.1995041E+04  0.7818609E-02  0.8608942E-01
       -2   -1    0    0    0  501  0.00000000000E+00  0.00000000000E+00  0.12741259775E+04  0.12741259775E+04  0.25500000920E-02 0.  1.
        2   -1    0    0  501    0  0.00000000000E+00  0.00000000000E+00 -0.78096484619E+03  0.78096484620E+03  0.25500000920E-02 0. -1.
    10030    2    1    2    0    0  0.00000000000E+00  0.00000000000E+00  0.49316113129E+03  0.20550908237E+04  0.19950414512E+04 0.  0.
        2    1    3    3  502    0  0.74101953187E+03 -0.57183211748E+03  0.60184639271E+03  0.11127987229E+04  0.25500000920E-02 0.  1.
       -2    1    3    3    0  502 -0.74101953187E+03  0.57183211748E+03 -0.10868526142E+03  0.94229210081E+03  0.25500000920E-02 0. -1.
</event>
<event>
 5   0  0.1028450E-05  0.3303829E+04  0.7818609E-02  0.8161922E-01
       -2   -1    0    0    0  501  0.00000000000E+00  0.00000000000E+00  0.20434333661E+04  0.20434333661E+04  0.25500000920E-02 0.  1.
        2   -1    0    0  501    0  0.00000000000E+00  0.00000000000E+00 -0.13354098508E+04  0.13354098508E+04  0.25500000920E-02 0. -1.
    10030    2    1    2    0    0  0.00000000000E+00  0.00000000000E+00  0.70802351530E+03  0.33788432169E+04  0.33038287163E+04 0.  0.
        3    1    3    3  502    0  0.77377653191E+03  0.12727447865E+04  0.10845209594E+04  0.18424969836E+04  0.10100000352E+00 0.  1.
       -3    1    3    3    0  502 -0.77377653191E+03 -0.12727447865E+04 -0.37649744413E+03  0.15363462333E+04  0.10100000352E+00 0. -1.
</event>
<event>
 5   0  0.3636718E-06  0.3002192E+04  0.7818609E-02  0.8243105E-01
        1   -1    0    0  501    0  0.00000000000E+00  0.00000000000E+00  0.15739629916E+04  0.15739629916E+04  0.50400001928E-02 0. -1.
       -1   -1    0    0    0  501  0.00000000000E+00  0.00000000000E+00 -0.14316020066E+04  0.14316020066E+04  0.50400001928E-02 0.  1.
    10030    2    1    2    0    0  0.00000000000E+00  0.00000000000E+00  0.14236098501E+03  0.30055649983E+04  0.30021915843E+04 0.  0.
        4    1    3    3  502    0  0.14479915587E+04  0.28283008343E+03  0.34828485317E+03  0.15159077683E+04  0.12699999809E+01 0. -1.
       -4    1    3    3    0  502 -0.14479915587E+04 -0.28283008343E+03 -0.20592386816E+03  0.14896572299E+04  0.12699999809E+01 0.  1.
</event>
<event>
 5   0  0.3725232E-06  0.3007175E+04  0.7818609E-02  0.8241685E-01
       -1   -1    0    0    0  501  0.00000000000E+00  0.00000000000E+00  0.11510460614E+04  0.11510460614E+04  0.50400001928E-02 0.  1.
        1   -1    0    0  501    0  0.00000000000E+00  0.00000000000E+00 -0.19641044728E+04  0.19641044728E+04  0.50400001928E-02 0. -1.
    10030    2    1    2    0    0  0.00000000000E+00  0.00000000000E+00 -0.81305841140E+03  0.31151505343E+04  0.30071745661E+04 0.  0.
        2    1    3    3  502    0 -0.68337075729E+03 -0.58024073769E+03 -0.16569755164E+04  0.18839434088E+04  0.25500000920E-02 0. -1.
       -2    1    3    3    0  502  0.68337075729E+03  0.58024073769E+03  0.84391710503E+03  0.12312071254E+04  0.25500000920E-02 0.  1.
</event>
<event>
 5   0  0.3852126E-06  0.2975376E+04  0.7818609E-02  0.8250798E-01
        1   -1    0    0  501    0  0.00000000000E+00  0.00000000000E+00  0.20759080421E+04  0.20759080421E+04  0.50400001928E-02 0. -1.
       -1   -1    0    0    0  501  0.00000000000E+00  0.00000000000E+00 -0.10661433202E+04  0.10661433202E+04  0.50400001928E-02 0.  1.
    10030    2    1    2    0    0  0.00000000000E+00  0.00000000000E+00  0.10097647219E+04  0.31420513623E+04  0.29753759375E+04 0.  0.
        1    1    3    3  502    0 -0.62933150891E+03  0.47486995741E+03  0.18371639333E+04  0.19991825686E+04  0.50400001928E-02 0. -1.
       -1    1    3    3    0  502  0.62933150891E+03 -0.47486995741E+03 -0.82739921141E+03  0.11428687937E+04  0.50400001928E-02 0.  1.
</event>
<event>
 5   0  0.9647945E-06  0.3058687E+04  0.7818609E-02  0.8227168E-01
        2   -1    0    0  501    0  0.00000000000E+00  0.00000000000E+00  0.26613265482E+04  0.26613265482E+04  0.25500000920E-02 0.  1.
       -2   -1    0    0    0  501  0.00000000000E+00  0.00000000000E+00 -0.87884433862E+03  0.87884433862E+03  0.25500000920E-02 0. -1.
    10030    2    1    2    0    0  0.00000000000E+00  0.00000000000E+00  0.17824822096E+04  0.35401708868E+04  0.30586871498E+04 0.  0.
        2    1    3    3  502    0 -0.12268623747E+04  0.16392709169E+03 -0.14839117143E+03  0.12466287810E+04  0.25500000920E-02 0. -1.
       -2    1    3    3    0  502  0.12268623747E+04 -0.16392709169E+03  0.19308733810E+04  0.22935421059E+04  0.25500000920E-02 0.  1.
</event>
<event>
 5   0  0.3896630E-06  0.2828676E+04  0.7818609E-02  0.8294421E-01
       -1   -1    0    0    0  501  0.00000000000E+00  0.00000000000E+00  0.10502712156E+04  0.10502712157E+04  0.50400001928E-02 0.  1.
        1   -1    0    0  501    0  0.00000000000E+00  0.00000000000E+00 -0.19046047294E+04  0.19046047294E+04  0.50400001928E-02 0. -1.
    10030    2    1    2    0    0  0.00000000000E+00  0.00000000000E+00 -0.85433351379E+03  0.29548759451E+04  0.28286756792E+04 0.  0.
        5    1    3    3  502    0  0.76930654503E+03 -0.30350505721E+03 -0.16256914612E+04  0.18239634582E+04  0.46999998093E+01 0. -1.
       -5    1    3    3    0  502 -0.76930654503E+03  0.30350505721E+03  0.77135794739E+03  0.11309124869E+04  0.46999998093E+01 0.  1.
</event>
<event>
 5   0  0.3592331E-06  0.1977501E+04  0.7818609E-02  0.8617212E-01
        1   -1    0    0  501    0  0.00000000000E+00  0.00000000000E+00  0.17543269776E+04  0.17543269776E+04  0.50400001928E-02 0.  1.
       -1   -1    0    0    0  501  0.00000000000E+00  0.00000000000E+00 -0.55726671117E+03  0.55726671119E+03  0.50400001928E-02 0. -1.
    10030    2    1    2    0    0  0.00000000000E+00  0.00000000000E+00  0.11970602665E+04  0.23115936888E+04  0.19775014793E+04 0.  0.
        3    1    3    3  502    0  0.30079450658E+03  0.23961975925E+03 -0.46625965608E+03  0.60439477273E+03  0.10100000352E+00 0. -1.
       -3    1    3    3    0  502 -0.30079450658E+03 -0.23961975925E+03  0.16633199225E+04  0.17071989161E+04  0.10100000352E+00 0.  1.
</event>
<event>
 5   0  0.1028450E-05  0.3117655E+04  0.7818609E-02  0.8210909E-01
        2   -1    0    0  501    0  0.00000000000E+00  0.00000000000E+00  0.19906239644E+04  0.19906239644E+04  0.25500000920E-02 0.  1.
       -2   -1    0    0    0  501  0.00000000000E+00  0.00000000000E+00 -0.12206945980E+04  0.12206945980E+04  0.25500000920E-02 0. -1.
    10030    2    1    2    0    0  0.00000000000E+00  0.00000000000E+00  0.76992936646E+03  0.32113185624E+04  0.31176554780E+04 0.  0.
        3    1    3    3  502    0  0.80724517490E+03 -0.82278463447E+02 -0.98601004625E+03  0.12769613696E+04  0.10100000352E+00 0. -1.
       -3    1    3    3    0  502 -0.80724517490E+03  0.82278463447E+02  0.17559394127E+04  0.19343571928E+04  0.10100000352E+00 0.  1.
</event>
<event>
 5   0  0.1028450E-05  0.1934084E+04  0.7818609E-02  0.8638074E-01
        2   -1    0    0  501    0  0.00000000000E+00  0.00000000000E+00  0.10785628169E+04  0.10785628169E+04  0.25500000920E-02 0.  1.
       -2   -1    0    0    0  501  0.00000000000E+00  0.00000000000E+00 -0.86705213167E+03  0.86705213168E+03  0.25500000920E-02 0. -1.
    10030    2    1    2    0    0  0.00000000000E+00  0.00000000000E+00  0.21151068527E+03  0.19456149486E+04  0.19340839584E+04 0.  0.
        3    1    3    3  502    0 -0.86306852836E+02  0.88828817092E+02 -0.85904074350E+03  0.86792306156E+03  0.10100000352E+00 0. -1.
       -3    1    3    3    0  502  0.86306852836E+02 -0.88828817092E+02  0.10705514288E+04  0.10776918871E+04  0.10100000352E+00 0.  1.
</event>
<event>
 5   0  0.3852126E-06  0.2989869E+04  0.7818609E-02  0.8246630E-01
        1   -1    0    0  501    0  0.00000000000E+00  0.00000000000E+00  0.16345203861E+04  0.16345203861E+04  0.50400001928E-02 0. -1.
       -1   -1    0    0    0  501  0.00000000000E+00  0.00000000000E+00 -0.13672692688E+04  0.13672692688E+04  0.50400001928E-02 0.  1.
    10030    2    1    2    0    0  0.00000000000E+00  0.00000000000E+00  0.26725111728E+03  0.30017896549E+04  0.29898692233E+04 0.  0.
        1    1    3    3  502    0  0.13066593456E+04  0.16792091800E+03  0.84303552218E+03  0.15640540182E+04  0.50400001928E-02 0. -1.
       -1    1    3    3    0  502 -0.13066593456E+04 -0.16792091800E+03 -0.57578440490E+03  0.14377356367E+04  0.50400001928E-02 0.  1.
</event>
<event>
 5   0  0.1029922E-05  0.3051747E+04  0.7818609E-02  0.8229107E-01
        2   -1    0    0  501    0  0.00000000000E+00  0.00000000000E+00  0.16477509749E+04  0.16477509749E+04  0.25500000920E-02 0. -1.
       -2   -1    0    0    0  501  0.00000000000E+00  0.00000000000E+00 -0.14130108914E+04  0.14130108914E+04  0.25500000920E-02 0.  1.
    10030    2    1    2    0    0  0.00000000000E+00  0.00000000000E+00  0.23474008351E+03  0.30607618663E+04  0.30517470890E+04 0.  0.
        1    1    3    3  502    0  0.70331463340E+03 -0.12830619843E+04  0.55153507117E+03  0.15636785040E+04  0.50400001928E-02 0. -1.
       -1    1    3    3    0  502 -0.70331463340E+03  0.12830619843E+04 -0.31679498766E+03  0.14970833622E+04  0.50400001928E-02 0.  1.
</event>
<event>
 5   0  0.3636718E-06  0.3011823E+04  0.7818609E-02  0.8240363E-01
        1   -1    0    0  501    0  0.00000000000E+00  0.00000000000E+00  0.16103972146E+04  0.16103972146E+04  0.50400001928E-02 0. -1.
       -1   -1    0    0    0  501  0.00000000000E+00  0.00000000000E+00 -0.14082053783E+04  0.14082053783E+04  0.50400001928E-02 0.  1.
    10030    2    1    2    0    0  0.00000000000E+00  0.00000000000E+00  0.20219183631E+03  0.30186025929E+04  0.30118233805E+04 0.  0.
        4    1    3    3  502    0  0.61821511166E+03 -0.12030335298E+04 -0.56242807344E+03  0.14648571770E+04  0.12699999809E+01 0.  1.
       -4    1    3    3    0  502 -0.61821511166E+03  0.12030335298E+04  0.76461990975E+03  0.15537454159E+04  0.12699999809E+01 0. -1.
</event>
<event>
 5   0  0.3852126E-06  0.2940675E+04  0.7818609E-02  0.8260877E-01
       -1   -1    0    0    0  501  0.00000000000E+00  0.00000000000E+00  0.13721879179E+04  0.13721879179E+04  0.50400001928E-02 0. -1.
        1   -1    0    0  501    0  0.00000000000E+00  0.00000000000E+00 -0.15755073538E+04  0.15755073538E+04  0.50400001928E-02 0.  1.
    10030    2    1    2    0    0  0.00000000000E+00  0.00000000000E+00 -0.20331943589E+03  0.29476952717E+04  0.29406748582E+04 0.  0.
        1    1    3    3  502    0  0.11720650828E+04  0.72730253269E+03 -0.61197887052E+03  0.15090472724E+04  0.50400001928E-02 0.  1.
       -1    1    3    3    0  502 -0.11720650828E+04 -0.72730253269E+03  0.40865943463E+03  0.14386479993E+04  0.50400001928E-02 0. -1.
</event>
<event>
 5   0  0.3725232E-06  0.2739502E+04  0.7818609E-02  0.8322301E-01
        1   -1    0    0  501    0  0.00000000000E+00  0.00000000000E+00  0.10002190055E+04  0.10002190055E+04  0.50400001928E-02 0.  1.
       -1   -1    0    0    0  501  0.00000000000E+00  0.00000000000E+00 -0.18758068835E+04  0.18758068836E+04  0.50400001928E-02 0. -1.
    10030    2    1    2    0    0  0.00000000000E+00  0.00000000000E+00 -0.87558787802E+03  0.28760258891E+04  0.27395019223E+04 0.  0.
        2    1    3    3  502    0 -0.13027425049E+03  0.76384155967E+03 -0.16235932256E+04  0.17990220318E+04  0.25500000920E-02 0. -1.
       -2    1    3    3    0  502  0.13027425049E+03 -0.76384155967E+03  0.74800534758E+03  0.10770038573E+04  0.25500000920E-02 0.  1.
</event>
<event>
 5   0  0.1029922E-05  0.3010926E+04  0.7818609E-02  0.8240618E-01
       -2   -1    0    0    0  501  0.00000000000E+00  0.00000000000E+00  0.17622013931E+04  0.17622013931E+04  0.25500000920E-02 0.  1.
        2   -1    0    0  501    0  0.00000000000E+00  0.00000000000E+00 -0.12861294943E+04  0.12861294943E+04  0.25500000920E-02 0. -1.
    10030    2    1    2    0    0  0.00000000000E+00  0.00000000000E+00  0.47607189875E+03  0.30483308874E+04  0.30109262273E+04 0.  0.
        1    1    3    3  502    0  0.34025201074E+02  0.11465498916E+04  0.12251794064E+04  0.16783321918E+04  0.50400001928E-02 0.  1.
       -1    1    3    3    0  502 -0.34025201074E+02 -0.11465498916E+04 -0.74910750760E+03  0.13699986957E+04  0.50400001928E-02 0. -1.
</event>
<event>
 5   0  0.3636718E-06  0.3047207E+04  0.7818609E-02  0.8230378E-01
       -1   -1    0    0    0  501  0.00000000000E+00  0.00000000000E+00  0.15425944307E+04  0.15425944307E+04  0.50400001928E-02 0. -1.
        1   -1    0    0  501    0  0.00000000000E+00  0.00000000000E+00 -0.15048459343E+04  0.15048459343E+04  0.50400001928E-02 0.  1.
    10030    2    1    2    0    0  0.00000000000E+00  0.00000000000E+00  0.37748496402E+02  0.30474403650E+04  0.30472065617E+04 0.  0.
        4    1    3    3  502    0  0.32347383973E+03 -0.15130826645E+03  0.15001481912E+04  0.15420686512E+04  0.12699999809E+01 0. -1.
       -4    1    3    3    0  502 -0.32347383973E+03  0.15130826645E+03 -0.14623996948E+04  0.15053717138E+04  0.12699999809E+01 0.  1.
</event>
<event>
 5   0  0.3725232E-06  0.3022046E+04  0.7818609E-02  0.8237463E-01
       -1   -1    0    0    0  501  0.00000000000E+00  0.00000000000E+00  0.30082109188E+04  0.30082109188E+04  0.50400001928E-02 0.  1.
        1   -1    0    0  501    0  0.00000000000E+00  0.00000000000E+00 -0.75898624500E+03  0.75898624502E+03  0.50400001928E-02 0. -1.
    10030    2    1    2    0    0  0.00000000000E+00  0.00000000000E+00  0.22492246738E+04  0.37671971638E+04  0.30220461343E+04 0.  0.
        2    1    3    3  502    0 -0.14667155840E+03  0.14871496158E+04  0.84569158353E+03  0.17170674944E+04  0.25500000920E-02 0.  1.
       -2    1    3    3    0  502  0.14667155840E+03 -0.14871496158E+04  0.14035330903E+04  0.20501296694E+04  0.25500000920E-02 0. -1.
</event>
<event>
 5   0  0.9647945E-06  0.3036533E+04  0.7818609E-02  0.8233375E-01
        2   -1    0    0  501    0  0.00000000000E+00  0.00000000000E+00  0.22011656265E+04  0.22011656265E+04  0.25500000920E-02 0. -1.
       -2   -1    0    0    0  501  0.00000000000E+00  0.00000000000E+00 -0.10472330074E+04  0.10472330074E+04  0.25500000920E-02 0.  1.
    10030    2    1    2    0    0  0.00000000000E+00  0.00000000000E+00  0.11539326191E+04  0.32483986339E+04  0.30365330882E+04 0.  0.
        2    1    3    3  502    0 -0.50529057411E+03 -0.13831024894E+04  0.97269850639E+03  0.17647757492E+04  0.25500000920E-02 0. -1.
       -2    1    3    3    0  502  0.50529057411E+03  0.13831024894E+04  0.18123411271E+03  0.14836228848E+04  0.25500000920E-02 0.  1.
</event>
<event>
 5   0  0.3592331E-06  0.2998184E+04  0.7818609E-02  0.8244250E-01
        1   -1    0    0  501    0  0.00000000000E+00  0.00000000000E+00  0.18169309060E+04  0.18169309060E+04  0.50400001928E-02 0. -1.
       -1   -1    0    0    0  501  0.00000000000E+00  0.00000000000E+00 -0.12368531904E+04  0.12368531905E+04  0.50400001928E-02 0.  1.
    10030    2    1    2    0    0  0.00000000000E+00  0.00000000000E+00  0.58007771553E+03  0.30537840964E+04  0.29981839756E+04 0.  0.
        3    1    3    3  502    0  0.89375681235E+03  0.11835322717E+04  0.51255507240E+03  0.15691598358E+04  0.10100000352E+00 0. -1.
       -3    1    3    3    0  502 -0.89375681235E+03 -0.11835322717E+04  0.67522643127E+02  0.14846242607E+04  0.10100000352E+00 0.  1.
</event>
<event>
 5   0  0.1089569E-05  0.3116535E+04  0.7818609E-02  0.8211215E-01
       -2   -1    0    0    0  501  0.00000000000E+00  0.00000000000E+00  0.11361758815E+04  0.11361758815E+04  0.25500000920E-02 0.  1.
        2   -1    0    0  501    0  0.00000000000E+00  0.00000000000E+00 -0.21371672800E+04  0.21371672800E+04  0.25500000920E-02 0. -1.
    10030    2    1    2    0    0  0.00000000000E+00  0.00000000000E+00 -0.10009913985E+04  0.32733431616E+04  0.31165352033E+04 0.  0.
        5    1    3    3  502    0  0.51902711868E+03  0.14562026091E+04 -0.70594071662E+03  0.16994968591E+04  0.46999998093E+01 0.  1.
       -5    1    3    3    0  502 -0.51902711868E+03 -0.14562026091E+04 -0.29505068189E+03  0.15738463024E+04  0.46999998093E+01 0. -1.
</event>
<event>
 5   0  0.3592331E-06  0.2962458E+04  0.7818609E-02  0.8254533E-01
       -1   -1    0    0    0  501  0.00000000000E+00  0.00000000000E+00  0.12486099456E+04  0.12486099456E+04  0.50400001928E-02 0. -1.
        1   -1    0    0  501    0  0.00000000000E+00  0.00000000000E+00 -0.17571852589E+04  0.17571852589E+04  0.50400001928E-02 0.  1.
    10030    2    1    2    0    0  0.00000000000E+00  0.00000000000E+00 -0.50857531325E+03  0.30057952045E+04  0.29624577570E+04 0.  0.
        3    1    3    3  502    0 -0.83935416376E+03  0.12044886573E+04 -0.54607654982E+02  0.14691120937E+04  0.10100000352E+00 0. -1.
       -3    1    3    3    0  502  0.83935416376E+03 -0.12044886573E+04 -0.45396765827E+03  0.15366831107E+04  0.10100000352E+00 0.  1.
</event>
<event>
 5   0  0.9647945E-06  0.2480721E+04  0.7818609E-02  0.8409886E-01
       -2   -1    0    0    0  501  0.00000000000E+00  0.00000000000E+00  0.94914853607E+03  0.94914853607E+03  0.25500000920E-02 0. -1.
        2   -1    0    0  501    0  0.00000000000E+00  0.00000000000E+00 -0.16209205667E+04  0.16209205667E+04  0.25500000920E-02 0.  1.
    10030    2    1    2    0    0  0.00000000000E+00  0.00000000000E+00 -0.67177203067E+03  0.25700691028E+04  0.24807211718E+04 0.  0.
        2    1    3    3  502    0  0.18924161848E+03  0.75417519093E+03  0.66530616204E+03  0.10233400696E+04  0.25500000920E-02 0. -1.
       -2    1    3    3    0  502 -0.18924161848E+03 -0.75417519093E+03 -0.13370781927E+04  0.15467290332E+04  0.25500000920E-02 0.  1.
</event>
<event>
 5   0  0.9647945E-06  0.3162447E+04  0.7818609E-02  0.8198806E-01
       -2   -1    0    0    0  501  0.00000000000E+00  0.00000000000E+00  0.14320853912E+04  0.14320853912E+04  0.25500000920E-02 0. -1.
        2   -1    0    0  501    0  0.00000000000E+00  0.00000000000E+00 -0.17458926725E+04  0.17458926725E+04  0.25500000920E-02 0.  1.
    10030    2    1    2    0    0  0.00000000000E+00  0.00000000000E+00 -0.31380728138E+03  0.31779780637E+04  0.31624467685E+04 0.  0.
        2    1    3    3  502    0  0.10791886880E+04  0.10281889361E+04  0.37336835461E+03  0.15366276845E+04  0.25500000920E-02 0. -1.
       -2    1    3    3    0  502 -0.10791886880E+04 -0.10281889361E+04 -0.68717563599E+03  0.16413503792E+04  0.25500000920E-02 0.  1.
</event>
<event>
 5   0  0.3852126E-06  0.2627933E+04  0.7818609E-02  0.8358774E-01
        1   -1    0    0  501    0  0.00000000000E+00  0.00000000000E+00  0.14980678329E+04  0.14980678329E+04  0.50400001928E-02 0. -1.
       -1   -1    0    0    0  501  0.00000000000E+00  0.00000000000E+00 -0.11524900127E+04  0.11524900128E+04  0.50400001928E-02 0.  1.
    10030    2    1    2    0    0  0.00000000000E+00  0.00000000000E+00  0.34557782017E+03  0.26505578457E+04  0.26279331924E+04 0.  0.
        1    1    3    3  502    0 -0.29592105385E+03 -0.67526052866E+03 -0.92421555066E+03  0.11822522725E+04  0.50400001928E-02 0.  1.
       -1    1    3    3    0  502  0.29592105385E+03  0.67526052866E+03  0.12697933708E+04  0.14683055732E+04  0.50400001928E-02 0. -1.
</event>
<event>
 5   0  0.1028450E-05  0.2900231E+04  0.7818609E-02  0.8272809E-01
       -2   -1    0    0    0  501  0.00000000000E+00  0.00000000000E+00  0.96974646650E+03  0.96974646650E+03  0.25500000920E-02 0. -1.
        2   -1    0    0  501    0  0.00000000000E+00  0.00000000000E+00 -0.21684377395E+04  0.21684377395E+04  0.25500000920E-02 0.  1.
    10030    2    1    2    0    0  0.00000000000E+00  0.00000000000E+00 -0.11986912730E+04  0.31381842060E+04  0.29002309120E+04 0.  0.
        3    1    3    3  502    0  0.28853377741E+03  0.11744653694E+03  0.93311215178E+03  0.98373966462E+03  0.10100000352E+00 0. -1.
       -3    1    3    3    0  502 -0.28853377741E+03 -0.11744653694E+03 -0.21318034248E+04  0.21544445414E+04  0.10100000352E+00 0.  1.
</event>
<event>
 5   0  0.9647945E-06  0.3048450E+04  0.7818609E-02  0.8230030E-01
       -2   -1    0    0    0  501  0.00000000000E+00  0.00000000000E+00  0.16961830954E+04  0.16961830954E+04  0.25500000920E-02 0. -1.
        2   -1    0    0  501    0  0.00000000000E+00  0.00000000000E+00 -0.13696996163E+04  0.13696996163E+04  0.25500000920E-02 0.  1.
    10030    2    1    2    0    0  0.00000000000E+00  0.00000000000E+00  0.32648347908E+03  0.30658827117E+04  0.30484496617E+04 0.  0.
        2    1    3    3  502    0  0.99781263540E+02  0.14082091707E+04  0.74120364512E+03  0.15944880722E+04  0.25500000920E-02 0. -1.
       -2    1    3    3    0  502 -0.99781263540E+02 -0.14082091707E+04 -0.41472016604E+03  0.14713946395E+04  0.25500000920E-02 0.  1.
</event>
<event>
 5   0  0.3592331E-06  0.2900571E+04  0.7818609E-02  0.8272708E-01
        1   -1    0    0  501    0  0.00000000000E+00  0.00000000000E+00  0.17012746931E+04  0.17012746931E+04  0.50400001928E-02 0.  1.
       -1   -1    0    0    0  501  0.00000000000E+00  0.00000000000E+00 -0.12363250284E+04  0.12363250284E+04  0.50400001928E-02 0. -1.
    10030    2    1    2    0    0  0.00000000000E+00  0.00000000000E+00  0.46494966467E+03  0.29375997215E+04  0.29005713115E+04 0.  0.
        3    1    3    3  502    0  0.27046722671E+03  0.83478826254E+03 -0.93695385966E+03  0.12837081091E+04  0.10100000352E+00 0. -1.
       -3    1    3    3    0  502 -0.27046722671E+03 -0.83478826254E+03  0.14019035243E+04  0.16538916125E+04  0.10100000352E+00 0.  1.
</event>
<event>
 5   0  0.3896630E-06  0.3022837E+04  0.7818609E-02  0.8237239E-01
       -1   -1    0    0    0  501  0.00000000000E+00  0.00000000000E+00  0.95820704808E+03  0.95820704809E+03  0.50400001928E-02 0. -1.
        1   -1    0    0  501    0  0.00000000000E+00  0.00000000000E+00 -0.23840217902E+04  0.23840217902E+04  0.50400001928E-02 0.  1.
    10030    2    1    2    0    0  0.00000000000E+00  0.00000000000E+00 -0.14258147421E+04  0.33422288382E+04  0.30228373970E+04 0.  0.
        5    1    3    3  502    0 -0.11038548972E+02 -0.13840264215E+04 -0.13842834459E+04  0.19575274540E+04  0.46999998093E+01 0.  1.
       -5    1    3    3    0  502  0.11038548972E+02  0.13840264215E+04 -0.41531296214E+02  0.13847013842E+04  0.46999998093E+01 0. -1.
</event>
<event>
 5   0  0.3636718E-06  0.2995465E+04  0.7818609E-02  0.8245027E-01
        1   -1    0    0  501    0  0.00000000000E+00  0.00000000000E+00  0.12797646915E+04  0.12797646915E+04  0.50400001928E-02 0. -1.
       -1   -1    0    0    0  501  0.00000000000E+00  0.00000000000E+00 -0.17528242859E+04  0.17528242859E+04  0.50400001928E-02 0.  1.
    10030    2    1    2    0    0  0.00000000000E+00  0.00000000000E+00 -0.47305959438E+03  0.30325889774E+04  0.29954649933E+04 0.  0.
        4    1    3    3  502    0  0.86027128323E+03 -0.87804770726E+02  0.10015013543E+04  0.13231715437E+04  0.12699999809E+01 0. -1.
       -4    1    3    3    0  502 -0.86027128323E+03  0.87804770726E+02 -0.14745609486E+04  0.17094174337E+04  0.12699999809E+01 0.  1.
</event>
<event>
 5   0  0.1028450E-05  0.2999833E+04  0.7818609E-02  0.8243779E-01
        2   -1    0    0  501    0  0.00000000000E+00  0.00000000000E+00  0.19135729561E+04  0.19135729561E+04  0.25500000920E-02 0.  1.
       -2   -1    0    0    0  501  0.00000000000E+00  0.00000000000E+00 -0.11756801836E+04  0.11756801836E+04  0.25500000920E-02 0. -1.
    10030    2    1    2    0    0  0.00000000000E+00  0.00000000000E+00  0.73789277255E+03  0.30892531397E+04  0.29998331983E+04 0.  0.
        3    1    3    3  502    0 -0.10387582732E+03  0.14959378376E+04  0.33433513492E+03  0.15363593962E+04  0.10100000352E+00 0.  1.
       -3    1    3    3    0  502  0.10387582732E+03 -0.14959378376E+04  0.40355763763E+03  0.15528937435E+04  0.10100000352E+00 0. -1.
</event>
<event>
 5   0  0.9647945E-06  0.2991734E+04  0.7818609E-02  0.8246095E-01
        2   -1    0    0  501    0  0.00000000000E+00  0.00000000000E+00  0.21591282118E+04  0.21591282118E+04  0.25500000920E-02 0. -1.
       -2   -1    0    0    0  501  0.00000000000E+00  0.00000000000E+00 -0.10363528338E+04  0.10363528338E+04  0.25500000920E-02 0.  1.
    10030    2    1    2    0    0  0.00000000000E+00  0.00000000000E+00  0.11227753780E+04  0.31954810456E+04  0.29917343738E+04 0.  0.
        2    1    3    3  502    0 -0.10571050950E+04 -0.91324463761E+02 -0.56484460259E+03  0.12020236123E+04  0.25500000920E-02 0.  1.
       -2    1    3    3    0  502  0.10571050950E+04  0.91324463761E+02  0.16876199806E+04  0.19934574333E+04  0.25500000920E-02 0. -1.
</event>
<event>
 5   0  0.1057036E-05  0.2825989E+04  0.7818609E-02  0.8295245E-01
       -2   -1    0    0    0  501  0.00000000000E+00  0.00000000000E+00  0.88186656601E+03  0.88186656601E+03  0.25500000920E-02 0.  1.
        2   -1    0    0  501    0  0.00000000000E+00  0.00000000000E+00 -0.22640084287E+04  0.22640084287E+04  0.25500000920E-02 0. -1.
    10030    2    1    2    0    0  0.00000000000E+00  0.00000000000E+00 -0.13821418627E+04  0.31458749947E+04  0.28259889161E+04 0.  0.
        4    1    3    3  502    0 -0.11702379535E+04 -0.78845081641E+03 -0.77317735863E+03  0.16090110001E+04  0.12699999809E+01 0. -1.
       -4    1    3    3    0  502  0.11702379535E+04  0.78845081641E+03 -0.60896450409E+03  0.15368639946E+04  0.12699999809E+01 0.  1.
</event>
<event>
 5   0  0.3725232E-06  0.3034449E+04  0.7818609E-02  0.8233962E-01
       -1   -1    0    0    0  501  0.00000000000E+00  0.00000000000E+00  0.11725438785E+04  0.11725438785E+04  0.50400001928E-02 0.  1.
        1   -1    0    0  501    0  0.00000000000E+00  0.00000000000E+00 -0.19632274458E+04  0.19632274458E+04  0.50400001928E-02 0. -1.
    10030    2    1    2    0    0  0.00000000000E+00  0.00000000000E+00 -0.79068356730E+03  0.31357713243E+04  0.30344490925E+04 0.  0.
        2    1    3    3  502    0 -0.75921110860E+03 -0.89817072873E+03 -0.13859199840E+04  0.18176595851E+04  0.25500000920E-02 0. -1.
       -2    1    3    3    0  502  0.75921110860E+03  0.89817072873E+03  0.59523641667E+03  0.13181117392E+04  0.25500000920E-02 0.  1.
</event>
<event>
 5   0  0.1028450E-05  0.3047915E+04  0.7818609E-02  0.8230179E-01
       -2   -1    0    0    0  501  0.00000000000E+00  0.00000000000E+00  0.16023392728E+04  0.16023392728E+04  0.25500000920E-02 0. -1.
        2   -1    0    0  501    0  0.00000000000E+00  0.00000000000E+00 -0.14494101123E+04  0.14494101123E+04  0.25500000920E-02 0.  1.
    10030    2    1    2    0    0  0.00000000000E+00  0.00000000000E+00  0.15292916050E+03  0.30517493851E+04  0.30479151860E+04 0.  0.
        3    1    3    3  502    0 -0.13486816474E+04  0.30975423738E+03  0.71566947591E+03  0.15579065063E+04  0.10100000352E+00 0. -1.
       -3    1    3    3    0  502  0.13486816474E+04 -0.30975423738E+03 -0.56274031541E+03  0.14938428787E+04  0.10100000352E+00 0.  1.
</event>
<event>
 5   0  0.9647945E-06  0.2965731E+04  0.7818609E-02  0.8253585E-01
        2   -1    0    0  501    0  0.00000000000E+00  0.00000000000E+00  0.25365531173E+04  0.25365531173E+04  0.25500000920E-02 0. -1.
       -2   -1    0    0    0  501  0.00000000000E+00  0.00000000000E+00 -0.86688118829E+03  0.86688118830E+03  0.25500000920E-02 0.  1.
    10030    2    1    2    0    0  0.00000000000E+00  0.00000000000E+00  0.16696719290E+04  0.34034343056E+04  0.29657310603E+04 0.  0.
        2    1    3    3  502    0 -0.29356509317E+03 -0.14485513700E+04  0.97258773185E+03  0.17692960271E+04  0.25500000920E-02 0.  1.
       -2    1    3    3    0  502  0.29356509317E+03  0.14485513700E+04  0.69708419716E+03  0.16341382785E+04  0.25500000920E-02 0. -1.
</event>
<event>
 5   0  0.3852126E-06  0.3024102E+04  0.7818609E-02  0.8236882E-01
       -1   -1    0    0    0  501  0.00000000000E+00  0.00000000000E+00  0.24806749090E+04  0.24806749090E+04  0.50400001928E-02 0. -1.
        1   -1    0    0  501    0  0.00000000000E+00  0.00000000000E+00 -0.92164371745E+03  0.92164371746E+03  0.50400001928E-02 0.  1.
    10030    2    1    2    0    0  0.00000000000E+00  0.00000000000E+00  0.15590311916E+04  0.34023186265E+04  0.30241021444E+04 0.  0.
        1    1    3    3  502    0  0.28884010318E+03  0.58850160934E+03 -0.75344213003E+03  0.99871807470E+03  0.50400001928E-02 0.  1.
       -1    1    3    3    0  502 -0.28884010318E+03 -0.58850160934E+03  0.23124733216E+04  0.24036005518E+04  0.50400001928E-02 0. -1.
</event>
<event>
 5   0  0.3896630E-06  0.2864545E+04  0.7818609E-02  0.8283505E-01
        1   -1    0    0  501    0  0.00000000000E+00  0.00000000000E+00  0.23796806130E+04  0.23796806130E+04  0.50400001928E-02 0. -1.
       -1   -1    0    0    0  501  0.00000000000E+00  0.00000000000E+00 -0.86205042656E+03  0.86205042658E+03  0.50400001928E-02 0.  1.
    10030    2    1    2    0    0  0.00000000000E+00  0.00000000000E+00  0.15176301865E+04  0.32417310396E+04  0.28645451210E+04 0.  0.
        5    1    3    3  502    0  0.77951675461E+03  0.87034603582E+03 -0.17865501594E+03  0.11819848973E+04  0.46999998093E+01 0.  1.
       -5    1    3    3    0  502 -0.77951675461E+03 -0.87034603582E+03  0.16962852024E+04  0.20597461423E+04  0.46999998093E+01 0. -1.
</event>
<event>
 5   0  0.3636718E-06  0.2955533E+04  0.7818609E-02  0.8256544E-01
        1   -1    0    0  501    0  0.00000000000E+00  0.00000000000E+00  0.12075980845E+04  0.12075980846E+04  0.50400001928E-02 0.  1.
       -1   -1    0    0    0  501  0.00000000000E+00  0.00000000000E+00 -0.18083774747E+04  0.18083774747E+04  0.50400001928E-02 0. -1.
    10030    2    1    2    0    0  0.00000000000E+00  0.00000000000E+00 -0.60077939017E+03  0.30159755593E+04  0.29555325575E+04 0.  0.
        4    1    3    3  502    0 -0.12256080681E+04 -0.81606277529E+03 -0.42832497478E+03  0.15334723626E+04  0.12699999809E+01 0.  1.
       -4    1    3    3    0  502  0.12256080681E+04  0.81606277529E+03 -0.17245441539E+03  0.14825031967E+04  0.12699999809E+01 0. -1.
</event>
<event>
 5   0  0.3592331E-06  0.2939519E+04  0.7818609E-02  0.8261215E-01
        1   -1    0    0  501    0  0.00000000000E+00  0.00000000000E+00  0.24727658594E+04  0.24727658594E+04  0.50400001928E-02 0. -1.
       -1   -1    0    0    0  501  0.00000000000E+00  0.00000000000E+00 -0.87359402436E+03  0.87359402437E+03  0.50400001928E-02 0.  1.
    10030    2    1    2    0    0  0.00000000000E+00  0.00000000000E+00  0.15991718351E+04  0.33463598838E+04  0.29395193338E+04 0.  0.
        3    1    3    3  502    0  0.77899714865E+03  0.12004442389E+04  0.11810625227E+04  0.18554815066E+04  0.10100000352E+00 0. -1.
       -3    1    3    3    0  502 -0.77899714865E+03 -0.12004442389E+04  0.41810931232E+03  0.14908783772E+04  0.10100000352E+00 0.  1.
</event>
<event>
 5   0  0.1028450E-05  0.3301371E+04  0.7818609E-02  0.8162547E-01
        2   -1    0    0  501    0  0.00000000000E+00  0.00000000000E+00  0.10896023044E+04  0.10896023044E+04  0.25500000920E-02 0. -1.
       -2   -1    0    0    0  501  0.00000000000E+00  0.00000000000E+00 -0.25006945485E+04  0.25006945485E+04  0.25500000920E-02 0.  1.
    10030    2    1    2    0    0  0.00000000000E+00  0.00000000000E+00 -0.14110922441E+04  0.35902968529E+04  0.33013709532E+04 0.  0.
        3    1    3    3  502    0 -0.22459095734E+03 -0.79095148208E+03 -0.22621461645E+04  0.24069380185E+04  0.10100000352E+00 0.  1.
       -3    1    3    3    0  502  0.22459095734E+03  0.79095148208E+03  0.85105392046E+03  0.11833588344E+04  0.10100000352E+00 0. -1.
</event>
<event>
 5   0  0.3636718E-06  0.2907539E+04  0.7818609E-02  0.8270638E-01
       -1   -1    0    0    0  501  0.00000000000E+00  0.00000000000E+00  0.10314943246E+04  0.10314943246E+04  0.50400001928E-02 0.  1.
        1   -1    0    0  501    0  0.00000000000E+00  0.00000000000E+00 -0.20489165430E+04  0.20489165430E+04  0.50400001928E-02 0. -1.
    10030    2    1    2    0    0  0.00000000000E+00  0.00000000000E+00 -0.10174222184E+04  0.30804108675E+04  0.29075390182E+04 0.  0.
        4    1    3    3  502    0  0.70049310685E+03 -0.12597728205E+04 -0.70896244356E+03  0.16063460123E+04  0.12699999809E+01 0. -1.
       -4    1    3    3    0  502 -0.70049310685E+03  0.12597728205E+04 -0.30845977482E+03  0.14740648553E+04  0.12699999809E+01 0.  1.
</event>
<event>
 5   0  0.1029922E-05  0.3012582E+04  0.7818609E-02  0.8240147E-01
       -2   -1    0    0    0  501  0.00000000000E+00  0.00000000000E+00  0.15060820316E+04  0.15060820316E+04  0.25500000920E-02 0.  1.
        2   -1    0    0  501    0  0.00000000000E+00  0.00000000000E+00 -0.15064996529E+04  0.15064996529E+04  0.25500000920E-02 0. -1.
    10030    2    1    2    0    0  0.00000000000E+00  0.00000000000E+00 -0.41762136008E+00  0.30125816845E+04  0.30125816556E+04 0.  0.
        1    1    3    3  502    0 -0.61477799981E+02  0.14877039636E+03  0.14974560217E+04  0.15060832274E+04  0.50400001928E-02 0.  1.
       -1    1    3    3    0  502  0.61477799981E+02 -0.14877039636E+03 -0.14978736431E+04  0.15064984571E+04  0.50400001928E-02 0. -1.
</event>
<event>
 5   0  0.3725232E-06  0.2956508E+04  0.7818609E-02  0.8256260E-01
       -1   -1    0    0    0  501  0.00000000000E+00  0.00000000000E+00  0.86170479644E+03  0.86170479646E+03  0.50400001928E-02 0.  1.
        1   -1    0    0  501    0  0.00000000000E+00  0.00000000000E+00 -0.25359443771E+04  0.25359443771E+04  0.50400001928E-02 0. -1.
    10030    2    1    2    0    0  0.00000000000E+00  0.00000000000E+00 -0.16742395806E+04  0.33976491735E+04  0.29565083685E+04 0.  0.
        2    1    3    3  502    0  0.80593732392E+03  0.65215823522E+03  0.37386088081E+03  0.11020967707E+04  0.25500000920E-02 0.  1.
       -2    1    3    3    0  502 -0.80593732392E+03 -0.65215823522E+03 -0.20481004614E+04  0.22955524028E+04  0.25500000920E-02 0. -1.
</event>
<event>
 5   0  0.3592331E-06  0.3022109E+04  0.7818609E-02  0.8237446E-01
       -1   -1    0    0    0  501  0.00000000000E+00  0.00000000000E+00  0.15559929896E+04  0.15559929896E+04  0.50400001928E-02 0.  1.
        1   -1    0    0  501    0  0.00000000000E+00  0.00000000000E+00 -0.14674136606E+04  0.14674136606E+04  0.50400001928E-02 0. -1.
    10030    2    1    2    0    0  0.00000000000E+00  0.00000000000E+00  0.88579329035E+02  0.30234066502E+04  0.30221087795E+04 0.  0.
        3    1    3    3  502    0  0.82401020300E+03 -0.84005697795E+03 -0.90406090558E+03  0.14839186878E+04  0.10100000352E+00 0. -1.
       -3    1    3    3    0  502 -0.82401020300E+03  0.84005697795E+03  0.99264023461E+03  0.15394879624E+04  0.10100000352E+00 0.  1.
</event>
<event>
 5   0  0.1029922E-05  0.2970369E+04  0.7818609E-02  0.8252243E-01
        2   -1    0    0  501    0  0.00000000000E+00  0.00000000000E+00  0.17536936947E+04  0.17536936947E+04  0.25500000920E-02 0.  1.
       -2   -1    0    0    0  501  0.00000000000E+00  0.00000000000E+00 -0.12577871409E+04  0.12577871409E+04  0.25500000920E-02 0. -1.
    10030    2    1    2    0    0  0.00000000000E+00  0.00000000000E+00  0.49590655379E+03  0.30114808356E+04  0.29703692554E+04 0.  0.
        1    1    3    3  502    0 -0.36444315829E+03 -0.33938222793E+03 -0.11706173742E+04  0.12721415602E+04  0.50400001928E-02 0. -1.
       -1    1    3    3    0  502  0.36444315829E+03  0.33938222793E+03  0.16665239280E+04  0.17393392754E+04  0.50400001928E-02 0.  1.
</event>
<event>
 5   0  0.3636718E-06  0.3003362E+04  0.7818609E-02  0.8242772E-01
        1   -1    0    0  501    0  0.00000000000E+00  0.00000000000E+00  0.12864983932E+04  0.12864983932E+04  0.50400001928E-02 0. -1.
       -1   -1    0    0    0  501  0.00000000000E+00  0.00000000000E+00 -0.17528551880E+04  0.17528551880E+04  0.50400001928E-02 0.  1.
    10030    2    1    2    0    0  0.00000000000E+00  0.00000000000E+00 -0.46635679481E+03  0.30393535811E+04  0.30033617050E+04 0.  0.
        4    1    3    3  502    0 -0.10354412344E+04 -0.31838391233E+03 -0.12856109169E+04  0.16811614759E+04  0.12699999809E+01 0.  1.
       -4    1    3    3    0  502  0.10354412344E+04  0.31838391233E+03  0.81925412205E+03  0.13581921053E+04  0.12699999809E+01 0. -1.
</event>
<event>
 5   0  0.9647945E-06  0.3003240E+04  0.7818609E-02  0.8242806E-01
       -2   -1    0    0    0  501  0.00000000000E+00  0.00000000000E+00  0.10057631070E+04  0.10057631070E+04  0.25500000920E-02 0.  1.
        2   -1    0    0  501    0  0.00000000000E+00  0.00000000000E+00 -0.22419425892E+04  0.22419425892E+04  0.25500000920E-02 0. -1.
    10030    2    1    2    0    0  0.00000000000E+00  0.00000000000E+00 -0.12361794822E+04  0.32477056962E+04  0.30032403461E+04 0.  0.
        2    1    3    3  502    0 -0.20695554824E+03  0.14691162759E+04 -0.86875528819E+03  0.17192640815E+04  0.25500000920E-02 0.  1.
       -2    1    3    3    0  502  0.20695554824E+03 -0.14691162759E+04 -0.36742419406E+03  0.15284416147E+04  0.25500000920E-02 0. -1.
</event>
<event>
 5   0  0.3896630E-06  0.3019328E+04  0.7818609E-02  0.8238233E-01
        1   -1    0    0  501    0  0.00000000000E+00  0.00000000000E+00  0.11892797597E+04  0.11892797597E+04  0.50400001928E-02 0.  1.
       -1   -1    0    0    0  501  0.00000000000E+00  0.00000000000E+00 -0.19163578341E+04  0.19163578341E+04  0.50400001928E-02 0. -1.
    10030    2    1    2    0    0  0.00000000000E+00  0.00000000000E+00 -0.72707807442E+03  0.31056375938E+04  0.30193281269E+04 0.  0.
        5    1    3    3  502    0 -0.86485116506E+02 -0.12401251547E+04  0.51749331253E+03  0.13465554178E+04  0.46999998093E+01 0.  1.
       -5    1    3    3    0  502  0.86485116506E+02  0.12401251547E+04 -0.12445713870E+04  0.17590821760E+04  0.46999998093E+01 0. -1.
</event>
<event>
 5   0  0.1028450E-05  0.2979576E+04  0.7818609E-02  0.8249587E-01
        2   -1    0    0  501    0  0.00000000000E+00  0.00000000000E+00  0.27635203812E+04  0.27635203812E+04  0.25500000920E-02 0.  1.
       -2   -1    0    0    0  501  0.00000000000E+00  0.00000000000E+00 -0.80313080033E+03  0.80313080033E+03  0.25500000920E-02 0. -1.
    10030    2    1    2    0    0  0.00000000000E+00  0.00000000000E+00  0.19603895809E+04  0.35666511816E+04  0.29795760339E+04 0.  0.
        3    1    3    3  502    0 -0.14548243424E+04 -0.14824460408E+03  0.63955947175E+03  0.15960973210E+04  0.10100000352E+00 0. -1.
       -3    1    3    3    0  502  0.14548243424E+04  0.14824460408E+03  0.13208301092E+04  0.19705538606E+04  0.10100000352E+00 0.  1.
</event>
<event>
 5   0  0.3725232E-06  0.3019564E+04  0.7818609E-02  0.8238166E-01
       -1   -1    0    0    0  501  0.00000000000E+00  0.00000000000E+00  0.95595375232E+03  0.95595375233E+03  0.50400001928E-02 0. -1.
        1   -1    0    0  501    0  0.00000000000E+00  0.00000000000E+00 -0.23844691520E+04  0.23844691520E+04  0.50400001928E-02 0.  1.
    10030    2    1    2    0    0  0.00000000000E+00  0.00000000000E+00 -0.14285153997E+04  0.33404229043E+04  0.30195643614E+04 0.  0.
        2    1    3    3  502    0  0.82375599158E+03 -0.27566780410E+03  0.65181673537E+03  0.10860164494E+04  0.25500000920E-02 0. -1.
       -2    1    3    3    0  502 -0.82375599158E+03  0.27566780410E+03 -0.20803321350E+04  0.22544064549E+04  0.25500000920E-02 0.  1.
</event>
<event>
 5   0  0.9647945E-06  0.2978448E+04  0.7818609E-02  0.8249912E-01
        2   -1    0    0  501    0  0.00000000000E+00  0.00000000000E+00  0.11940786993E+04  0.11940786993E+04  0.25500000920E-02 0.  1.
       -2   -1    0    0    0  501  0.00000000000E+00  0.00000000000E+00 -0.18573221149E+04  0.18573221149E+04  0.25500000920E-02 0. -1.
    10030    2    1    2    0    0  0.00000000000E+00  0.00000000000E+00 -0.66324341563E+03  0.30514008142E+04  0.29784484385E+04 0.  0.
        2    1    3    3  502    0  0.95593079992E+03 -0.45562913069E+03 -0.14043534836E+04  0.17588661989E+04  0.25500000920E-02 0. -1.
       -2    1    3    3    0  502 -0.95593079992E+03  0.45562913069E+03  0.74111006794E+03  0.12925346153E+04  0.25500000920E-02 0.  1.
</event>
<event>
 5   0  0.1029922E-05  0.3007328E+04  0.7818609E-02  0.8241641E-01
       -2   -1    0    0    0  501  0.00000000000E+00  0.00000000000E+00  0.16657510337E+04  0.16657510337E+04  0.25500000920E-02 0.  1.
        2   -1    0    0  501    0  0.00000000000E+00  0.00000000000E+00 -0.13573490232E+04  0.13573490232E+04  0.25500000920E-02 0. -1.
    10030    2    1    2    0    0  0.00000000000E+00  0.00000000000E+00  0.30840201043E+03  0.30231000569E+04  0.30073280756E+04 0.  0.
        1    1    3    3  502    0  0.69483491744E+03 -0.18694110992E+03 -0.11730503231E+04  0.13761502831E+04  0.50400001928E-02 0. -1.
       -1    1    3    3    0  502 -0.69483491744E+03  0.18694110992E+03  0.14814523335E+04  0.16469497739E+04  0.50400001928E-02 0.  1.
</event>
<event>
 5   0  0.3592331E-06  0.2552340E+04  0.7818609E-02  0.8384573E-01
        1   -1    0    0  501    0  0.00000000000E+00  0.00000000000E+00  0.20307309644E+04  0.20307309644E+04  0.50400001928E-02 0. -1.
       -1   -1    0    0    0  501  0.00000000000E+00  0.00000000000E+00 -0.80198180443E+03  0.80198180445E+03  0.50400001928E-02 0.  1.
    10030    2    1    2    0    0  0.00000000000E+00  0.00000000000E+00  0.12287491600E+04  0.28327127689E+04  0.25523395411E+04 0.  0.
        3    1    3    3  502    0 -0.13614820801E+03  0.19260021378E+03 -0.77758116914E+03  0.81256609681E+03  0.10100000352E+00 0.  1.
       -3    1    3    3    0  502  0.13614820801E+03 -0.19260021378E+03  0.20063303291E+04  0.20201466721E+04  0.10100000352E+00 0. -1.
</event>
<event>
 5   0  0.3636718E-06  0.2924174E+04  0.7818609E-02  0.8265721E-01
        1   -1    0    0  501    0  0.00000000000E+00  0.00000000000E+00  0.17908428420E+04  0.17908428421E+04  0.50400001928E-02 0.  1.
       -1   -1    0    0    0  501  0.00000000000E+00  0.00000000000E+00 -0.11936826614E+04  0.11936826614E+04  0.50400001928E-02 0. -1.
    10030    2    1    2    0    0  0.00000000000E+00  0.00000000000E+00  0.59716018061E+03  0.29845255035E+04  0.29241737636E+04 0.  0.
        4    1    3    3  502    0  0.26669571347E+03 -0.15858538776E+03  0.17568514786E+04  0.17840416642E+04  0.12699999809E+01 0.  1.
       -4    1    3    3    0  502 -0.26669571347E+03  0.15858538776E+03 -0.11596912980E+04  0.12004838393E+04  0.12699999809E+01 0. -1.
</event>
<event>
 5   0  0.9647945E-06  0.2968298E+04  0.7818609E-02  0.8252842E-01
       -2   -1    0    0    0  501  0.00000000000E+00  0.00000000000E+00  0.12994832729E+04  0.12994832730E+04  0.25500000920E-02 0. -1.
        2   -1    0    0  501    0  0.00000000000E+00  0.00000000000E+00 -0.16950565905E+04  0.16950565905E+04  0.25500000920E-02 0.  1.
    10030    2    1    2    0    0  0.00000000000E+00  0.00000000000E+00 -0.39557331752E+03  0.29945398634E+04  0.29682976172E+04 0.  0.
        2    1    3    3  502    0 -0.10843868464E+04 -0.57413593951E+03  0.64456268628E+03  0.13859971018E+04  0.25500000920E-02 0. -1.
       -2    1    3    3    0  502  0.10843868464E+04  0.57413593951E+03 -0.10401360038E+04  0.16085427616E+04  0.25500000920E-02 0.  1.
</event>
<event>
 5   0  0.1057036E-05  0.3039803E+04  0.7818609E-02  0.8232455E-01
       -2   -1    0    0    0  501  0.00000000000E+00  0.00000000000E+00  0.10893430084E+04  0.10893430084E+04  0.25500000920E-02 0.  1.
        2   -1    0    0  501    0  0.00000000000E+00  0.00000000000E+00 -0.21206371291E+04  0.21206371291E+04  0.25500000920E-02 0. -1.
    10030    2    1    2    0    0  0.00000000000E+00  0.00000000000E+00 -0.10312941207E+04  0.32099801375E+04  0.30398034344E+04 0.  0.
        4    1    3    3  502    0  0.66832197440E+03 -0.59816917025E+02  0.92447008935E+03  0.11423129536E+04  0.12699999809E+01 0.  1.
       -4    1    3    3    0  502 -0.66832197440E+03  0.59816917025E+02 -0.19557642101E+04  0.20676671839E+04  0.12699999809E+01 0. -1.
</event>
<event>
 5   0  0.1028450E-05  0.2998916E+04  0.7818609E-02  0.8244041E-01
        2   -1    0    0  501    0  0.00000000000E+00  0.00000000000E+00  0.16956581818E+04  0.16956581818E+04  0.25500000920E-02 0.  1.
       -2   -1    0    0    0  501  0.00000000000E+00  0.00000000000E+00 -0.13259594872E+04  0.13259594872E+04  0.25500000920E-02 0. -1.
    10030    2    1    2    0    0  0.00000000000E+00  0.00000000000E+00  0.36969869455E+03  0.30216176690E+04  0.29989158395E+04 0.  0.
        3    1    3    3  502    0 -0.31780674645E+03  0.10991683469E+04  0.11613099046E+04  0.16302800029E+04  0.10100000352E+00 0.  1.
       -3    1    3    3    0  502  0.31780674645E+03 -0.10991683469E+04 -0.79161121006E+03  0.13913376661E+04  0.10100000352E+00 0. -1.
</event>
<event>
 5   0  0.1089569E-05  0.2551674E+04  0.7818609E-02  0.8384804E-01
        2   -1    0    0  501    0  0.00000000000E+00  0.00000000000E+00  0.26278640382E+04  0.26278640383E+04  0.25500000920E-02 0. -1.
       -2   -1    0    0    0  501  0.00000000000E+00  0.00000000000E+00 -0.61942334864E+03  0.61942334865E+03  0.25500000920E-02 0.  1.
    10030    2    1    2    0    0  0.00000000000E+00  0.00000000000E+00  0.20084406896E+04  0.32472873869E+04  0.25516742287E+04 0.  0.
        5    1    3    3  502    0 -0.88786612261E+03  0.20820812431E+03 -0.13124590694E+03  0.92136011027E+03  0.46999998093E+01 0.  1.
       -5    1    3    3    0  502  0.88786612261E+03 -0.20820812431E+03  0.21396865965E+04  0.23259272766E+04  0.46999998093E+01 0. -1.
</event>
<event>
 5   0  0.3636718E-06  0.2977915E+04  0.7818609E-02  0.8250066E-01
        1   -1    0    0  501    0  0.00000000000E+00  0.00000000000E+00  0.23189024720E+04  0.23189024720E+04  0.50400001928E-02 0.  1.
       -1   -1    0    0    0  501  0.00000000000E+00  0.00000000000E+00 -0.95605354912E+03  0.95605354913E+03  0.50400001928E-02 0. -1.
    10030    2    1    2    0    0  0.00000000000E+00  0.00000000000E+00  0.13628489229E+04  0.32749560211E+04  0.29779153369E+04 0.  0.
        4    1    3    3  502    0 -0.72198744648E+03  0.53098149409E+03  0.19890547767E+04  0.21816387734E+04  0.12699999809E+01 0.  1.
       -4    1    3    3    0  502  0.72198744648E+03 -0.53098149409E+03 -0.62620585382E+03  0.10933172477E+04  0.12699999809E+01 0. -1.
</event>
<event>
 5   0  0.3896630E-06  0.2034616E+04  0.7818609E-02  0.8590605E-01
        1   -1    0    0  501    0  0.00000000000E+00  0.00000000000E+00  0.19263095163E+04  0.19263095163E+04  0.50400001928E-02 0.  1.
       -1   -1    0    0    0  501  0.00000000000E+00  0.00000000000E+00 -0.53725295763E+03  0.53725295766E+03  0.50400001928E-02 0. -1.
    10030    2    1    2    0    0  0.00000000000E+00  0.00000000000E+00  0.13890565586E+04  0.24635624739E+04  0.20346159195E+04 0.  0.
        5    1    3    3  502    0 -0.10150496436E+04 -0.60822674412E+02  0.73020587717E+03  0.12518977154E+04  0.46999998093E+01 0. -1.
       -5    1    3    3    0  502  0.10150496436E+04  0.60822674412E+02  0.65885068147E+03  0.12116647586E+04  0.46999998093E+01 0.  1.
</event>
<event>
 5   0  0.3852126E-06  0.2972899E+04  0.7818609E-02  0.8251512E-01
        1   -1    0    0  501    0  0.00000000000E+00  0.00000000000E+00  0.17144779167E+04  0.17144779167E+04  0.50400001928E-02 0.  1.
       -1   -1    0    0    0  501  0.00000000000E+00  0.00000000000E+00 -0.12887492451E+04  0.12887492451E+04  0.50400001928E-02 0. -1.
    10030    2    1    2    0    0  0.00000000000E+00  0.00000000000E+00  0.42572867165E+03  0.30032271618E+04  0.29728990033E+04 0.  0.
        1    1    3    3  502    0 -0.13647152100E+04 -0.14258803866E+03 -0.36459037807E+03  0.14197552948E+04  0.50400001928E-02 0. -1.
       -1    1    3    3    0  502  0.13647152100E+04  0.14258803866E+03  0.79031904972E+03  0.15834718670E+04  0.50400001928E-02 0.  1.
</event>
<event>
 5   0  0.1057036E-05  0.3153396E+04  0.7818609E-02  0.8201235E-01
       -2   -1    0    0    0  501  0.00000000000E+00  0.00000000000E+00  0.26882481393E+04  0.26882481393E+04  0.25500000920E-02 0. -1.
        2   -1    0    0  501    0  0.00000000000E+00  0.00000000000E+00 -0.92475697815E+03  0.92475697816E+03  0.25500000920E-02 0.  1.
    10030    2    1    2    0    0  0.00000000000E+00  0.00000000000E+00  0.17634911612E+04  0.36130051175E+04  0.31533957734E+04 0.  0.
        4    1    3    3  502    0 -0.40588015213E+03  0.10619949266E+04  0.21333975929E+04  0.24174281425E+04  0.12699999809E+01 0. -1.
       -4    1    3    3    0  502  0.40588015213E+03 -0.10619949266E+04 -0.36990643174E+03  0.11955769750E+04  0.12699999809E+01 0.  1.
</event>
<event>
 5   0  0.1057036E-05  0.2868915E+04  0.7818609E-02  0.8282187E-01
        2   -1    0    0  501    0  0.00000000000E+00  0.00000000000E+00  0.18365648513E+04  0.18365648513E+04  0.25500000920E-02 0. -1.
       -2   -1    0    0    0  501  0.00000000000E+00  0.00000000000E+00 -0.11203896317E+04  0.11203896317E+04  0.25500000920E-02 0.  1.
    10030    2    1    2    0    0  0.00000000000E+00  0.00000000000E+00  0.71617521967E+03  0.29569544830E+04  0.28689149289E+04 0.  0.
        4    1    3    3  502    0  0.90569517846E+03 -0.45000303704E+03  0.14065961931E+04  0.17324263196E+04  0.12699999809E+01 0. -1.
       -4    1    3    3    0  502 -0.90569517846E+03  0.45000303704E+03 -0.69042097339E+03  0.12245281634E+04  0.12699999809E+01 0.  1.
</event>
<event>
 5   0  0.9647945E-06  0.2977918E+04  0.7818609E-02  0.8250065E-01
        2   -1    0    0  501    0  0.00000000000E+00  0.00000000000E+00  0.13399055361E+04  0.13399055361E+04  0.25500000920E-02 0.  1.
       -2   -1    0    0    0  501  0.00000000000E+00  0.00000000000E+00 -0.16545937713E+04  0.16545937713E+04  0.25500000920E-02 0. -1.
    10030    2    1    2    0    0  0.00000000000E+00  0.00000000000E+00 -0.31468823523E+03  0.29944993075E+04  0.29779183026E+04 0.  0.
        2    1    3    3  502    0  0.30608025945E+03  0.11164816283E+04  0.78423647618E+03  0.13983001116E+04  0.25500000920E-02 0.  1.
       -2    1    3    3    0  502 -0.30608025945E+03 -0.11164816283E+04 -0.10989247114E+04  0.15961991959E+04  0.25500000920E-02 0. -1.
</event>
<event>
 5   0  0.3725232E-06  0.3011404E+04  0.7818609E-02  0.8240482E-01
       -1   -1    0    0    0  501  0.00000000000E+00  0.00000000000E+00  0.20924255996E+04  0.20924255996E+04  0.50400001928E-02 0.  1.
        1   -1    0    0  501    0  0.00000000000E+00  0.00000000000E+00 -0.10834981251E+04  0.10834981251E+04  0.50400001928E-02 0. -1.
    10030    2    1    2    0    0  0.00000000000E+00  0.00000000000E+00  0.10089274745E+04  0.31759237247E+04  0.30114044657E+04 0.  0.
        2    1    3    3  502    0 -0.12238853459E+04  0.19001826738E+03 -0.39854826435E+03  0.13010930024E+04  0.25500000920E-02 0. -1.
       -2    1    3    3    0  502  0.12238853459E+04 -0.19001826738E+03  0.14074757389E+04  0.18748307223E+04  0.25500000920E-02 0.  1.
</event>
<event>
 5   0  0.3592331E-06  0.3031044E+04  0.7818609E-02  0.8234921E-01
        1   -1    0    0  501    0  0.00000000000E+00  0.00000000000E+00  0.14763842587E+04  0.14763842587E+04  0.50400001928E-02 0.  1.
       -1   -1    0    0    0  501  0.00000000000E+00  0.00000000000E+00 -0.15556973778E+04  0.15556973778E+04  0.50400001928E-02 0. -1.
    10030    2    1    2    0    0  0.00000000000E+00  0.00000000000E+00 -0.79313119030E+02  0.30320816365E+04  0.30310441237E+04 0.  0.
        3    1    3    3  502    0 -0.14947495407E+04  0.16649057236E+03  0.14698653740E+03  0.15111586126E+04  0.10100000352E+00 0.  1.
       -3    1    3    3    0  502  0.14947495407E+04 -0.16649057236E+03 -0.22629965643E+03  0.15209230239E+04  0.10100000352E+00 0. -1.
</event>
<event>
 5   0  0.1089569E-05  0.2934613E+04  0.7818609E-02  0.8262653E-01
       -2   -1    0    0    0  501  0.00000000000E+00  0.00000000000E+00  0.12143280194E+04  0.12143280194E+04  0.25500000920E-02 0. -1.
        2   -1    0    0  501    0  0.00000000000E+00  0.00000000000E+00 -0.17729878549E+04  0.17729878549E+04  0.25500000920E-02 0.  1.
    10030    2    1    2    0    0  0.00000000000E+00  0.00000000000E+00 -0.55865983548E+03  0.29873158743E+04  0.29346133172E+04 0.  0.
        5    1    3    3  502    0  0.12917788263E+04  0.13740293833E+03 -0.97377986575E+03  0.16235274622E+04  0.46999998093E+01 0.  1.
       -5    1    3    3    0  502 -0.12917788263E+04 -0.13740293833E+03  0.41512003027E+03  0.13637884121E+04  0.46999998093E+01 0. -1.
</event>
<event>
 5   0  0.1029922E-05  0.3083022E+04  0.7818609E-02  0.8220413E-01
       -2   -1    0    0    0  501  0.00000000000E+00  0.00000000000E+00  0.10371743617E+04  0.10371743617E+04  0.25500000920E-02 0. -1.
        2   -1    0    0  501    0  0.00000000000E+00  0.00000000000E+00 -0.22910872218E+04  0.22910872218E+04  0.25500000920E-02 0.  1.
    10030    2    1    2    0    0  0.00000000000E+00  0.00000000000E+00 -0.12539128601E+04  0.33282615835E+04  0.30830224954E+04 0.  0.
        1    1    3    3  502    0  0.84160500674E+03  0.91383365865E+03 -0.16121653177E+04  0.20353053713E+04  0.50400001928E-02 0.  1.
       -1    1    3    3    0  502 -0.84160500674E+03 -0.91383365865E+03  0.35825245762E+03  0.12929562121E+04  0.50400001928E-02 0. -1.
</event>
<event>
 5   0  0.3636718E-06  0.2891396E+04  0.7818609E-02  0.8275442E-01
        1   -1    0    0  501    0  0.00000000000E+00  0.00000000000E+00  0.14460028709E+04  0.14460028709E+04  0.50400001928E-02 0. -1.
       -1   -1    0    0    0  501  0.00000000000E+00  0.00000000000E+00 -0.14453935590E+04  0.14453935590E+04  0.50400001928E-02 0.  1.
    10030    2    1    2    0    0  0.00000000000E+00  0.00000000000E+00  0.60931193008E+00  0.28913964299E+04  0.28913963657E+04 0.  0.
        4    1    3    3  502    0  0.54882832551E+03 -0.10064444990E+04  0.88115572008E+03  0.14458838391E+04  0.12699999809E+01 0. -1.
       -4    1    3    3    0  502 -0.54882832551E+03  0.10064444990E+04 -0.88054640815E+03  0.14455125908E+04  0.12699999809E+01 0.  1.
</event>
<event>
 5   0  0.3636718E-06  0.2877356E+04  0.7818609E-02  0.8279647E-01
       -1   -1    0    0    0  501  0.00000000000E+00  0.00000000000E+00  0.15260137505E+04  0.15260137505E+04  0.50400001928E-02 0. -1.
        1   -1    0    0  501    0  0.00000000000E+00  0.00000000000E+00 -0.13563404758E+04  0.13563404758E+04  0.50400001928E-02 0.  1.
    10030    2    1    2    0    0  0.00000000000E+00  0.00000000000E+00  0.16967327470E+03  0.28823542264E+04  0.28773558811E+04 0.  0.
        4    1    3    3  502    0 -0.81969058913E+03 -0.32888639794E+03  0.12224738575E+04  0.15081455069E+04  0.12699999809E+01 0. -1.
       -4    1    3    3    0  502  0.81969058913E+03  0.32888639794E+03 -0.10528005828E+04  0.13742087195E+04  0.12699999809E+01 0.  1.
</event>
<event>
 5   0  0.3896630E-06  0.3017351E+04  0.7818609E-02  0.8238793E-01
       -1   -1    0    0    0  501  0.00000000000E+00  0.00000000000E+00  0.12436869703E+04  0.12436869703E+04  0.50400001928E-02 0.  1.
        1   -1    0    0  501    0  0.00000000000E+00  0.00000000000E+00 -0.18301246059E+04  0.18301246059E+04  0.50400001928E-02 0. -1.
    10030    2    1    2    0    0  0.00000000000E+00  0.00000000000E+00 -0.58643763563E+03  0.30738115762E+04  0.30173512400E+04 0.  0.
        5    1    3    3  502    0 -0.14936271275E+04 -0.15000488493E+03 -0.13988127394E+03  0.15076512601E+04  0.46999998093E+01 0.  1.
       -5    1    3    3    0  502  0.14936271275E+04  0.15000488493E+03 -0.44655636168E+03  0.15661603160E+04  0.46999998093E+01 0. -1.
</event>
<event>
 5   0  0.1057036E-05  0.2883261E+04  0.7818609E-02  0.8277875E-01
        2   -1    0    0  501    0  0.00000000000E+00  0.00000000000E+00  0.11825858910E+04  0.11825858910E+04  0.25500000920E-02 0. -1.
       -2   -1    0    0    0  501  0.00000000000E+00  0.00000000000E+00 -0.17574185514E+04  0.17574185514E+04  0.25500000920E-02 0.  1.
    10030    2    1    2    0    0  0.00000000000E+00  0.00000000000E+00 -0.57483266036E+03  0.29400044424E+04  0.28832609202E+04 0.  0.
        4    1    3    3  502    0 -0.95281301302E+03 -0.10571691229E+04 -0.53028265016E+02  0.14241744282E+04  0.12699999809E+01 0. -1.
       -4    1    3    3    0  502  0.95281301302E+03  0.10571691229E+04 -0.52180439534E+03  0.15158300142E+04  0.12699999809E+01 0.  1.
</event>
<event>
 5   0  0.3313750E-06  0.2987878E+04  0.7818609E-02  0.8247201E-01
        3   -1    0    0  501    0  0.00000000000E+00  0.00000000000E+00  0.20297952256E+04  0.20297952281E+04  0.10100000352E+00 0. -1.
       -3   -1    0    0    0  501  0.00000000000E+00  0.00000000000E+00 -0.10995465982E+04  0.10995466028E+04  0.10100000352E+00 0.  1.
    10030    2    1    2    0    0  0.00000000000E+00  0.00000000000E+00  0.93024862746E+03  0.31293418310E+04  0.29878784758E+04 0.  0.
        2    1    3    3  502    0 -0.17588450234E+02  0.12406520756E+04 -0.40633250719E+03  0.13056159591E+04  0.25500000920E-02 0.  1.
       -2    1    3    3    0  502  0.17588450234E+02 -0.12406520756E+04  0.13365811347E+04  0.18237258719E+04  0.25500000920E-02 0. -1.
</event>
<event>
 5   0  0.1028450E-05  0.3004018E+04  0.7818609E-02  0.8242584E-01
        2   -1    0    0  501    0  0.00000000000E+00  0.00000000000E+00  0.15715946293E+04  0.15715946293E+04  0.25500000920E-02 0.  1.
       -2   -1    0    0    0  501  0.00000000000E+00  0.00000000000E+00 -0.14355042887E+04  0.14355042888E+04  0.25500000920E-02 0. -1.
    10030    2    1    2    0    0  0.00000000000E+00  0.00000000000E+00  0.13609034057E+03  0.30070989181E+04  0.30040178632E+04 0.  0.
        3    1    3    3  502    0 -0.90337781014E+03  0.58014362991E+03 -0.98344768208E+03  0.14559627237E+04  0.10100000352E+00 0. -1.
       -3    1    3    3    0  502  0.90337781014E+03 -0.58014362991E+03  0.11195380227E+04  0.15511361944E+04  0.10100000352E+00 0.  1.
</event>
<event>
 5   0  0.1028450E-05  0.3075760E+04  0.7818609E-02  0.8222422E-01
       -2   -1    0    0    0  501  0.00000000000E+00  0.00000000000E+00  0.16409571180E+04  0.16409571180E+04  0.25500000920E-02 0.  1.
        2   -1    0    0  501    0  0.00000000000E+00  0.00000000000E+00 -0.14412776805E+04  0.14412776805E+04  0.25500000920E-02 0. -1.
    10030    2    1    2    0    0  0.00000000000E+00  0.00000000000E+00  0.19967943742E+03  0.30822347985E+04  0.30757599834E+04 0.  0.
        3    1    3    3  502    0 -0.43466331050E+03  0.10558328138E+04 -0.93255216290E+03  0.14742349443E+04  0.10100000352E+00 0. -1.
       -3    1    3    3    0  502  0.43466331050E+03 -0.10558328138E+04  0.11322316003E+04  0.16079998542E+04  0.10100000352E+00 0.  1.
</event>
<event>
 5   0  0.3896630E-06  0.2862446E+04  0.7818609E-02  0.8284139E-01
       -1   -1    0    0    0  501  0.00000000000E+00  0.00000000000E+00  0.12465188347E+04  0.12465188347E+04  0.50400001928E-02 0. -1.
        1   -1    0    0  501    0  0.00000000000E+00  0.00000000000E+00 -0.16432962539E+04  0.16432962539E+04  0.50400001928E-02 0.  1.
    10030    2    1    2    0    0  0.00000000000E+00  0.00000000000E+00 -0.39677741920E+03  0.28898150886E+04  0.28624463184E+04 0.  0.
        5    1    3    3  502    0  0.13553875802E+04 -0.26299924561E+03 -0.57899941408E+03  0.14971661589E+04  0.46999998093E+01 0.  1.
       -5    1    3    3    0  502 -0.13553875802E+04  0.26299924561E+03  0.18222199488E+03  0.13926489297E+04  0.46999998093E+01 0. -1.
</event>
<event>
 5   0  0.1028450E-05  0.3080921E+04  0.7818609E-02  0.8220994E-01
        2   -1    0    0  501    0  0.00000000000E+00  0.00000000000E+00  0.15798916279E+04  0.15798916279E+04  0.25500000920E-02 0. -1.
       -2   -1    0    0    0  501  0.00000000000E+00  0.00000000000E+00 -0.15020135808E+04  0.15020135808E+04  0.25500000920E-02 0.  1.
    10030    2    1    2    0    0  0.00000000000E+00  0.00000000000E+00  0.77878047061E+02  0.30819052087E+04  0.30809210839E+04 0.  0.
        3    1    3    3  502    0  0.11961462081E+04 -0.92754276469E+03  0.32524250060E+03  0.15481873355E+04  0.10100000352E+00 0.  1.
       -3    1    3    3    0  502 -0.11961462081E+04  0.92754276469E+03 -0.24736445354E+03  0.15337178732E+04  0.10100000352E+00 0. -1.
</event>
<event>
 5   0  0.9647945E-06  0.2234814E+04  0.7818609E-02  0.8504076E-01
        2   -1    0    0  501    0  0.00000000000E+00  0.00000000000E+00  0.12768607825E+04  0.12768607825E+04  0.25500000920E-02 0. -1.
       -2   -1    0    0    0  501  0.00000000000E+00  0.00000000000E+00 -0.97786569126E+03  0.97786569126E+03  0.25500000920E-02 0.  1.
    10030    2    1    2    0    0  0.00000000000E+00  0.00000000000E+00  0.29899509123E+03  0.22547264738E+04  0.22348139535E+04 0.  0.
        2    1    3    3  502    0  0.56582524342E+03  0.54255853355E+03 -0.65388283932E+03  0.10208284557E+04  0.25500000920E-02 0.  1.
       -2    1    3    3    0  502 -0.56582524342E+03 -0.54255853355E+03  0.95287793055E+03  0.12338980180E+04  0.25500000920E-02 0. -1.
</event>
<event>
 5   0  0.1029922E-05  0.3022345E+04  0.7818609E-02  0.8237379E-01
        2   -1    0    0  501    0  0.00000000000E+00  0.00000000000E+00  0.18122867198E+04  0.18122867198E+04  0.25500000920E-02 0.  1.
       -2   -1    0    0    0  501  0.00000000000E+00  0.00000000000E+00 -0.12600892861E+04  0.12600892861E+04  0.25500000920E-02 0. -1.
    10030    2    1    2    0    0  0.00000000000E+00  0.00000000000E+00  0.55219743372E+03  0.30723760059E+04  0.30223454991E+04 0.  0.
        1    1    3    3  502    0 -0.62042638173E+03  0.21552520226E+03  0.16596064459E+04  0.17848455293E+04  0.50400001928E-02 0.  1.
       -1    1    3    3    0  502  0.62042638173E+03 -0.21552520226E+03 -0.11074090122E+04  0.12875304766E+04  0.50400001928E-02 0. -1.
</event>
<event>
 5   0  0.3592331E-06  0.2701134E+04  0.7818609E-02  0.8334637E-01
        1   -1    0    0  501    0  0.00000000000E+00  0.00000000000E+00  0.14041667785E+04  0.14041667785E+04  0.50400001928E-02 0. -1.
       -1   -1    0    0    0  501  0.00000000000E+00  0.00000000000E+00 -0.12990128417E+04  0.12990128417E+04  0.50400001928E-02 0.  1.
    10030    2    1    2    0    0  0.00000000000E+00  0.00000000000E+00  0.10515393677E+03  0.27031796203E+04  0.27011335970E+04 0.  0.
        3    1    3    3  502    0 -0.38803099963E+03  0.10083699191E+04  0.86353188741E+03  0.13831360313E+04  0.10100000352E+00 0. -1.
       -3    1    3    3    0  502  0.38803099963E+03 -0.10083699191E+04 -0.75837795064E+03  0.13200435889E+04  0.10100000352E+00 0.  1.
</event>
<event>
 5   0  0.1057036E-05  0.3072148E+04  0.7818609E-02  0.8223424E-01
       -2   -1    0    0    0  501  0.00000000000E+00  0.00000000000E+00  0.11686065577E+04  0.11686065577E+04  0.25500000920E-02 0.  1.
        2   -1    0    0  501    0  0.00000000000E+00  0.00000000000E+00 -0.20190908733E+04  0.20190908733E+04  0.25500000920E-02 0. -1.
    10030    2    1    2    0    0  0.00000000000E+00  0.00000000000E+00 -0.85048431564E+03  0.31876974310E+04  0.30721476755E+04 0.  0.
        4    1    3    3  502    0 -0.48439343790E+03 -0.41964305956E+03  0.10232523350E+04  0.12073873671E+04  0.12699999809E+01 0.  1.
       -4    1    3    3    0  502  0.48439343790E+03  0.41964305956E+03 -0.18737366507E+04  0.19803100639E+04  0.12699999809E+01 0. -1.
</event>
<event>
 5   0  0.1057036E-05  0.2920815E+04  0.7818609E-02  0.8266711E-01
       -2   -1    0    0    0  501  0.00000000000E+00  0.00000000000E+00  0.87934532069E+03  0.87934532069E+03  0.25500000920E-02 0.  1.
        2   -1    0    0  501    0  0.00000000000E+00  0.00000000000E+00 -0.24254298009E+04  0.24254298009E+04  0.25500000920E-02 0. -1.
    10030    2    1    2    0    0  0.00000000000E+00  0.00000000000E+00 -0.15460844803E+04  0.33047751216E+04  0.29208151918E+04 0.  0.
        4    1    3    3  502    0 -0.71095665952E+03 -0.10156169685E+04  0.10034504468E+03  0.12437877389E+04  0.12699999809E+01 0.  1.
       -4    1    3    3    0  502  0.71095665952E+03  0.10156169685E+04 -0.16464295249E+04  0.20609873828E+04  0.12699999809E+01 0. -1.
</event>
<event>
 5   0  0.1089569E-05  0.3001675E+04  0.7818609E-02  0.8243253E-01
        2   -1    0    0  501    0  0.00000000000E+00  0.00000000000E+00  0.29471830715E+04  0.29471830715E+04  0.25500000920E-02 0. -1.
       -2   -1    0    0    0  501  0.00000000000E+00  0.00000000000E+00 -0.76429363342E+03  0.76429363342E+03  0.25500000920E-02 0.  1.
    10030    2    1    2    0    0  0.00000000000E+00  0.00000000000E+00  0.21828894381E+04  0.37114767049E+04  0.30016750378E+04 0.  0.
        5    1    3    3  502    0  0.74871322819E+03 -0.55795966497E+03 -0.36139300224E+03  0.10012579477E+04  0.46999998093E+01 0.  1.
       -5    1    3    3    0  502 -0.74871322819E+03  0.55795966497E+03  0.25442824403E+04  0.27102187572E+04  0.46999998093E+01 0. -1.
</event>
<event>
 5   0  0.3636718E-06  0.3028731E+04  0.7818609E-02  0.8235574E-01
       -1   -1    0    0    0  501  0.00000000000E+00  0.00000000000E+00  0.11339762860E+04  0.11339762860E+04  0.50400001928E-02 0. -1.
        1   -1    0    0  501    0  0.00000000000E+00  0.00000000000E+00 -0.20223551481E+04  0.20223551481E+04  0.50400001928E-02 0.  1.
    10030    2    1    2    0    0  0.00000000000E+00  0.00000000000E+00 -0.88837886211E+03  0.31563314342E+04  0.30287309421E+04 0.  0.
        4    1    3    3  502    0  0.10048460430E+04 -0.33001802900E+03 -0.15736745887E+04  0.18960698282E+04  0.12699999809E+01 0.  1.
       -4    1    3    3    0  502 -0.10048460430E+04  0.33001802900E+03  0.68529572655E+03  0.12602616059E+04  0.12699999809E+01 0. -1.
</event>
<event>
 5   0  0.3725232E-06  0.2554727E+04  0.7818609E-02  0.8383744E-01
        1   -1    0    0  501    0  0.00000000000E+00  0.00000000000E+00  0.18759239305E+04  0.18759239305E+04  0.50400001928E-02 0.  1.
       -1   -1    0    0    0  501  0.00000000000E+00  0.00000000000E+00 -0.86978902879E+03  0.86978902880E+03  0.50400001928E-02 0. -1.
    10030    2    1    2    0    0  0.00000000000E+00  0.00000000000E+00  0.10061349017E+04  0.27457129593E+04  0.25547274247E+04 0.  0.
        2    1    3    3  502    0  0.11323947061E+04 -0.58662988158E+03  0.58061153773E+03  0.14012716175E+04  0.25500000920E-02 0.  1.
       -2    1    3    3    0  502 -0.11323947061E+04  0.58662988158E+03  0.42552336397E+03  0.13444413418E+04  0.25500000920E-02 0. -1.
</event>
<event>
 5   0  0.1028450E-05  0.3003730E+04  0.7818609E-02  0.8242667E-01
        2   -1    0    0  501    0  0.00000000000E+00  0.00000000000E+00  0.16806795528E+04  0.16806795528E+04  0.25500000920E-02 0. -1.
       -2   -1    0    0    0  501  0.00000000000E+00  0.00000000000E+00 -0.13420754062E+04  0.13420754062E+04  0.25500000920E-02 0.  1.
    10030    2    1    2    0    0  0.00000000000E+00  0.00000000000E+00  0.33860414654E+03  0.30227549590E+04  0.30037301434E+04 0.  0.
        3    1    3    3  502    0  0.11130162095E+04  0.31677060937E+03 -0.79407523575E+03  0.14034615035E+04  0.10100000352E+00 0.  1.
       -3    1    3    3    0  502 -0.11130162095E+04 -0.31677060937E+03  0.11326793823E+04  0.16192934555E+04  0.10100000352E+00 0. -1.
</event>
<event>
 5   0  0.1029922E-05  0.1876765E+04  0.7818609E-02  0.8666509E-01
       -2   -1    0    0    0  501  0.00000000000E+00  0.00000000000E+00  0.30312650319E+03  0.30312650320E+03  0.25500000920E-02 0. -1.
        2   -1    0    0  501    0  0.00000000000E+00  0.00000000000E+00 -0.29049325876E+04  0.29049325876E+04  0.25500000920E-02 0.  1.
    10030    2    1    2    0    0  0.00000000000E+00  0.00000000000E+00 -0.26018060844E+04  0.32080590908E+04  0.18767653634E+04 0.  0.
        1    1    3    3  502    0 -0.50907489881E+03  0.78776650221E+03 -0.13501117800E+04  0.16439389080E+04  0.50400001928E-02 0. -1.
       -1    1    3    3    0  502  0.50907489881E+03 -0.78776650221E+03 -0.12516943043E+04  0.15641201828E+04  0.50400001928E-02 0.  1.
</event>
<event>
 5   0  0.1057036E-05  0.3227031E+04  0.7818609E-02  0.8181715E-01
       -2   -1    0    0    0  501  0.00000000000E+00  0.00000000000E+00  0.96966680172E+03  0.96966680172E+03  0.25500000920E-02 0. -1.
        2   -1    0    0  501    0  0.00000000000E+00  0.00000000000E+00 -0.26848730470E+04  0.26848730470E+04  0.25500000920E-02 0.  1.
    10030    2    1    2    0    0  0.00000000000E+00  0.00000000000E+00 -0.17152062453E+04  0.36545398487E+04  0.32270309949E+04 0.  0.
        4    1    3    3  502    0 -0.99836203331E+03 -0.87340278589E+03  0.18271872133E+03  0.13390096788E+04  0.12699999809E+01 0. -1.
       -4    1    3    3    0  502  0.99836203331E+03  0.87340278589E+03 -0.18979249666E+04  0.23155301699E+04  0.12699999809E+01 0.  1.
</event>
<event>
 5   0  0.3592331E-06  0.2972574E+04  0.7818609E-02  0.8251606E-01
       -1   -1    0    0    0  501  0.00000000000E+00  0.00000000000E+00  0.14338185471E+04  0.14338185471E+04  0.50400001928E-02 0.  1.
        1   -1    0    0  501    0  0.00000000000E+00  0.00000000000E+00 -0.15406755512E+04  0.15406755512E+04  0.50400001928E-02 0. -1.
    10030    2    1    2    0    0  0.00000000000E+00  0.00000000000E+00 -0.10685700409E+03  0.29744940984E+04  0.29725740903E+04 0.  0.
        3    1    3    3  502    0 -0.42069056817E+03 -0.14144654049E+04  0.12376279013E+03  0.14808815531E+04  0.10100000352E+00 0.  1.
       -3    1    3    3    0  502  0.42069056817E+03  0.14144654049E+04 -0.23061979422E+03  0.14936125453E+04  0.10100000352E+00 0. -1.
</event>
<event>
 5   0  0.3852126E-06  0.3037310E+04  0.7818609E-02  0.8233156E-01
        1   -1    0    0  501    0  0.00000000000E+00  0.00000000000E+00  0.23180037990E+04  0.23180037990E+04  0.50400001928E-02 0. -1.
       -1   -1    0    0    0  501  0.00000000000E+00  0.00000000000E+00 -0.99495666286E+03  0.99495666287E+03  0.50400001928E-02 0.  1.
    10030    2    1    2    0    0  0.00000000000E+00  0.00000000000E+00  0.13230471362E+04  0.33129604619E+04  0.30373102077E+04 0.  0.
        1    1    3    3  502    0  0.45610652439E+02  0.11460633529E+03  0.23125307877E+04  0.23158181249E+04  0.50400001928E-02 0. -1.
       -1    1    3    3    0  502 -0.45610652439E+02 -0.11460633529E+03 -0.98948365148E+03  0.99714233702E+03  0.50400001928E-02 0.  1.
</event>
<event>
 5   0  0.3636718E-06  0.3012454E+04  0.7818609E-02  0.8240183E-01
        1   -1    0    0  501    0  0.00000000000E+00  0.00000000000E+00  0.14427987903E+04  0.14427987903E+04  0.50400001928E-02 0.  1.
       -1   -1    0    0    0  501  0.00000000000E+00  0.00000000000E+00 -0.15724438117E+04  0.15724438118E+04  0.50400001928E-02 0. -1.
    10030    2    1    2    0    0  0.00000000000E+00  0.00000000000E+00 -0.12964502145E+03  0.30152426021E+04  0.30124541686E+04 0.  0.
        4    1    3    3  502    0 -0.14335647817E+04  0.41103899808E+03 -0.27634103536E+03  0.15167158673E+04  0.12699999809E+01 0.  1.
       -4    1    3    3    0  502  0.14335647817E+04 -0.41103899808E+03  0.14669601391E+03  0.14985267348E+04  0.12699999809E+01 0. -1.
</event>
<event>
 5   0  0.1029922E-05  0.2879265E+04  0.7818609E-02  0.8279074E-01
       -2   -1    0    0    0  501  0.00000000000E+00  0.00000000000E+00  0.18172530598E+04  0.18172530598E+04  0.25500000920E-02 0.  1.
        2   -1    0    0  501    0  0.00000000000E+00  0.00000000000E+00 -0.11404803571E+04  0.11404803571E+04  0.25500000920E-02 0. -1.
    10030    2    1    2    0    0  0.00000000000E+00  0.00000000000E+00  0.67677270271E+03  0.29577334169E+04  0.28792647802E+04 0.  0.
        1    1    3    3  502    0  0.43460487385E+03 -0.13132367603E+04  0.74809064700E+03  0.15726130488E+04  0.50400001928E-02 0. -1.
       -1    1    3    3    0  502 -0.43460487385E+03  0.13132367603E+04 -0.71317944284E+02  0.13851203681E+04  0.50400001928E-02 0.  1.
</event>
<event>
 5   0  0.1057036E-05  0.2931720E+04  0.7818609E-02  0.8263502E-01
       -2   -1    0    0    0  501  0.00000000000E+00  0.00000000000E+00  0.15563641346E+04  0.15563641346E+04  0.25500000920E-02 0.  1.
        2   -1    0    0  501    0  0.00000000000E+00  0.00000000000E+00 -0.13806191646E+04  0.13806191646E+04  0.25500000920E-02 0. -1.
    10030    2    1    2    0    0  0.00000000000E+00  0.00000000000E+00  0.17574496994E+03  0.29369832992E+04  0.29317204173E+04 0.  0.
        4    1    3    3  502    0  0.32797856997E+03  0.58715842822E+03 -0.12169323674E+04  0.13904139535E+04  0.12699999809E+01 0. -1.
       -4    1    3    3    0  502 -0.32797856997E+03 -0.58715842822E+03  0.13926773374E+04  0.15465693457E+04  0.12699999809E+01 0.  1.
</event>
<event>
 5   0  0.3896630E-06  0.2760746E+04  0.7818609E-02  0.8315560E-01
       -1   -1    0    0    0  501  0.00000000000E+00  0.00000000000E+00  0.10387056551E+04  0.10387056551E+04  0.50400001928E-02 0.  1.
        1   -1    0    0  501    0  0.00000000000E+00  0.00000000000E+00 -0.18344269808E+04  0.18344269808E+04  0.50400001928E-02 0. -1.
    10030    2    1    2    0    0  0.00000000000E+00  0.00000000000E+00 -0.79572132565E+03  0.28731326359E+04  0.27607460433E+04 0.  0.
        5    1    3    3  502    0  0.53239118951E+03 -0.12326710948E+04 -0.73103245934E+03  0.15288390868E+04  0.46999998093E+01 0. -1.
       -5    1    3    3    0  502 -0.53239118951E+03  0.12326710948E+04 -0.64688866308E+02  0.13442935491E+04  0.46999998093E+01 0.  1.
</event>
<event>
 5   0  0.1029922E-05  0.2953035E+04  0.7818609E-02  0.8257271E-01
       -2   -1    0    0    0  501  0.00000000000E+00  0.00000000000E+00  0.12006222439E+04  0.12006222439E+04  0.25500000920E-02 0. -1.
        2   -1    0    0  501    0  0.00000000000E+00  0.00000000000E+00 -0.18158117234E+04  0.18158117234E+04  0.25500000920E-02 0.  1.
    10030    2    1    2    0    0  0.00000000000E+00  0.00000000000E+00 -0.61518947952E+03  0.30164339673E+04  0.29530350122E+04 0.  0.
        1    1    3    3  502    0 -0.30052374425E+03  0.14315634058E+04 -0.51294722199E+03  0.15500977899E+04  0.50400001928E-02 0. -1.
       -1    1    3    3    0  502  0.30052374425E+03 -0.14315634058E+04 -0.10224225753E+03  0.14663361774E+04  0.50400001928E-02 0.  1.
</event>
<event>
 5   0  0.3592331E-06  0.2934715E+04  0.7818609E-02  0.8262623E-01
        1   -1    0    0  501    0  0.00000000000E+00  0.00000000000E+00  0.20536971104E+04  0.20536971104E+04  0.50400001928E-02 0. -1.
       -1   -1    0    0    0  501  0.00000000000E+00  0.00000000000E+00 -0.10484202831E+04  0.10484202831E+04  0.50400001928E-02 0.  1.
    10030    2    1    2    0    0  0.00000000000E+00  0.00000000000E+00  0.10052768274E+04  0.31021173935E+04  0.29347147772E+04 0.  0.
        3    1    3    3  502    0  0.67555129261E+03 -0.37689724431E+03 -0.81536929307E+03  0.11239431374E+04  0.10100000352E+00 0.  1.
       -3    1    3    3    0  502 -0.67555129261E+03  0.37689724431E+03  0.18206461204E+04  0.19781742562E+04  0.10100000352E+00 0. -1.
</event>
<event>
 5   0  0.3313750E-06  0.2930100E+04  0.7818609E-02  0.8263978E-01
        3   -1    0    0  501    0  0.00000000000E+00  0.00000000000E+00  0.22289124824E+04  0.22289124846E+04  0.10100000352E+00 0. -1.
       -3   -1    0    0    0  501  0.00000000000E+00  0.00000000000E+00 -0.96296792065E+03  0.96296792594E+03  0.10100000352E+00 0.  1.
    10030    2    1    2    0    0  0.00000000000E+00  0.00000000000E+00  0.12659445617E+04  0.31918804106E+04  0.29300998144E+04 0.  0.
        3    1    3    3  502    0  0.92091633030E+03 -0.44352448058E+02  0.18732525563E+04  0.20878527671E+04  0.10100000352E+00 0. -1.
       -3    1    3    3    0  502 -0.92091633030E+03  0.44352448058E+02 -0.60730799462E+03  0.11040276435E+04  0.10100000352E+00 0.  1.
</event>
<event>
 5   0  0.3896630E-06  0.2973525E+04  0.7818609E-02  0.8251332E-01
        1   -1    0    0  501    0  0.00000000000E+00  0.00000000000E+00  0.20324769414E+04  0.20324769414E+04  0.50400001928E-02 0. -1.
       -1   -1    0    0    0  501  0.00000000000E+00  0.00000000000E+00 -0.10875710987E+04  0.10875710987E+04  0.50400001928E-02 0.  1.
    10030    2    1    2    0    0  0.00000000000E+00  0.00000000000E+00  0.94490584264E+03  0.31200480401E+04  0.29735253019E+04 0.  0.
        5    1    3    3  502    0 -0.47741295899E+03 -0.46881977731E+03  0.18655521270E+04  0.19819237991E+04  0.46999998093E+01 0. -1.
       -5    1    3    3    0  502  0.47741295899E+03  0.46881977731E+03 -0.92064628435E+03  0.11381242410E+04  0.46999998093E+01 0.  1.
</event>
<event>
 5   0  0.3725232E-06  0.2294777E+04  0.7818609E-02  0.8479983E-01
       -1   -1    0    0    0  501  0.00000000000E+00  0.00000000000E+00  0.62727804083E+03  0.62727804085E+03  0.50400001928E-02 0.  1.
        1   -1    0    0  501    0  0.00000000000E+00  0.00000000000E+00 -0.20987507686E+04  0.20987507686E+04  0.50400001928E-02 0. -1.
    10030    2    1    2    0    0  0.00000000000E+00  0.00000000000E+00 -0.14714727277E+04  0.27260288094E+04  0.22947769132E+04 0.  0.
        2    1    3    3  502    0 -0.31518673806E+03 -0.56036731957E+03 -0.18646714341E+04  0.19723979745E+04  0.25500000920E-02 0. -1.
       -2    1    3    3    0  502  0.31518673806E+03  0.56036731957E+03  0.39319870635E+03  0.75363083494E+03  0.25500000920E-02 0.  1.
</event>
<event>
 5   0  0.1089569E-05  0.2530940E+04  0.7818609E-02  0.8392045E-01
        2   -1    0    0  501    0  0.00000000000E+00  0.00000000000E+00  0.16160083058E+04  0.16160083058E+04  0.25500000920E-02 0.  1.
       -2   -1    0    0    0  501  0.00000000000E+00  0.00000000000E+00 -0.99096897010E+03  0.99096897010E+03  0.25500000920E-02 0. -1.
    10030    2    1    2    0    0  0.00000000000E+00  0.00000000000E+00  0.62503933571E+03  0.26069772759E+04  0.25309398148E+04 0.  0.
        5    1    3    3  502    0 -0.46051478962E+02  0.48604839008E+03 -0.89004337103E+03  0.10151665226E+04  0.46999998093E+01 0. -1.
       -5    1    3    3    0  502  0.46051478962E+02 -0.48604839008E+03  0.15150827067E+04  0.15918107533E+04  0.46999998093E+01 0.  1.
</event>
<event>
 5   0  0.9647945E-06  0.2915572E+04  0.7818609E-02  0.8268259E-01
        2   -1    0    0  501    0  0.00000000000E+00  0.00000000000E+00  0.18610948422E+04  0.18610948422E+04  0.25500000920E-02 0.  1.
       -2   -1    0    0    0  501  0.00000000000E+00  0.00000000000E+00 -0.11418763566E+04  0.11418763566E+04  0.25500000920E-02 0. -1.
    10030    2    1    2    0    0  0.00000000000E+00  0.00000000000E+00  0.71921848560E+03  0.30029711987E+04  0.29155721206E+04 0.  0.
        2    1    3    3  502    0  0.77421469611E+03 -0.62715638227E+03  0.14556547554E+04  0.17639910120E+04  0.25500000920E-02 0.  1.
       -2    1    3    3    0  502 -0.77421469611E+03  0.62715638227E+03 -0.73643626985E+03  0.12389801867E+04  0.25500000920E-02 0. -1.
</event>
<event>
 5   0  0.3852126E-06  0.2974044E+04  0.7818609E-02  0.8251182E-01
       -1   -1    0    0    0  501  0.00000000000E+00  0.00000000000E+00  0.96460996239E+03  0.96460996240E+03  0.50400001928E-02 0. -1.
        1   -1    0    0  501    0  0.00000000000E+00  0.00000000000E+00 -0.22923611259E+04  0.22923611259E+04  0.50400001928E-02 0.  1.
    10030    2    1    2    0    0  0.00000000000E+00  0.00000000000E+00 -0.13277511635E+04  0.32569710883E+04  0.29740439670E+04 0.  0.
        1    1    3    3  502    0 -0.15138677965E+03  0.95910127324E+03 -0.18972691617E+04  0.21312961975E+04  0.50400001928E-02 0.  1.
       -1    1    3    3    0  502  0.15138677965E+03 -0.95910127324E+03  0.56951799824E+03  0.11256748908E+04  0.50400001928E-02 0. -1.
</event>
<event>
 5   0  0.3313750E-06  0.2801644E+04  0.7818609E-02  0.8302758E-01
       -4   -1    0    0    0  501  0.00000000000E+00  0.00000000000E+00  0.12501010598E+04  0.12501017049E+04  0.12699999809E+01 0. -1.
        4   -1    0    0  501    0  0.00000000000E+00  0.00000000000E+00 -0.15697132036E+04  0.15697137173E+04  0.12699999809E+01 0.  1.
    10030    2    1    2    0    0  0.00000000000E+00  0.00000000000E+00 -0.31961214375E+03  0.28198154222E+04  0.28016436413E+04 0.  0.
        2    1    3    3  502    0  0.45909129046E+03 -0.67570824465E+03 -0.13051480572E+04  0.15397265654E+04  0.25500000920E-02 0.  1.
       -2    1    3    3    0  502 -0.45909129046E+03  0.67570824465E+03  0.98553591344E+03  0.12800888569E+04  0.25500000920E-02 0. -1.
</event>
<event>
 5   0  0.3896630E-06  0.2990747E+04  0.7818609E-02  0.8246378E-01
       -1   -1    0    0    0  501  0.00000000000E+00  0.00000000000E+00  0.12088321239E+04  0.12088321239E+04  0.50400001928E-02 0. -1.
        1   -1    0    0  501    0  0.00000000000E+00  0.00000000000E+00 -0.18498361113E+04  0.18498361114E+04  0.50400001928E-02 0.  1.
    10030    2    1    2    0    0  0.00000000000E+00  0.00000000000E+00 -0.64100398747E+03  0.30586682352E+04  0.29907466060E+04 0.  0.
        5    1    3    3  502    0 -0.61067568279E+01  0.69270343013E+03  0.10348283687E+04  0.12452980275E+04  0.46999998093E+01 0. -1.
       -5    1    3    3    0  502  0.61067568279E+01 -0.69270343013E+03 -0.16758323561E+04  0.18133702078E+04  0.46999998093E+01 0.  1.
</event>
<event>
 5   0  0.1028450E-05  0.2983506E+04  0.7818609E-02  0.8248456E-01
       -2   -1    0    0    0  501  0.00000000000E+00  0.00000000000E+00  0.15917400238E+04  0.15917400238E+04  0.25500000920E-02 0.  1.
        2   -1    0    0  501    0  0.00000000000E+00  0.00000000000E+00 -0.13980470826E+04  0.13980470826E+04  0.25500000920E-02 0. -1.
    10030    2    1    2    0    0  0.00000000000E+00  0.00000000000E+00  0.19369294122E+03  0.29897871064E+04  0.29835063241E+04 0.  0.
        3    1    3    3  502    0 -0.19192179322E+03  0.13817843926E+04  0.62631981411E+03  0.15291954100E+04  0.10100000352E+00 0.  1.
       -3    1    3    3    0  502  0.19192179322E+03 -0.13817843926E+04 -0.43262687289E+03  0.14605916964E+04  0.10100000352E+00 0. -1.
</event>
<event>
 5   0  0.1089569E-05  0.2746389E+04  0.7818609E-02  0.8320108E-01
        2   -1    0    0  501    0  0.00000000000E+00  0.00000000000E+00  0.16694403145E+04  0.16694403145E+04  0.25500000920E-02 0. -1.
       -2   -1    0    0    0  501  0.00000000000E+00  0.00000000000E+00 -0.11295183668E+04  0.11295183668E+04  0.25500000920E-02 0.  1.
    10030    2    1    2    0    0  0.00000000000E+00  0.00000000000E+00  0.53992194767E+03  0.27989586813E+04  0.27463892641E+04 0.  0.
        5    1    3    3  502    0 -0.30124015893E+03 -0.13007425301E+03 -0.10889700026E+04  0.11373401871E+04  0.46999998093E+01 0.  1.
       -5    1    3    3    0  502  0.30124015893E+03  0.13007425301E+03  0.16288919503E+04  0.16616184942E+04  0.46999998093E+01 0. -1.
</event>
<event>
 5   0  0.3636718E-06  0.2982530E+04  0.7818609E-02  0.8248737E-01
        1   -1    0    0  501    0  0.00000000000E+00  0.00000000000E+00  0.20251810740E+04  0.20251810740E+04  0.50400001928E-02 0. -1.
       -1   -1    0    0    0  501  0.00000000000E+00  0.00000000000E+00 -0.10981101599E+04  0.10981101599E+04  0.50400001928E-02 0.  1.
    10030    2    1    2    0    0  0.00000000000E+00  0.00000000000E+00  0.92707091411E+03  0.31232912340E+04  0.29825304110E+04 0.  0.
        4    1    3    3  502    0 -0.22910990276E+03 -0.13800300263E+04 -0.77466328812E+02  0.14010627630E+04  0.12699999809E+01 0.  1.
       -4    1    3    3    0  502  0.22910990276E+03  0.13800300263E+04  0.10045372429E+04  0.17222284710E+04  0.12699999809E+01 0. -1.
</event>
<event>
 5   0  0.1028450E-05  0.2946528E+04  0.7818609E-02  0.8259167E-01
        2   -1    0    0  501    0  0.00000000000E+00  0.00000000000E+00  0.80736276924E+03  0.80736276924E+03  0.25500000920E-02 0. -1.
       -2   -1    0    0    0  501  0.00000000000E+00  0.00000000000E+00 -0.26883913535E+04  0.26883913535E+04  0.25500000920E-02 0.  1.
    10030    2    1    2    0    0  0.00000000000E+00  0.00000000000E+00 -0.18810285843E+04  0.34957541228E+04  0.29465281862E+04 0.  0.
        3    1    3    3  502    0 -0.13580090817E+04 -0.55206337260E+03 -0.76637453746E+03  0.16541742880E+04  0.10100000352E+00 0. -1.
       -3    1    3    3    0  502  0.13580090817E+04  0.55206337260E+03 -0.11146540468E+04  0.18415798347E+04  0.10100000352E+00 0.  1.
</event>
<event>
 5   0  0.9647945E-06  0.3059990E+04  0.7818609E-02  0.8226805E-01
       -2   -1    0    0    0  501  0.00000000000E+00  0.00000000000E+00  0.10324255859E+04  0.10324255859E+04  0.25500000920E-02 0.  1.
        2   -1    0    0  501    0  0.00000000000E+00  0.00000000000E+00 -0.22673646570E+04  0.22673646570E+04  0.25500000920E-02 0. -1.
    10030    2    1    2    0    0  0.00000000000E+00  0.00000000000E+00 -0.12349390711E+04  0.32997902429E+04  0.30599903819E+04 0.  0.
        2    1    3    3  502    0 -0.34480984170E+03 -0.12709541217E+04  0.22245735668E+03  0.13355543725E+04  0.25500000920E-02 0.  1.
       -2    1    3    3    0  502  0.34480984170E+03  0.12709541217E+04 -0.14573964278E+04  0.19642358703E+04  0.25500000920E-02 0. -1.
</event>
<event>
 5   0  0.1057036E-05  0.3072726E+04  0.7818609E-02  0.8223263E-01
       -2   -1    0    0    0  501  0.00000000000E+00  0.00000000000E+00  0.11444052696E+04  0.11444052696E+04  0.25500000920E-02 0. -1.
        2   -1    0    0  501    0  0.00000000000E+00  0.00000000000E+00 -0.20625652329E+04  0.20625652329E+04  0.25500000920E-02 0.  1.
    10030    2    1    2    0    0  0.00000000000E+00  0.00000000000E+00 -0.91815996326E+03  0.32069705025E+04  0.30727255143E+04 0.  0.
        4    1    3    3  502    0 -0.12489652997E+04  0.55719724043E+03 -0.11896816885E+04  0.18126575015E+04  0.12699999809E+01 0.  1.
       -4    1    3    3    0  502  0.12489652997E+04 -0.55719724043E+03  0.27152172529E+03  0.13943130011E+04  0.12699999809E+01 0. -1.
</event>
<event>
 5   0  0.1089569E-05  0.2787168E+04  0.7818609E-02  0.8307263E-01
       -2   -1    0    0    0  501  0.00000000000E+00  0.00000000000E+00  0.13970341948E+04  0.13970341948E+04  0.25500000920E-02 0. -1.
        2   -1    0    0  501    0  0.00000000000E+00  0.00000000000E+00 -0.13901424603E+04  0.13901424603E+04  0.25500000920E-02 0.  1.
    10030    2    1    2    0    0  0.00000000000E+00  0.00000000000E+00  0.68917345115E+01  0.27871766551E+04  0.27871681346E+04 0.  0.
        5    1    3    3  502    0 -0.75753602450E+02  0.37391657895E+03 -0.13368948470E+04  0.13902741234E+04  0.46999998093E+01 0.  1.
       -5    1    3    3    0  502  0.75753602450E+02 -0.37391657895E+03  0.13437865815E+04  0.13969025317E+04  0.46999998093E+01 0. -1.
</event>
<event>
 5   0  0.1029922E-05  0.3072632E+04  0.7818609E-02  0.8223289E-01
        2   -1    0    0  501    0  0.00000000000E+00  0.00000000000E+00  0.28152577876E+04  0.28152577876E+04  0.25500000920E-02 0. -1.
       -2   -1    0    0    0  501  0.00000000000E+00  0.00000000000E+00 -0.83838401455E+03  0.83838401455E+03  0.25500000920E-02 0.  1.
    10030    2    1    2    0    0  0.00000000000E+00  0.00000000000E+00  0.19768737731E+04  0.36536418022E+04  0.30726321784E+04 0.  0.
        1    1    3    3  502    0 -0.14252591280E+04 -0.47070458651E+03  0.59885596746E+03  0.16160305875E+04  0.50400001928E-02 0.  1.
       -1    1    3    3    0  502  0.14252591280E+04  0.47070458651E+03  0.13780178056E+04  0.20376112147E+04  0.50400001928E-02 0. -1.
</event>
<event>
 5   0  0.1029922E-05  0.2802565E+04  0.7818609E-02  0.8302472E-01
       -2   -1    0    0    0  501  0.00000000000E+00  0.00000000000E+00  0.12497148179E+04  0.12497148179E+04  0.25500000920E-02 0. -1.
        2   -1    0    0  501    0  0.00000000000E+00  0.00000000000E+00 -0.15712331374E+04  0.15712331374E+04  0.25500000920E-02 0.  1.
    10030    2    1    2    0    0  0.00000000000E+00  0.00000000000E+00 -0.32151831950E+03  0.28209479554E+04  0.28025654921E+04 0.  0.
        1    1    3    3  502    0  0.60535127273E+03  0.11410371828E+04  0.38610667906E+03  0.13481447932E+04  0.50400001928E-02 0. -1.
       -1    1    3    3    0  502 -0.60535127273E+03 -0.11410371828E+04 -0.70762499856E+03  0.14728031622E+04  0.50400001928E-02 0.  1.
</event>
<event>
 5   0  0.3852126E-06  0.3001210E+04  0.7818609E-02  0.8243385E-01
        1   -1    0    0  501    0  0.00000000000E+00  0.00000000000E+00  0.12198551475E+04  0.12198551476E+04  0.50400001928E-02 0. -1.
       -1   -1    0    0    0  501  0.00000000000E+00  0.00000000000E+00 -0.18459694660E+04  0.18459694660E+04  0.50400001928E-02 0.  1.
    10030    2    1    2    0    0  0.00000000000E+00  0.00000000000E+00 -0.62611431849E+03  0.30658246136E+04  0.30012099929E+04 0.  0.
        1    1    3    3  502    0  0.17232839384E+01 -0.76290540344E+03  0.10069660147E+04  0.12633321729E+04  0.50400001928E-02 0. -1.
       -1    1    3    3    0  502 -0.17232839384E+01  0.76290540344E+03 -0.16330803332E+04  0.18024924407E+04  0.50400001928E-02 0.  1.
</event>
<event>
 5   0  0.3725232E-06  0.2993368E+04  0.7818609E-02  0.8245627E-01
       -1   -1    0    0    0  501  0.00000000000E+00  0.00000000000E+00  0.18349639836E+04  0.18349639836E+04  0.50400001928E-02 0. -1.
        1   -1    0    0  501    0  0.00000000000E+00  0.00000000000E+00 -0.12207666416E+04  0.12207666416E+04  0.50400001928E-02 0.  1.
    10030    2    1    2    0    0  0.00000000000E+00  0.00000000000E+00  0.61419734203E+03  0.30557306252E+04  0.29933678823E+04 0.  0.
        2    1    3    3  502    0 -0.37927864741E+03  0.47080844772E+03  0.17047649233E+04  0.18087941648E+04  0.25500000920E-02 0. -1.
       -2    1    3    3    0  502  0.37927864741E+03 -0.47080844772E+03 -0.10905675813E+04  0.12469364604E+04  0.25500000920E-02 0.  1.
</event>
<event>
 5   0  0.1029922E-05  0.1854364E+04  0.7818609E-02  0.8677912E-01
        2   -1    0    0  501    0  0.00000000000E+00  0.00000000000E+00  0.83333294764E+03  0.83333294764E+03  0.25500000920E-02 0. -1.
       -2   -1    0    0    0  501  0.00000000000E+00  0.00000000000E+00 -0.10315997833E+04  0.10315997833E+04  0.25500000920E-02 0.  1.
    10030    2    1    2    0    0  0.00000000000E+00  0.00000000000E+00 -0.19826683566E+03  0.18649327309E+04  0.18543635978E+04 0.  0.
        1    1    3    3  502    0 -0.80185052252E+03  0.14222361188E+03 -0.54491397429E+03  0.97985869167E+03  0.50400001928E-02 0.  1.
       -1    1    3    3    0  502  0.80185052252E+03 -0.14222361188E+03  0.34664713863E+03  0.88507403927E+03  0.50400001928E-02 0. -1.
</event>
<event>
 5   0  0.3896630E-06  0.2995481E+04  0.7818609E-02  0.8245022E-01
       -1   -1    0    0    0  501  0.00000000000E+00  0.00000000000E+00  0.29591590102E+04  0.29591590102E+04  0.50400001928E-02 0. -1.
        1   -1    0    0  501    0  0.00000000000E+00  0.00000000000E+00 -0.75806241713E+03  0.75806241714E+03  0.50400001928E-02 0.  1.
    10030    2    1    2    0    0  0.00000000000E+00  0.00000000000E+00  0.22010965931E+04  0.37172214274E+04  0.29954814184E+04 0.  0.
        5    1    3    3  502    0 -0.70093490155E+03 -0.11690775206E+04  0.33041033199E+03  0.14025851357E+04  0.46999998093E+01 0.  1.
       -5    1    3    3    0  502  0.70093490155E+03  0.11690775206E+04  0.18706862611E+04  0.23146362917E+04  0.46999998093E+01 0. -1.
</event>
<event>
 5   0  0.1089569E-05  0.2707416E+04  0.7818609E-02  0.8332603E-01
       -2   -1    0    0    0  501  0.00000000000E+00  0.00000000000E+00  0.12726026890E+04  0.12726026890E+04  0.25500000920E-02 0.  1.
        2   -1    0    0  501    0  0.00000000000E+00  0.00000000000E+00 -0.14399820326E+04  0.14399820326E+04  0.25500000920E-02 0. -1.
    10030    2    1    2    0    0  0.00000000000E+00  0.00000000000E+00 -0.16737934353E+03  0.27125847216E+04  0.27074157470E+04 0.  0.
        5    1    3    3  502    0 -0.13244722201E+04  0.27864974167E+03 -0.58530447337E+02  0.13547399173E+04  0.46999998093E+01 0.  1.
       -5    1    3    3    0  502  0.13244722201E+04 -0.27864974167E+03 -0.10884889619E+03  0.13578448043E+04  0.46999998093E+01 0. -1.
</event>
<event>
 5   0  0.3592331E-06  0.2991848E+04  0.7818609E-02  0.8246062E-01
       -1   -1    0    0    0  501  0.00000000000E+00  0.00000000000E+00  0.91898917478E+03  0.91898917480E+03  0.50400001928E-02 0.  1.
        1   -1    0    0  501    0  0.00000000000E+00  0.00000000000E+00 -0.24350549740E+04  0.24350549740E+04  0.50400001928E-02 0. -1.
    10030    2    1    2    0    0  0.00000000000E+00  0.00000000000E+00 -0.15160657993E+04  0.33540441488E+04  0.29918483659E+04 0.  0.
        3    1    3    3  502    0  0.11690592512E+04  0.88437870730E+03 -0.10924097112E+04  0.18281641661E+04  0.10100000352E+00 0.  1.
       -3    1    3    3    0  502 -0.11690592512E+04 -0.88437870730E+03 -0.42365608806E+03  0.15258799828E+04  0.10100000352E+00 0. -1.
</event>
<event>
 5   0  0.9647945E-06  0.1955619E+04  0.7818609E-02  0.8627656E-01
       -2   -1    0    0    0  501  0.00000000000E+00  0.00000000000E+00  0.83349484454E+03  0.83349484455E+03  0.25500000920E-02 0. -1.
        2   -1    0    0  501    0  0.00000000000E+00  0.00000000000E+00 -0.11471112969E+04  0.11471112969E+04  0.25500000920E-02 0.  1.
    10030    2    1    2    0    0  0.00000000000E+00  0.00000000000E+00 -0.31361645232E+03  0.19806061414E+04  0.19556189323E+04 0.  0.
        2    1    3    3  502    0  0.67934335040E+03 -0.64103341990E+03 -0.44977949544E+03  0.10366932177E+04  0.25500000920E-02 0.  1.
       -2    1    3    3    0  502 -0.67934335040E+03  0.64103341990E+03  0.13616304312E+03  0.94391292368E+03  0.25500000920E-02 0. -1.
</event>
<event>
 5   0  0.3636718E-06  0.2992546E+04  0.7818609E-02  0.8245863E-01
       -1   -1    0    0    0  501  0.00000000000E+00  0.00000000000E+00  0.92235677320E+03  0.92235677321E+03  0.50400001928E-02 0.  1.
        1   -1    0    0  501    0  0.00000000000E+00  0.00000000000E+00 -0.24272952745E+04  0.24272952745E+04  0.50400001928E-02 0. -1.
    10030    2    1    2    0    0  0.00000000000E+00  0.00000000000E+00 -0.15049385013E+04  0.33496520477E+04  0.29925455633E+04 0.  0.
        4    1    3    3  502    0  0.10858406913E+04 -0.79510743347E+03 -0.14844000911E+04  0.20036694041E+04  0.12699999809E+01 0. -1.
       -4    1    3    3    0  502 -0.10858406913E+04  0.79510743347E+03 -0.20538410259E+02  0.13459826436E+04  0.12699999809E+01 0.  1.
</event>
<event>
 5   0  0.3896630E-06  0.2983796E+04  0.7818609E-02  0.8248373E-01
        1   -1    0    0  501    0  0.00000000000E+00  0.00000000000E+00  0.13325366728E+04  0.13325366728E+04  0.50400001928E-02 0.  1.
       -1   -1    0    0    0  501  0.00000000000E+00  0.00000000000E+00 -0.16703177865E+04  0.16703177865E+04  0.50400001928E-02 0. -1.
    10030    2    1    2    0    0  0.00000000000E+00  0.00000000000E+00 -0.33778111364E+03  0.30028544593E+04  0.29837960425E+04 0.  0.
        5    1    3    3  502    0  0.82587791600E+03  0.25664403548E+03 -0.13923020562E+04  0.16390447214E+04  0.46999998093E+01 0. -1.
       -5    1    3    3    0  502 -0.82587791600E+03 -0.25664403548E+03  0.10545209425E+04  0.13638097379E+04  0.46999998093E+01 0.  1.
</event>
<event>
 5   0  0.3592331E-06  0.2748325E+04  0.7818609E-02  0.8319493E-01
        1   -1    0    0  501    0  0.00000000000E+00  0.00000000000E+00  0.12733606827E+04  0.12733606827E+04  0.50400001928E-02 0. -1.
       -1   -1    0    0    0  501  0.00000000000E+00  0.00000000000E+00 -0.14829444778E+04  0.14829444778E+04  0.50400001928E-02 0.  1.
    10030    2    1    2    0    0  0.00000000000E+00  0.00000000000E+00 -0.20958379507E+03  0.27563051606E+04  0.27483254485E+04 0.  0.
        3    1    3    3  502    0  0.72683500088E+03  0.81394656989E+03  0.73281267969E+03  0.13144628450E+04  0.10100000352E+00 0. -1.
       -3    1    3    3    0  502 -0.72683500088E+03 -0.81394656989E+03 -0.94239647476E+03  0.14418423156E+04  0.10100000352E+00 0.  1.
</event>
<event>
 5   0  0.3725232E-06  0.2158098E+04  0.7818609E-02  0.8536074E-01
       -1   -1    0    0    0  501  0.00000000000E+00  0.00000000000E+00  0.96012396798E+03  0.96012396799E+03  0.50400001928E-02 0. -1.
        1   -1    0    0  501    0  0.00000000000E+00  0.00000000000E+00 -0.12127042455E+04  0.12127042456E+04  0.50400001928E-02 0.  1.
    10030    2    1    2    0    0  0.00000000000E+00  0.00000000000E+00 -0.25258027756E+03  0.21728282135E+04  0.21580976922E+04 0.  0.
        2    1    3    3  502    0  0.36137608310E+03 -0.77493196976E+03 -0.78898812139E+03  0.11634493916E+04  0.25500000920E-02 0.  1.
       -2    1    3    3    0  502 -0.36137608310E+03  0.77493196976E+03  0.53640784383E+03  0.10093788219E+04  0.25500000920E-02 0. -1.
</event>
<event>
 5   0  0.1028450E-05  0.3001792E+04  0.7818609E-02  0.8243219E-01
        2   -1    0    0  501    0  0.00000000000E+00  0.00000000000E+00  0.10874977110E+04  0.10874977110E+04  0.25500000920E-02 0.  1.
       -2   -1    0    0    0  501  0.00000000000E+00  0.00000000000E+00 -0.20714419206E+04  0.20714419206E+04  0.25500000920E-02 0. -1.
    10030    2    1    2    0    0  0.00000000000E+00  0.00000000000E+00 -0.98394420958E+03  0.31589396316E+04  0.30017916964E+04 0.  0.
        3    1    3    3  502    0  0.79266689080E+03 -0.12506997958E+04 -0.74999689878E+03  0.16598391902E+04  0.10100000352E+00 0. -1.
       -3    1    3    3    0  502 -0.79266689080E+03  0.12506997958E+04 -0.23394731080E+03  0.14991004414E+04  0.10100000352E+00 0.  1.
</event>
<event>
 5   0  0.1029922E-05  0.2316963E+04  0.7818609E-02  0.8471263E-01
        2   -1    0    0  501    0  0.00000000000E+00  0.00000000000E+00  0.14032007509E+04  0.14032007509E+04  0.25500000920E-02 0.  1.
       -2   -1    0    0    0  501  0.00000000000E+00  0.00000000000E+00 -0.95644113510E+03  0.95644113510E+03  0.25500000920E-02 0. -1.
    10030    2    1    2    0    0  0.00000000000E+00  0.00000000000E+00  0.44675961584E+03  0.23596418860E+04  0.23169625970E+04 0.  0.
        1    1    3    3  502    0 -0.11100475608E+04 -0.26391397737E+03  0.42763021100E+03  0.12184924178E+04  0.50400001928E-02 0.  1.
       -1    1    3    3    0  502  0.11100475608E+04  0.26391397737E+03  0.19129404844E+02  0.11411494683E+04  0.50400001928E-02 0. -1.
</event>
<event>
 5   0  0.3725232E-06  0.2993295E+04  0.7818609E-02  0.8245648E-01
        1   -1    0    0  501    0  0.00000000000E+00  0.00000000000E+00  0.18115699386E+04  0.18115699387E+04  0.50400001928E-02 0. -1.
       -1   -1    0    0    0  501  0.00000000000E+00  0.00000000000E+00 -0.12364709763E+04  0.12364709764E+04  0.50400001928E-02 0.  1.
    10030    2    1    2    0    0  0.00000000000E+00  0.00000000000E+00  0.57509896230E+03  0.30480409150E+04  0.29932949409E+04 0.  0.
        2    1    3    3  502    0  0.69402666002E+03 -0.62232581064E+03  0.14798579242E+04  0.17489831032E+04  0.25500000920E-02 0. -1.
       -2    1    3    3    0  502 -0.69402666002E+03  0.62232581064E+03 -0.90475896188E+03  0.12990578118E+04  0.25500000920E-02 0.  1.
</event>
<event>
 5   0  0.3636718E-06  0.2508551E+04  0.7818609E-02  0.8399946E-01
        1   -1    0    0  501    0  0.00000000000E+00  0.00000000000E+00  0.78367959471E+03  0.78367959473E+03  0.50400001928E-02 0.  1.
       -1   -1    0    0    0  501  0.00000000000E+00  0.00000000000E+00 -0.20074619537E+04  0.20074619538E+04  0.50400001928E-02 0. -1.
    10030    2    1    2    0    0  0.00000000000E+00  0.00000000000E+00 -0.12237823590E+04  0.27911415485E+04  0.25085509525E+04 0.  0.
        4    1    3    3  502    0  0.34525334962E+02 -0.17054236814E+03  0.77018460581E+03  0.78959650330E+03  0.12699999809E+01 0.  1.
       -4    1    3    3    0  502 -0.34525334962E+02  0.17054236814E+03 -0.19939669648E+04  0.20015450452E+04  0.12699999809E+01 0. -1.
</event>
<event>
 5   0  0.3592331E-06  0.2961826E+04  0.7818609E-02  0.8254717E-01
       -1   -1    0    0    0  501  0.00000000000E+00  0.00000000000E+00  0.13014530957E+04  0.13014530957E+04  0.50400001928E-02 0. -1.
        1   -1    0    0  501    0  0.00000000000E+00  0.00000000000E+00 -0.16851186791E+04  0.16851186791E+04  0.50400001928E-02 0.  1.
    10030    2    1    2    0    0  0.00000000000E+00  0.00000000000E+00 -0.38366558344E+03  0.29865717748E+04  0.29618257352E+04 0.  0.
        3    1    3    3  502    0 -0.11354326650E+04  0.59561150173E+03  0.55540011243E+03  0.13972937031E+04  0.10100000352E+00 0. -1.
       -3    1    3    3    0  502  0.11354326650E+04 -0.59561150173E+03 -0.93906569588E+03  0.15892780717E+04  0.10100000352E+00 0.  1.
</event>
<event>
 5   0  0.3636718E-06  0.3043837E+04  0.7818609E-02  0.8231323E-01
        1   -1    0    0  501    0  0.00000000000E+00  0.00000000000E+00  0.72169805950E+03  0.72169805951E+03  0.50400001928E-02 0.  1.
       -1   -1    0    0    0  501  0.00000000000E+00  0.00000000000E+00 -0.32094243694E+04  0.32094243695E+04  0.50400001928E-02 0. -1.
    10030    2    1    2    0    0  0.00000000000E+00  0.00000000000E+00 -0.24877263100E+04  0.39311224290E+04  0.30438366182E+04 0.  0.
        4    1    3    3  502    0 -0.83947341148E+03  0.11640228321E+04 -0.18980432006E+04  0.23795449915E+04  0.12699999809E+01 0.  1.
       -4    1    3    3    0  502  0.83947341148E+03 -0.11640228321E+04 -0.58968310934E+03  0.15515774375E+04  0.12699999809E+01 0. -1.
</event>
<event>
 5   0  0.9647945E-06  0.2981338E+04  0.7818609E-02  0.8249080E-01
        2   -1    0    0  501    0  0.00000000000E+00  0.00000000000E+00  0.23073841736E+04  0.23073841736E+04  0.25500000920E-02 0.  1.
       -2   -1    0    0    0  501  0.00000000000E+00  0.00000000000E+00 -0.96303617117E+03  0.96303617118E+03  0.25500000920E-02 0. -1.
    10030    2    1    2    0    0  0.00000000000E+00  0.00000000000E+00  0.13443480024E+04  0.32704203448E+04  0.29813382364E+04 0.  0.
        2    1    3    3  502    0  0.66416237381E+03 -0.68876826579E+03  0.19260670685E+04  0.21506389132E+04  0.25500000920E-02 0.  1.
       -2    1    3    3    0  502 -0.66416237381E+03  0.68876826579E+03 -0.58171906603E+03  0.11197814316E+04  0.25500000920E-02 0. -1.
</event>
<event>
 5   0  0.1029922E-05  0.2783293E+04  0.7818609E-02  0.8308474E-01
        2   -1    0    0  501    0  0.00000000000E+00  0.00000000000E+00  0.13878283286E+04  0.13878283286E+04  0.25500000920E-02 0. -1.
       -2   -1    0    0    0  501  0.00000000000E+00  0.00000000000E+00 -0.13954754047E+04  0.13954754047E+04  0.25500000920E-02 0.  1.
    10030    2    1    2    0    0  0.00000000000E+00  0.00000000000E+00 -0.76470760528E+01  0.27833037333E+04  0.27832932282E+04 0.  0.
        1    1    3    3  502    0  0.11271065897E+04 -0.19735421427E+03 -0.79588861351E+03  0.13938280510E+04  0.50400001928E-02 0.  1.
       -1    1    3    3    0  502 -0.11271065897E+04  0.19735421427E+03  0.78824153746E+03  0.13894756824E+04  0.50400001928E-02 0. -1.
</event>
<event>
 5   0  0.3852126E-06  0.2968254E+04  0.7818609E-02  0.8252855E-01
       -1   -1    0    0    0  501  0.00000000000E+00  0.00000000000E+00  0.10308954935E+04  0.10308954935E+04  0.50400001928E-02 0. -1.
        1   -1    0    0  501    0  0.00000000000E+00  0.00000000000E+00 -0.21366206703E+04  0.21366206704E+04  0.50400001928E-02 0.  1.
    10030    2    1    2    0    0  0.00000000000E+00  0.00000000000E+00 -0.11057251769E+04  0.31675161638E+04  0.29682537765E+04 0.  0.
        1    1    3    3  502    0  0.28149370478E+03 -0.64884117696E+03 -0.19452128278E+04  0.20698034989E+04  0.50400001928E-02 0.  1.
       -1    1    3    3    0  502 -0.28149370478E+03  0.64884117696E+03  0.83948765089E+03  0.10977126649E+04  0.50400001928E-02 0. -1.
</event>
<event>
 5   0  0.9647945E-06  0.3072053E+04  0.7818609E-02  0.8223450E-01
        2   -1    0    0  501    0  0.00000000000E+00  0.00000000000E+00  0.18213882940E+04  0.18213882940E+04  0.25500000920E-02 0.  1.
       -2   -1    0    0    0  501  0.00000000000E+00  0.00000000000E+00 -0.12953732796E+04  0.12953732796E+04  0.25500000920E-02 0. -1.
    10030    2    1    2    0    0  0.00000000000E+00  0.00000000000E+00  0.52601501444E+03  0.31167615737E+04  0.30720532078E+04 0.  0.
        2    1    3    3  502    0 -0.12772205221E+04  0.44905597789E+03 -0.47310956986E+03  0.14341465053E+04  0.25500000920E-02 0. -1.
       -2    1    3    3    0  502  0.12772205221E+04 -0.44905597789E+03  0.99912458429E+03  0.16826150684E+04  0.25500000920E-02 0.  1.
</event>
<event>
 5   0  0.3592331E-06  0.3013717E+04  0.7818609E-02  0.8239825E-01
       -1   -1    0    0    0  501  0.00000000000E+00  0.00000000000E+00  0.22272521687E+04  0.22272521687E+04  0.50400001928E-02 0.  1.
        1   -1    0    0  501    0  0.00000000000E+00  0.00000000000E+00 -0.10194723073E+04  0.10194723073E+04  0.50400001928E-02 0. -1.
    10030    2    1    2    0    0  0.00000000000E+00  0.00000000000E+00  0.12077798614E+04  0.32467244760E+04  0.30137165808E+04 0.  0.
        3    1    3    3  502    0 -0.12126483420E+03 -0.78940370840E+02  0.22197505577E+04  0.22244615732E+04  0.10100000352E+00 0.  1.
       -3    1    3    3    0  502  0.12126483420E+03  0.78940370840E+02 -0.10119706962E+04  0.10222629028E+04  0.10100000352E+00 0. -1.
</event>
<event>
 5   0  0.1029922E-05  0.2913223E+04  0.7818609E-02  0.8268954E-01
        2   -1    0    0  501    0  0.00000000000E+00  0.00000000000E+00  0.15153461039E+04  0.15153461039E+04  0.25500000920E-02 0. -1.
       -2   -1    0    0    0  501  0.00000000000E+00  0.00000000000E+00 -0.14001534685E+04  0.14001534685E+04  0.25500000920E-02 0.  1.
    10030    2    1    2    0    0  0.00000000000E+00  0.00000000000E+00  0.11519263544E+03  0.29154995724E+04  0.29132230285E+04 0.  0.
        1    1    3    3  502    0  0.56146149320E+02 -0.13652655070E+04  0.56258434008E+03  0.14777020790E+04  0.50400001928E-02 0. -1.
       -1    1    3    3    0  502 -0.56146149320E+02  0.13652655070E+04 -0.44739170464E+03  0.14377974934E+04  0.50400001928E-02 0.  1.
</event>
<event>
 5   0  0.3592331E-06  0.2996882E+04  0.7818609E-02  0.8244622E-01
        1   -1    0    0  501    0  0.00000000000E+00  0.00000000000E+00  0.16853918315E+04  0.16853918315E+04  0.50400001928E-02 0.  1.
       -1   -1    0    0    0  501  0.00000000000E+00  0.00000000000E+00 -0.13322273717E+04  0.13322273717E+04  0.50400001928E-02 0. -1.
    10030    2    1    2    0    0  0.00000000000E+00  0.00000000000E+00  0.35316445979E+03  0.30176192031E+04  0.29968817994E+04 0.  0.
        3    1    3    3  502    0  0.42526325835E+03 -0.13114028410E+04  0.76775544664E+03  0.15779970489E+04  0.10100000352E+00 0.  1.
       -3    1    3    3    0  502 -0.42526325835E+03  0.13114028410E+04 -0.41459098685E+03  0.14396221542E+04  0.10100000352E+00 0. -1.
</event>
<event>
 5   0  0.3725232E-06  0.2980253E+04  0.7818609E-02  0.8249392E-01
       -1   -1    0    0    0  501  0.00000000000E+00  0.00000000000E+00  0.13878154471E+04  0.13878154471E+04  0.50400001928E-02 0.  1.
        1   -1    0    0  501    0  0.00000000000E+00  0.00000000000E+00 -0.15999797191E+04  0.15999797191E+04  0.50400001928E-02 0. -1.
    10030    2    1    2    0    0  0.00000000000E+00  0.00000000000E+00 -0.21216427205E+03  0.29877951662E+04  0.29802527203E+04 0.  0.
        2    1    3    3  502    0  0.12652029047E+04 -0.75096746442E+03  0.13070631646E+03  0.14770831608E+04  0.25500000920E-02 0.  1.
       -2    1    3    3    0  502 -0.12652029047E+04  0.75096746442E+03 -0.34287058850E+03  0.15107120054E+04  0.25500000920E-02 0. -1.
</event>
<event>
 5   0  0.1029922E-05  0.3097870E+04  0.7818609E-02  0.8216323E-01
       -2   -1    0    0    0  501  0.00000000000E+00  0.00000000000E+00  0.18797640317E+04  0.18797640317E+04  0.25500000920E-02 0.  1.
        2   -1    0    0  501    0  0.00000000000E+00  0.00000000000E+00 -0.12763303340E+04  0.12763303340E+04  0.25500000920E-02 0. -1.
    10030    2    1    2    0    0  0.00000000000E+00  0.00000000000E+00  0.60343369763E+03  0.31560943657E+04  0.30978701422E+04 0.  0.
        1    1    3    3  502    0  0.11795297132E+04  0.98377858045E+03  0.97730762411E+02  0.15390457893E+04  0.50400001928E-02 0. -1.
       -1    1    3    3    0  502 -0.11795297132E+04 -0.98377858045E+03  0.50570293522E+03  0.16170485764E+04  0.50400001928E-02 0.  1.
</event>
<event>
 5   0  0.3725232E-06  0.3000885E+04  0.7818609E-02  0.8243478E-01
        1   -1    0    0  501    0  0.00000000000E+00  0.00000000000E+00  0.15583899839E+04  0.15583899839E+04  0.50400001928E-02 0. -1.
       -1   -1    0    0    0  501  0.00000000000E+00  0.00000000000E+00 -0.14446494366E+04  0.14446494367E+04  0.50400001928E-02 0.  1.
    10030    2    1    2    0    0  0.00000000000E+00  0.00000000000E+00  0.11374054729E+03  0.30030394206E+04  0.30008846778E+04 0.  0.
        2    1    3    3  502    0  0.10194865691E+04 -0.54012893246E+03  0.10168479204E+04  0.15378790009E+04  0.25500000920E-02 0. -1.
       -2    1    3    3    0  502 -0.10194865691E+04  0.54012893246E+03 -0.90310737309E+03  0.14651604197E+04  0.25500000920E-02 0.  1.
</event>
<event>
 5   0  0.9647945E-06  0.3159739E+04  0.7818609E-02  0.8199532E-01
       -2   -1    0    0    0  501  0.00000000000E+00  0.00000000000E+00  0.18014592108E+04  0.18014592108E+04  0.25500000920E-02 0. -1.
        2   -1    0    0  501    0  0.00000000000E+00  0.00000000000E+00 -0.13855361861E+04  0.13855361861E+04  0.25500000920E-02 0.  1.
    10030    2    1    2    0    0  0.00000000000E+00  0.00000000000E+00  0.41592302471E+03  0.31869953970E+04  0.31597385490E+04 0.  0.
        2    1    3    3  502    0 -0.13788386562E+02 -0.10234799135E+04 -0.10058671955E+04  0.14350853870E+04  0.25500000920E-02 0.  1.
       -2    1    3    3    0  502  0.13788386562E+02  0.10234799135E+04  0.14217902202E+04  0.17519100100E+04  0.25500000920E-02 0. -1.
</event>
<event>
 5   0  0.1029922E-05  0.3185985E+04  0.7818609E-02  0.8192528E-01
        2   -1    0    0  501    0  0.00000000000E+00  0.00000000000E+00  0.12242141153E+04  0.12242141153E+04  0.25500000920E-02 0.  1.
       -2   -1    0    0    0  501  0.00000000000E+00  0.00000000000E+00 -0.20728602396E+04  0.20728602396E+04  0.25500000920E-02 0. -1.
    10030    2    1    2    0    0  0.00000000000E+00  0.00000000000E+00 -0.84864612423E+03  0.32970743549E+04  0.31859847862E+04 0.  0.
        1    1    3    3  502    0  0.89342215446E+01 -0.35316251708E+03 -0.20318105901E+04  0.20622943190E+04  0.50400001928E-02 0. -1.
       -1    1    3    3    0  502 -0.89342215446E+01  0.35316251708E+03  0.11831644659E+04  0.12347800360E+04  0.50400001928E-02 0.  1.
</event>
<event>
 5   0  0.3725232E-06  0.2927748E+04  0.7818609E-02  0.8264669E-01
       -1   -1    0    0    0  501  0.00000000000E+00  0.00000000000E+00  0.12563547103E+04  0.12563547103E+04  0.50400001928E-02 0.  1.
        1   -1    0    0  501    0  0.00000000000E+00  0.00000000000E+00 -0.17056703894E+04  0.17056703894E+04  0.50400001928E-02 0. -1.
    10030    2    1    2    0    0  0.00000000000E+00  0.00000000000E+00 -0.44931567906E+03  0.29620250997E+04  0.29277479591E+04 0.  0.
        2    1    3    3  502    0  0.62294678366E+03  0.12668200596E+04 -0.61653137878E+03  0.15404566529E+04  0.25500000920E-02 0. -1.
       -2    1    3    3    0  502 -0.62294678366E+03 -0.12668200596E+04  0.16721569972E+03  0.14215684468E+04  0.25500000920E-02 0.  1.
</event>
<event>
 5   0  0.3636718E-06  0.2968172E+04  0.7818609E-02  0.8252878E-01
       -1   -1    0    0    0  501  0.00000000000E+00  0.00000000000E+00  0.10854912296E+04  0.10854912296E+04  0.50400001928E-02 0.  1.
        1   -1    0    0  501    0  0.00000000000E+00  0.00000000000E+00 -0.20290460901E+04  0.20290460901E+04  0.50400001928E-02 0. -1.
    10030    2    1    2    0    0  0.00000000000E+00  0.00000000000E+00 -0.94355486050E+03  0.31145373197E+04  0.29681723233E+04 0.  0.
        4    1    3    3  502    0  0.99473101945E+03  0.25342006062E+03 -0.15964507060E+04  0.18979905157E+04  0.12699999809E+01 0. -1.
       -4    1    3    3    0  502 -0.99473101945E+03 -0.25342006062E+03  0.65289584552E+03  0.12165468039E+04  0.12699999809E+01 0.  1.
</event>
<event>
 5   0  0.1089569E-05  0.2826431E+04  0.7818609E-02  0.8295109E-01
       -2   -1    0    0    0  501  0.00000000000E+00  0.00000000000E+00  0.93286012388E+03  0.93286012388E+03  0.25500000920E-02 0.  1.
        2   -1    0    0  501    0  0.00000000000E+00  0.00000000000E+00 -0.21409188779E+04  0.21409188779E+04  0.25500000920E-02 0. -1.
    10030    2    1    2    0    0  0.00000000000E+00  0.00000000000E+00 -0.12080587540E+04  0.30737790018E+04  0.28264308586E+04 0.  0.
        5    1    3    3  502    0 -0.20065767376E+02  0.91240518985E+03  0.56941121446E+03  0.10757030662E+04  0.46999998093E+01 0.  1.
       -5    1    3    3    0  502  0.20065767376E+02 -0.91240518985E+03 -0.17774699685E+04  0.19980759356E+04  0.46999998093E+01 0. -1.
</event>
<event>
 5   0  0.3896630E-06  0.3000871E+04  0.7818609E-02  0.8243482E-01
       -1   -1    0    0    0  501  0.00000000000E+00  0.00000000000E+00  0.19704067974E+04  0.19704067974E+04  0.50400001928E-02 0. -1.
        1   -1    0    0  501    0  0.00000000000E+00  0.00000000000E+00 -0.11425595759E+04  0.11425595759E+04  0.50400001928E-02 0.  1.
    10030    2    1    2    0    0  0.00000000000E+00  0.00000000000E+00  0.82784722148E+03  0.31129663733E+04  0.30008713100E+04 0.  0.
        5    1    3    3  502    0  0.84489349133E+03 -0.15660201835E+03 -0.86202870926E+03  0.12171625978E+04  0.46999998093E+01 0.  1.
       -5    1    3    3    0  502 -0.84489349133E+03  0.15660201835E+03  0.16898759307E+04  0.18958037755E+04  0.46999998093E+01 0. -1.
</event>
<event>
 5   0  0.3592331E-06  0.2981599E+04  0.7818609E-02  0.8249005E-01
        1   -1    0    0  501    0  0.00000000000E+00  0.00000000000E+00  0.12395228016E+04  0.12395228016E+04  0.50400001928E-02 0. -1.
       -1   -1    0    0    0  501  0.00000000000E+00  0.00000000000E+00 -0.17930154203E+04  0.17930154203E+04  0.50400001928E-02 0.  1.
    10030    2    1    2    0    0  0.00000000000E+00  0.00000000000E+00 -0.55349261864E+03  0.30325382219E+04  0.29815992334E+04 0.  0.
        3    1    3    3  502    0  0.73299369289E+03 -0.61107819214E+02 -0.15956148866E+04  0.17569862822E+04  0.10100000352E+00 0.  1.
       -3    1    3    3    0  502 -0.73299369289E+03  0.61107819214E+02  0.10421222679E+04  0.12755519397E+04  0.10100000352E+00 0. -1.
</event>
<event>
 5   0  0.1028450E-05  0.2891680E+04  0.7818609E-02  0.8275357E-01
        2   -1    0    0  501    0  0.00000000000E+00  0.00000000000E+00  0.14187594030E+04  0.14187594030E+04  0.25500000920E-02 0. -1.
       -2   -1    0    0    0  501  0.00000000000E+00  0.00000000000E+00 -0.14734372865E+04  0.14734372865E+04  0.25500000920E-02 0.  1.
    10030    2    1    2    0    0  0.00000000000E+00  0.00000000000E+00 -0.54677883510E+02  0.28921966895E+04  0.28916797921E+04 0.  0.
        3    1    3    3  502    0  0.41232221683E+03  0.13288755663E+04  0.36583832756E+03  0.14386652055E+04  0.10100000352E+00 0. -1.
       -3    1    3    3    0  502 -0.41232221683E+03 -0.13288755663E+04 -0.42051621107E+03  0.14535314841E+04  0.10100000352E+00 0.  1.
</event>
<event>
 5   0  0.1089569E-05  0.1971247E+04  0.7818609E-02  0.8620183E-01
        2   -1    0    0  501    0  0.00000000000E+00  0.00000000000E+00  0.93047329309E+03  0.93047329309E+03  0.25500000920E-02 0.  1.
       -2   -1    0    0    0  501  0.00000000000E+00  0.00000000000E+00 -0.10440423528E+04  0.10440423528E+04  0.25500000920E-02 0. -1.
    10030    2    1    2    0    0  0.00000000000E+00  0.00000000000E+00 -0.11356905972E+03  0.19745156459E+04  0.19712468401E+04 0.  0.
        5    1    3    3  502    0 -0.10686156846E+01  0.37464988494E+03 -0.96992541021E+03  0.10397793370E+04  0.46999998093E+01 0. -1.
       -5    1    3    3    0  502  0.10686156846E+01 -0.37464988494E+03  0.85635635049E+03  0.93473630894E+03  0.46999998093E+01 0.  1.
</event>
<event>
 5   0  0.3896630E-06  0.2630499E+04  0.7818609E-02  0.8357915E-01
        1   -1    0    0  501    0  0.00000000000E+00  0.00000000000E+00  0.13003205282E+04  0.13003205282E+04  0.50400001928E-02 0.  1.
       -1   -1    0    0    0  501  0.00000000000E+00  0.00000000000E+00 -0.13303495673E+04  0.13303495673E+04  0.50400001928E-02 0. -1.
    10030    2    1    2    0    0  0.00000000000E+00  0.00000000000E+00 -0.30029039076E+02  0.26306700955E+04  0.26304986995E+04 0.  0.
        5    1    3    3  502    0 -0.96251809394E+03  0.46098545166E+03  0.75374233465E+03  0.13065597058E+04  0.46999998093E+01 0.  1.
       -5    1    3    3    0  502  0.96251809394E+03 -0.46098545166E+03 -0.78377137373E+03  0.13241103897E+04  0.46999998093E+01 0. -1.
</event>
<event>
 5   0  0.3725232E-06  0.2604707E+04  0.7818609E-02  0.8366604E-01
        1   -1    0    0  501    0  0.00000000000E+00  0.00000000000E+00  0.17474469489E+04  0.17474469489E+04  0.50400001928E-02 0. -1.
       -1   -1    0    0    0  501  0.00000000000E+00  0.00000000000E+00 -0.97063028863E+03  0.97063028865E+03  0.50400001928E-02 0.  1.
    10030    2    1    2    0    0  0.00000000000E+00  0.00000000000E+00  0.77681666029E+03  0.27180772376E+04  0.26047072284E+04 0.  0.
        2    1    3    3  502    0  0.39667940294E+03  0.72175554202E+03 -0.66438346459E+03  0.10581545252E+04  0.25500000920E-02 0.  1.
       -2    1    3    3    0  502 -0.39667940294E+03 -0.72175554202E+03  0.14412001249E+04  0.16599227124E+04  0.25500000920E-02 0. -1.
</event>
<event>
 5   0  0.1057036E-05  0.3011638E+04  0.7818609E-02  0.8240415E-01
        2   -1    0    0  501    0  0.00000000000E+00  0.00000000000E+00  0.20858100895E+04  0.20858100895E+04  0.25500000920E-02 0.  1.
       -2   -1    0    0    0  501  0.00000000000E+00  0.00000000000E+00 -0.10871035228E+04  0.10871035228E+04  0.25500000920E-02 0. -1.
    10030    2    1    2    0    0  0.00000000000E+00  0.00000000000E+00  0.99870656671E+03  0.31729136124E+04  0.30116384220E+04 0.  0.
        4    1    3    3  502    0  0.13484620345E+03 -0.54112229144E+03 -0.97429748047E+03  0.11226103626E+04  0.12699999809E+01 0. -1.
       -4    1    3    3    0  502 -0.13484620345E+03  0.54112229144E+03  0.19730040472E+04  0.20503032498E+04  0.12699999809E+01 0.  1.
</event>
<event>
 5   0  0.3725232E-06  0.3003152E+04  0.7818609E-02  0.8242831E-01
        1   -1    0    0  501    0  0.00000000000E+00  0.00000000000E+00  0.20513912945E+04  0.20513912945E+04  0.50400001928E-02 0.  1.
       -1   -1    0    0    0  501  0.00000000000E+00  0.00000000000E+00 -0.10991227255E+04  0.10991227255E+04  0.50400001928E-02 0. -1.
    10030    2    1    2    0    0  0.00000000000E+00  0.00000000000E+00  0.95226856906E+03  0.31505140200E+04  0.30031522044E+04 0.  0.
        2    1    3    3  502    0  0.54504111944E+02 -0.99957962309E+03  0.16502486260E+04  0.19301426499E+04  0.25500000920E-02 0.  1.
       -2    1    3    3    0  502 -0.54504111944E+02  0.99957962309E+03 -0.69798005699E+03  0.12203713701E+04  0.25500000920E-02 0. -1.
</event>
<event>
 5   0  0.3852126E-06  0.2986856E+04  0.7818609E-02  0.8247494E-01
        1   -1    0    0  501    0  0.00000000000E+00  0.00000000000E+00  0.24097836415E+04  0.24097836415E+04  0.50400001928E-02 0.  1.
       -1   -1    0    0    0  501  0.00000000000E+00  0.00000000000E+00 -0.92552988726E+03  0.92552988727E+03  0.50400001928E-02 0. -1.
    10030    2    1    2    0    0  0.00000000000E+00  0.00000000000E+00  0.14842537542E+04  0.33353135288E+04  0.29868557260E+04 0.  0.
        1    1    3    3  502    0  0.75015464234E+02  0.95799666755E+03  0.20187142713E+04  0.22357531715E+04  0.50400001928E-02 0.  1.
       -1    1    3    3    0  502 -0.75015464234E+02 -0.95799666755E+03 -0.53446051705E+03  0.10995603572E+04  0.50400001928E-02 0. -1.
</event>
<event>
 5   0  0.9647945E-06  0.2965997E+04  0.7818609E-02  0.8253508E-01
       -2   -1    0    0    0  501  0.00000000000E+00  0.00000000000E+00  0.97625671854E+03  0.97625671855E+03  0.25500000920E-02 0.  1.
        2   -1    0    0  501    0  0.00000000000E+00  0.00000000000E+00 -0.22527732854E+04  0.22527732854E+04  0.25500000920E-02 0. -1.
    10030    2    1    2    0    0  0.00000000000E+00  0.00000000000E+00 -0.12765165669E+04  0.32290300040E+04  0.29659973400E+04 0.  0.
        2    1    3    3  502    0 -0.31791470584E+03  0.98124812856E+01  0.93868612177E+03  0.99110931798E+03  0.25500000920E-02 0.  1.
       -2    1    3    3    0  502  0.31791470584E+03 -0.98124812856E+01 -0.22152026886E+04  0.22379206860E+04  0.25500000920E-02 0. -1.
</event>
<event>
 5   0  0.3725232E-06  0.3021797E+04  0.7818609E-02  0.8237534E-01
       -1   -1    0    0    0  501  0.00000000000E+00  0.00000000000E+00  0.11050097880E+04  0.11050097881E+04  0.50400001928E-02 0.  1.
        1   -1    0    0  501    0  0.00000000000E+00  0.00000000000E+00 -0.20658765784E+04  0.20658765784E+04  0.50400001928E-02 0. -1.
    10030    2    1    2    0    0  0.00000000000E+00  0.00000000000E+00 -0.96086679033E+03  0.31708863664E+04  0.30217967106E+04 0.  0.
        2    1    3    3  502    0  0.55001780744E+03 -0.71028888065E+03 -0.17551886976E+04  0.19717295065E+04  0.25500000920E-02 0. -1.
       -2    1    3    3    0  502 -0.55001780744E+03  0.71028888065E+03  0.79432190727E+03  0.11991568600E+04  0.25500000920E-02 0.  1.
</event>
<event>
 5   0  0.1029922E-05  0.2974279E+04  0.7818609E-02  0.8251114E-01
        2   -1    0    0  501    0  0.00000000000E+00  0.00000000000E+00  0.22976261890E+04  0.22976261890E+04  0.25500000920E-02 0. -1.
       -2   -1    0    0    0  501  0.00000000000E+00  0.00000000000E+00 -0.96255192305E+03  0.96255192305E+03  0.25500000920E-02 0.  1.
    10030    2    1    2    0    0  0.00000000000E+00  0.00000000000E+00  0.13350742659E+04  0.32601781120E+04  0.29742794130E+04 0.  0.
        1    1    3    3  502    0 -0.34564727249E+03 -0.63336273743E+03 -0.75783005666E+03  0.10463874946E+04  0.50400001928E-02 0.  1.
       -1    1    3    3    0  502  0.34564727249E+03  0.63336273743E+03  0.20929043226E+04  0.22137906174E+04  0.50400001928E-02 0. -1.
</event>
<event>
 5   0  0.3592331E-06  0.3003058E+04  0.7818609E-02  0.8242858E-01
        1   -1    0    0  501    0  0.00000000000E+00  0.00000000000E+00  0.12665389058E+04  0.12665389058E+04  0.50400001928E-02 0.  1.
       -1   -1    0    0    0  501  0.00000000000E+00  0.00000000000E+00 -0.17801182549E+04  0.17801182549E+04  0.50400001928E-02 0. -1.
    10030    2    1    2    0    0  0.00000000000E+00  0.00000000000E+00 -0.51357934910E+03  0.30466571606E+04  0.30030577928E+04 0.  0.
        3    1    3    3  502    0  0.11803486303E+04 -0.66954263639E+03 -0.90883283167E+03  0.16332444266E+04  0.10100000352E+00 0. -1.
       -3    1    3    3    0  502 -0.11803486303E+04  0.66954263639E+03  0.39525348257E+03  0.14134127340E+04  0.10100000352E+00 0.  1.
</event>
<event>
 5   0  0.3592331E-06  0.3021384E+04  0.7818609E-02  0.8237651E-01
        1   -1    0    0  501    0  0.00000000000E+00  0.00000000000E+00  0.20589326120E+04  0.20589326120E+04  0.50400001928E-02 0. -1.
       -1   -1    0    0    0  501  0.00000000000E+00  0.00000000000E+00 -0.11084340226E+04  0.11084340226E+04  0.50400001928E-02 0.  1.
    10030    2    1    2    0    0  0.00000000000E+00  0.00000000000E+00  0.95049858944E+03  0.31673666346E+04  0.30213844227E+04 0.  0.
        3    1    3    3  502    0  0.87539288855E+03  0.46152189609E+03 -0.72133653814E+03  0.12245985388E+04  0.10100000352E+00 0.  1.
       -3    1    3    3    0  502 -0.87539288855E+03 -0.46152189609E+03  0.16718351276E+04  0.19427680958E+04  0.10100000352E+00 0. -1.
</event>
<event>
 5   0  0.1057036E-05  0.3000282E+04  0.7818609E-02  0.8243650E-01
        2   -1    0    0  501    0  0.00000000000E+00  0.00000000000E+00  0.15714602846E+04  0.15714602847E+04  0.25500000920E-02 0. -1.
       -2   -1    0    0    0  501  0.00000000000E+00  0.00000000000E+00 -0.14320584944E+04  0.14320584944E+04  0.25500000920E-02 0.  1.
    10030    2    1    2    0    0  0.00000000000E+00  0.00000000000E+00  0.13940179027E+03  0.30035187790E+04  0.30002820196E+04 0.  0.
        4    1    3    3  502    0 -0.12937803353E+04 -0.13494673994E+03 -0.67832892350E+03  0.14670412127E+04  0.12699999809E+01 0.  1.
       -4    1    3    3    0  502  0.12937803353E+04  0.13494673994E+03  0.81773071378E+03  0.15364775663E+04  0.12699999809E+01 0. -1.
</event>
<event>
 5   0  0.1029922E-05  0.3005128E+04  0.7818609E-02  0.8242268E-01
       -2   -1    0    0    0  501  0.00000000000E+00  0.00000000000E+00  0.15560488000E+04  0.15560488000E+04  0.25500000920E-02 0.  1.
        2   -1    0    0  501    0  0.00000000000E+00  0.00000000000E+00 -0.14509174870E+04  0.14509174870E+04  0.25500000920E-02 0. -1.
    10030    2    1    2    0    0  0.00000000000E+00  0.00000000000E+00  0.10513131301E+03  0.30069662869E+04  0.30051278938E+04 0.  0.
        1    1    3    3  502    0 -0.14858570449E+03  0.85792982495E+03  0.12778870096E+04  0.15463235449E+04  0.50400001928E-02 0.  1.
       -1    1    3    3    0  502  0.14858570449E+03 -0.85792982495E+03 -0.11727556966E+04  0.14606427421E+04  0.50400001928E-02 0. -1.
</event>
<event>
 5   0  0.3725232E-06  0.2979176E+04  0.7818609E-02  0.8249702E-01
        1   -1    0    0  501    0  0.00000000000E+00  0.00000000000E+00  0.21440650917E+04  0.21440650917E+04  0.50400001928E-02 0.  1.
       -1   -1    0    0    0  501  0.00000000000E+00  0.00000000000E+00 -0.10348905933E+04  0.10348905933E+04  0.50400001928E-02 0. -1.
    10030    2    1    2    0    0  0.00000000000E+00  0.00000000000E+00  0.11091744984E+04  0.31789556851E+04  0.29791762586E+04 0.  0.
        2    1    3    3  502    0  0.10670538577E+04 -0.18279067511E+03 -0.53718446328E+03  0.12085460330E+04  0.25500000920E-02 0. -1.
       -2    1    3    3    0  502 -0.10670538577E+04  0.18279067511E+03  0.16463589617E+04  0.19704096521E+04  0.25500000920E-02 0.  1.
</event>
<event>
 5   0  0.3852126E-06  0.3011973E+04  0.7818609E-02  0.8240320E-01
       -1   -1    0    0    0  501  0.00000000000E+00  0.00000000000E+00  0.10245742686E+04  0.10245742686E+04  0.50400001928E-02 0.  1.
        1   -1    0    0  501    0  0.00000000000E+00  0.00000000000E+00 -0.22135977662E+04  0.22135977662E+04  0.50400001928E-02 0. -1.
    10030    2    1    2    0    0  0.00000000000E+00  0.00000000000E+00 -0.11890234976E+04  0.32381720349E+04  0.30119729828E+04 0.  0.
        1    1    3    3  502    0 -0.80997286376E+03 -0.64498784258E+03  0.58120232772E+03  0.11873758895E+04  0.50400001928E-02 0.  1.
       -1    1    3    3    0  502  0.80997286376E+03  0.64498784258E+03 -0.17702258254E+04  0.20507961454E+04  0.50400001928E-02 0. -1.
</event>
<event>
 5   0  0.3896630E-06  0.2316330E+04  0.7818609E-02  0.8471510E-01
       -1   -1    0    0    0  501  0.00000000000E+00  0.00000000000E+00  0.71431969559E+03  0.71431969560E+03  0.50400001928E-02 0.  1.
        1   -1    0    0  501    0  0.00000000000E+00  0.00000000000E+00 -0.18777955757E+04  0.18777955757E+04  0.50400001928E-02 0. -1.
    10030    2    1    2    0    0  0.00000000000E+00  0.00000000000E+00 -0.11634758801E+04  0.25921152713E+04  0.23163301699E+04 0.  0.
        5    1    3    3  502    0 -0.64092698597E+03 -0.96458409374E+03 -0.59370712374E+03  0.13014300266E+04  0.46999998093E+01 0. -1.
       -5    1    3    3    0  502  0.64092698597E+03  0.96458409374E+03 -0.56976875634E+03  0.12906852447E+04  0.46999998093E+01 0.  1.
</event>
<event>
 5   0  0.9647945E-06  0.2922136E+04  0.7818609E-02  0.8266322E-01
        2   -1    0    0  501    0  0.00000000000E+00  0.00000000000E+00  0.15906545273E+04  0.15906545273E+04  0.25500000920E-02 0. -1.
       -2   -1    0    0    0  501  0.00000000000E+00  0.00000000000E+00 -0.13420389125E+04  0.13420389125E+04  0.25500000920E-02 0.  1.
    10030    2    1    2    0    0  0.00000000000E+00  0.00000000000E+00  0.24861561474E+03  0.29326934398E+04  0.29221363911E+04 0.  0.
        2    1    3    3  502    0 -0.12576040847E+04  0.10775779039E+03  0.86286078664E+03  0.15289566744E+04  0.25500000920E-02 0. -1.
       -2    1    3    3    0  502  0.12576040847E+04 -0.10775779039E+03 -0.61424517191E+03  0.14037367654E+04  0.25500000920E-02 0.  1.
</event>
<event>
 5   0  0.3636718E-06  0.2989563E+04  0.7818609E-02  0.8246718E-01
        1   -1    0    0  501    0  0.00000000000E+00  0.00000000000E+00  0.14728164438E+04  0.14728164438E+04  0.50400001928E-02 0. -1.
       -1   -1    0    0    0  501  0.00000000000E+00  0.00000000000E+00 -0.15170738707E+04  0.15170738707E+04  0.50400001928E-02 0.  1.
    10030    2    1    2    0    0  0.00000000000E+00  0.00000000000E+00 -0.44257426907E+02  0.29898903146E+04  0.29895627395E+04 0.  0.
        4    1    3    3  502    0 -0.81539977274E+03  0.11799546052E+04  0.39886879897E+03  0.14887134014E+04  0.12699999809E+01 0. -1.
       -4    1    3    3    0  502  0.81539977274E+03 -0.11799546052E+04 -0.44312622588E+03  0.15011769132E+04  0.12699999809E+01 0.  1.
</event>
<event>
 5   0  0.1089569E-05  0.2974501E+04  0.7818609E-02  0.8251050E-01
        2   -1    0    0  501    0  0.00000000000E+00  0.00000000000E+00  0.17354852143E+04  0.17354852143E+04  0.25500000920E-02 0.  1.
       -2   -1    0    0    0  501  0.00000000000E+00  0.00000000000E+00 -0.12745222593E+04  0.12745222593E+04  0.25500000920E-02 0. -1.
    10030    2    1    2    0    0  0.00000000000E+00  0.00000000000E+00  0.46096295502E+03  0.30100074737E+04  0.29745013272E+04 0.  0.
        5    1    3    3  502    0  0.55613969266E+03 -0.12865406492E+04 -0.27286352225E+03  0.14279197427E+04  0.46999998093E+01 0. -1.
       -5    1    3    3    0  502 -0.55613969266E+03  0.12865406492E+04  0.73382647727E+03  0.15820877310E+04  0.46999998093E+01 0.  1.
</event>
<event>
 5   0  0.3896630E-06  0.2659834E+04  0.7818609E-02  0.8348156E-01
        1   -1    0    0  501    0  0.00000000000E+00  0.00000000000E+00  0.17285182327E+04  0.17285182327E+04  0.50400001928E-02 0. -1.
       -1   -1    0    0    0  501  0.00000000000E+00  0.00000000000E+00 -0.10232346997E+04  0.10232346997E+04  0.50400001928E-02 0.  1.
    10030    2    1    2    0    0  0.00000000000E+00  0.00000000000E+00  0.70528353308E+03  0.27517529324E+04  0.26598344571E+04 0.  0.
        5    1    3    3  502    0  0.12282551492E+04  0.50990956864E+03  0.35912448748E+03  0.13775380094E+04  0.46999998093E+01 0. -1.
       -5    1    3    3    0  502 -0.12282551492E+04 -0.50990956864E+03  0.34615904560E+03  0.13742149230E+04  0.46999998093E+01 0.  1.
</event>
<event>
 5   0  0.3852126E-06  0.3010668E+04  0.7818609E-02  0.8240691E-01
       -1   -1    0    0    0  501  0.00000000000E+00  0.00000000000E+00  0.12088057164E+04  0.12088057164E+04  0.50400001928E-02 0. -1.
        1   -1    0    0  501    0  0.00000000000E+00  0.00000000000E+00 -0.18746027745E+04  0.18746027745E+04  0.50400001928E-02 0.  1.
    10030    2    1    2    0    0  0.00000000000E+00  0.00000000000E+00 -0.66579705810E+03  0.30834084909E+04  0.30106680653E+04 0.  0.
        1    1    3    3  502    0  0.99650170684E+02 -0.12182278961E+04 -0.12327747948E+04  0.17360135535E+04  0.50400001928E-02 0.  1.
       -1    1    3    3    0  502 -0.99650170684E+02  0.12182278961E+04  0.56697773668E+03  0.13473949374E+04  0.50400001928E-02 0. -1.
</event>
<event>
 5   0  0.9647945E-06  0.2997211E+04  0.7818609E-02  0.8244528E-01
       -2   -1    0    0    0  501  0.00000000000E+00  0.00000000000E+00  0.11899493413E+04  0.11899493413E+04  0.25500000920E-02 0.  1.
        2   -1    0    0  501    0  0.00000000000E+00  0.00000000000E+00 -0.18873221694E+04  0.18873221694E+04  0.25500000920E-02 0. -1.
    10030    2    1    2    0    0  0.00000000000E+00  0.00000000000E+00 -0.69737282817E+03  0.30772715107E+04  0.29972105514E+04 0.  0.
        2    1    3    3  502    0  0.58561023290E+02 -0.14827586767E+04 -0.13377454791E+03  0.14899323194E+04  0.25500000920E-02 0.  1.
       -2    1    3    3    0  502 -0.58561023290E+02  0.14827586767E+04 -0.56359828026E+03  0.15873391913E+04  0.25500000920E-02 0. -1.
</event>
<event>
 5   0  0.3896630E-06  0.2554534E+04  0.7818609E-02  0.8383811E-01
        1   -1    0    0  501    0  0.00000000000E+00  0.00000000000E+00  0.87879475906E+03  0.87879475908E+03  0.50400001928E-02 0.  1.
       -1   -1    0    0    0  501  0.00000000000E+00  0.00000000000E+00 -0.18564179658E+04  0.18564179658E+04  0.50400001928E-02 0. -1.
    10030    2    1    2    0    0  0.00000000000E+00  0.00000000000E+00 -0.97762320670E+03  0.27352127248E+04  0.25545335222E+04 0.  0.
        5    1    3    3  502    0  0.46451589385E+03  0.10558378917E+04  0.98451317837E+02  0.11577061031E+04  0.46999998093E+01 0.  1.
       -5    1    3    3    0  502 -0.46451589385E+03 -0.10558378917E+04 -0.10760745245E+04  0.15775066217E+04  0.46999998093E+01 0. -1.
</event>
<event>
 5   0  0.1029922E-05  0.2989900E+04  0.7818609E-02  0.8246621E-01
       -2   -1    0    0    0  501  0.00000000000E+00  0.00000000000E+00  0.12645790572E+04  0.12645790572E+04  0.25500000920E-02 0. -1.
        2   -1    0    0  501    0  0.00000000000E+00  0.00000000000E+00 -0.17672879433E+04  0.17672879433E+04  0.25500000920E-02 0.  1.
    10030    2    1    2    0    0  0.00000000000E+00  0.00000000000E+00 -0.50270888606E+03  0.30318670005E+04  0.29898998787E+04 0.  0.
        1    1    3    3  502    0 -0.67329374377E+03 -0.12546770416E+04  0.21037891700E+03  0.14393742504E+04  0.50400001928E-02 0. -1.
       -1    1    3    3    0  502  0.67329374377E+03  0.12546770416E+04 -0.71308780306E+03  0.15924927501E+04  0.50400001928E-02 0.  1.
</event>
<event>
 5   0  0.3852126E-06  0.2645671E+04  0.7818609E-02  0.8352851E-01
       -1   -1    0    0    0  501  0.00000000000E+00  0.00000000000E+00  0.17366523086E+04  0.17366523086E+04  0.50400001928E-02 0. -1.
        1   -1    0    0  501    0  0.00000000000E+00  0.00000000000E+00 -0.10076247342E+04  0.10076247342E+04  0.50400001928E-02 0.  1.
    10030    2    1    2    0    0  0.00000000000E+00  0.00000000000E+00  0.72902757440E+03  0.27442770427E+04  0.26456710459E+04 0.  0.
        1    1    3    3  502    0 -0.12663467345E+03 -0.54477608249E+03  0.16079744531E+04  0.17024685497E+04  0.50400001928E-02 0. -1.
       -1    1    3    3    0  502  0.12663467345E+03  0.54477608249E+03 -0.87894687874E+03  0.10418084931E+04  0.50400001928E-02 0.  1.
</event>
<event>
 5   0  0.3725232E-06  0.2932400E+04  0.7818609E-02  0.8263302E-01
       -1   -1    0    0    0  501  0.00000000000E+00  0.00000000000E+00  0.72393932544E+03  0.72393932545E+03  0.50400001928E-02 0.  1.
        1   -1    0    0  501    0  0.00000000000E+00  0.00000000000E+00 -0.29695058348E+04  0.29695058348E+04  0.50400001928E-02 0. -1.
    10030    2    1    2    0    0  0.00000000000E+00  0.00000000000E+00 -0.22455665094E+04  0.36934451603E+04  0.29323997347E+04 0.  0.
        2    1    3    3  502    0  0.25800525203E+03 -0.17735832641E+03 -0.29269117344E+04  0.29436091770E+04  0.25500000920E-02 0. -1.
       -2    1    3    3    0  502 -0.25800525203E+03  0.17735832641E+03  0.68134522506E+03  0.74983598322E+03  0.25500000920E-02 0.  1.
</event>
<event>
 5   0  0.1057036E-05  0.2842797E+04  0.7818609E-02  0.8290103E-01
       -2   -1    0    0    0  501  0.00000000000E+00  0.00000000000E+00  0.11072366540E+04  0.11072366540E+04  0.25500000920E-02 0. -1.
        2   -1    0    0  501    0  0.00000000000E+00  0.00000000000E+00 -0.18246994548E+04  0.18246994548E+04  0.25500000920E-02 0.  1.
    10030    2    1    2    0    0  0.00000000000E+00  0.00000000000E+00 -0.71746280081E+03  0.29319361087E+04  0.28427972976E+04 0.  0.
        4    1    3    3  502    0  0.41177709520E+03  0.36773613297E+03 -0.17096039678E+04  0.17965348811E+04  0.12699999809E+01 0.  1.
       -4    1    3    3    0  502 -0.41177709520E+03 -0.36773613297E+03  0.99214116695E+03  0.11354012276E+04  0.12699999809E+01 0. -1.
</event>
<event>
 5   0  0.9647945E-06  0.3023234E+04  0.7818609E-02  0.8237127E-01
        2   -1    0    0  501    0  0.00000000000E+00  0.00000000000E+00  0.14977974493E+04  0.14977974493E+04  0.25500000920E-02 0.  1.
       -2   -1    0    0    0  501  0.00000000000E+00  0.00000000000E+00 -0.15255644973E+04  0.15255644973E+04  0.25500000920E-02 0. -1.
    10030    2    1    2    0    0  0.00000000000E+00  0.00000000000E+00 -0.27767047965E+02  0.30233619465E+04  0.30232344353E+04 0.  0.
        2    1    3    3  502    0 -0.27918209306E+03 -0.14843027830E+04 -0.76249765892E+02  0.15122537550E+04  0.25500000920E-02 0. -1.
       -2    1    3    3    0  502  0.27918209306E+03  0.14843027830E+04  0.48482717926E+02  0.15111081916E+04  0.25500000920E-02 0.  1.
</event>
<event>
 5   0  0.1057036E-05  0.3032416E+04  0.7818609E-02  0.8234534E-01
       -2   -1    0    0    0  501  0.00000000000E+00  0.00000000000E+00  0.32509690218E+04  0.32509690218E+04  0.25500000920E-02 0. -1.
        2   -1    0    0  501    0  0.00000000000E+00  0.00000000000E+00 -0.70713882335E+03  0.70713882336E+03  0.25500000920E-02 0.  1.
    10030    2    1    2    0    0  0.00000000000E+00  0.00000000000E+00  0.25438301984E+04  0.39581078451E+04  0.30324158084E+04 0.  0.
        4    1    3    3  502    0 -0.16642075826E+03 -0.64800649185E+03  0.30478805661E+04  0.31204464169E+04  0.12699999809E+01 0. -1.
       -4    1    3    3    0  502  0.16642075826E+03  0.64800649185E+03 -0.50405036773E+03  0.83766142825E+03  0.12699999809E+01 0.  1.
</event>
<event>
 5   0  0.3725232E-06  0.2978131E+04  0.7818609E-02  0.8250003E-01
        1   -1    0    0  501    0  0.00000000000E+00  0.00000000000E+00  0.14360372418E+04  0.14360372418E+04  0.50400001928E-02 0.  1.
       -1   -1    0    0    0  501  0.00000000000E+00  0.00000000000E+00 -0.15440523470E+04  0.15440523470E+04  0.50400001928E-02 0. -1.
    10030    2    1    2    0    0  0.00000000000E+00  0.00000000000E+00 -0.10801510513E+03  0.29800895888E+04  0.29781314098E+04 0.  0.
        2    1    3    3  502    0 -0.70016932846E+03 -0.11557188619E+04 -0.68003340197E+03  0.15127354706E+04  0.25500000920E-02 0.  1.
       -2    1    3    3    0  502  0.70016932846E+03  0.11557188619E+04  0.57201829684E+03  0.14673541182E+04  0.25500000920E-02 0. -1.
</event>
<event>
 5   0  0.1029922E-05  0.2996846E+04  0.7818609E-02  0.8244632E-01
       -2   -1    0    0    0  501  0.00000000000E+00  0.00000000000E+00  0.23694056148E+04  0.23694056148E+04  0.25500000920E-02 0. -1.
        2   -1    0    0  501    0  0.00000000000E+00  0.00000000000E+00 -0.94760943595E+03  0.94760943595E+03  0.25500000920E-02 0.  1.
    10030    2    1    2    0    0  0.00000000000E+00  0.00000000000E+00  0.14217961788E+04  0.33170150507E+04  0.29968457539E+04 0.  0.
        1    1    3    3  502    0 -0.65374864775E+03 -0.58761568572E+03 -0.63225097925E+03  0.10827838147E+04  0.50400001928E-02 0.  1.
       -1    1    3    3    0  502  0.65374864775E+03  0.58761568572E+03  0.20540471581E+04  0.22342312361E+04  0.50400001928E-02 0. -1.
</event>
<event>
 5   0  0.3636718E-06  0.2748035E+04  0.7818609E-02  0.8319585E-01
        1   -1    0    0  501    0  0.00000000000E+00  0.00000000000E+00  0.19916048195E+04  0.19916048195E+04  0.50400001928E-02 0.  1.
       -1   -1    0    0    0  501  0.00000000000E+00  0.00000000000E+00 -0.94794114614E+03  0.94794114615E+03  0.50400001928E-02 0. -1.
    10030    2    1    2    0    0  0.00000000000E+00  0.00000000000E+00  0.10436636734E+04  0.29395459656E+04  0.27480350473E+04 0.  0.
        4    1    3    3  502    0 -0.13697022978E+04 -0.83608040335E+01  0.63787351925E+03  0.15109727089E+04  0.12699999809E+01 0.  1.
       -4    1    3    3    0  502  0.13697022978E+04  0.83608040335E+01  0.40579015411E+03  0.14285732567E+04  0.12699999809E+01 0. -1.
</event>
<event>
 5   0  0.3725232E-06  0.3078363E+04  0.7818609E-02  0.8221701E-01
       -1   -1    0    0    0  501  0.00000000000E+00  0.00000000000E+00  0.88335173696E+03  0.88335173697E+03  0.50400001928E-02 0. -1.
        1   -1    0    0  501    0  0.00000000000E+00  0.00000000000E+00 -0.26819217368E+04  0.26819217368E+04  0.50400001928E-02 0.  1.
    10030    2    1    2    0    0  0.00000000000E+00  0.00000000000E+00 -0.17985699999E+04  0.35652734738E+04  0.30783633474E+04 0.  0.
        2    1    3    3  502    0 -0.50405535829E+02  0.13095940686E+04  0.35541767069E+02  0.13110455979E+04  0.25500000920E-02 0. -1.
       -2    1    3    3    0  502  0.50405535829E+02 -0.13095940686E+04 -0.18341117669E+04  0.22542278758E+04  0.25500000920E-02 0.  1.
</event>
<event>
 5   0  0.3852126E-06  0.2352887E+04  0.7818609E-02  0.8457356E-01
       -1   -1    0    0    0  501  0.00000000000E+00  0.00000000000E+00  0.71334161447E+03  0.71334161449E+03  0.50400001928E-02 0.  1.
        1   -1    0    0  501    0  0.00000000000E+00  0.00000000000E+00 -0.19401913828E+04  0.19401913828E+04  0.50400001928E-02 0. -1.
    10030    2    1    2    0    0  0.00000000000E+00  0.00000000000E+00 -0.12268497683E+04  0.26535329973E+04  0.23528869530E+04 0.  0.
        1    1    3    3  502    0  0.61235095194E+03  0.80197036919E+03 -0.12956035953E+04  0.16421689430E+04  0.50400001928E-02 0. -1.
       -1    1    3    3    0  502 -0.61235095194E+03 -0.80197036919E+03  0.68753826976E+02  0.10113640542E+04  0.50400001928E-02 0.  1.
</event>
<event>
 5   0  0.1029922E-05  0.2809668E+04  0.7818609E-02  0.8300273E-01
       -2   -1    0    0    0  501  0.00000000000E+00  0.00000000000E+00  0.10469981369E+04  0.10469981369E+04  0.25500000920E-02 0. -1.
        2   -1    0    0  501    0  0.00000000000E+00  0.00000000000E+00 -0.18849684584E+04  0.18849684584E+04  0.25500000920E-02 0.  1.
    10030    2    1    2    0    0  0.00000000000E+00  0.00000000000E+00 -0.83797032155E+03  0.29319665953E+04  0.28096679263E+04 0.  0.
        1    1    3    3  502    0 -0.45316885424E+03  0.12872654714E+04 -0.71090989784E+02  0.13665534505E+04  0.50400001928E-02 0. -1.
       -1    1    3    3    0  502  0.45316885424E+03 -0.12872654714E+04 -0.76687933176E+03  0.15654131448E+04  0.50400001928E-02 0.  1.
</event>
<event>
 5   0  0.3592331E-06  0.2054410E+04  0.7818609E-02  0.8581596E-01
       -1   -1    0    0    0  501  0.00000000000E+00  0.00000000000E+00  0.72440498799E+03  0.72440498801E+03  0.50400001928E-02 0.  1.
        1   -1    0    0  501    0  0.00000000000E+00  0.00000000000E+00 -0.14565755834E+04  0.14565755834E+04  0.50400001928E-02 0. -1.
    10030    2    1    2    0    0  0.00000000000E+00  0.00000000000E+00 -0.73217059545E+03  0.21809805715E+04  0.20544104926E+04 0.  0.
        3    1    3    3  502    0 -0.85108164920E+03  0.41764807453E+03 -0.78589858167E+03  0.12314245729E+04  0.10100000352E+00 0. -1.
       -3    1    3    3    0  502  0.85108164920E+03 -0.41764807453E+03  0.53727986225E+02  0.94955599860E+03  0.10100000352E+00 0.  1.
</event>
<event>
 5   0  0.3896630E-06  0.3071216E+04  0.7818609E-02  0.8223682E-01
        1   -1    0    0  501    0  0.00000000000E+00  0.00000000000E+00  0.15783593758E+04  0.15783593758E+04  0.50400001928E-02 0. -1.
       -1   -1    0    0    0  501  0.00000000000E+00  0.00000000000E+00 -0.14940142329E+04  0.14940142329E+04  0.50400001928E-02 0.  1.
    10030    2    1    2    0    0  0.00000000000E+00  0.00000000000E+00  0.84345142869E+02  0.30723736087E+04  0.30712156369E+04 0.  0.
        5    1    3    3  502    0 -0.61995659149E+03  0.13725929059E+04 -0.25745967658E+03  0.15279610714E+04  0.46999998093E+01 0.  1.
       -5    1    3    3    0  502  0.61995659149E+03 -0.13725929059E+04  0.34180481945E+03  0.15444125373E+04  0.46999998093E+01 0. -1.
</event>
<event>
 5   0  0.3592331E-06  0.2969657E+04  0.7818609E-02  0.8252449E-01
        1   -1    0    0  501    0  0.00000000000E+00  0.00000000000E+00  0.21746946057E+04  0.21746946057E+04  0.50400001928E-02 0. -1.
       -1   -1    0    0    0  501  0.00000000000E+00  0.00000000000E+00 -0.10138050345E+04  0.10138050345E+04  0.50400001928E-02 0.  1.
    10030    2    1    2    0    0  0.00000000000E+00  0.00000000000E+00  0.11608895712E+04  0.31884996403E+04  0.29696574482E+04 0.  0.
        3    1    3    3  502    0 -0.17696606923E+03 -0.53914508020E+03  0.20536834428E+04  0.21306360789E+04  0.10100000352E+00 0. -1.
       -3    1    3    3    0  502  0.17696606923E+03  0.53914508020E+03 -0.89279387158E+03  0.10578635614E+04  0.10100000352E+00 0.  1.
</event>
<event>
 5   0  0.9647945E-06  0.2988959E+04  0.7818609E-02  0.8246891E-01
       -2   -1    0    0    0  501  0.00000000000E+00  0.00000000000E+00  0.11657089077E+04  0.11657089077E+04  0.25500000920E-02 0. -1.
        2   -1    0    0  501    0  0.00000000000E+00  0.00000000000E+00 -0.19159751201E+04  0.19159751201E+04  0.25500000920E-02 0.  1.
    10030    2    1    2    0    0  0.00000000000E+00  0.00000000000E+00 -0.75026621246E+03  0.30816840278E+04  0.29889591931E+04 0.  0.
        2    1    3    3  502    0 -0.75996948412E+03 -0.10871854166E+04 -0.10849256215E+04  0.17136479659E+04  0.25500000920E-02 0.  1.
       -2    1    3    3    0  502  0.75996948412E+03  0.10871854166E+04  0.33465940900E+03  0.13680360620E+04  0.25500000920E-02 0. -1.
</event>
<event>
 5   0  0.9647945E-06  0.3028100E+04  0.7818609E-02  0.8235752E-01
       -2   -1    0    0    0  501  0.00000000000E+00  0.00000000000E+00  0.10622579565E+04  0.10622579565E+04  0.25500000920E-02 0. -1.
        2   -1    0    0  501    0  0.00000000000E+00  0.00000000000E+00 -0.21579944448E+04  0.21579944448E+04  0.25500000920E-02 0.  1.
    10030    2    1    2    0    0  0.00000000000E+00  0.00000000000E+00 -0.10957364884E+04  0.32202524013E+04  0.30280995816E+04 0.  0.
        2    1    3    3  502    0  0.90485650231E+02 -0.17721847120E+03  0.10482921186E+04  0.10670100306E+04  0.25500000920E-02 0. -1.
       -2    1    3    3    0  502 -0.90485650231E+02  0.17721847120E+03 -0.21440286070E+04  0.21532423707E+04  0.25500000920E-02 0.  1.
</event>
<event>
 5   0  0.1057036E-05  0.3055352E+04  0.7818609E-02  0.8228099E-01
       -2   -1    0    0    0  501  0.00000000000E+00  0.00000000000E+00  0.12996085823E+04  0.12996085823E+04  0.25500000920E-02 0.  1.
        2   -1    0    0  501    0  0.00000000000E+00  0.00000000000E+00 -0.17957665936E+04  0.17957665936E+04  0.25500000920E-02 0. -1.
    10030    2    1    2    0    0  0.00000000000E+00  0.00000000000E+00 -0.49615801126E+03  0.30953751759E+04  0.30553518140E+04 0.  0.
        4    1    3    3  502    0  0.70952593580E+03 -0.53349241604E+03  0.10114895714E+04  0.13457912088E+04  0.12699999809E+01 0.  1.
       -4    1    3    3    0  502 -0.70952593580E+03  0.53349241604E+03 -0.15076475827E+04  0.17495839671E+04  0.12699999809E+01 0. -1.
</event>
<event>
 5   0  0.3592331E-06  0.2887250E+04  0.7818609E-02  0.8276681E-01
        1   -1    0    0  501    0  0.00000000000E+00  0.00000000000E+00  0.19103942336E+04  0.19103942337E+04  0.50400001928E-02 0. -1.
       -1   -1    0    0    0  501  0.00000000000E+00  0.00000000000E+00 -0.10909019917E+04  0.10909019918E+04  0.50400001928E-02 0.  1.
    10030    2    1    2    0    0  0.00000000000E+00  0.00000000000E+00  0.81949224190E+03  0.30012962254E+04  0.28872498157E+04 0.  0.
        3    1    3    3  502    0 -0.68955997229E+03  0.12069125748E+04  0.81491376565E+03  0.16112775596E+04  0.10100000352E+00 0. -1.
       -3    1    3    3    0  502  0.68955997229E+03 -0.12069125748E+04  0.45784762496E+01  0.13900186658E+04  0.10100000352E+00 0.  1.
</event>
<event>
 5   0  0.3636718E-06  0.2293060E+04  0.7818609E-02  0.8480662E-01
       -1   -1    0    0    0  501  0.00000000000E+00  0.00000000000E+00  0.88128596286E+03  0.88128596288E+03  0.50400001928E-02 0.  1.
        1   -1    0    0  501    0  0.00000000000E+00  0.00000000000E+00 -0.14916055919E+04  0.14916055919E+04  0.50400001928E-02 0. -1.
    10030    2    1    2    0    0  0.00000000000E+00  0.00000000000E+00 -0.61031962901E+03  0.23728915548E+04  0.22930600256E+04 0.  0.
        4    1    3    3  502    0 -0.10972735483E+04 -0.88971481259E+02 -0.63663058177E+03  0.12717017240E+04  0.12699999809E+01 0. -1.
       -4    1    3    3    0  502  0.10972735483E+04  0.88971481259E+02  0.26310952761E+02  0.11011898308E+04  0.12699999809E+01 0.  1.
</event>
<event>
 5   0  0.1089569E-05  0.2988821E+04  0.7818609E-02  0.8246930E-01
       -2   -1    0    0    0  501  0.00000000000E+00  0.00000000000E+00  0.94796767107E+03  0.94796767108E+03  0.25500000920E-02 0.  1.
        2   -1    0    0  501    0  0.00000000000E+00  0.00000000000E+00 -0.23558431830E+04  0.23558431830E+04  0.25500000920E-02 0. -1.
    10030    2    1    2    0    0  0.00000000000E+00  0.00000000000E+00 -0.14078755119E+04  0.33038108541E+04  0.29888212898E+04 0.  0.
        5    1    3    3  502    0  0.68322908379E+03 -0.13082622413E+04 -0.44496269917E+03  0.15415466151E+04  0.46999998093E+01 0.  1.
       -5    1    3    3    0  502 -0.68322908379E+03  0.13082622413E+04 -0.96291281276E+03  0.17622642390E+04  0.46999998093E+01 0. -1.
</event>
<event>
 5   0  0.3896630E-06  0.3131030E+04  0.7818609E-02  0.8207273E-01
       -1   -1    0    0    0  501  0.00000000000E+00  0.00000000000E+00  0.10667661372E+04  0.10667661372E+04  0.50400001928E-02 0.  1.
        1   -1    0    0  501    0  0.00000000000E+00  0.00000000000E+00 -0.22974455216E+04  0.22974455216E+04  0.50400001928E-02 0. -1.
    10030    2    1    2    0    0  0.00000000000E+00  0.00000000000E+00 -0.12306793844E+04  0.33642116588E+04  0.31310299165E+04 0.  0.
        5    1    3    3  502    0  0.22173380123E+03 -0.28704906630E+03  0.10209871684E+04  0.10835127748E+04  0.46999998093E+01 0.  1.
       -5    1    3    3    0  502 -0.22173380123E+03  0.28704906630E+03 -0.22516665527E+04  0.22806988841E+04  0.46999998093E+01 0. -1.
</event>
<event>
 5   0  0.3636718E-06  0.3013007E+04  0.7818609E-02  0.8240026E-01
        1   -1    0    0  501    0  0.00000000000E+00  0.00000000000E+00  0.22663193685E+04  0.22663193685E+04  0.50400001928E-02 0.  1.
       -1   -1    0    0    0  501  0.00000000000E+00  0.00000000000E+00 -0.10014269443E+04  0.10014269443E+04  0.50400001928E-02 0. -1.
    10030    2    1    2    0    0  0.00000000000E+00  0.00000000000E+00  0.12648924242E+04  0.32677463128E+04  0.30130073217E+04 0.  0.
        4    1    3    3  502    0  0.95391982609E+03 -0.28560769744E+03  0.18585195278E+04  0.21084665612E+04  0.12699999809E+01 0.  1.
       -4    1    3    3    0  502 -0.95391982609E+03  0.28560769744E+03 -0.59362710368E+03  0.11592797516E+04  0.12699999809E+01 0. -1.
</event>
<event>
 5   0  0.1089569E-05  0.2971962E+04  0.7818609E-02  0.8251783E-01
       -2   -1    0    0    0  501  0.00000000000E+00  0.00000000000E+00  0.12942454160E+04  0.12942454160E+04  0.25500000920E-02 0. -1.
        2   -1    0    0  501    0  0.00000000000E+00  0.00000000000E+00 -0.17061211651E+04  0.17061211651E+04  0.25500000920E-02 0.  1.
    10030    2    1    2    0    0  0.00000000000E+00  0.00000000000E+00 -0.41187574912E+03  0.30003665811E+04  0.29719619763E+04 0.  0.
        5    1    3    3  502    0 -0.89314154849E+03 -0.11219050146E+04 -0.59920520014E+03  0.15541691186E+04  0.46999998093E+01 0.  1.
       -5    1    3    3    0  502  0.89314154849E+03  0.11219050146E+04  0.18732945102E+03  0.14461974625E+04  0.46999998093E+01 0. -1.
</event>
<event>
 5   0  0.3592331E-06  0.3001206E+04  0.7818609E-02  0.8243386E-01
       -1   -1    0    0    0  501  0.00000000000E+00  0.00000000000E+00  0.19873187764E+04  0.19873187764E+04  0.50400001928E-02 0.  1.
        1   -1    0    0  501    0  0.00000000000E+00  0.00000000000E+00 -0.11330894667E+04  0.11330894667E+04  0.50400001928E-02 0. -1.
    10030    2    1    2    0    0  0.00000000000E+00  0.00000000000E+00  0.85422930969E+03  0.31204082430E+04  0.30012064057E+04 0.  0.
        3    1    3    3  502    0  0.61326231851E+03  0.13687358278E+04  0.47677710315E+03  0.15737994961E+04  0.10100000352E+00 0. -1.
       -3    1    3    3    0  502 -0.61326231851E+03 -0.13687358278E+04  0.37745220655E+03  0.15466087469E+04  0.10100000352E+00 0.  1.
</event>
<event>
 5   0  0.3592331E-06  0.2967595E+04  0.7818609E-02  0.8253045E-01
       -1   -1    0    0    0  501  0.00000000000E+00  0.00000000000E+00  0.11865239237E+04  0.11865239237E+04  0.50400001928E-02 0. -1.
        1   -1    0    0  501    0  0.00000000000E+00  0.00000000000E+00 -0.18555507596E+04  0.18555507596E+04  0.50400001928E-02 0.  1.
    10030    2    1    2    0    0  0.00000000000E+00  0.00000000000E+00 -0.66902683593E+03  0.30420746833E+04  0.29675952337E+04 0.  0.
        3    1    3    3  502    0 -0.78051031578E+03  0.12538686759E+04 -0.18855900321E+03  0.14889383860E+04  0.10100000352E+00 0. -1.
       -3    1    3    3    0  502  0.78051031578E+03 -0.12538686759E+04 -0.48046783272E+03  0.15531362973E+04  0.10100000352E+00 0.  1.
</event>
<event>
 5   0  0.3592331E-06  0.3087054E+04  0.7818609E-02  0.8219300E-01
       -1   -1    0    0    0  501  0.00000000000E+00  0.00000000000E+00  0.12712636739E+04  0.12712636739E+04  0.50400001928E-02 0.  1.
        1   -1    0    0  501    0  0.00000000000E+00  0.00000000000E+00 -0.18741006115E+04  0.18741006115E+04  0.50400001928E-02 0. -1.
    10030    2    1    2    0    0  0.00000000000E+00  0.00000000000E+00 -0.60283693764E+03  0.31453642854E+04  0.30870542779E+04 0.  0.
        3    1    3    3  502    0  0.31020485982E+03 -0.12481839931E+04  0.56809751919E+03  0.14060316985E+04  0.10100000352E+00 0.  1.
       -3    1    3    3    0  502 -0.31020485982E+03  0.12481839931E+04 -0.11709344568E+04  0.17393325869E+04  0.10100000352E+00 0. -1.
</event>
<event>
 5   0  0.3725232E-06  0.3051496E+04  0.7818609E-02  0.8229177E-01
        1   -1    0    0  501    0  0.00000000000E+00  0.00000000000E+00  0.17566128091E+04  0.17566128091E+04  0.50400001928E-02 0.  1.
       -1   -1    0    0    0  501  0.00000000000E+00  0.00000000000E+00 -0.13252244939E+04  0.13252244939E+04  0.50400001928E-02 0. -1.
    10030    2    1    2    0    0  0.00000000000E+00  0.00000000000E+00  0.43138831523E+03  0.30818373030E+04  0.30514955815E+04 0.  0.
        2    1    3    3  502    0  0.10551923415E+04 -0.10530066791E+04  0.54396824220E+03  0.15868696834E+04  0.25500000920E-02 0. -1.
       -2    1    3    3    0  502 -0.10551923415E+04  0.10530066791E+04 -0.11257992697E+03  0.14949676196E+04  0.25500000920E-02 0.  1.
</event>
<event>
 5   0  0.3636718E-06  0.2894355E+04  0.7818609E-02  0.8274559E-01
       -1   -1    0    0    0  501  0.00000000000E+00  0.00000000000E+00  0.17649281863E+04  0.17649281863E+04  0.50400001928E-02 0. -1.
        1   -1    0    0  501    0  0.00000000000E+00  0.00000000000E+00 -0.11866331137E+04  0.11866331137E+04  0.50400001928E-02 0.  1.
    10030    2    1    2    0    0  0.00000000000E+00  0.00000000000E+00  0.57829507264E+03  0.29515613001E+04  0.28943546633E+04 0.  0.
        4    1    3    3  502    0  0.17236319695E+03 -0.57127259539E+03  0.16336367570E+04  0.17392044493E+04  0.12699999809E+01 0. -1.
       -4    1    3    3    0  502 -0.17236319695E+03  0.57127259539E+03 -0.10553416843E+04  0.12123568507E+04  0.12699999809E+01 0.  1.
</event>
<event>
 5   0  0.3636718E-06  0.3060621E+04  0.7818609E-02  0.8226629E-01
       -1   -1    0    0    0  501  0.00000000000E+00  0.00000000000E+00  0.10393295143E+04  0.10393295143E+04  0.50400001928E-02 0. -1.
        1   -1    0    0  501    0  0.00000000000E+00  0.00000000000E+00 -0.22532319488E+04  0.22532319488E+04  0.50400001928E-02 0.  1.
    10030    2    1    2    0    0  0.00000000000E+00  0.00000000000E+00 -0.12139024345E+04  0.32925614631E+04  0.30606211572E+04 0.  0.
        4    1    3    3  502    0 -0.81281559693E+03 -0.11293345349E+04 -0.12922363797E+04  0.18989318472E+04  0.12699999809E+01 0.  1.
       -4    1    3    3    0  502  0.81281559693E+03  0.11293345349E+04  0.78333945245E+02  0.13936296159E+04  0.12699999809E+01 0. -1.
</event>
<event>
 5   0  0.1028450E-05  0.3067717E+04  0.7818609E-02  0.8224654E-01
        2   -1    0    0  501    0  0.00000000000E+00  0.00000000000E+00  0.19311068934E+04  0.19311068934E+04  0.25500000920E-02 0. -1.
       -2   -1    0    0    0  501  0.00000000000E+00  0.00000000000E+00 -0.12183281659E+04  0.12183281659E+04  0.25500000920E-02 0.  1.
    10030    2    1    2    0    0  0.00000000000E+00  0.00000000000E+00  0.71277872742E+03  0.31494350593E+04  0.30677170141E+04 0.  0.
        3    1    3    3  502    0 -0.28666376719E+01  0.14884084020E+03  0.19236726989E+04  0.19294243898E+04  0.10100000352E+00 0. -1.
       -3    1    3    3    0  502  0.28666376719E+01 -0.14884084020E+03 -0.12108939715E+04  0.12200106695E+04  0.10100000352E+00 0.  1.
</event>
<event>
 5   0  0.1057036E-05  0.2036249E+04  0.7818609E-02  0.8589858E-01
        2   -1    0    0  501    0  0.00000000000E+00  0.00000000000E+00  0.68907335546E+03  0.68907335547E+03  0.25500000920E-02 0. -1.
       -2   -1    0    0    0  501  0.00000000000E+00  0.00000000000E+00 -0.15043069082E+04  0.15043069082E+04  0.25500000920E-02 0.  1.
    10030    2    1    2    0    0  0.00000000000E+00  0.00000000000E+00 -0.81523355271E+03  0.21933802636E+04  0.20362493058E+04 0.  0.
        4    1    3    3  502    0 -0.89637072821E+03  0.28169926434E+03  0.14738738258E+02  0.93970942383E+03  0.12699999809E+01 0.  1.
       -4    1    3    3    0  502  0.89637072821E+03 -0.28169926434E+03 -0.82997229097E+03  0.12536708398E+04  0.12699999809E+01 0. -1.
</event>
<event>
 5   0  0.1057036E-05  0.2897169E+04  0.7818609E-02  0.8273720E-01
        2   -1    0    0  501    0  0.00000000000E+00  0.00000000000E+00  0.23368313780E+04  0.23368313780E+04  0.25500000920E-02 0.  1.
       -2   -1    0    0    0  501  0.00000000000E+00  0.00000000000E+00 -0.89796692576E+03  0.89796692577E+03  0.25500000920E-02 0. -1.
    10030    2    1    2    0    0  0.00000000000E+00  0.00000000000E+00  0.14388644523E+04  0.32347983038E+04  0.28971691622E+04 0.  0.
        4    1    3    3  502    0 -0.11126106969E+04 -0.83607236026E+03  0.11681027174E+04  0.18169714158E+04  0.12699999809E+01 0.  1.
       -4    1    3    3    0  502  0.11126106969E+04  0.83607236026E+03  0.27076173486E+03  0.14178268880E+04  0.12699999809E+01 0. -1.
</event>
<event>
 5   0  0.3896630E-06  0.3117069E+04  0.7818609E-02  0.8211069E-01
       -1   -1    0    0    0  501  0.00000000000E+00  0.00000000000E+00  0.10090649362E+04  0.10090649362E+04  0.50400001928E-02 0. -1.
        1   -1    0    0  501    0  0.00000000000E+00  0.00000000000E+00 -0.24072093365E+04  0.24072093365E+04  0.50400001928E-02 0.  1.
    10030    2    1    2    0    0  0.00000000000E+00  0.00000000000E+00 -0.13981444003E+04  0.34162742727E+04  0.31170694799E+04 0.  0.
        5    1    3    3  502    0  0.11638309012E+04 -0.74569998954E+03 -0.14882129954E+04  0.20311008963E+04  0.46999998093E+01 0.  1.
       -5    1    3    3    0  502 -0.11638309012E+04  0.74569998954E+03  0.90068595070E+02  0.13851733765E+04  0.46999998093E+01 0. -1.
</event>
<event>
 5   0  0.3592331E-06  0.2949980E+04  0.7818609E-02  0.8258160E-01
       -1   -1    0    0    0  501  0.00000000000E+00  0.00000000000E+00  0.96144188900E+03  0.96144188901E+03  0.50400001928E-02 0.  1.
        1   -1    0    0  501    0  0.00000000000E+00  0.00000000000E+00 -0.22628467276E+04  0.22628467276E+04  0.50400001928E-02 0. -1.
    10030    2    1    2    0    0  0.00000000000E+00  0.00000000000E+00 -0.13014048386E+04  0.32242886166E+04  0.29499800896E+04 0.  0.
        3    1    3    3  502    0 -0.90131259346E+03 -0.68630858096E+03 -0.16831043249E+04  0.20288479583E+04  0.10100000352E+00 0. -1.
       -3    1    3    3    0  502  0.90131259346E+03  0.68630858096E+03  0.38169948628E+03  0.11954406583E+04  0.10100000352E+00 0.  1.
</event>
<event>
 5   0  0.1057036E-05  0.3112282E+04  0.7818609E-02  0.8212375E-01
       -2   -1    0    0    0  501  0.00000000000E+00  0.00000000000E+00  0.84079625496E+03  0.84079625497E+03  0.25500000920E-02 0. -1.
        2   -1    0    0  501    0  0.00000000000E+00  0.00000000000E+00 -0.28800967848E+04  0.28800967848E+04  0.25500000920E-02 0.  1.
    10030    2    1    2    0    0  0.00000000000E+00  0.00000000000E+00 -0.20393005299E+04  0.37208930398E+04  0.31122818578E+04 0.  0.
        4    1    3    3  502    0 -0.49658003547E+03  0.92329631329E+02 -0.27793689686E+04  0.28248911429E+04  0.12699999809E+01 0.  1.
       -4    1    3    3    0  502  0.49658003547E+03 -0.92329631329E+02  0.74006843872E+03  0.89600189696E+03  0.12699999809E+01 0. -1.
</event>
<event>
 5   0  0.1089569E-05  0.2976937E+04  0.7818609E-02  0.8250348E-01
        2   -1    0    0  501    0  0.00000000000E+00  0.00000000000E+00  0.12727646171E+04  0.12727646171E+04  0.25500000920E-02 0.  1.
       -2   -1    0    0    0  501  0.00000000000E+00  0.00000000000E+00 -0.17407290010E+04  0.17407290010E+04  0.25500000920E-02 0. -1.
    10030    2    1    2    0    0  0.00000000000E+00  0.00000000000E+00 -0.46796438388E+03  0.30134936180E+04  0.29769368689E+04 0.  0.
        5    1    3    3  502    0 -0.86219723287E+03  0.83004422094E+03  0.66184768665E+03  0.13676336964E+04  0.46999998093E+01 0.  1.
       -5    1    3    3    0  502  0.86219723287E+03 -0.83004422094E+03 -0.11298120705E+04  0.16458599217E+04  0.46999998093E+01 0. -1.
</event>
<event>
 5   0  0.3896630E-06  0.2862994E+04  0.7818609E-02  0.8283974E-01
       -1   -1    0    0    0  501  0.00000000000E+00  0.00000000000E+00  0.10565185093E+04  0.10565185094E+04  0.50400001928E-02 0. -1.
        1   -1    0    0  501    0  0.00000000000E+00  0.00000000000E+00 -0.19395618255E+04  0.19395618255E+04  0.50400001928E-02 0.  1.
    10030    2    1    2    0    0  0.00000000000E+00  0.00000000000E+00 -0.88304331612E+03  0.29960803348E+04  0.28629935163E+04 0.  0.
        5    1    3    3  502    0  0.58605179229E+03 -0.73801026339E+03  0.68608497208E+03  0.11656974440E+04  0.46999998093E+01 0. -1.
       -5    1    3    3    0  502 -0.58605179229E+03  0.73801026339E+03 -0.15691282882E+04  0.18303828908E+04  0.46999998093E+01 0.  1.
</event>
<event>
 5   0  0.3592331E-06  0.2896031E+04  0.7818609E-02  0.8274059E-01
        1   -1    0    0  501    0  0.00000000000E+00  0.00000000000E+00  0.25917418386E+04  0.25917418386E+04  0.50400001928E-02 0. -1.
       -1   -1    0    0    0  501  0.00000000000E+00  0.00000000000E+00 -0.80901119831E+03  0.80901119833E+03  0.50400001928E-02 0.  1.
    10030    2    1    2    0    0  0.00000000000E+00  0.00000000000E+00  0.17827306402E+04  0.34007530369E+04  0.28960305044E+04 0.  0.
        3    1    3    3  502    0  0.95720310937E+02  0.10989222419E+04 -0.21017998583E+03  0.11229283629E+04  0.10100000352E+00 0.  1.
       -3    1    3    3    0  502 -0.95720310937E+02 -0.10989222419E+04  0.19929106261E+04  0.22778246740E+04  0.10100000352E+00 0. -1.
</event>
<event>
 5   0  0.9647945E-06  0.3076680E+04  0.7818609E-02  0.8222167E-01
       -2   -1    0    0    0  501  0.00000000000E+00  0.00000000000E+00  0.21857966510E+04  0.21857966510E+04  0.25500000920E-02 0.  1.
        2   -1    0    0  501    0  0.00000000000E+00  0.00000000000E+00 -0.10826671431E+04  0.10826671431E+04  0.25500000920E-02 0. -1.
    10030    2    1    2    0    0  0.00000000000E+00  0.00000000000E+00  0.11031295079E+04  0.32684637941E+04  0.30766801689E+04 0.  0.
        2    1    3    3  502    0  0.66021827840E+03  0.68472793671E+03 -0.73282795598E+03  0.12007403281E+04  0.25500000920E-02 0. -1.
       -2    1    3    3    0  502 -0.66021827840E+03 -0.68472793671E+03  0.18359574639E+04  0.20677234660E+04  0.25500000920E-02 0.  1.
</event>
<event>
 5   0  0.1089569E-05  0.2849128E+04  0.7818609E-02  0.8288176E-01
       -2   -1    0    0    0  501  0.00000000000E+00  0.00000000000E+00  0.10391991116E+04  0.10391991116E+04  0.25500000920E-02 0.  1.
        2   -1    0    0  501    0  0.00000000000E+00  0.00000000000E+00 -0.19528327600E+04  0.19528327600E+04  0.25500000920E-02 0. -1.
    10030    2    1    2    0    0  0.00000000000E+00  0.00000000000E+00 -0.91363364839E+03  0.29920318716E+04  0.28491276344E+04 0.  0.
        5    1    3    3  502    0  0.16975774276E+03 -0.11664631078E+04 -0.12968809472E+04  0.17525342092E+04  0.46999998093E+01 0. -1.
       -5    1    3    3    0  502 -0.16975774276E+03  0.11664631078E+04  0.38324729881E+03  0.12394976624E+04  0.46999998093E+01 0.  1.
</event>
<event>
 5   0  0.1029922E-05  0.3023895E+04  0.7818609E-02  0.8236940E-01
        2   -1    0    0  501    0  0.00000000000E+00  0.00000000000E+00  0.16128276119E+04  0.16128276119E+04  0.25500000920E-02 0. -1.
       -2   -1    0    0    0  501  0.00000000000E+00  0.00000000000E+00 -0.14173775060E+04  0.14173775060E+04  0.25500000920E-02 0.  1.
    10030    2    1    2    0    0  0.00000000000E+00  0.00000000000E+00  0.19545010586E+03  0.30302051179E+04  0.30238952218E+04 0.  0.
        1    1    3    3  502    0  0.89331670607E+02 -0.13385264244E+04  0.79657001551E+03  0.15601784916E+04  0.50400001928E-02 0.  1.
       -1    1    3    3    0  502 -0.89331670607E+02  0.13385264244E+04 -0.60111990965E+03  0.14700266263E+04  0.50400001928E-02 0. -1.
</event>
<event>
 5   0  0.1057036E-05  0.2552175E+04  0.7818609E-02  0.8384630E-01
        2   -1    0    0  501    0  0.00000000000E+00  0.00000000000E+00  0.17622325093E+04  0.17622325093E+04  0.25500000920E-02 0. -1.
       -2   -1    0    0    0  501  0.00000000000E+00  0.00000000000E+00 -0.92405503794E+03  0.92405503795E+03  0.25500000920E-02 0.  1.
    10030    2    1    2    0    0  0.00000000000E+00  0.00000000000E+00  0.83817747139E+03  0.26862875473E+04  0.25521754080E+04 0.  0.
        4    1    3    3  502    0  0.27936987438E+03  0.58068891001E+03  0.15783983126E+04  0.17048724243E+04  0.12699999809E+01 0. -1.
       -4    1    3    3    0  502 -0.27936987438E+03 -0.58068891001E+03 -0.74022084124E+03  0.98141512299E+03  0.12699999809E+01 0.  1.
</event>
<event>
 5   0  0.1089569E-05  0.3014471E+04  0.7818609E-02  0.8239611E-01
       -2   -1    0    0    0  501  0.00000000000E+00  0.00000000000E+00  0.10703423096E+04  0.10703423096E+04  0.25500000920E-02 0.  1.
        2   -1    0    0  501    0  0.00000000000E+00  0.00000000000E+00 -0.21224601506E+04  0.21224601506E+04  0.25500000920E-02 0. -1.
    10030    2    1    2    0    0  0.00000000000E+00  0.00000000000E+00 -0.10521178410E+04  0.31928024601E+04  0.30144710312E+04 0.  0.
        5    1    3    3  502    0  0.75129639150E+03 -0.10495029794E+04 -0.13504585153E+04  0.18680639880E+04  0.46999998093E+01 0. -1.
       -5    1    3    3    0  502 -0.75129639150E+03  0.10495029794E+04  0.29834067435E+03  0.13247384721E+04  0.46999998093E+01 0.  1.
</event>
<event>
 5   0  0.1028450E-05  0.2998352E+04  0.7818609E-02  0.8244202E-01
        2   -1    0    0  501    0  0.00000000000E+00  0.00000000000E+00  0.26824504774E+04  0.26824504774E+04  0.25500000920E-02 0.  1.
       -2   -1    0    0    0  501  0.00000000000E+00  0.00000000000E+00 -0.83786395704E+03  0.83786395704E+03  0.25500000920E-02 0. -1.
    10030    2    1    2    0    0  0.00000000000E+00  0.00000000000E+00  0.18445865203E+04  0.35203144344E+04  0.29983519283E+04 0.  0.
        3    1    3    3  502    0 -0.12803937928E+04  0.51425428262E+03  0.16105732295E+04  0.21208045336E+04  0.10100000352E+00 0.  1.
       -3    1    3    3    0  502  0.12803937928E+04 -0.51425428262E+03  0.23401329078E+03  0.13995099008E+04  0.10100000352E+00 0. -1.
</event>
<event>
 5   0  0.3636718E-06  0.2836743E+04  0.7818609E-02  0.8291951E-01
       -1   -1    0    0    0  501  0.00000000000E+00  0.00000000000E+00  0.14794578939E+04  0.14794578939E+04  0.50400001928E-02 0. -1.
        1   -1    0    0  501    0  0.00000000000E+00  0.00000000000E+00 -0.13598073954E+04  0.13598073954E+04  0.50400001928E-02 0.  1.
    10030    2    1    2    0    0  0.00000000000E+00  0.00000000000E+00  0.11965049852E+03  0.28392652893E+04  0.28367430516E+04 0.  0.
        4    1    3    3  502    0  0.90597186135E+02  0.13444329962E+04  0.50301488907E+03  0.14383092585E+04  0.12699999809E+01 0. -1.
       -4    1    3    3    0  502 -0.90597186135E+02 -0.13444329962E+04 -0.38336439055E+03  0.14009560308E+04  0.12699999809E+01 0.  1.
</event>
<event>
 5   0  0.3313750E-06  0.2979534E+04  0.7818609E-02  0.8249599E-01
        4   -1    0    0  501    0  0.00000000000E+00  0.00000000000E+00  0.12883008827E+04  0.12883015087E+04  0.12699999809E+01 0. -1.
       -4   -1    0    0    0  501  0.00000000000E+00  0.00000000000E+00 -0.17227377872E+04  0.17227382554E+04  0.12699999809E+01 0.  1.
    10030    2    1    2    0    0  0.00000000000E+00  0.00000000000E+00 -0.43443690451E+03  0.30110397641E+04  0.29795343658E+04 0.  0.
        4    1    3    3  502    0  0.28888706922E+03 -0.14522846765E+04 -0.51724432804E+02  0.14816421803E+04  0.12699999809E+01 0. -1.
       -4    1    3    3    0  502 -0.28888706922E+03  0.14522846765E+04 -0.38271247171E+03  0.15293975838E+04  0.12699999809E+01 0.  1.
</event>
<event>
 5   0  0.3896630E-06  0.2969075E+04  0.7818609E-02  0.8252617E-01
       -1   -1    0    0    0  501  0.00000000000E+00  0.00000000000E+00  0.12063673380E+04  0.12063673380E+04  0.50400001928E-02 0. -1.
        1   -1    0    0  501    0  0.00000000000E+00  0.00000000000E+00 -0.18268497421E+04  0.18268497421E+04  0.50400001928E-02 0.  1.
    10030    2    1    2    0    0  0.00000000000E+00  0.00000000000E+00 -0.62048240412E+03  0.30332170801E+04  0.29690751828E+04 0.  0.
        5    1    3    3  502    0 -0.10134615087E+04  0.16198610271E+03  0.78553780305E+03  0.12924532707E+04  0.46999998093E+01 0. -1.
       -5    1    3    3    0  502  0.10134615087E+04 -0.16198610271E+03 -0.14060202072E+04  0.17407638094E+04  0.46999998093E+01 0.  1.
</event>
<event>
 5   0  0.3896630E-06  0.2999504E+04  0.7818609E-02  0.8243873E-01
        1   -1    0    0  501    0  0.00000000000E+00  0.00000000000E+00  0.25365158854E+04  0.25365158854E+04  0.50400001928E-02 0.  1.
       -1   -1    0    0    0  501  0.00000000000E+00  0.00000000000E+00 -0.88674995345E+03  0.88674995346E+03  0.50400001928E-02 0. -1.
    10030    2    1    2    0    0  0.00000000000E+00  0.00000000000E+00  0.16497659320E+04  0.34232658389E+04  0.29995035212E+04 0.  0.
        5    1    3    3  502    0 -0.87652215373E+03  0.95935039799E+03  0.16793858419E+04  0.21234413503E+04  0.46999998093E+01 0.  1.
       -5    1    3    3    0  502  0.87652215373E+03 -0.95935039799E+03 -0.29619909932E+02  0.12998244886E+04  0.46999998093E+01 0. -1.
</event>
<event>
 5   0  0.3896630E-06  0.3014836E+04  0.7818609E-02  0.8239507E-01
       -1   -1    0    0    0  501  0.00000000000E+00  0.00000000000E+00  0.16652441820E+04  0.16652441820E+04  0.50400001928E-02 0.  1.
        1   -1    0    0  501    0  0.00000000000E+00  0.00000000000E+00 -0.13645498224E+04  0.13645498224E+04  0.50400001928E-02 0. -1.
    10030    2    1    2    0    0  0.00000000000E+00  0.00000000000E+00  0.30069435955E+03  0.30297940044E+04  0.30148357520E+04 0.  0.
        5    1    3    3  502    0  0.13308362302E+03 -0.11491241245E+04 -0.82093090017E+03  0.14185017226E+04  0.46999998093E+01 0. -1.
       -5    1    3    3    0  502 -0.13308362302E+03  0.11491241245E+04  0.11216252597E+04  0.16112922818E+04  0.46999998093E+01 0.  1.
</event>
<event>
 5   0  0.3852126E-06  0.2169483E+04  0.7818609E-02  0.8531238E-01
       -1   -1    0    0    0  501  0.00000000000E+00  0.00000000000E+00  0.93341810809E+03  0.93341810810E+03  0.50400001928E-02 0. -1.
        1   -1    0    0  501    0  0.00000000000E+00  0.00000000000E+00 -0.12605973795E+04  0.12605973795E+04  0.50400001928E-02 0.  1.
    10030    2    1    2    0    0  0.00000000000E+00  0.00000000000E+00 -0.32717927141E+03  0.21940154876E+04  0.21694832759E+04 0.  0.
        1    1    3    3  502    0  0.60754864101E+02 -0.10427004381E+04 -0.45973032059E+03  0.11411692796E+04  0.50400001928E-02 0.  1.
       -1    1    3    3    0  502 -0.60754864101E+02  0.10427004381E+04  0.13255104919E+03  0.10528462080E+04  0.50400001928E-02 0. -1.
</event>
<event>
 5   0  0.1028450E-05  0.3048325E+04  0.7818609E-02  0.8230064E-01
        2   -1    0    0  501    0  0.00000000000E+00  0.00000000000E+00  0.11006569069E+04  0.11006569069E+04  0.25500000920E-02 0. -1.
       -2   -1    0    0    0  501  0.00000000000E+00  0.00000000000E+00 -0.21106228965E+04  0.21106228965E+04  0.25500000920E-02 0.  1.
    10030    2    1    2    0    0  0.00000000000E+00  0.00000000000E+00 -0.10099659896E+04  0.32112798034E+04  0.30483252247E+04 0.  0.
        3    1    3    3  502    0 -0.41271453031E+03 -0.83566301778E+03  0.76547301332E+03  0.12060741715E+04  0.10100000352E+00 0. -1.
       -3    1    3    3    0  502  0.41271453031E+03  0.83566301778E+03 -0.17754390029E+04  0.20052056319E+04  0.10100000352E+00 0.  1.
</event>
<event>
 5   0  0.3725232E-06  0.3089326E+04  0.7818609E-02  0.8218673E-01
       -1   -1    0    0    0  501  0.00000000000E+00  0.00000000000E+00  0.11813808968E+04  0.11813808968E+04  0.50400001928E-02 0. -1.
        1   -1    0    0  501    0  0.00000000000E+00  0.00000000000E+00 -0.20196567635E+04  0.20196567635E+04  0.50400001928E-02 0.  1.
    10030    2    1    2    0    0  0.00000000000E+00  0.00000000000E+00 -0.83827586673E+03  0.32010376603E+04  0.30893260874E+04 0.  0.
        2    1    3    3  502    0  0.12099519037E+04  0.33848233620E+03 -0.13502018102E+04  0.18443423840E+04  0.25500000920E-02 0.  1.
       -2    1    3    3    0  502 -0.12099519037E+04 -0.33848233620E+03  0.51192594345E+03  0.13566952763E+04  0.25500000920E-02 0. -1.
</event>
<event>
 5   0  0.3636718E-06  0.3191375E+04  0.7818609E-02  0.8191099E-01
       -1   -1    0    0    0  501  0.00000000000E+00  0.00000000000E+00  0.19772942452E+04  0.19772942452E+04  0.50400001928E-02 0. -1.
        1   -1    0    0  501    0  0.00000000000E+00  0.00000000000E+00 -0.12877284613E+04  0.12877284613E+04  0.50400001928E-02 0.  1.
    10030    2    1    2    0    0  0.00000000000E+00  0.00000000000E+00  0.68956578388E+03  0.32650227066E+04  0.31913746731E+04 0.  0.
        4    1    3    3  502    0 -0.85339123871E+03 -0.13482866930E+04  0.35289365729E+03  0.16342243295E+04  0.12699999809E+01 0. -1.
       -4    1    3    3    0  502  0.85339123871E+03  0.13482866930E+04  0.33667212659E+03  0.16307983771E+04  0.12699999809E+01 0.  1.
</event>
<event>
 5   0  0.9647945E-06  0.2411665E+04  0.7818609E-02  0.8435149E-01
       -2   -1    0    0    0  501  0.00000000000E+00  0.00000000000E+00  0.70968665581E+03  0.70968665581E+03  0.25500000920E-02 0.  1.
        2   -1    0    0  501    0  0.00000000000E+00  0.00000000000E+00 -0.20488362346E+04  0.20488362346E+04  0.25500000920E-02 0. -1.
    10030    2    1    2    0    0  0.00000000000E+00  0.00000000000E+00 -0.13391495788E+04  0.27585228904E+04  0.24116647658E+04 0.  0.
        2    1    3    3  502    0 -0.37619964452E+03 -0.65561642830E+03 -0.17442061039E+04  0.19009508164E+04  0.25500000920E-02 0. -1.
       -2    1    3    3    0  502  0.37619964452E+03  0.65561642830E+03  0.40505652509E+03  0.85757207401E+03  0.25500000920E-02 0.  1.
</event>
<event>
 5   0  0.9647945E-06  0.2469385E+04  0.7818609E-02  0.8413974E-01
        2   -1    0    0  501    0  0.00000000000E+00  0.00000000000E+00  0.14523773569E+04  0.14523773569E+04  0.25500000920E-02 0.  1.
       -2   -1    0    0    0  501  0.00000000000E+00  0.00000000000E+00 -0.10496343713E+04  0.10496343713E+04  0.25500000920E-02 0. -1.
    10030    2    1    2    0    0  0.00000000000E+00  0.00000000000E+00  0.40274298563E+03  0.25020117282E+04  0.24693846957E+04 0.  0.
        2    1    3    3  502    0 -0.37281801592E+03 -0.78974778946E+03  0.10856979559E+04  0.13933538299E+04  0.25500000920E-02 0.  1.
       -2    1    3    3    0  502  0.37281801592E+03  0.78974778946E+03 -0.68295497026E+03  0.11086578983E+04  0.25500000920E-02 0. -1.
</event>
<event>
 5   0  0.3852126E-06  0.3027804E+04  0.7818609E-02  0.8235836E-01
        1   -1    0    0  501    0  0.00000000000E+00  0.00000000000E+00  0.18313559362E+04  0.18313559363E+04  0.50400001928E-02 0. -1.
       -1   -1    0    0    0  501  0.00000000000E+00  0.00000000000E+00 -0.12514766768E+04  0.12514766768E+04  0.50400001928E-02 0.  1.
    10030    2    1    2    0    0  0.00000000000E+00  0.00000000000E+00  0.57987925946E+03  0.30828326131E+04  0.30278039838E+04 0.  0.
        1    1    3    3  502    0 -0.12577750401E+04 -0.10629885404E+03  0.11409542498E+04  0.17014917273E+04  0.50400001928E-02 0. -1.
       -1    1    3    3    0  502  0.12577750401E+04  0.10629885404E+03 -0.56107499037E+03  0.13813408858E+04  0.50400001928E-02 0.  1.
</event>
<event>
 5   0  0.1089569E-05  0.3059958E+04  0.7818609E-02  0.8226814E-01
       -2   -1    0    0    0  501  0.00000000000E+00  0.00000000000E+00  0.91224776621E+03  0.91224776622E+03  0.25500000920E-02 0. -1.
        2   -1    0    0  501    0  0.00000000000E+00  0.00000000000E+00 -0.25660079888E+04  0.25660079888E+04  0.25500000920E-02 0.  1.
    10030    2    1    2    0    0  0.00000000000E+00  0.00000000000E+00 -0.16537602226E+04  0.34782557550E+04  0.30599575526E+04 0.  0.
        5    1    3    3  502    0 -0.14718281174E+04  0.16572024429E+03 -0.39095613701E+03  0.15318648757E+04  0.46999998093E+01 0.  1.
       -5    1    3    3    0  502  0.14718281174E+04 -0.16572024429E+03 -0.12628040856E+04  0.19463908793E+04  0.46999998093E+01 0. -1.
</event>
<event>
 5   0  0.3592331E-06  0.2972652E+04  0.7818609E-02  0.8251584E-01
        1   -1    0    0  501    0  0.00000000000E+00  0.00000000000E+00  0.16888194972E+04  0.16888194972E+04  0.50400001928E-02 0. -1.
       -1   -1    0    0    0  501  0.00000000000E+00  0.00000000000E+00 -0.13081119605E+04  0.13081119605E+04  0.50400001928E-02 0.  1.
    10030    2    1    2    0    0  0.00000000000E+00  0.00000000000E+00  0.38070753673E+03  0.29969314577E+04  0.29726520034E+04 0.  0.
        3    1    3    3  502    0  0.75820517805E+03 -0.27928169067E+02  0.14788810690E+04  0.16621505049E+04  0.10100000352E+00 0. -1.
       -3    1    3    3    0  502 -0.75820517805E+03  0.27928169067E+02 -0.10981735323E+04  0.13347809527E+04  0.10100000352E+00 0.  1.
</event>
<event>
 5   0  0.1057036E-05  0.3084534E+04  0.7818609E-02  0.8219995E-01
        2   -1    0    0  501    0  0.00000000000E+00  0.00000000000E+00  0.21767660788E+04  0.21767660788E+04  0.25500000920E-02 0. -1.
       -2   -1    0    0    0  501  0.00000000000E+00  0.00000000000E+00 -0.10927158932E+04  0.10927158932E+04  0.25500000920E-02 0.  1.
    10030    2    1    2    0    0  0.00000000000E+00  0.00000000000E+00  0.10840501855E+04  0.32694819720E+04  0.30845336050E+04 0.  0.
        4    1    3    3  502    0 -0.75783572771E+03  0.12853712539E+04  0.12865292095E+03  0.14976806861E+04  0.12699999809E+01 0.  1.
       -4    1    3    3    0  502  0.75783572771E+03 -0.12853712539E+04  0.95539726457E+03  0.17718012859E+04  0.12699999809E+01 0. -1.
</event>
<event>
 5   0  0.3725232E-06  0.3036021E+04  0.7818609E-02  0.8233519E-01
        1   -1    0    0  501    0  0.00000000000E+00  0.00000000000E+00  0.18632637987E+04  0.18632637988E+04  0.50400001928E-02 0. -1.
       -1   -1    0    0    0  501  0.00000000000E+00  0.00000000000E+00 -0.12367305627E+04  0.12367305627E+04  0.50400001928E-02 0.  1.
    10030    2    1    2    0    0  0.00000000000E+00  0.00000000000E+00  0.62653323609E+03  0.30999943614E+04  0.30360206101E+04 0.  0.
        2    1    3    3  502    0 -0.14000388591E+04  0.34681605352E+03  0.79648824885E+03  0.16476600719E+04  0.25500000920E-02 0. -1.
       -2    1    3    3    0  502  0.14000388591E+04 -0.34681605352E+03 -0.16995501276E+03  0.14523342895E+04  0.25500000920E-02 0.  1.
</event>
<event>
 5   0  0.3592331E-06  0.3029840E+04  0.7818609E-02  0.8235261E-01
       -1   -1    0    0    0  501  0.00000000000E+00  0.00000000000E+00  0.16798667930E+04  0.16798667930E+04  0.50400001928E-02 0.  1.
        1   -1    0    0  501    0  0.00000000000E+00  0.00000000000E+00 -0.13661697752E+04  0.13661697752E+04  0.50400001928E-02 0. -1.
    10030    2    1    2    0    0  0.00000000000E+00  0.00000000000E+00  0.31369701781E+03  0.30460365681E+04  0.30298404175E+04 0.  0.
        3    1    3    3  502    0  0.12150936845E+04  0.70428999110E+03 -0.41408347783E+03  0.14642206769E+04  0.10100000352E+00 0. -1.
       -3    1    3    3    0  502 -0.12150936845E+04 -0.70428999110E+03  0.72778049564E+03  0.15818158913E+04  0.10100000352E+00 0.  1.
</event>
<event>
 5   0  0.3852126E-06  0.2860700E+04  0.7818609E-02  0.8284667E-01
        1   -1    0    0  501    0  0.00000000000E+00  0.00000000000E+00  0.13022530626E+04  0.13022530626E+04  0.50400001928E-02 0. -1.
       -1   -1    0    0    0  501  0.00000000000E+00  0.00000000000E+00 -0.15710470960E+04  0.15710470960E+04  0.50400001928E-02 0.  1.
    10030    2    1    2    0    0  0.00000000000E+00  0.00000000000E+00 -0.26879403345E+03  0.28733001586E+04  0.28606998391E+04 0.  0.
        1    1    3    3  502    0 -0.29157599849E+03  0.87798232209E+03 -0.12300875528E+04  0.15391507101E+04  0.50400001928E-02 0.  1.
       -1    1    3    3    0  502  0.29157599849E+03 -0.87798232209E+03  0.96129351932E+03  0.13341494486E+04  0.50400001928E-02 0. -1.
</event>
<event>
 5   0  0.3592331E-06  0.1920256E+04  0.7818609E-02  0.8644839E-01
       -1   -1    0    0    0  501  0.00000000000E+00  0.00000000000E+00  0.93635043241E+03  0.93635043242E+03  0.50400001928E-02 0.  1.
        1   -1    0    0  501    0  0.00000000000E+00  0.00000000000E+00 -0.98450938777E+03  0.98450938779E+03  0.50400001928E-02 0. -1.
    10030    2    1    2    0    0  0.00000000000E+00  0.00000000000E+00 -0.48158955366E+02  0.19208598202E+04  0.19202560152E+04 0.  0.
        3    1    3    3  502    0  0.39441082216E+03  0.63688722490E+03 -0.62481851807E+03  0.97549137598E+03  0.10100000352E+00 0. -1.
       -3    1    3    3    0  502 -0.39441082216E+03 -0.63688722490E+03  0.57665956271E+03  0.94536844423E+03  0.10100000352E+00 0.  1.
</event>
<event>
 5   0  0.1057036E-05  0.3000132E+04  0.7818609E-02  0.8243693E-01
       -2   -1    0    0    0  501  0.00000000000E+00  0.00000000000E+00  0.12831754631E+04  0.12831754631E+04  0.25500000920E-02 0.  1.
        2   -1    0    0  501    0  0.00000000000E+00  0.00000000000E+00 -0.17536163705E+04  0.17536163705E+04  0.25500000920E-02 0. -1.
    10030    2    1    2    0    0  0.00000000000E+00  0.00000000000E+00 -0.47044090735E+03  0.30367918336E+04  0.30001316626E+04 0.  0.
        4    1    3    3  502    0 -0.13127427004E+04 -0.30162248268E+03  0.43309465129E+03  0.14148646965E+04  0.12699999809E+01 0.  1.
       -4    1    3    3    0  502  0.13127427004E+04  0.30162248268E+03 -0.90353555864E+03  0.16219271371E+04  0.12699999809E+01 0. -1.
</event>
<event>
 5   0  0.1029922E-05  0.3007989E+04  0.7818609E-02  0.8241453E-01
        2   -1    0    0  501    0  0.00000000000E+00  0.00000000000E+00  0.13802538198E+04  0.13802538198E+04  0.25500000920E-02 0.  1.
       -2   -1    0    0    0  501  0.00000000000E+00  0.00000000000E+00 -0.16388283086E+04  0.16388283086E+04  0.25500000920E-02 0. -1.
    10030    2    1    2    0    0  0.00000000000E+00  0.00000000000E+00 -0.25857448874E+03  0.30190821284E+04  0.30079887187E+04 0.  0.
        1    1    3    3  502    0  0.98414265460E+03  0.11293025256E+04  0.58871117935E+01  0.14979638237E+04  0.50400001928E-02 0.  1.
       -1    1    3    3    0  502 -0.98414265460E+03 -0.11293025256E+04 -0.26446160054E+03  0.15211183048E+04  0.50400001928E-02 0. -1.
</event>
<event>
 5   0  0.3725232E-06  0.3022857E+04  0.7818609E-02  0.8237234E-01
       -1   -1    0    0    0  501  0.00000000000E+00  0.00000000000E+00  0.19698573218E+04  0.19698573218E+04  0.50400001928E-02 0.  1.
        1   -1    0    0  501    0  0.00000000000E+00  0.00000000000E+00 -0.11596863142E+04  0.11596863143E+04  0.50400001928E-02 0. -1.
    10030    2    1    2    0    0  0.00000000000E+00  0.00000000000E+00  0.81017100755E+03  0.31295436361E+04  0.30228573087E+04 0.  0.
        2    1    3    3  502    0  0.10950665393E+04  0.19621462745E+03 -0.65412907855E+03  0.12905641235E+04  0.25500000920E-02 0. -1.
       -2    1    3    3    0  502 -0.10950665393E+04 -0.19621462745E+03  0.14643000861E+04  0.18389795126E+04  0.25500000920E-02 0.  1.
</event>
<event>
 5   0  0.3725232E-06  0.2965258E+04  0.7818609E-02  0.8253722E-01
       -1   -1    0    0    0  501  0.00000000000E+00  0.00000000000E+00  0.14551121760E+04  0.14551121761E+04  0.50400001928E-02 0. -1.
        1   -1    0    0  501    0  0.00000000000E+00  0.00000000000E+00 -0.15106662522E+04  0.15106662522E+04  0.50400001928E-02 0.  1.
    10030    2    1    2    0    0  0.00000000000E+00  0.00000000000E+00 -0.55554076131E+02  0.29657784282E+04  0.29652580714E+04 0.  0.
        2    1    3    3  502    0 -0.29619932735E+03 -0.56305022436E+03  0.13116477467E+04  0.14577995089E+04  0.25500000920E-02 0. -1.
       -2    1    3    3    0  502  0.29619932735E+03  0.56305022436E+03 -0.13672018229E+04  0.15079789193E+04  0.25500000920E-02 0.  1.
</event>
<event>
 5   0  0.3313750E-06  0.2287040E+04  0.7818609E-02  0.8483049E-01
       -3   -1    0    0    0  501  0.00000000000E+00  0.00000000000E+00  0.98185007609E+03  0.98185008129E+03  0.10100000352E+00 0.  1.
        3   -1    0    0  501    0  0.00000000000E+00  0.00000000000E+00 -0.13318096837E+04  0.13318096875E+04  0.10100000352E+00 0. -1.
    10030    2    1    2    0    0  0.00000000000E+00  0.00000000000E+00 -0.34995960761E+03  0.23136597688E+04  0.22870395272E+04 0.  0.
        3    1    3    3  502    0 -0.69107555868E+03 -0.47071915007E+03  0.61414804478E+03  0.10374679644E+04  0.10100000352E+00 0.  1.
       -3    1    3    3    0  502  0.69107555868E+03  0.47071915007E+03 -0.96410765240E+03  0.12761918044E+04  0.10100000352E+00 0. -1.
</event>
<event>
 5   0  0.1057036E-05  0.2417163E+04  0.7818609E-02  0.8433106E-01
       -2   -1    0    0    0  501  0.00000000000E+00  0.00000000000E+00  0.90726769286E+03  0.90726769287E+03  0.25500000920E-02 0. -1.
        2   -1    0    0  501    0  0.00000000000E+00  0.00000000000E+00 -0.16099656629E+04  0.16099656629E+04  0.25500000920E-02 0.  1.
    10030    2    1    2    0    0  0.00000000000E+00  0.00000000000E+00 -0.70269797008E+03  0.25172333558E+04  0.24171634886E+04 0.  0.
        4    1    3    3  502    0  0.21449867515E+03 -0.97766368493E+03  0.35406558176E+03  0.10616967606E+04  0.12699999809E+01 0. -1.
       -4    1    3    3    0  502 -0.21449867515E+03  0.97766368493E+03 -0.10567635518E+04  0.14555365952E+04  0.12699999809E+01 0.  1.
</event>
<event>
 5   0  0.3592331E-06  0.2995830E+04  0.7818609E-02  0.8244923E-01
        1   -1    0    0  501    0  0.00000000000E+00  0.00000000000E+00  0.14922166832E+04  0.14922166833E+04  0.50400001928E-02 0.  1.
       -1   -1    0    0    0  501  0.00000000000E+00  0.00000000000E+00 -0.15036355048E+04  0.15036355048E+04  0.50400001928E-02 0. -1.
    10030    2    1    2    0    0  0.00000000000E+00  0.00000000000E+00 -0.11418821507E+02  0.29958521880E+04  0.29958304263E+04 0.  0.
        3    1    3    3  502    0 -0.78765720794E+03 -0.10559701731E+04 -0.71864732950E+03  0.15006434880E+04  0.10100000352E+00 0.  1.
       -3    1    3    3    0  502  0.78765720794E+03  0.10559701731E+04  0.70722850800E+03  0.14952087000E+04  0.10100000352E+00 0. -1.
</event>
<event>
 5   0  0.1057036E-05  0.2976926E+04  0.7818609E-02  0.8250351E-01
        2   -1    0    0  501    0  0.00000000000E+00  0.00000000000E+00  0.30950033820E+04  0.30950033820E+04  0.25500000920E-02 0.  1.
       -2   -1    0    0    0  501  0.00000000000E+00  0.00000000000E+00 -0.71583824580E+03  0.71583824581E+03  0.25500000920E-02 0. -1.
    10030    2    1    2    0    0  0.00000000000E+00  0.00000000000E+00  0.23791651362E+04  0.38108416278E+04  0.29769257913E+04 0.  0.
        4    1    3    3  502    0 -0.13591246014E+04 -0.53541930341E+02  0.19634333472E+04  0.23885473707E+04  0.12699999809E+01 0.  1.
       -4    1    3    3    0  502  0.13591246014E+04  0.53541930341E+02  0.41573178898E+03  0.14222942571E+04  0.12699999809E+01 0. -1.
</event>
<event>
 5   0  0.3592331E-06  0.3007478E+04  0.7818609E-02  0.8241599E-01
        1   -1    0    0  501    0  0.00000000000E+00  0.00000000000E+00  0.18563198284E+04  0.18563198284E+04  0.50400001928E-02 0. -1.
       -1   -1    0    0    0  501  0.00000000000E+00  0.00000000000E+00 -0.12181255657E+04  0.12181255657E+04  0.50400001928E-02 0.  1.
    10030    2    1    2    0    0  0.00000000000E+00  0.00000000000E+00  0.63819426264E+03  0.30744453941E+04  0.30074777746E+04 0.  0.
        3    1    3    3  502    0 -0.52544303472E+02 -0.15028179083E+04  0.32199964085E+03  0.15378252008E+04  0.10100000352E+00 0.  1.
       -3    1    3    3    0  502  0.52544303472E+02  0.15028179083E+04  0.31619462179E+03  0.15366201933E+04  0.10100000352E+00 0. -1.
</event>
<event>
 5   0  0.3592331E-06  0.2809372E+04  0.7818609E-02  0.8300365E-01
        1   -1    0    0  501    0  0.00000000000E+00  0.00000000000E+00  0.21796656434E+04  0.21796656434E+04  0.50400001928E-02 0. -1.
       -1   -1    0    0    0  501  0.00000000000E+00  0.00000000000E+00 -0.90525022154E+03  0.90525022156E+03  0.50400001928E-02 0.  1.
    10030    2    1    2    0    0  0.00000000000E+00  0.00000000000E+00  0.12744154219E+04  0.30849158650E+04  0.28093720342E+04 0.  0.
        3    1    3    3  502    0  0.35076562005E+03  0.10771957075E+04 -0.27476472691E+03  0.11657112755E+04  0.10100000352E+00 0.  1.
       -3    1    3    3    0  502 -0.35076562005E+03 -0.10771957075E+04  0.15491801488E+04  0.19192045894E+04  0.10100000352E+00 0. -1.
</event>
<event>
 5   0  0.1057036E-05  0.3023694E+04  0.7818609E-02  0.8236997E-01
       -2   -1    0    0    0  501  0.00000000000E+00  0.00000000000E+00  0.11149044390E+04  0.11149044390E+04  0.25500000920E-02 0.  1.
        2   -1    0    0  501    0  0.00000000000E+00  0.00000000000E+00 -0.20501145709E+04  0.20501145709E+04  0.25500000920E-02 0. -1.
    10030    2    1    2    0    0  0.00000000000E+00  0.00000000000E+00 -0.93521013189E+03  0.31650190100E+04  0.30236943203E+04 0.  0.
        4    1    3    3  502    0  0.67073829421E+03 -0.36916545238E+03 -0.18321880367E+04  0.19857209284E+04  0.12699999809E+01 0. -1.
       -4    1    3    3    0  502 -0.67073829421E+03  0.36916545238E+03  0.89697790484E+03  0.11792980816E+04  0.12699999809E+01 0.  1.
</event>
<event>
 5   0  0.1029922E-05  0.2758957E+04  0.7818609E-02  0.8316125E-01
       -2   -1    0    0    0  501  0.00000000000E+00  0.00000000000E+00  0.95356327141E+03  0.95356327141E+03  0.25500000920E-02 0. -1.
        2   -1    0    0  501    0  0.00000000000E+00  0.00000000000E+00 -0.19956308473E+04  0.19956308473E+04  0.25500000920E-02 0.  1.
    10030    2    1    2    0    0  0.00000000000E+00  0.00000000000E+00 -0.10420675759E+04  0.29491941187E+04  0.27589565269E+04 0.  0.
        1    1    3    3  502    0 -0.29363256917E+03 -0.12946655936E+04 -0.12023895307E+03  0.13329803040E+04  0.50400001928E-02 0. -1.
       -1    1    3    3    0  502  0.29363256917E+03  0.12946655936E+04 -0.92182862283E+03  0.16162138147E+04  0.50400001928E-02 0.  1.
</event>
<event>
 5   0  0.9647945E-06  0.2958649E+04  0.7818609E-02  0.8255638E-01
       -2   -1    0    0    0  501  0.00000000000E+00  0.00000000000E+00  0.13960707818E+04  0.13960707818E+04  0.25500000920E-02 0. -1.
        2   -1    0    0  501    0  0.00000000000E+00  0.00000000000E+00 -0.15675433440E+04  0.15675433440E+04  0.25500000920E-02 0.  1.
    10030    2    1    2    0    0  0.00000000000E+00  0.00000000000E+00 -0.17147256213E+03  0.29636141258E+04  0.29586493282E+04 0.  0.
        2    1    3    3  502    0  0.12069692927E+04  0.15703847137E+03  0.75648706329E+03  0.14330766315E+04  0.25500000920E-02 0. -1.
       -2    1    3    3    0  502 -0.12069692927E+04 -0.15703847137E+03 -0.92795962542E+03  0.15305374943E+04  0.25500000920E-02 0.  1.
</event>
<event>
 5   0  0.1057036E-05  0.2924488E+04  0.7818609E-02  0.8265629E-01
       -2   -1    0    0    0  501  0.00000000000E+00  0.00000000000E+00  0.57189937520E+03  0.57189937521E+03  0.25500000920E-02 0.  1.
        2   -1    0    0  501    0  0.00000000000E+00  0.00000000000E+00 -0.37386963286E+04  0.37386963286E+04  0.25500000920E-02 0. -1.
    10030    2    1    2    0    0  0.00000000000E+00  0.00000000000E+00 -0.31667969534E+04  0.43105957038E+04  0.29244883959E+04 0.  0.
        4    1    3    3  502    0 -0.21558384302E+03  0.92956811202E+03 -0.32164987811E+04  0.33550617416E+04  0.12699999809E+01 0. -1.
       -4    1    3    3    0  502  0.21558384302E+03 -0.92956811202E+03  0.49701827752E+02  0.95553396216E+03  0.12699999809E+01 0.  1.
</event>
<event>
 5   0  0.3852126E-06  0.3024887E+04  0.7818609E-02  0.8236660E-01
        1   -1    0    0  501    0  0.00000000000E+00  0.00000000000E+00  0.24124873271E+04  0.24124873271E+04  0.50400001928E-02 0. -1.
       -1   -1    0    0    0  501  0.00000000000E+00  0.00000000000E+00 -0.94818554439E+03  0.94818554440E+03  0.50400001928E-02 0.  1.
    10030    2    1    2    0    0  0.00000000000E+00  0.00000000000E+00  0.14643017827E+04  0.33606728715E+04  0.30248871778E+04 0.  0.
        1    1    3    3  502    0  0.26846339056E+03 -0.11696139230E+04  0.17548914123E+04  0.21259617094E+04  0.50400001928E-02 0. -1.
       -1    1    3    3    0  502 -0.26846339056E+03  0.11696139230E+04 -0.29058962955E+03  0.12347111621E+04  0.50400001928E-02 0.  1.
</event>
<event>
 5   0  0.3592331E-06  0.2932374E+04  0.7818609E-02  0.8263310E-01
       -1   -1    0    0    0  501  0.00000000000E+00  0.00000000000E+00  0.10372610759E+04  0.10372610759E+04  0.50400001928E-02 0.  1.
        1   -1    0    0  501    0  0.00000000000E+00  0.00000000000E+00 -0.20724811767E+04  0.20724811767E+04  0.50400001928E-02 0. -1.
    10030    2    1    2    0    0  0.00000000000E+00  0.00000000000E+00 -0.10352201008E+04  0.31097422526E+04  0.29323738200E+04 0.  0.
        3    1    3    3  502    0  0.11909826084E+04  0.19081295963E+03  0.36638965202E+03  0.12605913479E+04  0.10100000352E+00 0.  1.
       -3    1    3    3    0  502 -0.11909826084E+04 -0.19081295963E+03 -0.14016097528E+04  0.18491509047E+04  0.10100000352E+00 0. -1.
</event>
<event>
 5   0  0.9647945E-06  0.3018669E+04  0.7818609E-02  0.8238420E-01
        2   -1    0    0  501    0  0.00000000000E+00  0.00000000000E+00  0.22722454379E+04  0.22722454379E+04  0.25500000920E-02 0.  1.
       -2   -1    0    0    0  501  0.00000000000E+00  0.00000000000E+00 -0.10025726779E+04  0.10025726779E+04  0.25500000920E-02 0. -1.
    10030    2    1    2    0    0  0.00000000000E+00  0.00000000000E+00  0.12696727601E+04  0.32748181158E+04  0.30186693714E+04 0.  0.
        2    1    3    3  502    0 -0.19899080942E+03 -0.10563172529E+04  0.17843155895E+04  0.20830711951E+04  0.25500000920E-02 0.  1.
       -2    1    3    3    0  502  0.19899080942E+03  0.10563172529E+04 -0.51464282944E+03  0.11917469207E+04  0.25500000920E-02 0. -1.
</event>
<event>
 5   0  0.3725232E-06  0.2906456E+04  0.7818609E-02  0.8270959E-01
        1   -1    0    0  501    0  0.00000000000E+00  0.00000000000E+00  0.16219450218E+04  0.16219450219E+04  0.50400001928E-02 0. -1.
       -1   -1    0    0    0  501  0.00000000000E+00  0.00000000000E+00 -0.13020614286E+04  0.13020614286E+04  0.50400001928E-02 0.  1.
    10030    2    1    2    0    0  0.00000000000E+00  0.00000000000E+00  0.31988359325E+03  0.29240064505E+04  0.29064562975E+04 0.  0.
        2    1    3    3  502    0 -0.17821846169E+02 -0.46721177191E+03 -0.12243273205E+04  0.13105654679E+04  0.25500000920E-02 0.  1.
       -2    1    3    3    0  502  0.17821846169E+02  0.46721177191E+03  0.15442109137E+04  0.16134409825E+04  0.25500000920E-02 0. -1.
</event>
<event>
 5   0  0.3636718E-06  0.2961229E+04  0.7818609E-02  0.8254890E-01
       -1   -1    0    0    0  501  0.00000000000E+00  0.00000000000E+00  0.23828178333E+04  0.23828178333E+04  0.50400001928E-02 0.  1.
        1   -1    0    0  501    0  0.00000000000E+00  0.00000000000E+00 -0.92001098576E+03  0.92001098578E+03  0.50400001928E-02 0. -1.
    10030    2    1    2    0    0  0.00000000000E+00  0.00000000000E+00  0.14628068475E+04  0.33028288191E+04  0.29612285179E+04 0.  0.
        4    1    3    3  502    0 -0.25244685112E+03 -0.14223478845E+04  0.36927434557E+03  0.14910291991E+04  0.12699999809E+01 0.  1.
       -4    1    3    3    0  502  0.25244685112E+03  0.14223478845E+04  0.10935325020E+04  0.18117996200E+04  0.12699999809E+01 0. -1.
</event>
<event>
 5   0  0.3636718E-06  0.2949051E+04  0.7818609E-02  0.8258431E-01
       -1   -1    0    0    0  501  0.00000000000E+00  0.00000000000E+00  0.14632696611E+04  0.14632696611E+04  0.50400001928E-02 0.  1.
        1   -1    0    0  501    0  0.00000000000E+00  0.00000000000E+00 -0.14858677413E+04  0.14858677413E+04  0.50400001928E-02 0. -1.
    10030    2    1    2    0    0  0.00000000000E+00  0.00000000000E+00 -0.22598080173E+02  0.29491374024E+04  0.29490508211E+04 0.  0.
        4    1    3    3  502    0  0.10862283099E+03 -0.18713058953E+03  0.14473070464E+04  0.14633919764E+04  0.12699999809E+01 0.  1.
       -4    1    3    3    0  502 -0.10862283099E+03  0.18713058953E+03 -0.14699051266E+04  0.14857454261E+04  0.12699999809E+01 0. -1.
</event>
<event>
 5   0  0.9647945E-06  0.2853791E+04  0.7818609E-02  0.8286760E-01
       -2   -1    0    0    0  501  0.00000000000E+00  0.00000000000E+00  0.17571609448E+04  0.17571609448E+04  0.25500000920E-02 0.  1.
        2   -1    0    0  501    0  0.00000000000E+00  0.00000000000E+00 -0.11587048666E+04  0.11587048666E+04  0.25500000920E-02 0. -1.
    10030    2    1    2    0    0  0.00000000000E+00  0.00000000000E+00  0.59845607815E+03  0.29158658114E+04  0.28537911193E+04 0.  0.
        2    1    3    3  502    0 -0.57766346105E+03 -0.78356529644E+03  0.13651659170E+04  0.16767073773E+04  0.25500000920E-02 0.  1.
       -2    1    3    3    0  502  0.57766346105E+03  0.78356529644E+03 -0.76670983884E+03  0.12391584342E+04  0.25500000920E-02 0. -1.
</event>
<event>
 5   0  0.3852126E-06  0.3166755E+04  0.7818609E-02  0.8197653E-01
       -1   -1    0    0    0  501  0.00000000000E+00  0.00000000000E+00  0.11116926499E+04  0.11116926499E+04  0.50400001928E-02 0. -1.
        1   -1    0    0  501    0  0.00000000000E+00  0.00000000000E+00 -0.22551960146E+04  0.22551960146E+04  0.50400001928E-02 0.  1.
    10030    2    1    2    0    0  0.00000000000E+00  0.00000000000E+00 -0.11435033647E+04  0.33668886645E+04  0.31667553322E+04 0.  0.
        1    1    3    3  502    0 -0.13379955637E+04  0.84786479243E+02 -0.14674064035E+04  0.19876373987E+04  0.50400001928E-02 0.  1.
       -1    1    3    3    0  502  0.13379955637E+04 -0.84786479243E+02  0.32390303888E+03  0.13792512658E+04  0.50400001928E-02 0. -1.
</event>
<event>
 5   0  0.9647945E-06  0.2873136E+04  0.7818609E-02  0.8280915E-01
       -2   -1    0    0    0  501  0.00000000000E+00  0.00000000000E+00  0.11595911717E+04  0.11595911717E+04  0.25500000920E-02 0. -1.
        2   -1    0    0  501    0  0.00000000000E+00  0.00000000000E+00 -0.17797031754E+04  0.17797031754E+04  0.25500000920E-02 0.  1.
    10030    2    1    2    0    0  0.00000000000E+00  0.00000000000E+00 -0.62011200365E+03  0.29392943471E+04  0.28731363284E+04 0.  0.
        2    1    3    3  502    0 -0.45559401913E+03  0.26381378594E+03 -0.16774579424E+04  0.17581321829E+04  0.25500000920E-02 0.  1.
       -2    1    3    3    0  502  0.45559401913E+03 -0.26381378594E+03  0.10573459387E+04  0.11811621642E+04  0.25500000920E-02 0. -1.
</event>
<event>
 5   0  0.9647945E-06  0.2881916E+04  0.7818609E-02  0.8278278E-01
       -2   -1    0    0    0  501  0.00000000000E+00  0.00000000000E+00  0.12152981856E+04  0.12152981856E+04  0.25500000920E-02 0.  1.
        2   -1    0    0  501    0  0.00000000000E+00  0.00000000000E+00 -0.17085189575E+04  0.17085189575E+04  0.25500000920E-02 0. -1.
    10030    2    1    2    0    0  0.00000000000E+00  0.00000000000E+00 -0.49322077191E+03  0.29238171431E+04  0.28819160218E+04 0.  0.
        2    1    3    3  502    0 -0.29599728198E+03 -0.51930698802E+03 -0.15768048719E+04  0.16863000157E+04  0.25500000920E-02 0. -1.
       -2    1    3    3    0  502  0.29599728198E+03  0.51930698802E+03  0.10835841000E+04  0.12375171274E+04  0.25500000920E-02 0.  1.
</event>
<event>
 5   0  0.9647945E-06  0.2962842E+04  0.7818609E-02  0.8254422E-01
       -2   -1    0    0    0  501  0.00000000000E+00  0.00000000000E+00  0.86579105199E+03  0.86579105199E+03  0.25500000920E-02 0. -1.
        2   -1    0    0  501    0  0.00000000000E+00  0.00000000000E+00 -0.25348018058E+04  0.25348018058E+04  0.25500000920E-02 0.  1.
    10030    2    1    2    0    0  0.00000000000E+00  0.00000000000E+00 -0.16690107538E+04  0.34005928578E+04  0.29628423664E+04 0.  0.
        2    1    3    3  502    0 -0.71490765638E+03  0.84155252166E+03  0.29898110197E+03  0.11439813387E+04  0.25500000920E-02 0. -1.
       -2    1    3    3    0  502  0.71490765638E+03 -0.84155252166E+03 -0.19679918558E+04  0.22566115191E+04  0.25500000920E-02 0.  1.
</event>
<event>
 5   0  0.1029922E-05  0.2981341E+04  0.7818609E-02  0.8249079E-01
        2   -1    0    0  501    0  0.00000000000E+00  0.00000000000E+00  0.17663699629E+04  0.17663699629E+04  0.25500000920E-02 0. -1.
       -2   -1    0    0    0  501  0.00000000000E+00  0.00000000000E+00 -0.12580032307E+04  0.12580032307E+04  0.25500000920E-02 0.  1.
    10030    2    1    2    0    0  0.00000000000E+00  0.00000000000E+00  0.50836673219E+03  0.30243731937E+04  0.29813413894E+04 0.  0.
        1    1    3    3  502    0  0.25079522898E+03 -0.13274885671E+04 -0.38497023038E+03  0.14047513022E+04  0.50400001928E-02 0.  1.
       -1    1    3    3    0  502 -0.25079522898E+03  0.13274885671E+04  0.89333696257E+03  0.16196218915E+04  0.50400001928E-02 0. -1.
</event>
<event>
 5   0  0.3636718E-06  0.2975466E+04  0.7818609E-02  0.8250772E-01
       -1   -1    0    0    0  501  0.00000000000E+00  0.00000000000E+00  0.13514577994E+04  0.13514577994E+04  0.50400001928E-02 0. -1.
        1   -1    0    0  501    0  0.00000000000E+00  0.00000000000E+00 -0.16377492713E+04  0.16377492713E+04  0.50400001928E-02 0.  1.
    10030    2    1    2    0    0  0.00000000000E+00  0.00000000000E+00 -0.28629147190E+03  0.29892070707E+04  0.29754656955E+04 0.  0.
        4    1    3    3  502    0 -0.51664657648E+02  0.10298936469E+04 -0.12204774749E+04  0.15977850420E+04  0.12699999809E+01 0.  1.
       -4    1    3    3    0  502  0.51664657648E+02 -0.10298936469E+04  0.93418600304E+03  0.13914220287E+04  0.12699999809E+01 0. -1.
</event>
<event>
 5   0  0.1057036E-05  0.3088713E+04  0.7818609E-02  0.8218842E-01
        2   -1    0    0  501    0  0.00000000000E+00  0.00000000000E+00  0.23625961266E+04  0.23625961266E+04  0.25500000920E-02 0. -1.
       -2   -1    0    0    0  501  0.00000000000E+00  0.00000000000E+00 -0.10094986215E+04  0.10094986215E+04  0.25500000920E-02 0.  1.
    10030    2    1    2    0    0  0.00000000000E+00  0.00000000000E+00  0.13530975051E+04  0.33720947481E+04  0.30887133457E+04 0.  0.
        4    1    3    3  502    0 -0.12937165109E+04 -0.58575944994E+03  0.14064616289E+02  0.14202168743E+04  0.12699999809E+01 0. -1.
       -4    1    3    3    0  502  0.12937165109E+04  0.58575944994E+03  0.13390328888E+04  0.19518778738E+04  0.12699999809E+01 0.  1.
</event>
<event>
 5   0  0.1089569E-05  0.2982569E+04  0.7818609E-02  0.8248726E-01
       -2   -1    0    0    0  501  0.00000000000E+00  0.00000000000E+00  0.14450228717E+04  0.14450228717E+04  0.25500000920E-02 0. -1.
        2   -1    0    0  501    0  0.00000000000E+00  0.00000000000E+00 -0.15390274811E+04  0.15390274811E+04  0.25500000920E-02 0.  1.
    10030    2    1    2    0    0  0.00000000000E+00  0.00000000000E+00 -0.94004609364E+02  0.29840503528E+04  0.29825693020E+04 0.  0.
        5    1    3    3  502    0  0.69124604272E+03 -0.13115347363E+04 -0.20821383008E+03  0.14971037189E+04  0.46999998093E+01 0.  1.
       -5    1    3    3    0  502 -0.69124604272E+03  0.13115347363E+04  0.11420922071E+03  0.14869466339E+04  0.46999998093E+01 0. -1.
</event>
<event>
 5   0  0.3896630E-06  0.2812247E+04  0.7818609E-02  0.8299476E-01
        1   -1    0    0  501    0  0.00000000000E+00  0.00000000000E+00  0.19516496062E+04  0.19516496063E+04  0.50400001928E-02 0.  1.
       -1   -1    0    0    0  501  0.00000000000E+00  0.00000000000E+00 -0.10130829390E+04  0.10130829390E+04  0.50400001928E-02 0. -1.
    10030    2    1    2    0    0  0.00000000000E+00  0.00000000000E+00  0.93856666729E+03  0.29647325452E+04  0.28122467310E+04 0.  0.
        5    1    3    3  502    0  0.85842614562E+03  0.38422185699E+03 -0.63268835882E+03  0.11335071823E+04  0.46999998093E+01 0. -1.
       -5    1    3    3    0  502 -0.85842614562E+03 -0.38422185699E+03  0.15712550261E+04  0.18312253630E+04  0.46999998093E+01 0.  1.
</event>
<event>
 5   0  0.1089569E-05  0.3042039E+04  0.7818609E-02  0.8231827E-01
        2   -1    0    0  501    0  0.00000000000E+00  0.00000000000E+00  0.16908569853E+04  0.16908569853E+04  0.25500000920E-02 0.  1.
       -2   -1    0    0    0  501  0.00000000000E+00  0.00000000000E+00 -0.13682414325E+04  0.13682414325E+04  0.25500000920E-02 0. -1.
    10030    2    1    2    0    0  0.00000000000E+00  0.00000000000E+00  0.32261555273E+03  0.30590984178E+04  0.30420391738E+04 0.  0.
        5    1    3    3  502    0  0.72579266494E+03  0.10929115679E+04  0.93519981214E+03  0.16111646304E+04  0.46999998093E+01 0.  1.
       -5    1    3    3    0  502 -0.72579266494E+03 -0.10929115679E+04 -0.61258425940E+03  0.14479337874E+04  0.46999998093E+01 0. -1.
</event>
<event>
 5   0  0.3896630E-06  0.2260253E+04  0.7818609E-02  0.8493760E-01
        1   -1    0    0  501    0  0.00000000000E+00  0.00000000000E+00  0.33125497108E+04  0.33125497108E+04  0.50400001928E-02 0.  1.
       -1   -1    0    0    0  501  0.00000000000E+00  0.00000000000E+00 -0.38555990889E+03  0.38555990892E+03  0.50400001928E-02 0. -1.
    10030    2    1    2    0    0  0.00000000000E+00  0.00000000000E+00  0.29269898019E+04  0.36981096198E+04  0.22602534059E+04 0.  0.
        5    1    3    3  502    0 -0.58632102666E+03  0.94822692754E+03  0.17663265468E+04  0.20887408198E+04  0.46999998093E+01 0.  1.
       -5    1    3    3    0  502  0.58632102666E+03 -0.94822692754E+03  0.11606632551E+04  0.16093687999E+04  0.46999998093E+01 0. -1.
</event>
<event>
 5   0  0.1089569E-05  0.2844010E+04  0.7818609E-02  0.8289734E-01
       -2   -1    0    0    0  501  0.00000000000E+00  0.00000000000E+00  0.11890783556E+04  0.11890783556E+04  0.25500000920E-02 0.  1.
        2   -1    0    0  501    0  0.00000000000E+00  0.00000000000E+00 -0.17005593430E+04  0.17005593430E+04  0.25500000920E-02 0. -1.
    10030    2    1    2    0    0  0.00000000000E+00  0.00000000000E+00 -0.51148098739E+03  0.28896376985E+04  0.28440100612E+04 0.  0.
        5    1    3    3  502    0 -0.46858235981E+03 -0.66203332038E+03  0.93099589905E+03  0.12347603003E+04  0.46999998093E+01 0.  1.
       -5    1    3    3    0  502  0.46858235981E+03  0.66203332038E+03 -0.14424768864E+04  0.16548773982E+04  0.46999998093E+01 0. -1.
</event>
<event>
 5   0  0.9647945E-06  0.2950501E+04  0.7818609E-02  0.8258008E-01
       -2   -1    0    0    0  501  0.00000000000E+00  0.00000000000E+00  0.74814097909E+03  0.74814097909E+03  0.25500000920E-02 0. -1.
        2   -1    0    0  501    0  0.00000000000E+00  0.00000000000E+00 -0.29090301501E+04  0.29090301501E+04  0.25500000920E-02 0.  1.
    10030    2    1    2    0    0  0.00000000000E+00  0.00000000000E+00 -0.21608891710E+04  0.36571711292E+04  0.29505014250E+04 0.  0.
        2    1    3    3  502    0  0.72325197053E+03 -0.80728481933E+03  0.16003172720E+03  0.10956333082E+04  0.25500000920E-02 0. -1.
       -2    1    3    3    0  502 -0.72325197053E+03  0.80728481933E+03 -0.23209208982E+04  0.25615378209E+04  0.25500000920E-02 0.  1.
</event>
<event>
 5   0  0.3852126E-06  0.3003771E+04  0.7818609E-02  0.8242655E-01
        1   -1    0    0  501    0  0.00000000000E+00  0.00000000000E+00  0.23876369972E+04  0.23876369972E+04  0.50400001928E-02 0. -1.
       -1   -1    0    0    0  501  0.00000000000E+00  0.00000000000E+00 -0.94472518220E+03  0.94472518221E+03  0.50400001928E-02 0.  1.
    10030    2    1    2    0    0  0.00000000000E+00  0.00000000000E+00  0.14429118150E+04  0.33323621794E+04  0.30037714941E+04 0.  0.
        1    1    3    3  502    0 -0.35403075371E+03 -0.15280858220E+03 -0.88887357826E+03  0.96890890981E+03  0.50400001928E-02 0.  1.
       -1    1    3    3    0  502  0.35403075371E+03  0.15280858220E+03  0.23317853933E+04  0.23634532696E+04  0.50400001928E-02 0. -1.
</event>
<event>
 5   0  0.3592331E-06  0.2967390E+04  0.7818609E-02  0.8253105E-01
       -1   -1    0    0    0  501  0.00000000000E+00  0.00000000000E+00  0.11801561338E+04  0.11801561338E+04  0.50400001928E-02 0. -1.
        1   -1    0    0  501    0  0.00000000000E+00  0.00000000000E+00 -0.18653044721E+04  0.18653044721E+04  0.50400001928E-02 0.  1.
    10030    2    1    2    0    0  0.00000000000E+00  0.00000000000E+00 -0.68514833831E+03  0.30454606059E+04  0.29673897716E+04 0.  0.
        3    1    3    3  502    0 -0.19255826512E+03  0.75380248167E+03  0.95401423089E+03  0.12310320994E+04  0.10100000352E+00 0. -1.
       -3    1    3    3    0  502  0.19255826512E+03 -0.75380248167E+03 -0.16391625692E+04  0.18144285065E+04  0.10100000352E+00 0.  1.
</event>
<event>
 5   0  0.1057036E-05  0.2997898E+04  0.7818609E-02  0.8244331E-01
        2   -1    0    0  501    0  0.00000000000E+00  0.00000000000E+00  0.24523645829E+04  0.24523645829E+04  0.25500000920E-02 0. -1.
       -2   -1    0    0    0  501  0.00000000000E+00  0.00000000000E+00 -0.91619652606E+03  0.91619652606E+03  0.25500000920E-02 0.  1.
    10030    2    1    2    0    0  0.00000000000E+00  0.00000000000E+00  0.15361680568E+04  0.33685611089E+04  0.29978978711E+04 0.  0.
        4    1    3    3  502    0  0.65961910500E+03 -0.90460783033E+03  0.18880298677E+04  0.21950104976E+04  0.12699999809E+01 0. -1.
       -4    1    3    3    0  502 -0.65961910500E+03  0.90460783033E+03 -0.35186181093E+03  0.11735506113E+04  0.12699999809E+01 0.  1.
</event>
<event>
 5   0  0.1057036E-05  0.3004691E+04  0.7818609E-02  0.8242393E-01
       -2   -1    0    0    0  501  0.00000000000E+00  0.00000000000E+00  0.15246064560E+04  0.15246064560E+04  0.25500000920E-02 0. -1.
        2   -1    0    0  501    0  0.00000000000E+00  0.00000000000E+00 -0.14804099171E+04  0.14804099171E+04  0.25500000920E-02 0.  1.
    10030    2    1    2    0    0  0.00000000000E+00  0.00000000000E+00  0.44196538922E+02  0.30050163731E+04  0.30046913433E+04 0.  0.
        4    1    3    3  502    0  0.13640099151E+04  0.59021580278E+03 -0.19738654226E+03  0.14992800947E+04  0.12699999809E+01 0.  1.
       -4    1    3    3    0  502 -0.13640099151E+04 -0.59021580278E+03  0.24158308118E+03  0.15057362785E+04  0.12699999809E+01 0. -1.
</event>
<event>
 5   0  0.1029922E-05  0.3025169E+04  0.7818609E-02  0.8236580E-01
        2   -1    0    0  501    0  0.00000000000E+00  0.00000000000E+00  0.16886878384E+04  0.16886878384E+04  0.25500000920E-02 0.  1.
       -2   -1    0    0    0  501  0.00000000000E+00  0.00000000000E+00 -0.13548462362E+04  0.13548462362E+04  0.25500000920E-02 0. -1.
    10030    2    1    2    0    0  0.00000000000E+00  0.00000000000E+00  0.33384160213E+03  0.30435340746E+04  0.30251693255E+04 0.  0.
        1    1    3    3  502    0 -0.53155857525E+03  0.90933786064E+03 -0.92523944288E+03  0.14019692901E+04  0.50400001928E-02 0. -1.
       -1    1    3    3    0  502  0.53155857525E+03 -0.90933786064E+03  0.12590810450E+04  0.16415647845E+04  0.50400001928E-02 0.  1.
</event>
<event>
 5   0  0.3725232E-06  0.1941981E+04  0.7818609E-02  0.8634237E-01
       -1   -1    0    0    0  501  0.00000000000E+00  0.00000000000E+00  0.12278967088E+04  0.12278967088E+04  0.50400001928E-02 0. -1.
        1   -1    0    0  501    0  0.00000000000E+00  0.00000000000E+00 -0.76783575063E+03  0.76783575065E+03  0.50400001928E-02 0.  1.
    10030    2    1    2    0    0  0.00000000000E+00  0.00000000000E+00  0.46006095813E+03  0.19957324594E+04  0.19419814532E+04 0.  0.
        2    1    3    3  502    0  0.50843588674E+03 -0.39190440232E+03 -0.51864357916E+03  0.82528011832E+03  0.25500000920E-02 0.  1.
       -2    1    3    3    0  502 -0.50843588674E+03  0.39190440232E+03  0.97870453728E+03  0.11704523411E+04  0.25500000920E-02 0. -1.
</event>
<event>
 5   0  0.3592331E-06  0.3024931E+04  0.7818609E-02  0.8236647E-01
       -1   -1    0    0    0  501  0.00000000000E+00  0.00000000000E+00  0.95760616956E+03  0.95760616957E+03  0.50400001928E-02 0.  1.
        1   -1    0    0  501    0  0.00000000000E+00  0.00000000000E+00 -0.23888226087E+04  0.23888226087E+04  0.50400001928E-02 0. -1.
    10030    2    1    2    0    0  0.00000000000E+00  0.00000000000E+00 -0.14312164392E+04  0.33464287783E+04  0.30249305897E+04 0.  0.
        3    1    3    3  502    0 -0.10129763642E+04 -0.10686117930E+04 -0.33318146267E+03  0.15096563105E+04  0.10100000352E+00 0.  1.
       -3    1    3    3    0  502  0.10129763642E+04  0.10686117930E+04 -0.10980349765E+04  0.18367724678E+04  0.10100000352E+00 0. -1.
</event>
<event>
 5   0  0.3852126E-06  0.2944697E+04  0.7818609E-02  0.8259702E-01
        1   -1    0    0  501    0  0.00000000000E+00  0.00000000000E+00  0.15853152697E+04  0.15853152697E+04  0.50400001928E-02 0.  1.
       -1   -1    0    0    0  501  0.00000000000E+00  0.00000000000E+00 -0.13674314687E+04  0.13674314687E+04  0.50400001928E-02 0. -1.
    10030    2    1    2    0    0  0.00000000000E+00  0.00000000000E+00  0.21788380105E+03  0.29527467384E+04  0.29446969199E+04 0.  0.
        1    1    3    3  502    0  0.11198656139E+04  0.95428585469E+03  0.16431515497E+03  0.14804593732E+04  0.50400001928E-02 0. -1.
       -1    1    3    3    0  502 -0.11198656139E+04 -0.95428585469E+03  0.53568646084E+02  0.14722873651E+04  0.50400001928E-02 0.  1.
</event>
<event>
 5   0  0.9647945E-06  0.2898230E+04  0.7818609E-02  0.8273404E-01
       -2   -1    0    0    0  501  0.00000000000E+00  0.00000000000E+00  0.11163068144E+04  0.11163068144E+04  0.25500000920E-02 0. -1.
        2   -1    0    0  501    0  0.00000000000E+00  0.00000000000E+00 -0.18811441205E+04  0.18811441205E+04  0.25500000920E-02 0.  1.
    10030    2    1    2    0    0  0.00000000000E+00  0.00000000000E+00 -0.76483730606E+03  0.29974509348E+04  0.28982298049E+04 0.  0.
        2    1    3    3  502    0 -0.11777639042E+04  0.56069669975E+03 -0.10352376318E+04  0.16653004406E+04  0.25500000920E-02 0.  1.
       -2    1    3    3    0  502  0.11777639042E+04 -0.56069669975E+03  0.27040032569E+03  0.13321504943E+04  0.25500000920E-02 0. -1.
</event>
<event>
 5   0  0.3896630E-06  0.2976573E+04  0.7818609E-02  0.8250452E-01
        1   -1    0    0  501    0  0.00000000000E+00  0.00000000000E+00  0.26310109988E+04  0.26310109988E+04  0.50400001928E-02 0. -1.
       -1   -1    0    0    0  501  0.00000000000E+00  0.00000000000E+00 -0.84188041925E+03  0.84188041926E+03  0.50400001928E-02 0.  1.
    10030    2    1    2    0    0  0.00000000000E+00  0.00000000000E+00  0.17891305795E+04  0.34728914180E+04  0.29765729574E+04 0.  0.
        5    1    3    3  502    0 -0.62026999944E+03 -0.85391875593E+03  0.21188449857E+04  0.23671582705E+04  0.46999998093E+01 0. -1.
       -5    1    3    3    0  502  0.62026999944E+03  0.85391875593E+03 -0.32971440622E+03  0.11057331476E+04  0.46999998093E+01 0.  1.
</event>
<event>
 5   0  0.3592331E-06  0.2901163E+04  0.7818609E-02  0.8272532E-01
        1   -1    0    0  501    0  0.00000000000E+00  0.00000000000E+00  0.13568953453E+04  0.13568953453E+04  0.50400001928E-02 0.  1.
       -1   -1    0    0    0  501  0.00000000000E+00  0.00000000000E+00 -0.15507356702E+04  0.15507356702E+04  0.50400001928E-02 0. -1.
    10030    2    1    2    0    0  0.00000000000E+00  0.00000000000E+00 -0.19384032492E+03  0.29076310155E+04  0.29011625343E+04 0.  0.
        3    1    3    3  502    0 -0.11959029355E+04 -0.10054847529E+03 -0.91353263248E+03  0.15082558496E+04  0.10100000352E+00 0. -1.
       -3    1    3    3    0  502  0.11959029355E+04  0.10054847529E+03  0.71969230756E+03  0.13993751659E+04  0.10100000352E+00 0.  1.
</event>
<event>
 5   0  0.3725232E-06  0.2982347E+04  0.7818609E-02  0.8248790E-01
        1   -1    0    0  501    0  0.00000000000E+00  0.00000000000E+00  0.16403012670E+04  0.16403012670E+04  0.50400001928E-02 0.  1.
       -1   -1    0    0    0  501  0.00000000000E+00  0.00000000000E+00 -0.13556032737E+04  0.13556032737E+04  0.50400001928E-02 0. -1.
    10030    2    1    2    0    0  0.00000000000E+00  0.00000000000E+00  0.28469799334E+03  0.29959045407E+04  0.29823465710E+04 0.  0.
        2    1    3    3  502    0 -0.44577079567E+03  0.59961458334E+03  0.14386994627E+04  0.16211432370E+04  0.25500000920E-02 0.  1.
       -2    1    3    3    0  502  0.44577079567E+03 -0.59961458334E+03 -0.11540014694E+04  0.13747613037E+04  0.25500000920E-02 0. -1.
</event>
<event>
 5   0  0.9647945E-06  0.2976044E+04  0.7818609E-02  0.8250605E-01
        2   -1    0    0  501    0  0.00000000000E+00  0.00000000000E+00  0.16089237162E+04  0.16089237162E+04  0.25500000920E-02 0. -1.
       -2   -1    0    0    0  501  0.00000000000E+00  0.00000000000E+00 -0.13762055319E+04  0.13762055319E+04  0.25500000920E-02 0.  1.
    10030    2    1    2    0    0  0.00000000000E+00  0.00000000000E+00  0.23271818429E+03  0.29851292481E+04  0.29760441654E+04 0.  0.
        2    1    3    3  502    0  0.48274743702E+03 -0.32074627329E+03 -0.12583306166E+04  0.13853949619E+04  0.25500000920E-02 0.  1.
       -2    1    3    3    0  502 -0.48274743702E+03  0.32074627329E+03  0.14910488009E+04  0.15997342862E+04  0.25500000920E-02 0. -1.
</event>
<event>
 5   0  0.1028450E-05  0.3092527E+04  0.7818609E-02  0.8217792E-01
        2   -1    0    0  501    0  0.00000000000E+00  0.00000000000E+00  0.15252305664E+04  0.15252305664E+04  0.25500000920E-02 0.  1.
       -2   -1    0    0    0  501  0.00000000000E+00  0.00000000000E+00 -0.15675867318E+04  0.15675867318E+04  0.25500000920E-02 0. -1.
    10030    2    1    2    0    0  0.00000000000E+00  0.00000000000E+00 -0.42356165403E+02  0.30928172982E+04  0.30925272506E+04 0.  0.
        3    1    3    3  502    0 -0.11292152287E+04 -0.10371985284E+04  0.17889909402E+03  0.15436685901E+04  0.10100000352E+00 0.  1.
       -3    1    3    3    0  502  0.11292152287E+04  0.10371985284E+04 -0.22125525942E+03  0.15491487082E+04  0.10100000352E+00 0. -1.
</event>
<event>
 5   0  0.3896630E-06  0.2964749E+04  0.7818609E-02  0.8253869E-01
        1   -1    0    0  501    0  0.00000000000E+00  0.00000000000E+00  0.17057334971E+04  0.17057334971E+04  0.50400001928E-02 0.  1.
       -1   -1    0    0    0  501  0.00000000000E+00  0.00000000000E+00 -0.12882636713E+04  0.12882636713E+04  0.50400001928E-02 0. -1.
    10030    2    1    2    0    0  0.00000000000E+00  0.00000000000E+00  0.41746982573E+03  0.29939971684E+04  0.29647492287E+04 0.  0.
        5    1    3    3  502    0  0.13000079112E+04 -0.25625005973E+03 -0.46244779601E+03  0.14034118128E+04  0.46999998093E+01 0. -1.
       -5    1    3    3    0  502 -0.13000079112E+04  0.25625005973E+03  0.87991762174E+03  0.15905853556E+04  0.46999998093E+01 0.  1.
</event>
<event>
 5   0  0.3852126E-06  0.2304181E+04  0.7818609E-02  0.8476275E-01
        1   -1    0    0  501    0  0.00000000000E+00  0.00000000000E+00  0.13605782384E+04  0.13605782384E+04  0.50400001928E-02 0.  1.
       -1   -1    0    0    0  501  0.00000000000E+00  0.00000000000E+00 -0.97554995645E+03  0.97554995646E+03  0.50400001928E-02 0. -1.
    10030    2    1    2    0    0  0.00000000000E+00  0.00000000000E+00  0.38502828197E+03  0.23361281949E+04  0.23041805843E+04 0.  0.
        1    1    3    3  502    0 -0.59903932587E+03  0.78576206589E+03  0.79321691616E+03  0.12670687488E+04  0.50400001928E-02 0.  1.
       -1    1    3    3    0  502  0.59903932587E+03 -0.78576206589E+03 -0.40818863419E+03  0.10690594461E+04  0.50400001928E-02 0. -1.
</event>
<event>
 5   0  0.3896630E-06  0.3013166E+04  0.7818609E-02  0.8239981E-01
       -1   -1    0    0    0  501  0.00000000000E+00  0.00000000000E+00  0.10017054765E+04  0.10017054765E+04  0.50400001928E-02 0. -1.
        1   -1    0    0  501    0  0.00000000000E+00  0.00000000000E+00 -0.22659281813E+04  0.22659281813E+04  0.50400001928E-02 0.  1.
    10030    2    1    2    0    0  0.00000000000E+00  0.00000000000E+00 -0.12642227048E+04  0.32676336578E+04  0.30131662208E+04 0.  0.
        5    1    3    3  502    0 -0.70436515260E+03  0.34007853702E+03 -0.20284823434E+04  0.21740621856E+04  0.46999998093E+01 0.  1.
       -5    1    3    3    0  502  0.70436515260E+03 -0.34007853702E+03  0.76425963857E+03  0.10935714721E+04  0.46999998093E+01 0. -1.
</event>
<event>
 5   0  0.1089569E-05  0.2278932E+04  0.7818609E-02  0.8486275E-01
       -2   -1    0    0    0  501  0.00000000000E+00  0.00000000000E+00  0.75620085815E+03  0.75620085816E+03  0.25500000920E-02 0.  1.
        2   -1    0    0  501    0  0.00000000000E+00  0.00000000000E+00 -0.17169812767E+04  0.17169812767E+04  0.25500000920E-02 0. -1.
    10030    2    1    2    0    0  0.00000000000E+00  0.00000000000E+00 -0.96078041857E+03  0.24731821349E+04  0.22789319559E+04 0.  0.
        5    1    3    3  502    0  0.34997079246E+01 -0.78244413084E+03 -0.13793242099E+04  0.15858084474E+04  0.46999998093E+01 0. -1.
       -5    1    3    3    0  502 -0.34997079246E+01  0.78244413084E+03  0.41854379138E+03  0.88737368743E+03  0.46999998093E+01 0.  1.
</event>
<event>
 5   0  0.9647945E-06  0.3032305E+04  0.7818609E-02  0.8234566E-01
       -2   -1    0    0    0  501  0.00000000000E+00  0.00000000000E+00  0.15284008260E+04  0.15284008260E+04  0.25500000920E-02 0. -1.
        2   -1    0    0  501    0  0.00000000000E+00  0.00000000000E+00 -0.15040022438E+04  0.15040022438E+04  0.25500000920E-02 0.  1.
    10030    2    1    2    0    0  0.00000000000E+00  0.00000000000E+00  0.24398582230E+02  0.30324030698E+04  0.30323049133E+04 0.  0.
        2    1    3    3  502    0  0.12530223659E+03 -0.14314627337E+03 -0.14920191921E+04  0.15040986589E+04  0.25500000920E-02 0.  1.
       -2    1    3    3    0  502 -0.12530223659E+03  0.14314627337E+03  0.15164177743E+04  0.15283044109E+04  0.25500000920E-02 0. -1.
</event>
<event>
 5   0  0.9647945E-06  0.3006004E+04  0.7818609E-02  0.8242018E-01
       -2   -1    0    0    0  501  0.00000000000E+00  0.00000000000E+00  0.28299510556E+04  0.28299510556E+04  0.25500000920E-02 0.  1.
        2   -1    0    0  501    0  0.00000000000E+00  0.00000000000E+00 -0.79825249700E+03  0.79825249701E+03  0.25500000920E-02 0. -1.
    10030    2    1    2    0    0  0.00000000000E+00  0.00000000000E+00  0.20316985586E+04  0.36282035526E+04  0.30060043224E+04 0.  0.
        2    1    3    3  502    0 -0.77144994581E+03 -0.12634712342E+04  0.70221666903E+03  0.16384757639E+04  0.25500000920E-02 0.  1.
       -2    1    3    3    0  502  0.77144994581E+03  0.12634712342E+04  0.13294818896E+04  0.19897277887E+04  0.25500000920E-02 0. -1.
</event>
<event>
 5   0  0.1089569E-05  0.2989429E+04  0.7818609E-02  0.8246756E-01
        2   -1    0    0  501    0  0.00000000000E+00  0.00000000000E+00  0.20295043496E+04  0.20295043496E+04  0.25500000920E-02 0. -1.
       -2   -1    0    0    0  501  0.00000000000E+00  0.00000000000E+00 -0.11008455120E+04  0.11008455120E+04  0.25500000920E-02 0.  1.
    10030    2    1    2    0    0  0.00000000000E+00  0.00000000000E+00  0.92865883764E+03  0.31303498616E+04  0.29894285440E+04 0.  0.
        5    1    3    3  502    0  0.44981842604E+03 -0.61697311472E+03 -0.88121731052E+03  0.11660010631E+04  0.46999998093E+01 0.  1.
       -5    1    3    3    0  502 -0.44981842604E+03  0.61697311472E+03  0.18098761482E+04  0.19643487986E+04  0.46999998093E+01 0. -1.
</event>
<event>
 5   0  0.1029922E-05  0.3000249E+04  0.7818609E-02  0.8243660E-01
        2   -1    0    0  501    0  0.00000000000E+00  0.00000000000E+00  0.19656062586E+04  0.19656062586E+04  0.25500000920E-02 0.  1.
       -2   -1    0    0    0  501  0.00000000000E+00  0.00000000000E+00 -0.11448751778E+04  0.11448751778E+04  0.25500000920E-02 0. -1.
    10030    2    1    2    0    0  0.00000000000E+00  0.00000000000E+00  0.82073108084E+03  0.31104814364E+04  0.30002491995E+04 0.  0.
        1    1    3    3  502    0 -0.39639623641E+03  0.11932011538E+04 -0.43793626391E+03  0.13314079544E+04  0.50400001928E-02 0. -1.
       -1    1    3    3    0  502  0.39639623641E+03 -0.11932011538E+04  0.12586673447E+04  0.17790734820E+04  0.50400001928E-02 0.  1.
</event>
<event>
 5   0  0.9647945E-06  0.2894255E+04  0.7818609E-02  0.8274589E-01
        2   -1    0    0  501    0  0.00000000000E+00  0.00000000000E+00  0.16296784699E+04  0.16296784700E+04  0.25500000920E-02 0. -1.
       -2   -1    0    0    0  501  0.00000000000E+00  0.00000000000E+00 -0.12850255723E+04  0.12850255723E+04  0.25500000920E-02 0.  1.
    10030    2    1    2    0    0  0.00000000000E+00  0.00000000000E+00  0.34465289763E+03  0.29147040423E+04  0.28942553506E+04 0.  0.
        2    1    3    3  502    0 -0.11106747217E+04 -0.91301635665E+03  0.69060427402E+01  0.14377916742E+04  0.25500000920E-02 0. -1.
       -2    1    3    3    0  502  0.11106747217E+04  0.91301635665E+03  0.33774685489E+03  0.14769123681E+04  0.25500000920E-02 0.  1.
</event>
<event>
 5   0  0.1029922E-05  0.2518439E+04  0.7818609E-02  0.8396446E-01
       -2   -1    0    0    0  501  0.00000000000E+00  0.00000000000E+00  0.81092985826E+03  0.81092985827E+03  0.25500000920E-02 0.  1.
        2   -1    0    0  501    0  0.00000000000E+00  0.00000000000E+00 -0.19553284195E+04  0.19553284195E+04  0.25500000920E-02 0. -1.
    10030    2    1    2    0    0  0.00000000000E+00  0.00000000000E+00 -0.11443985612E+04  0.27662582778E+04  0.25184393565E+04 0.  0.
        1    1    3    3  502    0 -0.39908352546E+03 -0.23052305736E+02 -0.18837825983E+04  0.19257299776E+04  0.50400001928E-02 0. -1.
       -1    1    3    3    0  502  0.39908352546E+03  0.23052305736E+02  0.73938403704E+03  0.84052830015E+03  0.50400001928E-02 0.  1.
</event>
<event>
 5   0  0.3636718E-06  0.2997180E+04  0.7818609E-02  0.8244537E-01
       -1   -1    0    0    0  501  0.00000000000E+00  0.00000000000E+00  0.11112085542E+04  0.11112085542E+04  0.50400001928E-02 0.  1.
        1   -1    0    0  501    0  0.00000000000E+00  0.00000000000E+00 -0.20210178909E+04  0.20210178909E+04  0.50400001928E-02 0. -1.
    10030    2    1    2    0    0  0.00000000000E+00  0.00000000000E+00 -0.90980933673E+03  0.31322264452E+04  0.29971802539E+04 0.  0.
        4    1    3    3  502    0  0.92806069747E+02 -0.85855733355E+03 -0.17348496109E+04  0.19378953653E+04  0.12699999809E+01 0. -1.
       -4    1    3    3    0  502 -0.92806069747E+02  0.85855733355E+03  0.82504027413E+03  0.11943310799E+04  0.12699999809E+01 0.  1.
</event>
<event>
 5   0  0.3852126E-06  0.3029643E+04  0.7818609E-02  0.8235316E-01
       -1   -1    0    0    0  501  0.00000000000E+00  0.00000000000E+00  0.16660356880E+04  0.16660356880E+04  0.50400001928E-02 0. -1.
        1   -1    0    0  501    0  0.00000000000E+00  0.00000000000E+00 -0.13773323203E+04  0.13773323204E+04  0.50400001928E-02 0.  1.
    10030    2    1    2    0    0  0.00000000000E+00  0.00000000000E+00  0.28870336769E+03  0.30433680084E+04  0.30296434114E+04 0.  0.
        1    1    3    3  502    0 -0.12618212510E+04  0.27047856498E+02  0.98585797537E+03  0.16015119118E+04  0.50400001928E-02 0. -1.
       -1    1    3    3    0  502  0.12618212510E+04 -0.27047856498E+02 -0.69715460768E+03  0.14418560966E+04  0.50400001928E-02 0.  1.
</event>
<event>
 5   0  0.3852126E-06  0.3038983E+04  0.7818609E-02  0.8232686E-01
       -1   -1    0    0    0  501  0.00000000000E+00  0.00000000000E+00  0.15428113972E+04  0.15428113972E+04  0.50400001928E-02 0.  1.
        1   -1    0    0  501    0  0.00000000000E+00  0.00000000000E+00 -0.14965244403E+04  0.14965244403E+04  0.50400001928E-02 0. -1.
    10030    2    1    2    0    0  0.00000000000E+00  0.00000000000E+00  0.46286956873E+02  0.30393358375E+04  0.30389833581E+04 0.  0.
        1    1    3    3  502    0 -0.15092670584E+04 -0.11555078161E+03 -0.10959691678E+03  0.15176463755E+04  0.50400001928E-02 0.  1.
       -1    1    3    3    0  502  0.15092670584E+04  0.11555078161E+03  0.15588387365E+03  0.15216894621E+04  0.50400001928E-02 0. -1.
</event>
<event>
 5   0  0.1057036E-05  0.1881888E+04  0.7818609E-02  0.8663925E-01
        2   -1    0    0  501    0  0.00000000000E+00  0.00000000000E+00  0.83364932435E+03  0.83364932435E+03  0.25500000920E-02 0. -1.
       -2   -1    0    0    0  501  0.00000000000E+00  0.00000000000E+00 -0.10620484069E+04  0.10620484069E+04  0.25500000920E-02 0.  1.
    10030    2    1    2    0    0  0.00000000000E+00  0.00000000000E+00 -0.22839908258E+03  0.18956977313E+04  0.18818883462E+04 0.  0.
        4    1    3    3  502    0 -0.61309566588E+03  0.23927584025E+02 -0.83281751657E+03  0.10344300139E+04  0.12699999809E+01 0.  1.
       -4    1    3    3    0  502  0.61309566588E+03 -0.23927584025E+02  0.60441843399E+03  0.86126771741E+03  0.12699999809E+01 0. -1.
</event>
<event>
 5   0  0.3896630E-06  0.3089050E+04  0.7818609E-02  0.8218749E-01
        1   -1    0    0  501    0  0.00000000000E+00  0.00000000000E+00  0.11821481176E+04  0.11821481176E+04  0.50400001928E-02 0.  1.
       -1   -1    0    0    0  501  0.00000000000E+00  0.00000000000E+00 -0.20179854613E+04  0.20179854613E+04  0.50400001928E-02 0. -1.
    10030    2    1    2    0    0  0.00000000000E+00  0.00000000000E+00 -0.83583734372E+03  0.32001335789E+04  0.30890501546E+04 0.  0.
        5    1    3    3  502    0  0.14856759686E+04  0.20185372887E+03 -0.33693810574E+02  0.14997117638E+04  0.46999998093E+01 0.  1.
       -5    1    3    3    0  502 -0.14856759686E+04 -0.20185372887E+03 -0.80214353315E+03  0.17004218151E+04  0.46999998093E+01 0. -1.
</event>
<event>
 5   0  0.3725232E-06  0.3060805E+04  0.7818609E-02  0.8226578E-01
        1   -1    0    0  501    0  0.00000000000E+00  0.00000000000E+00  0.22337822654E+04  0.22337822654E+04  0.50400001928E-02 0. -1.
       -1   -1    0    0    0  501  0.00000000000E+00  0.00000000000E+00 -0.10485052839E+04  0.10485052839E+04  0.50400001928E-02 0.  1.
    10030    2    1    2    0    0  0.00000000000E+00  0.00000000000E+00  0.11852769816E+04  0.32822875493E+04  0.30608054550E+04 0.  0.
        2    1    3    3  502    0  0.61592391338E+03  0.82260924384E+03 -0.62347921751E+03  0.12019877578E+04  0.25500000920E-02 0.  1.
       -2    1    3    3    0  502 -0.61592391338E+03 -0.82260924384E+03  0.18087561991E+04  0.20802997916E+04  0.25500000920E-02 0. -1.
</event>
<event>
 5   0  0.3636718E-06  0.2992213E+04  0.7818609E-02  0.8245958E-01
       -1   -1    0    0    0  501  0.00000000000E+00  0.00000000000E+00  0.15066245692E+04  0.15066245692E+04  0.50400001928E-02 0. -1.
        1   -1    0    0  501    0  0.00000000000E+00  0.00000000000E+00 -0.14856618923E+04  0.14856618924E+04  0.50400001928E-02 0.  1.
    10030    2    1    2    0    0  0.00000000000E+00  0.00000000000E+00  0.20962676813E+02  0.29922864615E+04  0.29922130328E+04 0.  0.
        4    1    3    3  502    0 -0.12527163081E+04 -0.26437734054E+03  0.78454139732E+03  0.15015659639E+04  0.12699999809E+01 0. -1.
       -4    1    3    3    0  502  0.12527163081E+04  0.26437734054E+03 -0.76357872051E+03  0.14907204977E+04  0.12699999809E+01 0.  1.
</event>
<event>
 5   0  0.3852126E-06  0.2950742E+04  0.7818609E-02  0.8257938E-01
       -1   -1    0    0    0  501  0.00000000000E+00  0.00000000000E+00  0.83251120337E+03  0.83251120339E+03  0.50400001928E-02 0. -1.
        1   -1    0    0  501    0  0.00000000000E+00  0.00000000000E+00 -0.26146423747E+04  0.26146423747E+04  0.50400001928E-02 0.  1.
    10030    2    1    2    0    0  0.00000000000E+00  0.00000000000E+00 -0.17821311713E+04  0.34471535781E+04  0.29507416490E+04 0.  0.
        1    1    3    3  502    0  0.18199337155E+03 -0.13822541244E+04 -0.14549374107E+04  0.20150907971E+04  0.50400001928E-02 0.  1.
       -1    1    3    3    0  502 -0.18199337155E+03  0.13822541244E+04 -0.32719376062E+03  0.14320627810E+04  0.50400001928E-02 0. -1.
</event>
<event>
 5   0  0.1028450E-05  0.2995699E+04  0.7818609E-02  0.8244960E-01
        2   -1    0    0  501    0  0.00000000000E+00  0.00000000000E+00  0.16487932991E+04  0.16487932991E+04  0.25500000920E-02 0.  1.
       -2   -1    0    0    0  501  0.00000000000E+00  0.00000000000E+00 -0.13607240153E+04  0.13607240153E+04  0.25500000920E-02 0. -1.
    10030    2    1    2    0    0  0.00000000000E+00  0.00000000000E+00  0.28806928381E+03  0.30095173144E+04  0.29956986753E+04 0.  0.
        3    1    3    3  502    0 -0.73041806174E+02 -0.82323570182E+03  0.13989969296E+04  0.16248829328E+04  0.10100000352E+00 0.  1.
       -3    1    3    3    0  502  0.73041806174E+02  0.82323570182E+03 -0.11109276458E+04  0.13846343816E+04  0.10100000352E+00 0. -1.
</event>
<event>
 5   0  0.3725232E-06  0.3021641E+04  0.7818609E-02  0.8237578E-01
       -1   -1    0    0    0  501  0.00000000000E+00  0.00000000000E+00  0.93803431075E+03  0.93803431077E+03  0.50400001928E-02 0.  1.
        1   -1    0    0  501    0  0.00000000000E+00  0.00000000000E+00 -0.24333634116E+04  0.24333634116E+04  0.50400001928E-02 0. -1.
    10030    2    1    2    0    0  0.00000000000E+00  0.00000000000E+00 -0.14953291009E+04  0.33713977224E+04  0.30216408593E+04 0.  0.
        2    1    3    3  502    0 -0.10748288750E+03 -0.41776757069E+03  0.86786225914E+03  0.96915799284E+03  0.25500000920E-02 0.  1.
       -2    1    3    3    0  502  0.10748288750E+03  0.41776757069E+03 -0.23631913600E+04  0.24022397296E+04  0.25500000920E-02 0. -1.
</event>
<event>
 5   0  0.1028450E-05  0.2953583E+04  0.7818609E-02  0.8257111E-01
       -2   -1    0    0    0  501  0.00000000000E+00  0.00000000000E+00  0.11348846842E+04  0.11348846842E+04  0.25500000920E-02 0.  1.
        2   -1    0    0  501    0  0.00000000000E+00  0.00000000000E+00 -0.19217041017E+04  0.19217041017E+04  0.25500000920E-02 0. -1.
    10030    2    1    2    0    0  0.00000000000E+00  0.00000000000E+00 -0.78681941746E+03  0.30565887859E+04  0.29535826060E+04 0.  0.
        3    1    3    3  502    0  0.63246289123E+03  0.13190577842E+04 -0.60292984599E+03  0.15822285411E+04  0.10100000352E+00 0.  1.
       -3    1    3    3    0  502 -0.63246289123E+03 -0.13190577842E+04 -0.18388957147E+03  0.14743602448E+04  0.10100000352E+00 0. -1.
</event>
<event>
 5   0  0.3313750E-06  0.2903323E+04  0.7818609E-02  0.8271890E-01
       -3   -1    0    0    0  501  0.00000000000E+00  0.00000000000E+00  0.14486135526E+04  0.14486135562E+04  0.10100000352E+00 0. -1.
        3   -1    0    0  501    0  0.00000000000E+00  0.00000000000E+00 -0.14547155574E+04  0.14547155610E+04  0.10100000352E+00 0.  1.
    10030    2    1    2    0    0  0.00000000000E+00  0.00000000000E+00 -0.61020048132E+01  0.29033291171E+04  0.29033227047E+04 0.  0.
        2    1    3    3  502    0  0.13318130707E+04  0.47876134191E+03 -0.32613406494E+03  0.14523435909E+04  0.25500000920E-02 0.  1.
       -2    1    3    3    0  502 -0.13318130707E+04 -0.47876134191E+03  0.32003206013E+03  0.14509855262E+04  0.25500000920E-02 0. -1.
</event>
<event>
 5   0  0.1028450E-05  0.2396075E+04  0.7818609E-02  0.8440975E-01
       -2   -1    0    0    0  501  0.00000000000E+00  0.00000000000E+00  0.94282265030E+03  0.94282265031E+03  0.25500000920E-02 0. -1.
        2   -1    0    0  501    0  0.00000000000E+00  0.00000000000E+00 -0.15223364541E+04  0.15223364541E+04  0.25500000920E-02 0.  1.
    10030    2    1    2    0    0  0.00000000000E+00  0.00000000000E+00 -0.57951380381E+03  0.24651591044E+04  0.23960745317E+04 0.  0.
        3    1    3    3  502    0 -0.61639126761E+03 -0.77852618605E+03  0.39983106008E+03  0.10704700388E+04  0.10100000352E+00 0. -1.
       -3    1    3    3    0  502  0.61639126761E+03  0.77852618605E+03 -0.97934486390E+03  0.13946890656E+04  0.10100000352E+00 0.  1.
</event>
<event>
 5   0  0.3592331E-06  0.3001768E+04  0.7818609E-02  0.8243226E-01
        1   -1    0    0  501    0  0.00000000000E+00  0.00000000000E+00  0.17542654544E+04  0.17542654544E+04  0.50400001928E-02 0. -1.
       -1   -1    0    0    0  501  0.00000000000E+00  0.00000000000E+00 -0.12841003516E+04  0.12841003516E+04  0.50400001928E-02 0.  1.
    10030    2    1    2    0    0  0.00000000000E+00  0.00000000000E+00  0.47016510283E+03  0.30383658060E+04  0.30017680702E+04 0.  0.
        3    1    3    3  502    0  0.10487309877E+04 -0.91278987728E+03  0.80733447174E+03  0.16077347431E+04  0.10100000352E+00 0. -1.
       -3    1    3    3    0  502 -0.10487309877E+04  0.91278987728E+03 -0.33716936890E+03  0.14306310629E+04  0.10100000352E+00 0.  1.
</event>
<event>
 5   0  0.3896630E-06  0.3060235E+04  0.7818609E-02  0.8226737E-01
       -1   -1    0    0    0  501  0.00000000000E+00  0.00000000000E+00  0.21668498430E+04  0.21668498430E+04  0.50400001928E-02 0. -1.
        1   -1    0    0  501    0  0.00000000000E+00  0.00000000000E+00 -0.10804896996E+04  0.10804896996E+04  0.50400001928E-02 0.  1.
    10030    2    1    2    0    0  0.00000000000E+00  0.00000000000E+00  0.10863601434E+04  0.32473395427E+04  0.30602345897E+04 0.  0.
        5    1    3    3  502    0 -0.65212607777E+03 -0.27149723933E+03 -0.89710403516E+03  0.11418392672E+04  0.46999998093E+01 0.  1.
       -5    1    3    3    0  502  0.65212607777E+03  0.27149723933E+03  0.19834641785E+04  0.21055002754E+04  0.46999998093E+01 0. -1.
</event>
<event>
 5   0  0.1089569E-05  0.2910111E+04  0.7818609E-02  0.8269875E-01
       -2   -1    0    0    0  501  0.00000000000E+00  0.00000000000E+00  0.21480842176E+04  0.21480842176E+04  0.25500000920E-02 0. -1.
        2   -1    0    0  501    0  0.00000000000E+00  0.00000000000E+00 -0.98561619635E+03  0.98561619635E+03  0.25500000920E-02 0.  1.
    10030    2    1    2    0    0  0.00000000000E+00  0.00000000000E+00  0.11624680213E+04  0.31337004140E+04  0.29101110604E+04 0.  0.
        5    1    3    3  502    0 -0.12925587155E+04  0.45174457935E+03  0.11113846208E+04  0.17635132728E+04  0.46999998093E+01 0. -1.
       -5    1    3    3    0  502  0.12925587155E+04 -0.45174457935E+03  0.51083400492E+02  0.13701871412E+04  0.46999998093E+01 0.  1.
</event>
<event>
 5   0  0.3592331E-06  0.3163196E+04  0.7818609E-02  0.8198605E-01
       -1   -1    0    0    0  501  0.00000000000E+00  0.00000000000E+00  0.10412334462E+04  0.10412334462E+04  0.50400001928E-02 0. -1.
        1   -1    0    0  501    0  0.00000000000E+00  0.00000000000E+00 -0.24023938824E+04  0.24023938824E+04  0.50400001928E-02 0.  1.
    10030    2    1    2    0    0  0.00000000000E+00  0.00000000000E+00 -0.13611604362E+04  0.34436273286E+04  0.31631963969E+04 0.  0.
        3    1    3    3  502    0 -0.22235480833E+03  0.13596540119E+04  0.16504012798E+03  0.13875658351E+04  0.10100000352E+00 0. -1.
       -3    1    3    3    0  502  0.22235480833E+03 -0.13596540119E+04 -0.15262005641E+04  0.20560614935E+04  0.10100000352E+00 0.  1.
</event>
<event>
 5   0  0.3725232E-06  0.3046993E+04  0.7818609E-02  0.8230438E-01
        1   -1    0    0  501    0  0.00000000000E+00  0.00000000000E+00  0.20692486435E+04  0.20692486435E+04  0.50400001928E-02 0.  1.
       -1   -1    0    0    0  501  0.00000000000E+00  0.00000000000E+00 -0.11216834335E+04  0.11216834335E+04  0.50400001928E-02 0. -1.
    10030    2    1    2    0    0  0.00000000000E+00  0.00000000000E+00  0.94756521004E+03  0.31909320770E+04  0.30469932216E+04 0.  0.
        2    1    3    3  502    0  0.22806175937E+03  0.11479085998E+04 -0.54765759711E+03  0.12921436310E+04  0.25500000920E-02 0. -1.
       -2    1    3    3    0  502 -0.22806175937E+03 -0.11479085998E+04  0.14952228072E+04  0.18987884460E+04  0.25500000920E-02 0.  1.
</event>
<event>
 5   0  0.9647945E-06  0.2979354E+04  0.7818609E-02  0.8249651E-01
       -2   -1    0    0    0  501  0.00000000000E+00  0.00000000000E+00  0.10540730563E+04  0.10540730563E+04  0.25500000920E-02 0. -1.
        2   -1    0    0  501    0  0.00000000000E+00  0.00000000000E+00 -0.21052978754E+04  0.21052978754E+04  0.25500000920E-02 0.  1.
    10030    2    1    2    0    0  0.00000000000E+00  0.00000000000E+00 -0.10512248191E+04  0.31593709317E+04  0.29793541353E+04 0.  0.
        2    1    3    3  502    0  0.13625430286E+04  0.32559669802E+02 -0.11632371401E+04  0.17918438216E+04  0.25500000920E-02 0.  1.
       -2    1    3    3    0  502 -0.13625430286E+04 -0.32559669802E+02  0.11201232096E+03  0.13675271101E+04  0.25500000920E-02 0. -1.
</event>
<event>
 5   0  0.9647945E-06  0.2977984E+04  0.7818609E-02  0.8250046E-01
       -2   -1    0    0    0  501  0.00000000000E+00  0.00000000000E+00  0.12749022997E+04  0.12749022997E+04  0.25500000920E-02 0. -1.
        2   -1    0    0  501    0  0.00000000000E+00  0.00000000000E+00 -0.17390331811E+04  0.17390331811E+04  0.25500000920E-02 0.  1.
    10030    2    1    2    0    0  0.00000000000E+00  0.00000000000E+00 -0.46413088139E+03  0.30139354808E+04  0.29779841516E+04 0.  0.
        2    1    3    3  502    0  0.95415908918E+03 -0.64522608781E+03  0.72291541391E+03  0.13599054995E+04  0.25500000920E-02 0. -1.
       -2    1    3    3    0  502 -0.95415908918E+03  0.64522608781E+03 -0.11870462953E+04  0.16540299813E+04  0.25500000920E-02 0.  1.
</event>
<event>
 5   0  0.1057036E-05  0.2503646E+04  0.7818609E-02  0.8401688E-01
        2   -1    0    0  501    0  0.00000000000E+00  0.00000000000E+00  0.19312387394E+04  0.19312387394E+04  0.25500000920E-02 0.  1.
       -2   -1    0    0    0  501  0.00000000000E+00  0.00000000000E+00 -0.81142812331E+03  0.81142812331E+03  0.25500000920E-02 0. -1.
    10030    2    1    2    0    0  0.00000000000E+00  0.00000000000E+00  0.11198106161E+04  0.27426668627E+04  0.25036464814E+04 0.  0.
        4    1    3    3  502    0 -0.32678552981E+03 -0.25252595296E+03 -0.73465051860E+03  0.84277585205E+03  0.12699999809E+01 0. -1.
       -4    1    3    3    0  502  0.32678552981E+03  0.25252595296E+03  0.18544611347E+04  0.18998910107E+04  0.12699999809E+01 0.  1.
</event>
<event>
 5   0  0.1029922E-05  0.2939484E+04  0.7818609E-02  0.8261226E-01
       -2   -1    0    0    0  501  0.00000000000E+00  0.00000000000E+00  0.34989626875E+04  0.34989626875E+04  0.25500000920E-02 0. -1.
        2   -1    0    0  501    0  0.00000000000E+00  0.00000000000E+00 -0.61736620780E+03  0.61736620781E+03  0.25500000920E-02 0.  1.
    10030    2    1    2    0    0  0.00000000000E+00  0.00000000000E+00  0.28815964797E+04  0.41163288953E+04  0.29394838497E+04 0.  0.
        1    1    3    3  502    0 -0.11531583087E+04 -0.40822753919E+03  0.29994276955E+03  0.12595195408E+04  0.50400001928E-02 0.  1.
       -1    1    3    3    0  502  0.11531583087E+04  0.40822753919E+03  0.25816537101E+04  0.28568093545E+04  0.50400001928E-02 0. -1.
</event>
<event>
 5   0  0.3725232E-06  0.3018593E+04  0.7818609E-02  0.8238441E-01
       -1   -1    0    0    0  501  0.00000000000E+00  0.00000000000E+00  0.94101533254E+03  0.94101533255E+03  0.50400001928E-02 0.  1.
        1   -1    0    0  501    0  0.00000000000E+00  0.00000000000E+00 -0.24207633877E+04  0.24207633877E+04  0.50400001928E-02 0. -1.
    10030    2    1    2    0    0  0.00000000000E+00  0.00000000000E+00 -0.14797480551E+04  0.33617787202E+04  0.30185926948E+04 0.  0.
        2    1    3    3  502    0  0.11401375318E+04  0.98609649412E+03 -0.65597254832E+03  0.16439585978E+04  0.25500000920E-02 0.  1.
       -2    1    3    3    0  502 -0.11401375318E+04 -0.98609649412E+03 -0.82377550680E+03  0.17178201224E+04  0.25500000920E-02 0. -1.
</event>
<event>
 5   0  0.9647945E-06  0.3007315E+04  0.7818609E-02  0.8241645E-01
       -2   -1    0    0    0  501  0.00000000000E+00  0.00000000000E+00  0.13959502329E+04  0.13959502329E+04  0.25500000920E-02 0. -1.
        2   -1    0    0  501    0  0.00000000000E+00  0.00000000000E+00 -0.16196746474E+04  0.16196746474E+04  0.25500000920E-02 0.  1.
    10030    2    1    2    0    0  0.00000000000E+00  0.00000000000E+00 -0.22372441451E+03  0.30156248803E+04  0.30073145504E+04 0.  0.
        2    1    3    3  502    0  0.83419330021E+03 -0.40980349992E+03  0.10734226908E+04  0.14198780384E+04  0.25500000920E-02 0. -1.
       -2    1    3    3    0  502 -0.83419330021E+03  0.40980349992E+03 -0.12971471053E+04  0.15957468419E+04  0.25500000920E-02 0.  1.
</event>
<event>
 5   0  0.1028450E-05  0.2732956E+04  0.7818609E-02  0.8324390E-01
        2   -1    0    0  501    0  0.00000000000E+00  0.00000000000E+00  0.12267352592E+04  0.12267352592E+04  0.25500000920E-02 0. -1.
       -2   -1    0    0    0  501  0.00000000000E+00  0.00000000000E+00 -0.15221395189E+04  0.15221395189E+04  0.25500000920E-02 0.  1.
    10030    2    1    2    0    0  0.00000000000E+00  0.00000000000E+00 -0.29540425969E+03  0.27488747781E+04  0.27329560679E+04 0.  0.
        3    1    3    3  502    0  0.45362578625E+03  0.23475963729E+03 -0.14225125582E+04  0.15114332369E+04  0.10100000352E+00 0.  1.
       -3    1    3    3    0  502 -0.45362578625E+03 -0.23475963729E+03  0.11271082985E+04  0.12374415412E+04  0.10100000352E+00 0. -1.
</event>
<event>
 5   0  0.3592331E-06  0.2193143E+04  0.7818609E-02  0.8521287E-01
        1   -1    0    0  501    0  0.00000000000E+00  0.00000000000E+00  0.17502409120E+04  0.17502409120E+04  0.50400001928E-02 0. -1.
       -1   -1    0    0    0  501  0.00000000000E+00  0.00000000000E+00 -0.68703077698E+03  0.68703077700E+03  0.50400001928E-02 0.  1.
    10030    2    1    2    0    0  0.00000000000E+00  0.00000000000E+00  0.10632101350E+04  0.24372716890E+04  0.21931432910E+04 0.  0.
        3    1    3    3  502    0  0.89466719321E+03  0.23484172587E+03  0.11861393728E+04  0.15041631044E+04  0.10100000352E+00 0. -1.
       -3    1    3    3    0  502 -0.89466719321E+03 -0.23484172587E+03 -0.12292923782E+03  0.93310858453E+03  0.10100000352E+00 0.  1.
</event>
<event>
 5   0  0.1089569E-05  0.2675105E+04  0.7818609E-02  0.8343128E-01
       -2   -1    0    0    0  501  0.00000000000E+00  0.00000000000E+00  0.12390147543E+04  0.12390147543E+04  0.25500000920E-02 0.  1.
        2   -1    0    0  501    0  0.00000000000E+00  0.00000000000E+00 -0.14439268395E+04  0.14439268395E+04  0.25500000920E-02 0. -1.
    10030    2    1    2    0    0  0.00000000000E+00  0.00000000000E+00 -0.20491208513E+03  0.26829415938E+04  0.26751049761E+04 0.  0.
        5    1    3    3  502    0  0.31397605882E+03  0.54744801620E+02 -0.14052790203E+04  0.14409750774E+04  0.46999998093E+01 0. -1.
       -5    1    3    3    0  502 -0.31397605882E+03 -0.54744801620E+02  0.12003669352E+04  0.12419665164E+04  0.46999998093E+01 0.  1.
</event>
<event>
 5   0  0.3636718E-06  0.3019503E+04  0.7818609E-02  0.8238183E-01
       -1   -1    0    0    0  501  0.00000000000E+00  0.00000000000E+00  0.10115966892E+04  0.10115966893E+04  0.50400001928E-02 0.  1.
        1   -1    0    0  501    0  0.00000000000E+00  0.00000000000E+00 -0.22532200702E+04  0.22532200702E+04  0.50400001928E-02 0. -1.
    10030    2    1    2    0    0  0.00000000000E+00  0.00000000000E+00 -0.12416233809E+04  0.32648167594E+04  0.30195032460E+04 0.  0.
        4    1    3    3  502    0 -0.16858745703E+03 -0.10292255490E+04  0.55948844050E+03  0.11835353350E+04  0.12699999809E+01 0.  1.
       -4    1    3    3    0  502  0.16858745703E+03  0.10292255490E+04 -0.18011118214E+04  0.20812814244E+04  0.12699999809E+01 0. -1.
</event>
<event>
 5   0  0.1029922E-05  0.2984968E+04  0.7818609E-02  0.8248036E-01
        2   -1    0    0  501    0  0.00000000000E+00  0.00000000000E+00  0.30216760909E+04  0.30216760909E+04  0.25500000920E-02 0.  1.
       -2   -1    0    0    0  501  0.00000000000E+00  0.00000000000E+00 -0.73717634740E+03  0.73717634740E+03  0.25500000920E-02 0. -1.
    10030    2    1    2    0    0  0.00000000000E+00  0.00000000000E+00  0.22844997435E+04  0.37588524383E+04  0.29849677678E+04 0.  0.
        1    1    3    3  502    0  0.44346245341E+03  0.42566062653E+03  0.28548731583E+04  0.29202990715E+04  0.50400001928E-02 0.  1.
       -1    1    3    3    0  502 -0.44346245341E+03 -0.42566062653E+03 -0.57037341487E+03  0.83855336681E+03  0.50400001928E-02 0. -1.
</event>
<event>
 5   0  0.9647945E-06  0.2979392E+04  0.7818609E-02  0.8249640E-01
        2   -1    0    0  501    0  0.00000000000E+00  0.00000000000E+00  0.17521406306E+04  0.17521406306E+04  0.25500000920E-02 0.  1.
       -2   -1    0    0    0  501  0.00000000000E+00  0.00000000000E+00 -0.12665613844E+04  0.12665613844E+04  0.25500000920E-02 0. -1.
    10030    2    1    2    0    0  0.00000000000E+00  0.00000000000E+00  0.48557924617E+03  0.30187020150E+04  0.29793916579E+04 0.  0.
        2    1    3    3  502    0  0.53602205346E+03 -0.12742743267E+04 -0.31960060292E+03  0.14188866223E+04  0.25500000920E-02 0. -1.
       -2    1    3    3    0  502 -0.53602205346E+03  0.12742743267E+04  0.80517984909E+03  0.15998153927E+04  0.25500000920E-02 0.  1.
</event>
<event>
 5   0  0.3896630E-06  0.2958202E+04  0.7818609E-02  0.8255768E-01
       -1   -1    0    0    0  501  0.00000000000E+00  0.00000000000E+00  0.21654265276E+04  0.21654265276E+04  0.50400001928E-02 0.  1.
        1   -1    0    0  501    0  0.00000000000E+00  0.00000000000E+00 -0.10103045016E+04  0.10103045016E+04  0.50400001928E-02 0. -1.
    10030    2    1    2    0    0  0.00000000000E+00  0.00000000000E+00  0.11551220260E+04  0.31757310292E+04  0.29582022707E+04 0.  0.
        5    1    3    3  502    0 -0.10465460603E+02  0.34646755126E+03  0.21212003245E+04  0.21493399444E+04  0.46999998093E+01 0.  1.
       -5    1    3    3    0  502  0.10465460603E+02 -0.34646755126E+03 -0.96607829851E+03  0.10263910847E+04  0.46999998093E+01 0. -1.
</event>
<event>
 5   0  0.9647945E-06  0.2943397E+04  0.7818609E-02  0.8260081E-01
        2   -1    0    0  501    0  0.00000000000E+00  0.00000000000E+00  0.16609523411E+04  0.16609523411E+04  0.25500000920E-02 0.  1.
       -2   -1    0    0    0  501  0.00000000000E+00  0.00000000000E+00 -0.13040087631E+04  0.13040087631E+04  0.25500000920E-02 0. -1.
    10030    2    1    2    0    0  0.00000000000E+00  0.00000000000E+00  0.35694357799E+03  0.29649611043E+04  0.29433969545E+04 0.  0.
        2    1    3    3  502    0  0.69194205183E+02 -0.85315466732E+03 -0.10274772908E+04  0.13372996326E+04  0.25500000920E-02 0. -1.
       -2    1    3    3    0  502 -0.69194205183E+02  0.85315466732E+03  0.13844208688E+04  0.16276614716E+04  0.25500000920E-02 0.  1.
</event>
<event>
 5   0  0.1089569E-05  0.2968992E+04  0.7818609E-02  0.8252641E-01
        2   -1    0    0  501    0  0.00000000000E+00  0.00000000000E+00  0.16782468881E+04  0.16782468881E+04  0.25500000920E-02 0. -1.
       -2   -1    0    0    0  501  0.00000000000E+00  0.00000000000E+00 -0.13131136404E+04  0.13131136404E+04  0.25500000920E-02 0.  1.
    10030    2    1    2    0    0  0.00000000000E+00  0.00000000000E+00  0.36513324773E+03  0.29913605285E+04  0.29689923413E+04 0.  0.
        5    1    3    3  502    0  0.17376055351E+03 -0.97852379203E+03  0.12936007692E+04  0.16312959822E+04  0.46999998093E+01 0. -1.
       -5    1    3    3    0  502 -0.17376055351E+03  0.97852379203E+03 -0.92846752150E+03  0.13600645463E+04  0.46999998093E+01 0.  1.
</event>
<event>
 5   0  0.3636718E-06  0.3026350E+04  0.7818609E-02  0.8236246E-01
       -1   -1    0    0    0  501  0.00000000000E+00  0.00000000000E+00  0.10012234994E+04  0.10012234994E+04  0.50400001928E-02 0.  1.
        1   -1    0    0  501    0  0.00000000000E+00  0.00000000000E+00 -0.22869001979E+04  0.22869001979E+04  0.50400001928E-02 0. -1.
    10030    2    1    2    0    0  0.00000000000E+00  0.00000000000E+00 -0.12856766985E+04  0.32881236973E+04  0.30263497610E+04 0.  0.
        4    1    3    3  502    0  0.12664246946E+04  0.45128901254E+03  0.11163539194E+03  0.13490579504E+04  0.12699999809E+01 0.  1.
       -4    1    3    3    0  502 -0.12664246946E+04 -0.45128901254E+03 -0.13973120905E+04  0.19390657469E+04  0.12699999809E+01 0. -1.
</event>
<event>
 5   0  0.1028450E-05  0.3652684E+04  0.7818609E-02  0.8078529E-01
       -2   -1    0    0    0  501  0.00000000000E+00  0.00000000000E+00  0.14680497922E+04  0.14680497922E+04  0.25500000920E-02 0. -1.
        2   -1    0    0  501    0  0.00000000000E+00  0.00000000000E+00 -0.22720793319E+04  0.22720793319E+04  0.25500000920E-02 0.  1.
    10030    2    1    2    0    0  0.00000000000E+00  0.00000000000E+00 -0.80402953964E+03  0.37401291241E+04  0.36526842684E+04 0.  0.
        3    1    3    3  502    0  0.15056945983E+04 -0.61805725830E+03  0.44632086982E+03  0.16876946782E+04  0.10100000352E+00 0. -1.
       -3    1    3    3    0  502 -0.15056945983E+04  0.61805725830E+03 -0.12503504095E+04  0.20524344459E+04  0.10100000352E+00 0.  1.
</event>
<event>
 5   0  0.3313750E-06  0.2969712E+04  0.7818609E-02  0.8252433E-01
        3   -1    0    0  501    0  0.00000000000E+00  0.00000000000E+00  0.16290285556E+04  0.16290285587E+04  0.10100000352E+00 0. -1.
       -3   -1    0    0    0  501  0.00000000000E+00  0.00000000000E+00 -0.13534434298E+04  0.13534434336E+04  0.10100000352E+00 0.  1.
    10030    2    1    2    0    0  0.00000000000E+00  0.00000000000E+00  0.27558512577E+03  0.29824719922E+04  0.29697124479E+04 0.  0.
        1    1    3    3  502    0  0.13920699888E+04  0.39087098835E+03 -0.20153340416E+03  0.14598817405E+04  0.50400001928E-02 0.  1.
       -1    1    3    3    0  502 -0.13920699888E+04 -0.39087098835E+03  0.47711852994E+03  0.15225902518E+04  0.50400001928E-02 0. -1.
</event>
<event>
 5   0  0.3592331E-06  0.2986339E+04  0.7818609E-02  0.8247643E-01
       -1   -1    0    0    0  501  0.00000000000E+00  0.00000000000E+00  0.24523448354E+04  0.24523448354E+04  0.50400001928E-02 0.  1.
        1   -1    0    0  501    0  0.00000000000E+00  0.00000000000E+00 -0.90915245799E+03  0.90915245800E+03  0.50400001928E-02 0. -1.
    10030    2    1    2    0    0  0.00000000000E+00  0.00000000000E+00  0.15431923774E+04  0.33614972934E+04  0.29863391200E+04 0.  0.
        3    1    3    3  502    0  0.14574697814E+04 -0.23322974597E+02  0.11359809390E+04  0.18480299859E+04  0.10100000352E+00 0. -1.
       -3    1    3    3    0  502 -0.14574697814E+04  0.23322974597E+02  0.40721143836E+03  0.15134673074E+04  0.10100000352E+00 0.  1.
</event>
<event>
 5   0  0.3592331E-06  0.2938695E+04  0.7818609E-02  0.8261457E-01
        1   -1    0    0  501    0  0.00000000000E+00  0.00000000000E+00  0.10405386882E+04  0.10405386882E+04  0.50400001928E-02 0.  1.
       -1   -1    0    0    0  501  0.00000000000E+00  0.00000000000E+00 -0.20748693313E+04  0.20748693313E+04  0.50400001928E-02 0. -1.
    10030    2    1    2    0    0  0.00000000000E+00  0.00000000000E+00 -0.10343306431E+04  0.31154080195E+04  0.29386948207E+04 0.  0.
        3    1    3    3  502    0  0.11496832371E+04  0.86581939385E+03 -0.83087705670E+03  0.16618578345E+04  0.10100000352E+00 0.  1.
       -3    1    3    3    0  502 -0.11496832371E+04 -0.86581939385E+03 -0.20345358639E+03  0.14535501851E+04  0.10100000352E+00 0. -1.
</event>
<event>
 5   0  0.3852126E-06  0.2676774E+04  0.7818609E-02  0.8342581E-01
        1   -1    0    0  501    0  0.00000000000E+00  0.00000000000E+00  0.20039815022E+04  0.20039815022E+04  0.50400001928E-02 0.  1.
       -1   -1    0    0    0  501  0.00000000000E+00  0.00000000000E+00 -0.89386015792E+03  0.89386015793E+03  0.50400001928E-02 0. -1.
    10030    2    1    2    0    0  0.00000000000E+00  0.00000000000E+00  0.11101213442E+04  0.28978416601E+04  0.26767735967E+04 0.  0.
        1    1    3    3  502    0 -0.27234375999E+03 -0.13074609354E+04  0.46034818026E+03  0.14126378405E+04  0.50400001928E-02 0. -1.
       -1    1    3    3    0  502  0.27234375999E+03  0.13074609354E+04  0.64977316398E+03  0.14852038196E+04  0.50400001928E-02 0.  1.
</event>
<event>
 5   0  0.1028450E-05  0.2873295E+04  0.7818609E-02  0.8280868E-01
        2   -1    0    0  501    0  0.00000000000E+00  0.00000000000E+00  0.21008522866E+04  0.21008522866E+04  0.25500000920E-02 0.  1.
       -2   -1    0    0    0  501  0.00000000000E+00  0.00000000000E+00 -0.98243751561E+03  0.98243751561E+03  0.25500000920E-02 0. -1.
    10030    2    1    2    0    0  0.00000000000E+00  0.00000000000E+00  0.11184147710E+04  0.30832898022E+04  0.28732950430E+04 0.  0.
        3    1    3    3  502    0  0.61191701992E+03  0.32379648568E+03  0.19100460126E+04  0.20316403186E+04  0.10100000352E+00 0.  1.
       -3    1    3    3    0  502 -0.61191701992E+03 -0.32379648568E+03 -0.79163124168E+03  0.10516494836E+04  0.10100000352E+00 0. -1.
</event>
<event>
 5   0  0.1028450E-05  0.3003641E+04  0.7818609E-02  0.8242692E-01
        2   -1    0    0  501    0  0.00000000000E+00  0.00000000000E+00  0.18047006250E+04  0.18047006250E+04  0.25500000920E-02 0.  1.
       -2   -1    0    0    0  501  0.00000000000E+00  0.00000000000E+00 -0.12497719836E+04  0.12497719836E+04  0.25500000920E-02 0. -1.
    10030    2    1    2    0    0  0.00000000000E+00  0.00000000000E+00  0.55492864140E+03  0.30544726085E+04  0.30036406441E+04 0.  0.
        3    1    3    3  502    0  0.12890034158E+04 -0.39450089429E+03  0.95071334973E+03  0.16495504373E+04  0.10100000352E+00 0.  1.
       -3    1    3    3    0  502 -0.12890034158E+04  0.39450089429E+03 -0.39578470832E+03  0.14049221712E+04  0.10100000352E+00 0. -1.
</event>
<event>
 5   0  0.1089569E-05  0.2955730E+04  0.7818609E-02  0.8256487E-01
       -2   -1    0    0    0  501  0.00000000000E+00  0.00000000000E+00  0.10875122228E+04  0.10875122228E+04  0.25500000920E-02 0. -1.
        2   -1    0    0  501    0  0.00000000000E+00  0.00000000000E+00 -0.20083311386E+04  0.20083311387E+04  0.25500000920E-02 0.  1.
    10030    2    1    2    0    0  0.00000000000E+00  0.00000000000E+00 -0.92081891589E+03  0.30958433614E+04  0.29557297986E+04 0.  0.
        5    1    3    3  502    0 -0.14302573088E+04  0.33478240076E+03 -0.29039624281E+03  0.14973534296E+04  0.46999998093E+01 0.  1.
       -5    1    3    3    0  502  0.14302573088E+04 -0.33478240076E+03 -0.63042267308E+03  0.15984899318E+04  0.46999998093E+01 0. -1.
</event>
<event>
 5   0  0.3636718E-06  0.2951186E+04  0.7818609E-02  0.8257809E-01
       -1   -1    0    0    0  501  0.00000000000E+00  0.00000000000E+00  0.99984146416E+03  0.99984146418E+03  0.50400001928E-02 0.  1.
        1   -1    0    0  501    0  0.00000000000E+00  0.00000000000E+00 -0.21777195152E+04  0.21777195152E+04  0.50400001928E-02 0. -1.
    10030    2    1    2    0    0  0.00000000000E+00  0.00000000000E+00 -0.11778780510E+04  0.31775609794E+04  0.29511857066E+04 0.  0.
        4    1    3    3  502    0  0.73260359359E+03 -0.10238891363E+04 -0.14175944256E+04  0.18959516231E+04  0.12699999809E+01 0. -1.
       -4    1    3    3    0  502 -0.73260359359E+03  0.10238891363E+04  0.23971637458E+03  0.12816093562E+04  0.12699999809E+01 0.  1.
</event>
<event>
 5   0  0.3852126E-06  0.2910029E+04  0.7818609E-02  0.8269900E-01
        1   -1    0    0  501    0  0.00000000000E+00  0.00000000000E+00  0.10367386847E+04  0.10367386847E+04  0.50400001928E-02 0.  1.
       -1   -1    0    0    0  501  0.00000000000E+00  0.00000000000E+00 -0.20420447117E+04  0.20420447117E+04  0.50400001928E-02 0. -1.
    10030    2    1    2    0    0  0.00000000000E+00  0.00000000000E+00 -0.10053060270E+04  0.30787833964E+04  0.29100286930E+04 0.  0.
        1    1    3    3  502    0  0.30950908960E+03  0.87340922938E+02 -0.20039722250E+04  0.20296130153E+04  0.50400001928E-02 0. -1.
       -1    1    3    3    0  502 -0.30950908960E+03 -0.87340922938E+02  0.99866619806E+03  0.10491703811E+04  0.50400001928E-02 0.  1.
</event>
<event>
 5   0  0.9647945E-06  0.2950924E+04  0.7818609E-02  0.8257885E-01
        2   -1    0    0  501    0  0.00000000000E+00  0.00000000000E+00  0.20815036057E+04  0.20815036057E+04  0.25500000920E-02 0. -1.
       -2   -1    0    0    0  501  0.00000000000E+00  0.00000000000E+00 -0.10458728768E+04  0.10458728768E+04  0.25500000920E-02 0.  1.
    10030    2    1    2    0    0  0.00000000000E+00  0.00000000000E+00  0.10356307289E+04  0.31273764825E+04  0.29509240343E+04 0.  0.
        2    1    3    3  502    0 -0.12820467959E+03 -0.45092986359E+03 -0.96484368019E+03  0.10727056954E+04  0.25500000920E-02 0.  1.
       -2    1    3    3    0  502  0.12820467959E+03  0.45092986359E+03  0.20004744091E+04  0.20546707870E+04  0.25500000920E-02 0. -1.
</event>
<event>
 5   0  0.1028450E-05  0.3006589E+04  0.7818609E-02  0.8241852E-01
       -2   -1    0    0    0  501  0.00000000000E+00  0.00000000000E+00  0.96301686843E+03  0.96301686843E+03  0.25500000920E-02 0.  1.
        2   -1    0    0  501    0  0.00000000000E+00  0.00000000000E+00 -0.23466822016E+04  0.23466822016E+04  0.25500000920E-02 0. -1.
    10030    2    1    2    0    0  0.00000000000E+00  0.00000000000E+00 -0.13836653331E+04  0.33096990700E+04  0.30065891272E+04 0.  0.
        3    1    3    3  502    0  0.63686246560E+03 -0.12763772782E+04 -0.12141828608E+04  0.18732252363E+04  0.10100000352E+00 0. -1.
       -3    1    3    3    0  502 -0.63686246560E+03  0.12763772782E+04 -0.16948247237E+03  0.14364738337E+04  0.10100000352E+00 0.  1.
</event>
<event>
 5   0  0.3852126E-06  0.2992481E+04  0.7818609E-02  0.8245881E-01
        1   -1    0    0  501    0  0.00000000000E+00  0.00000000000E+00  0.20830459916E+04  0.20830459916E+04  0.50400001928E-02 0.  1.
       -1   -1    0    0    0  501  0.00000000000E+00  0.00000000000E+00 -0.10747416458E+04  0.10747416458E+04  0.50400001928E-02 0. -1.
    10030    2    1    2    0    0  0.00000000000E+00  0.00000000000E+00  0.10083043458E+04  0.31577876374E+04  0.29924814300E+04 0.  0.
        1    1    3    3  502    0  0.83267772575E+03 -0.66435496220E+03  0.16129165168E+04  0.19329302628E+04  0.50400001928E-02 0.  1.
       -1    1    3    3    0  502 -0.83267772575E+03  0.66435496220E+03 -0.60461217094E+03  0.12248573746E+04  0.50400001928E-02 0. -1.
</event>
<event>
 5   0  0.1089569E-05  0.2997898E+04  0.7818609E-02  0.8244331E-01
        2   -1    0    0  501    0  0.00000000000E+00  0.00000000000E+00  0.13434005765E+04  0.13434005765E+04  0.25500000920E-02 0. -1.
       -2   -1    0    0    0  501  0.00000000000E+00  0.00000000000E+00 -0.16725074780E+04  0.16725074780E+04  0.25500000920E-02 0.  1.
    10030    2    1    2    0    0  0.00000000000E+00  0.00000000000E+00 -0.32910690155E+03  0.30159080545E+04  0.29978976034E+04 0.  0.
        5    1    3    3  502    0  0.46655155243E+03 -0.67014412817E+02 -0.15960087722E+04  0.16641596598E+04  0.46999998093E+01 0.  1.
       -5    1    3    3    0  502 -0.46655155243E+03  0.67014412817E+02  0.12669018706E+04  0.13517483946E+04  0.46999998093E+01 0. -1.
</event>
<event>
 5   0  0.3852126E-06  0.2919579E+04  0.7818609E-02  0.8267076E-01
       -1   -1    0    0    0  501  0.00000000000E+00  0.00000000000E+00  0.10298823759E+04  0.10298823759E+04  0.50400001928E-02 0.  1.
        1   -1    0    0  501    0  0.00000000000E+00  0.00000000000E+00 -0.20691545474E+04  0.20691545474E+04  0.50400001928E-02 0. -1.
    10030    2    1    2    0    0  0.00000000000E+00  0.00000000000E+00 -0.10392721715E+04  0.30990369233E+04  0.29195792857E+04 0.  0.
        1    1    3    3  502    0  0.54109540439E+03  0.92718070958E+03  0.53037821242E+03  0.11973927314E+04  0.50400001928E-02 0.  1.
       -1    1    3    3    0  502 -0.54109540439E+03 -0.92718070958E+03 -0.15696503839E+04  0.19016441919E+04  0.50400001928E-02 0. -1.
</event>
<event>
 5   0  0.3896630E-06  0.2016116E+04  0.7818609E-02  0.8599123E-01
        1   -1    0    0  501    0  0.00000000000E+00  0.00000000000E+00  0.12105773830E+04  0.12105773830E+04  0.50400001928E-02 0.  1.
       -1   -1    0    0    0  501  0.00000000000E+00  0.00000000000E+00 -0.83941807475E+03  0.83941807476E+03  0.50400001928E-02 0. -1.
    10030    2    1    2    0    0  0.00000000000E+00  0.00000000000E+00  0.37115930823E+03  0.20499954578E+04  0.20161156080E+04 0.  0.
        5    1    3    3  502    0 -0.72680980958E+03  0.21417130132E+02 -0.52432705540E+03  0.89646647667E+03  0.46999998093E+01 0. -1.
       -5    1    3    3    0  502  0.72680980958E+03 -0.21417130132E+02  0.89548636363E+03  0.11535289811E+04  0.46999998093E+01 0.  1.
</event>
<event>
 5   0  0.9647945E-06  0.3033980E+04  0.7818609E-02  0.8234094E-01
       -2   -1    0    0    0  501  0.00000000000E+00  0.00000000000E+00  0.98112067250E+03  0.98112067251E+03  0.25500000920E-02 0.  1.
        2   -1    0    0  501    0  0.00000000000E+00  0.00000000000E+00 -0.23455414568E+04  0.23455414568E+04  0.25500000920E-02 0. -1.
    10030    2    1    2    0    0  0.00000000000E+00  0.00000000000E+00 -0.13644207843E+04  0.33266621293E+04  0.30339803635E+04 0.  0.
        2    1    3    3  502    0  0.99664875808E+03  0.36834085795E+03 -0.18693745293E+04  0.21502429782E+04  0.25500000920E-02 0. -1.
       -2    1    3    3    0  502 -0.99664875808E+03 -0.36834085795E+03  0.50495374494E+03  0.11764191511E+04  0.25500000920E-02 0.  1.
</event>
<event>
 5   0  0.3852126E-06  0.2951650E+04  0.7818609E-02  0.8257674E-01
       -1   -1    0    0    0  501  0.00000000000E+00  0.00000000000E+00  0.13291528166E+04  0.13291528166E+04  0.50400001928E-02 0. -1.
        1   -1    0    0  501    0  0.00000000000E+00  0.00000000000E+00 -0.16386827692E+04  0.16386827692E+04  0.50400001928E-02 0.  1.
    10030    2    1    2    0    0  0.00000000000E+00  0.00000000000E+00 -0.30952995263E+03  0.29678355858E+04  0.29516502626E+04 0.  0.
        1    1    3    3  502    0 -0.48130107930E+03  0.42708818764E+03  0.11806763701E+04  0.13446381446E+04  0.50400001928E-02 0. -1.
       -1    1    3    3    0  502  0.48130107930E+03 -0.42708818764E+03 -0.14902063227E+04  0.16231974412E+04  0.50400001928E-02 0.  1.
</event>
<event>
 5   0  0.3725232E-06  0.2681865E+04  0.7818609E-02  0.8340913E-01
        1   -1    0    0  501    0  0.00000000000E+00  0.00000000000E+00  0.10457574402E+04  0.10457574402E+04  0.50400001928E-02 0.  1.
       -1   -1    0    0    0  501  0.00000000000E+00  0.00000000000E+00 -0.17194240363E+04  0.17194240363E+04  0.50400001928E-02 0. -1.
    10030    2    1    2    0    0  0.00000000000E+00  0.00000000000E+00 -0.67366659610E+03  0.27651814765E+04  0.26818653797E+04 0.  0.
        2    1    3    3  502    0 -0.37315845862E+02  0.11806140568E+04 -0.99126285608E+03  0.15420259639E+04  0.25500000920E-02 0. -1.
       -2    1    3    3    0  502  0.37315845862E+02 -0.11806140568E+04  0.31759625998E+03  0.12231555125E+04  0.25500000920E-02 0.  1.
</event>
<event>
 5   0  0.1089569E-05  0.3036275E+04  0.7818609E-02  0.8233448E-01
        2   -1    0    0  501    0  0.00000000000E+00  0.00000000000E+00  0.21235885244E+04  0.21235885244E+04  0.25500000920E-02 0. -1.
       -2   -1    0    0    0  501  0.00000000000E+00  0.00000000000E+00 -0.10853050809E+04  0.10853050809E+04  0.25500000920E-02 0.  1.
    10030    2    1    2    0    0  0.00000000000E+00  0.00000000000E+00  0.10382834435E+04  0.32088936054E+04  0.30362749647E+04 0.  0.
        5    1    3    3  502    0  0.37099651222E+03  0.14240168880E+04  0.91352859338E+03  0.17320563184E+04  0.46999998093E+01 0. -1.
       -5    1    3    3    0  502 -0.37099651222E+03 -0.14240168880E+04  0.12475485017E+03  0.14768372869E+04  0.46999998093E+01 0.  1.
</event>
<event>
 5   0  0.1057036E-05  0.2868445E+04  0.7818609E-02  0.8282328E-01
        2   -1    0    0  501    0  0.00000000000E+00  0.00000000000E+00  0.20817687430E+04  0.20817687430E+04  0.25500000920E-02 0.  1.
       -2   -1    0    0    0  501  0.00000000000E+00  0.00000000000E+00 -0.98809911800E+03  0.98809911800E+03  0.25500000920E-02 0. -1.
    10030    2    1    2    0    0  0.00000000000E+00  0.00000000000E+00  0.10936696250E+04  0.30698678610E+04  0.28684447764E+04 0.  0.
        4    1    3    3  502    0  0.13139451255E+04 -0.57206680864E+03  0.60812788623E+03  0.15567701710E+04  0.12699999809E+01 0. -1.
       -4    1    3    3    0  502 -0.13139451255E+04  0.57206680864E+03  0.48554173876E+03  0.15130976900E+04  0.12699999809E+01 0.  1.
</event>
<event>
 5   0  0.3725232E-06  0.2980139E+04  0.7818609E-02  0.8249425E-01
       -1   -1    0    0    0  501  0.00000000000E+00  0.00000000000E+00  0.10093605483E+04  0.10093605483E+04  0.50400001928E-02 0. -1.
        1   -1    0    0  501    0  0.00000000000E+00  0.00000000000E+00 -0.21997171694E+04  0.21997171694E+04  0.50400001928E-02 0.  1.
    10030    2    1    2    0    0  0.00000000000E+00  0.00000000000E+00 -0.11903566212E+04  0.32090777177E+04  0.29801394116E+04 0.  0.
        2    1    3    3  502    0  0.10902126064E+03  0.22794818425E+03  0.98612263451E+03  0.10179802848E+04  0.25500000920E-02 0. -1.
       -2    1    3    3    0  502 -0.10902126064E+03 -0.22794818425E+03 -0.21764792557E+04  0.21910974329E+04  0.25500000920E-02 0.  1.
</event>
<event>
 5   0  0.3592331E-06  0.2953332E+04  0.7818609E-02  0.8257184E-01
        1   -1    0    0  501    0  0.00000000000E+00  0.00000000000E+00  0.72003439317E+03  0.72003439319E+03  0.50400001928E-02 0. -1.
       -1   -1    0    0    0  501  0.00000000000E+00  0.00000000000E+00 -0.30283860486E+04  0.30283860486E+04  0.50400001928E-02 0.  1.
    10030    2    1    2    0    0  0.00000000000E+00  0.00000000000E+00 -0.23083516554E+04  0.37484204418E+04  0.29533317530E+04 0.  0.
        3    1    3    3  502    0 -0.56626331400E+03  0.43988070530E+03  0.48424239407E+03  0.86523978301E+03  0.10100000352E+00 0. -1.
       -3    1    3    3    0  502  0.56626331400E+03 -0.43988070530E+03 -0.27925940495E+04  0.28831806588E+04  0.10100000352E+00 0.  1.
</event>
<event>
 5   0  0.3725232E-06  0.2988454E+04  0.7818609E-02  0.8247036E-01
       -1   -1    0    0    0  501  0.00000000000E+00  0.00000000000E+00  0.13266190976E+04  0.13266190976E+04  0.50400001928E-02 0. -1.
        1   -1    0    0  501    0  0.00000000000E+00  0.00000000000E+00 -0.16830103216E+04  0.16830103216E+04  0.50400001928E-02 0.  1.
    10030    2    1    2    0    0  0.00000000000E+00  0.00000000000E+00 -0.35639122400E+03  0.30096294192E+04  0.29884535359E+04 0.  0.
        2    1    3    3  502    0 -0.22957393593E+02 -0.47611734401E+02  0.13256772736E+04  0.13267306256E+04  0.25500000920E-02 0. -1.
       -2    1    3    3    0  502  0.22957393593E+02  0.47611734401E+02 -0.16820684976E+04  0.16828987937E+04  0.25500000920E-02 0.  1.
</event>
<event>
 5   0  0.1028450E-05  0.1900660E+04  0.7818609E-02  0.8654528E-01
       -2   -1    0    0    0  501  0.00000000000E+00  0.00000000000E+00  0.11848617950E+04  0.11848617950E+04  0.25500000920E-02 0. -1.
        2   -1    0    0  501    0  0.00000000000E+00  0.00000000000E+00 -0.76222119425E+03  0.76222119425E+03  0.25500000920E-02 0.  1.
    10030    2    1    2    0    0  0.00000000000E+00  0.00000000000E+00  0.42264060072E+03  0.19470829892E+04  0.19006596459E+04 0.  0.
        3    1    3    3  502    0 -0.26106974532E+02 -0.88843223067E+03 -0.13324810301E+03  0.89874827943E+03  0.10100000352E+00 0.  1.
       -3    1    3    3    0  502  0.26106974532E+02  0.88843223067E+03  0.55588870373E+03  0.10483347098E+04  0.10100000352E+00 0. -1.
</event>
<event>
 5   0  0.3313750E-06  0.3170287E+04  0.7818609E-02  0.8196709E-01
       -3   -1    0    0    0  501  0.00000000000E+00  0.00000000000E+00  0.87167686309E+03  0.87167686894E+03  0.10100000352E+00 0.  1.
        3   -1    0    0  501    0  0.00000000000E+00  0.00000000000E+00 -0.28825820057E+04  0.28825820075E+04  0.10100000352E+00 0. -1.
    10030    2    1    2    0    0  0.00000000000E+00  0.00000000000E+00 -0.20109051426E+04  0.37542588764E+04  0.31702870877E+04 0.  0.
        5    1    3    3  502    0 -0.89728640021E+03  0.12616250112E+04 -0.60241081099E+03  0.16612469498E+04  0.46999998093E+01 0.  1.
       -5    1    3    3    0  502  0.89728640021E+03 -0.12616250112E+04 -0.14084943316E+04  0.20930119267E+04  0.46999998093E+01 0. -1.
</event>
<event>
 5   0  0.3636718E-06  0.2983821E+04  0.7818609E-02  0.8248366E-01
        1   -1    0    0  501    0  0.00000000000E+00  0.00000000000E+00  0.31886710037E+04  0.31886710037E+04  0.50400001928E-02 0. -1.
       -1   -1    0    0    0  501  0.00000000000E+00  0.00000000000E+00 -0.69803281162E+03  0.69803281163E+03  0.50400001928E-02 0.  1.
    10030    2    1    2    0    0  0.00000000000E+00  0.00000000000E+00  0.24906381921E+04  0.38867038153E+04  0.29838210309E+04 0.  0.
        4    1    3    3  502    0 -0.48867334117E+03 -0.13332280060E+04  0.18415265431E+04  0.23254075282E+04  0.12699999809E+01 0. -1.
       -4    1    3    3    0  502  0.48867334117E+03  0.13332280060E+04  0.64911164894E+03  0.15612962871E+04  0.12699999809E+01 0.  1.
</event>
<event>
 5   0  0.3592331E-06  0.3066269E+04  0.7818609E-02  0.8225057E-01
       -1   -1    0    0    0  501  0.00000000000E+00  0.00000000000E+00  0.16266772773E+04  0.16266772773E+04  0.50400001928E-02 0. -1.
        1   -1    0    0  501    0  0.00000000000E+00  0.00000000000E+00 -0.14449708441E+04  0.14449708441E+04  0.50400001928E-02 0.  1.
    10030    2    1    2    0    0  0.00000000000E+00  0.00000000000E+00  0.18170643320E+03  0.30716481215E+04  0.30662688979E+04 0.  0.
        3    1    3    3  502    0 -0.14771748842E+04 -0.38582340088E+03 -0.49377694716E+02  0.15275285602E+04  0.10100000352E+00 0. -1.
       -3    1    3    3    0  502  0.14771748842E+04  0.38582340088E+03  0.23108412792E+03  0.15441195613E+04  0.10100000352E+00 0.  1.
</event>
<event>
 5   0  0.1029922E-05  0.2990453E+04  0.7818609E-02  0.8246462E-01
        2   -1    0    0  501    0  0.00000000000E+00  0.00000000000E+00  0.13503083873E+04  0.13503083873E+04  0.25500000920E-02 0.  1.
       -2   -1    0    0    0  501  0.00000000000E+00  0.00000000000E+00 -0.16556970200E+04  0.16556970200E+04  0.25500000920E-02 0. -1.
    10030    2    1    2    0    0  0.00000000000E+00  0.00000000000E+00 -0.30538863271E+03  0.30060054074E+04  0.29904525230E+04 0.  0.
        1    1    3    3  502    0  0.36422116005E+03  0.15471138368E+03 -0.16021050232E+04  0.16502524568E+04  0.50400001928E-02 0. -1.
       -1    1    3    3    0  502 -0.36422116005E+03 -0.15471138368E+03  0.12967163905E+04  0.13557529506E+04  0.50400001928E-02 0.  1.
</event>
<event>
 5   0  0.3852126E-06  0.3032241E+04  0.7818609E-02  0.8234584E-01
        1   -1    0    0  501    0  0.00000000000E+00  0.00000000000E+00  0.17141026585E+04  0.17141026585E+04  0.50400001928E-02 0. -1.
       -1   -1    0    0    0  501  0.00000000000E+00  0.00000000000E+00 -0.13410054177E+04  0.13410054177E+04  0.50400001928E-02 0.  1.
    10030    2    1    2    0    0  0.00000000000E+00  0.00000000000E+00  0.37309724083E+03  0.30551080762E+04  0.30322407237E+04 0.  0.
        1    1    3    3  502    0  0.12238631234E+04  0.71754062516E+03  0.72529171954E+03  0.15933466578E+04  0.50400001928E-02 0. -1.
       -1    1    3    3    0  502 -0.12238631234E+04 -0.71754062516E+03 -0.35219447871E+03  0.14617614184E+04  0.50400001928E-02 0.  1.
</event>
<event>
 5   0  0.1028450E-05  0.2984163E+04  0.7818609E-02  0.8248268E-01
       -2   -1    0    0    0  501  0.00000000000E+00  0.00000000000E+00  0.15193059825E+04  0.15193059825E+04  0.25500000920E-02 0.  1.
        2   -1    0    0  501    0  0.00000000000E+00  0.00000000000E+00 -0.14653451581E+04  0.14653451581E+04  0.25500000920E-02 0. -1.
    10030    2    1    2    0    0  0.00000000000E+00  0.00000000000E+00  0.53960824409E+02  0.29846511406E+04  0.29841633100E+04 0.  0.
        3    1    3    3  502    0  0.78019977406E+03 -0.10815074747E+04 -0.64241036545E+03  0.14802233592E+04  0.10100000352E+00 0. -1.
       -3    1    3    3    0  502 -0.78019977406E+03  0.10815074747E+04  0.69637118986E+03  0.15044277814E+04  0.10100000352E+00 0.  1.
</event>
<event>
 5   0  0.1028450E-05  0.2864270E+04  0.7818609E-02  0.8283588E-01
        2   -1    0    0  501    0  0.00000000000E+00  0.00000000000E+00  0.17547146426E+04  0.17547146426E+04  0.25500000920E-02 0.  1.
       -2   -1    0    0    0  501  0.00000000000E+00  0.00000000000E+00 -0.11688570404E+04  0.11688570404E+04  0.25500000920E-02 0. -1.
    10030    2    1    2    0    0  0.00000000000E+00  0.00000000000E+00  0.58585760220E+03  0.29235716829E+04  0.28642699341E+04 0.  0.
        3    1    3    3  502    0  0.12785271301E+04  0.32027991465E+03  0.86470499539E+03  0.15763646740E+04  0.10100000352E+00 0.  1.
       -3    1    3    3    0  502 -0.12785271301E+04 -0.32027991465E+03 -0.27884739319E+03  0.13472070090E+04  0.10100000352E+00 0. -1.
</event>
<event>
 5   0  0.1057036E-05  0.3052224E+04  0.7818609E-02  0.8228973E-01
       -2   -1    0    0    0  501  0.00000000000E+00  0.00000000000E+00  0.18259142593E+04  0.18259142593E+04  0.25500000920E-02 0. -1.
        2   -1    0    0  501    0  0.00000000000E+00  0.00000000000E+00 -0.12755355349E+04  0.12755355349E+04  0.25500000920E-02 0.  1.
    10030    2    1    2    0    0  0.00000000000E+00  0.00000000000E+00  0.55037872443E+03  0.31014497943E+04  0.30522244488E+04 0.  0.
        4    1    3    3  502    0 -0.13030902180E+04  0.17271058427E+03 -0.51264966635E+03  0.14109161405E+04  0.12699999809E+01 0.  1.
       -4    1    3    3    0  502  0.13030902180E+04 -0.17271058427E+03  0.10630283908E+04  0.16905336538E+04  0.12699999809E+01 0. -1.
</event>
<event>
 5   0  0.3896630E-06  0.2965648E+04  0.7818609E-02  0.8253609E-01
       -1   -1    0    0    0  501  0.00000000000E+00  0.00000000000E+00  0.11315569900E+04  0.11315569900E+04  0.50400001928E-02 0. -1.
        1   -1    0    0  501    0  0.00000000000E+00  0.00000000000E+00 -0.19431338041E+04  0.19431338041E+04  0.50400001928E-02 0.  1.
    10030    2    1    2    0    0  0.00000000000E+00  0.00000000000E+00 -0.81157681414E+03  0.30746907941E+04  0.29656477462E+04 0.  0.
        5    1    3    3  502    0 -0.86472416733E+03 -0.92739931132E+03  0.39119424021E+03  0.13269786704E+04  0.46999998093E+01 0. -1.
       -5    1    3    3    0  502  0.86472416733E+03  0.92739931132E+03 -0.12027710544E+04  0.17477121237E+04  0.46999998093E+01 0.  1.
</event>
<event>
 5   0  0.1057036E-05  0.2801250E+04  0.7818609E-02  0.8302880E-01
        2   -1    0    0  501    0  0.00000000000E+00  0.00000000000E+00  0.22093117791E+04  0.22093117791E+04  0.25500000920E-02 0.  1.
       -2   -1    0    0    0  501  0.00000000000E+00  0.00000000000E+00 -0.88794664830E+03  0.88794664830E+03  0.25500000920E-02 0. -1.
    10030    2    1    2    0    0  0.00000000000E+00  0.00000000000E+00  0.13213651308E+04  0.30972584274E+04  0.28012504274E+04 0.  0.
        4    1    3    3  502    0  0.87252434296E+03  0.19765914763E+03 -0.53086932770E+03  0.10402844436E+04  0.12699999809E+01 0. -1.
       -4    1    3    3    0  502 -0.87252434296E+03 -0.19765914763E+03  0.18522344585E+04  0.20569739838E+04  0.12699999809E+01 0.  1.
</event>
<event>
 5   0  0.3896630E-06  0.3102176E+04  0.7818609E-02  0.8215141E-01
       -1   -1    0    0    0  501  0.00000000000E+00  0.00000000000E+00  0.17477028309E+04  0.17477028309E+04  0.50400001928E-02 0.  1.
        1   -1    0    0  501    0  0.00000000000E+00  0.00000000000E+00 -0.13765921968E+04  0.13765921968E+04  0.50400001928E-02 0. -1.
    10030    2    1    2    0    0  0.00000000000E+00  0.00000000000E+00  0.37111063405E+03  0.31242950277E+04  0.31021760616E+04 0.  0.
        5    1    3    3  502    0 -0.21352561813E+03  0.11794938226E+04 -0.80586859177E+03  0.14443840017E+04  0.46999998093E+01 0. -1.
       -5    1    3    3    0  502  0.21352561813E+03 -0.11794938226E+04  0.11769792258E+04  0.16799110260E+04  0.46999998093E+01 0.  1.
</event>
<event>
 5   0  0.1029922E-05  0.2980518E+04  0.7818609E-02  0.8249316E-01
       -2   -1    0    0    0  501  0.00000000000E+00  0.00000000000E+00  0.11095586580E+04  0.11095586580E+04  0.25500000920E-02 0. -1.
        2   -1    0    0  501    0  0.00000000000E+00  0.00000000000E+00 -0.20015817533E+04  0.20015817533E+04  0.25500000920E-02 0.  1.
    10030    2    1    2    0    0  0.00000000000E+00  0.00000000000E+00 -0.89202309535E+03  0.31111404114E+04  0.29805183201E+04 0.  0.
        1    1    3    3  502    0  0.13385857181E+04  0.25466007364E+03  0.18393410829E+03  0.13749528115E+04  0.50400001928E-02 0. -1.
       -1    1    3    3    0  502 -0.13385857181E+04 -0.25466007364E+03 -0.10759572036E+04  0.17361875998E+04  0.50400001928E-02 0.  1.
</event>
<event>
 5   0  0.3725232E-06  0.2977433E+04  0.7818609E-02  0.8250204E-01
       -1   -1    0    0    0  501  0.00000000000E+00  0.00000000000E+00  0.16648588100E+04  0.16648588100E+04  0.50400001928E-02 0.  1.
        1   -1    0    0  501    0  0.00000000000E+00  0.00000000000E+00 -0.13312101564E+04  0.13312101564E+04  0.50400001928E-02 0. -1.
    10030    2    1    2    0    0  0.00000000000E+00  0.00000000000E+00  0.33364865357E+03  0.29960689664E+04  0.29774330937E+04 0.  0.
        2    1    3    3  502    0 -0.76999244875E+03  0.62456679683E+03 -0.95066921986E+03  0.13735880097E+04  0.25500000920E-02 0. -1.
       -2    1    3    3    0  502  0.76999244875E+03 -0.62456679683E+03  0.12843178734E+04  0.16224809567E+04  0.25500000920E-02 0.  1.
</event>
<event>
 5   0  0.3313750E-06  0.2991940E+04  0.7818609E-02  0.8246036E-01
       -4   -1    0    0    0  501  0.00000000000E+00  0.00000000000E+00  0.11514476209E+04  0.11514483212E+04  0.12699999809E+01 0. -1.
        4   -1    0    0  501    0  0.00000000000E+00  0.00000000000E+00 -0.19435750807E+04  0.19435754956E+04  0.12699999809E+01 0.  1.
    10030    2    1    2    0    0  0.00000000000E+00  0.00000000000E+00 -0.79212745985E+03  0.30950238169E+04  0.29919402591E+04 0.  0.
        1    1    3    3  502    0  0.97946690711E+01  0.14062934832E+04  0.13157799169E+03  0.14124694915E+04  0.50400001928E-02 0. -1.
       -1    1    3    3    0  502 -0.97946690711E+01 -0.14062934832E+04 -0.92370545154E+03  0.16825543254E+04  0.50400001928E-02 0.  1.
</event>
<event>
 5   0  0.3592331E-06  0.2947154E+04  0.7818609E-02  0.8258984E-01
        1   -1    0    0  501    0  0.00000000000E+00  0.00000000000E+00  0.17793132289E+04  0.17793132289E+04  0.50400001928E-02 0.  1.
       -1   -1    0    0    0  501  0.00000000000E+00  0.00000000000E+00 -0.12203748622E+04  0.12203748622E+04  0.50400001928E-02 0. -1.
    10030    2    1    2    0    0  0.00000000000E+00  0.00000000000E+00  0.55893836673E+03  0.29996880911E+04  0.29471539739E+04 0.  0.
        3    1    3    3  502    0 -0.12413819694E+04  0.77263265548E+03  0.93347040576E+02  0.14651635043E+04  0.10100000352E+00 0.  1.
       -3    1    3    3    0  502  0.12413819694E+04 -0.77263265548E+03  0.46559132616E+03  0.15345245868E+04  0.10100000352E+00 0. -1.
</event>
<event>
 5   0  0.3592331E-06  0.3038551E+04  0.7818609E-02  0.8232807E-01
        1   -1    0    0  501    0  0.00000000000E+00  0.00000000000E+00  0.24011805626E+04  0.24011805626E+04  0.50400001928E-02 0.  1.
       -1   -1    0    0    0  501  0.00000000000E+00  0.00000000000E+00 -0.96127649127E+03  0.96127649129E+03  0.50400001928E-02 0. -1.
    10030    2    1    2    0    0  0.00000000000E+00  0.00000000000E+00  0.14399040713E+04  0.33624570539E+04  0.30385512509E+04 0.  0.
        3    1    3    3  502    0  0.14246376755E+04 -0.20741022791E+03  0.12570651487E+04  0.19112363295E+04  0.10100000352E+00 0.  1.
       -3    1    3    3    0  502 -0.14246376755E+04  0.20741022791E+03  0.18283892260E+03  0.14512207244E+04  0.10100000352E+00 0. -1.
</event>
<event>
 5   0  0.3592331E-06  0.2980107E+04  0.7818609E-02  0.8249434E-01
       -1   -1    0    0    0  501  0.00000000000E+00  0.00000000000E+00  0.12677102870E+04  0.12677102870E+04  0.50400001928E-02 0.  1.
        1   -1    0    0  501    0  0.00000000000E+00  0.00000000000E+00 -0.17513935194E+04  0.17513935194E+04  0.50400001928E-02 0. -1.
    10030    2    1    2    0    0  0.00000000000E+00  0.00000000000E+00 -0.48368323244E+03  0.30191038064E+04  0.29801070995E+04 0.  0.
        3    1    3    3  502    0  0.38583427385E+03 -0.12229603188E+04  0.52687584481E+03  0.13863975600E+04  0.10100000352E+00 0.  1.
       -3    1    3    3    0  502 -0.38583427385E+03  0.12229603188E+04 -0.10105590772E+04  0.16327062464E+04  0.10100000352E+00 0. -1.
</event>
<event>
 5   0  0.3636718E-06  0.2992725E+04  0.7818609E-02  0.8245811E-01
       -1   -1    0    0    0  501  0.00000000000E+00  0.00000000000E+00  0.87335535503E+03  0.87335535505E+03  0.50400001928E-02 0.  1.
        1   -1    0    0  501    0  0.00000000000E+00  0.00000000000E+00 -0.25637908390E+04  0.25637908390E+04  0.50400001928E-02 0. -1.
    10030    2    1    2    0    0  0.00000000000E+00  0.00000000000E+00 -0.16904354840E+04  0.34371461940E+04  0.29927248176E+04 0.  0.
        4    1    3    3  502    0  0.13075445235E+04 -0.69486233878E+03 -0.59731050647E+03  0.15966489297E+04  0.12699999809E+01 0. -1.
       -4    1    3    3    0  502 -0.13075445235E+04  0.69486233878E+03 -0.10931249775E+04  0.18404972643E+04  0.12699999809E+01 0.  1.
</event>
<event>
 5   0  0.3896630E-06  0.2991410E+04  0.7818609E-02  0.8246188E-01
        1   -1    0    0  501    0  0.00000000000E+00  0.00000000000E+00  0.13890627714E+04  0.13890627714E+04  0.50400001928E-02 0.  1.
       -1   -1    0    0    0  501  0.00000000000E+00  0.00000000000E+00 -0.16105340231E+04  0.16105340231E+04  0.50400001928E-02 0. -1.
    10030    2    1    2    0    0  0.00000000000E+00  0.00000000000E+00 -0.22147125170E+03  0.29995967944E+04  0.29914096032E+04 0.  0.
        5    1    3    3  502    0 -0.86007902256E+03  0.39253400713E+03  0.10514411537E+04  0.14139906158E+04  0.46999998093E+01 0.  1.
       -5    1    3    3    0  502  0.86007902256E+03 -0.39253400713E+03 -0.12729124054E+04  0.15856061786E+04  0.46999998093E+01 0. -1.
</event>
<event>
 5   0  0.3313750E-06  0.3025906E+04  0.7818609E-02  0.8236372E-01
       -4   -1    0    0    0  501  0.00000000000E+00  0.00000000000E+00  0.11876663848E+04  0.11876670638E+04  0.12699999809E+01 0.  1.
        4   -1    0    0  501    0  0.00000000000E+00  0.00000000000E+00 -0.19273302892E+04  0.19273307076E+04  0.12699999809E+01 0. -1.
    10030    2    1    2    0    0  0.00000000000E+00  0.00000000000E+00 -0.73966390441E+03  0.31149977714E+04  0.30259062154E+04 0.  0.
        3    1    3    3  502    0 -0.42048526152E+03 -0.54853830584E+03  0.10156486945E+04  0.12285130886E+04  0.10100000352E+00 0.  1.
       -3    1    3    3    0  502  0.42048526152E+03  0.54853830584E+03 -0.17553125989E+04  0.18864846827E+04  0.10100000352E+00 0. -1.
</event>
<event>
 5   0  0.3313750E-06  0.2998127E+04  0.7818609E-02  0.8244266E-01
       -3   -1    0    0    0  501  0.00000000000E+00  0.00000000000E+00  0.24072542295E+04  0.24072542316E+04  0.10100000352E+00 0.  1.
        3   -1    0    0  501    0  0.00000000000E+00  0.00000000000E+00 -0.93350833067E+03  0.93350833613E+03  0.10100000352E+00 0. -1.
    10030    2    1    2    0    0  0.00000000000E+00  0.00000000000E+00  0.14737458988E+04  0.33407625677E+04  0.29981273421E+04 0.  0.
        3    1    3    3  502    0  0.10133945303E+04  0.82127058437E+03 -0.86293472019E+02  0.13072491806E+04  0.10100000352E+00 0. -1.
       -3    1    3    3    0  502 -0.10133945303E+04 -0.82127058437E+03  0.15600393708E+04  0.20335133871E+04  0.10100000352E+00 0.  1.
</event>
<event>
 5   0  0.1029922E-05  0.2541173E+04  0.7818609E-02  0.8388462E-01
       -2   -1    0    0    0  501  0.00000000000E+00  0.00000000000E+00  0.14636586083E+04  0.14636586083E+04  0.25500000920E-02 0.  1.
        2   -1    0    0  501    0  0.00000000000E+00  0.00000000000E+00 -0.11029829955E+04  0.11029829955E+04  0.25500000920E-02 0. -1.
    10030    2    1    2    0    0  0.00000000000E+00  0.00000000000E+00  0.36067561286E+03  0.25666416038E+04  0.25411733953E+04 0.  0.
        1    1    3    3  502    0  0.20947929444E+03  0.10092222914E+04 -0.57006136245E+03  0.11778714553E+04  0.50400001928E-02 0. -1.
       -1    1    3    3    0  502 -0.20947929444E+03 -0.10092222914E+04  0.93073697530E+03  0.13887701485E+04  0.50400001928E-02 0.  1.
</event>
<event>
 5   0  0.3852126E-06  0.2895405E+04  0.7818609E-02  0.8274246E-01
        1   -1    0    0  501    0  0.00000000000E+00  0.00000000000E+00  0.17760185447E+04  0.17760185447E+04  0.50400001928E-02 0.  1.
       -1   -1    0    0    0  501  0.00000000000E+00  0.00000000000E+00 -0.11800790984E+04  0.11800790984E+04  0.50400001928E-02 0. -1.
    10030    2    1    2    0    0  0.00000000000E+00  0.00000000000E+00  0.59593944631E+03  0.29560976432E+04  0.28954048857E+04 0.  0.
        1    1    3    3  502    0 -0.11512495777E+03 -0.10263405092E+04  0.13337371893E+04  0.16868560955E+04  0.50400001928E-02 0.  1.
       -1    1    3    3    0  502  0.11512495777E+03  0.10263405092E+04 -0.73779774300E+03  0.12692415477E+04  0.50400001928E-02 0. -1.
</event>
<event>
 5   0  0.1057036E-05  0.2980497E+04  0.7818609E-02  0.8249322E-01
        2   -1    0    0  501    0  0.00000000000E+00  0.00000000000E+00  0.17470412805E+04  0.17470412805E+04  0.25500000920E-02 0. -1.
       -2   -1    0    0    0  501  0.00000000000E+00  0.00000000000E+00 -0.12712007133E+04  0.12712007133E+04  0.25500000920E-02 0.  1.
    10030    2    1    2    0    0  0.00000000000E+00  0.00000000000E+00  0.47584056722E+03  0.30182419939E+04  0.29804966848E+04 0.  0.
        4    1    3    3  502    0 -0.85517250479E+03 -0.12201529036E+04  0.26556783229E+03  0.15134797678E+04  0.12699999809E+01 0.  1.
       -4    1    3    3    0  502  0.85517250479E+03  0.12201529036E+04  0.21027273493E+03  0.15047622261E+04  0.12699999809E+01 0. -1.
</event>
<event>
 5   0  0.1028450E-05  0.3017744E+04  0.7818609E-02  0.8238682E-01
       -2   -1    0    0    0  501  0.00000000000E+00  0.00000000000E+00  0.90407272297E+03  0.90407272298E+03  0.25500000920E-02 0.  1.
        2   -1    0    0  501    0  0.00000000000E+00  0.00000000000E+00 -0.25182652503E+04  0.25182652503E+04  0.25500000920E-02 0. -1.
    10030    2    1    2    0    0  0.00000000000E+00  0.00000000000E+00 -0.16141925273E+04  0.34223379733E+04  0.30177441389E+04 0.  0.
        3    1    3    3  502    0 -0.76577910507E+03  0.72454049018E+03 -0.20313255766E+04  0.22885934912E+04  0.10100000352E+00 0. -1.
       -3    1    3    3    0  502  0.76577910507E+03 -0.72454049018E+03  0.41713304925E+03  0.11337444821E+04  0.10100000352E+00 0.  1.
</event>
<event>
 5   0  0.3592331E-06  0.3018962E+04  0.7818609E-02  0.8238337E-01
        1   -1    0    0  501    0  0.00000000000E+00  0.00000000000E+00  0.27038709678E+04  0.27038709678E+04  0.50400001928E-02 0. -1.
       -1   -1    0    0    0  501  0.00000000000E+00  0.00000000000E+00 -0.84269314907E+03  0.84269314909E+03  0.50400001928E-02 0.  1.
    10030    2    1    2    0    0  0.00000000000E+00  0.00000000000E+00  0.18611778187E+04  0.35465641169E+04  0.30189624314E+04 0.  0.
        3    1    3    3  502    0  0.28994705351E+03 -0.14156567850E+04  0.14431680004E+04  0.20422750339E+04  0.10100000352E+00 0. -1.
       -3    1    3    3    0  502 -0.28994705351E+03  0.14156567850E+04  0.41800981832E+03  0.15042890829E+04  0.10100000352E+00 0.  1.
</event>
<event>
 5   0  0.3896630E-06  0.2986817E+04  0.7818609E-02  0.8247505E-01
        1   -1    0    0  501    0  0.00000000000E+00  0.00000000000E+00  0.15970689535E+04  0.15970689535E+04  0.50400001928E-02 0. -1.
       -1   -1    0    0    0  501  0.00000000000E+00  0.00000000000E+00 -0.13964761007E+04  0.13964761007E+04  0.50400001928E-02 0.  1.
    10030    2    1    2    0    0  0.00000000000E+00  0.00000000000E+00  0.20059285278E+03  0.29935450542E+04  0.29868167836E+04 0.  0.
        5    1    3    3  502    0 -0.11242721679E+04 -0.58169282524E+03  0.89447784147E+03  0.15499894030E+04  0.46999998093E+01 0. -1.
       -5    1    3    3    0  502  0.11242721679E+04  0.58169282524E+03 -0.69388498869E+03  0.14435556512E+04  0.46999998093E+01 0.  1.
</event>
<event>
 5   0  0.3636718E-06  0.2977918E+04  0.7818609E-02  0.8250065E-01
        1   -1    0    0  501    0  0.00000000000E+00  0.00000000000E+00  0.21330121546E+04  0.21330121546E+04  0.50400001928E-02 0.  1.
       -1   -1    0    0    0  501  0.00000000000E+00  0.00000000000E+00 -0.10393744109E+04  0.10393744110E+04  0.50400001928E-02 0. -1.
    10030    2    1    2    0    0  0.00000000000E+00  0.00000000000E+00  0.10936377437E+04  0.31723865656E+04  0.29779175622E+04 0.  0.
        4    1    3    3  502    0  0.13050813828E+04 -0.48436258673E+03 -0.16032704587E+02  0.13921577467E+04  0.12699999809E+01 0.  1.
       -4    1    3    3    0  502 -0.13050813828E+04  0.48436258673E+03  0.11096704483E+04  0.17802288189E+04  0.12699999809E+01 0. -1.
</event>
<event>
 5   0  0.1089569E-05  0.2949105E+04  0.7818609E-02  0.8258415E-01
       -2   -1    0    0    0  501  0.00000000000E+00  0.00000000000E+00  0.11605850367E+04  0.11605850367E+04  0.25500000920E-02 0.  1.
        2   -1    0    0  501    0  0.00000000000E+00  0.00000000000E+00 -0.18734558879E+04  0.18734558879E+04  0.25500000920E-02 0. -1.
    10030    2    1    2    0    0  0.00000000000E+00  0.00000000000E+00 -0.71287085117E+03  0.30340409246E+04  0.29491048611E+04 0.  0.
        5    1    3    3  502    0  0.72588635341E+03  0.34903966635E+03 -0.16271366826E+04  0.18155813285E+04  0.46999998093E+01 0. -1.
       -5    1    3    3    0  502 -0.72588635341E+03 -0.34903966635E+03  0.91426583140E+03  0.12184595961E+04  0.46999998093E+01 0.  1.
</event>
<event>
 5   0  0.9647945E-06  0.2952004E+04  0.7818609E-02  0.8257571E-01
        2   -1    0    0  501    0  0.00000000000E+00  0.00000000000E+00  0.16464841814E+04  0.16464841814E+04  0.25500000920E-02 0. -1.
       -2   -1    0    0    0  501  0.00000000000E+00  0.00000000000E+00 -0.13231723166E+04  0.13231723166E+04  0.25500000920E-02 0.  1.
    10030    2    1    2    0    0  0.00000000000E+00  0.00000000000E+00  0.32331186488E+03  0.29696564980E+04  0.29520042605E+04 0.  0.
        2    1    3    3  502    0 -0.63157651680E+03  0.27698041958E+03 -0.11511284573E+04  0.13419030422E+04  0.25500000920E-02 0.  1.
       -2    1    3    3    0  502  0.63157651680E+03 -0.27698041958E+03  0.14744403221E+04  0.16277534558E+04  0.25500000920E-02 0. -1.
</event>
<event>
 5   0  0.1028450E-05  0.3010601E+04  0.7818609E-02  0.8240710E-01
        2   -1    0    0  501    0  0.00000000000E+00  0.00000000000E+00  0.12884839304E+04  0.12884839304E+04  0.25500000920E-02 0. -1.
       -2   -1    0    0    0  501  0.00000000000E+00  0.00000000000E+00 -0.17586012065E+04  0.17586012065E+04  0.25500000920E-02 0.  1.
    10030    2    1    2    0    0  0.00000000000E+00  0.00000000000E+00 -0.47011727614E+03  0.30470851369E+04  0.30106008666E+04 0.  0.
        3    1    3    3  502    0 -0.92445804419E+03 -0.10191320212E+04  0.38281190041E+03  0.14282148695E+04  0.10100000352E+00 0. -1.
       -3    1    3    3    0  502  0.92445804419E+03  0.10191320212E+04 -0.85292917655E+03  0.16188702674E+04  0.10100000352E+00 0.  1.
</event>
<event>
 5   0  0.9647945E-06  0.2965688E+04  0.7818609E-02  0.8253597E-01
        2   -1    0    0  501    0  0.00000000000E+00  0.00000000000E+00  0.13394336602E+04  0.13394336602E+04  0.25500000920E-02 0.  1.
       -2   -1    0    0    0  501  0.00000000000E+00  0.00000000000E+00 -0.16416084979E+04  0.16416084979E+04  0.25500000920E-02 0. -1.
    10030    2    1    2    0    0  0.00000000000E+00  0.00000000000E+00 -0.30217483766E+03  0.29810421581E+04  0.29656875621E+04 0.  0.
        2    1    3    3  502    0 -0.81676076571E+03  0.38437521536E+03  0.10314316020E+04  0.13706544438E+04  0.25500000920E-02 0.  1.
       -2    1    3    3    0  502  0.81676076571E+03 -0.38437521536E+03 -0.13336064396E+04  0.16103877143E+04  0.25500000920E-02 0. -1.
</event>
<event>
 5   0  0.1028450E-05  0.2972928E+04  0.7818609E-02  0.8251504E-01
       -2   -1    0    0    0  501  0.00000000000E+00  0.00000000000E+00  0.11877852696E+04  0.11877852696E+04  0.25500000920E-02 0.  1.
        2   -1    0    0  501    0  0.00000000000E+00  0.00000000000E+00 -0.18602480346E+04  0.18602480346E+04  0.25500000920E-02 0. -1.
    10030    2    1    2    0    0  0.00000000000E+00  0.00000000000E+00 -0.67246276499E+03  0.30480333041E+04  0.29729279932E+04 0.  0.
        3    1    3    3  502    0  0.83754530395E+03  0.10595925521E+04  0.30022224962E+03  0.13836010704E+04  0.10100000352E+00 0. -1.
       -3    1    3    3    0  502 -0.83754530395E+03 -0.10595925521E+04 -0.97268501461E+03  0.16644322337E+04  0.10100000352E+00 0.  1.
</event>
<event>
 5   0  0.1089569E-05  0.2987168E+04  0.7818609E-02  0.8247405E-01
        2   -1    0    0  501    0  0.00000000000E+00  0.00000000000E+00  0.20891172657E+04  0.20891172657E+04  0.25500000920E-02 0. -1.
       -2   -1    0    0    0  501  0.00000000000E+00  0.00000000000E+00 -0.10678158285E+04  0.10678158285E+04  0.25500000920E-02 0.  1.
    10030    2    1    2    0    0  0.00000000000E+00  0.00000000000E+00  0.10213014371E+04  0.31569330942E+04  0.29871675440E+04 0.  0.
        5    1    3    3  502    0 -0.81263946345E+03 -0.66622491219E+03  0.16323528259E+04  0.19413491107E+04  0.46999998093E+01 0. -1.
       -5    1    3    3    0  502  0.81263946345E+03  0.66622491219E+03 -0.61105138881E+03  0.12155839835E+04  0.46999998093E+01 0.  1.
</event>
<event>
 5   0  0.1057036E-05  0.2229922E+04  0.7818609E-02  0.8506076E-01
        2   -1    0    0  501    0  0.00000000000E+00  0.00000000000E+00  0.19265814623E+04  0.19265814623E+04  0.25500000920E-02 0.  1.
       -2   -1    0    0    0  501  0.00000000000E+00  0.00000000000E+00 -0.64525615274E+03  0.64525615275E+03  0.25500000920E-02 0. -1.
    10030    2    1    2    0    0  0.00000000000E+00  0.00000000000E+00  0.12813253096E+04  0.25718376151E+04  0.22299224582E+04 0.  0.
        4    1    3    3  502    0  0.11775059821E+03 -0.51110882749E+03  0.17754129911E+04  0.18512672251E+04  0.12699999809E+01 0.  1.
       -4    1    3    3    0  502 -0.11775059821E+03  0.51110882749E+03 -0.49408768154E+03  0.72057038995E+03  0.12699999809E+01 0. -1.
</event>
<event>
 5   0  0.1057036E-05  0.2471898E+04  0.7818609E-02  0.8413066E-01
       -2   -1    0    0    0  501  0.00000000000E+00  0.00000000000E+00  0.17697093743E+04  0.17697093743E+04  0.25500000920E-02 0. -1.
        2   -1    0    0  501    0  0.00000000000E+00  0.00000000000E+00 -0.86317575688E+03  0.86317575688E+03  0.25500000920E-02 0.  1.
    10030    2    1    2    0    0  0.00000000000E+00  0.00000000000E+00  0.90653361746E+03  0.26328851312E+04  0.24718982412E+04 0.  0.
        4    1    3    3  502    0  0.89932205024E+03 -0.68415757130E+03 -0.80059630027E+02  0.11328119392E+04  0.12699999809E+01 0.  1.
       -4    1    3    3    0  502 -0.89932205024E+03  0.68415757130E+03  0.98659324749E+03  0.15000731920E+04  0.12699999809E+01 0. -1.
</event>
<event>
 5   0  0.3852126E-06  0.2984845E+04  0.7818609E-02  0.8248072E-01
       -1   -1    0    0    0  501  0.00000000000E+00  0.00000000000E+00  0.14418730450E+04  0.14418730450E+04  0.50400001928E-02 0.  1.
        1   -1    0    0  501    0  0.00000000000E+00  0.00000000000E+00 -0.15447445089E+04  0.15447445090E+04  0.50400001928E-02 0. -1.
    10030    2    1    2    0    0  0.00000000000E+00  0.00000000000E+00 -0.10287146398E+03  0.29866175539E+04  0.29848453687E+04 0.  0.
        1    1    3    3  502    0 -0.58527062065E+03  0.99815124217E+03 -0.99458641352E+03  0.15257947882E+04  0.50400001928E-02 0. -1.
       -1    1    3    3    0  502  0.58527062065E+03 -0.99815124217E+03  0.89171494954E+03  0.14608227657E+04  0.50400001928E-02 0.  1.
</event>
<event>
 5   0  0.9647945E-06  0.2094489E+04  0.7818609E-02  0.8563675E-01
        2   -1    0    0  501    0  0.00000000000E+00  0.00000000000E+00  0.18756688112E+04  0.18756688112E+04  0.25500000920E-02 0. -1.
       -2   -1    0    0    0  501  0.00000000000E+00  0.00000000000E+00 -0.58470907592E+03  0.58470907593E+03  0.25500000920E-02 0.  1.
    10030    2    1    2    0    0  0.00000000000E+00  0.00000000000E+00  0.12909597353E+04  0.24603778871E+04  0.20944885556E+04 0.  0.
        2    1    3    3  502    0  0.25065094794E+03  0.55137085271E+03 -0.35809783055E+03  0.70361194644E+03  0.25500000920E-02 0.  1.
       -2    1    3    3    0  502 -0.25065094794E+03 -0.55137085271E+03  0.16490575658E+04  0.17567659407E+04  0.25500000920E-02 0. -1.
</event>
<event>
 5   0  0.3896630E-06  0.2064598E+04  0.7818609E-02  0.8577000E-01
        1   -1    0    0  501    0  0.00000000000E+00  0.00000000000E+00  0.18673587464E+04  0.18673587464E+04  0.50400001928E-02 0.  1.
       -1   -1    0    0    0  501  0.00000000000E+00  0.00000000000E+00 -0.57066776388E+03  0.57066776390E+03  0.50400001928E-02 0. -1.
    10030    2    1    2    0    0  0.00000000000E+00  0.00000000000E+00  0.12966909825E+04  0.24380265103E+04  0.20645982081E+04 0.  0.
        5    1    3    3  502    0 -0.61273221212E+03  0.38008209044E+03  0.15206865161E+04  0.16829773408E+04  0.46999998093E+01 0.  1.
       -5    1    3    3    0  502  0.61273221212E+03 -0.38008209044E+03 -0.22399553365E+03  0.75504916949E+03  0.46999998093E+01 0. -1.
</event>
<event>
 5   0  0.3852126E-06  0.2975049E+04  0.7818609E-02  0.8250892E-01
       -1   -1    0    0    0  501  0.00000000000E+00  0.00000000000E+00  0.18526557487E+04  0.18526557487E+04  0.50400001928E-02 0. -1.
        1   -1    0    0  501    0  0.00000000000E+00  0.00000000000E+00 -0.11943550248E+04  0.11943550248E+04  0.50400001928E-02 0.  1.
    10030    2    1    2    0    0  0.00000000000E+00  0.00000000000E+00  0.65830072392E+03  0.30470107736E+04  0.29750487074E+04 0.  0.
        1    1    3    3  502    0 -0.48602673629E+03 -0.13003384256E+04  0.87651823738E+03  0.16417631467E+04  0.50400001928E-02 0.  1.
       -1    1    3    3    0  502  0.48602673629E+03  0.13003384256E+04 -0.21821751346E+03  0.14052476268E+04  0.50400001928E-02 0. -1.
</event>
<event>
 5   0  0.3896630E-06  0.2965396E+04  0.7818609E-02  0.8253682E-01
       -1   -1    0    0    0  501  0.00000000000E+00  0.00000000000E+00  0.12272270961E+04  0.12272270961E+04  0.50400001928E-02 0.  1.
        1   -1    0    0  501    0  0.00000000000E+00  0.00000000000E+00 -0.17913501328E+04  0.17913501328E+04  0.50400001928E-02 0. -1.
    10030    2    1    2    0    0  0.00000000000E+00  0.00000000000E+00 -0.56412303676E+03  0.30185772289E+04  0.29653960420E+04 0.  0.
        5    1    3    3  502    0 -0.38646372962E+02 -0.69325382249E+03  0.10515006606E+04  0.12600675116E+04  0.46999998093E+01 0.  1.
       -5    1    3    3    0  502  0.38646372962E+02  0.69325382249E+03 -0.16156236973E+04  0.17585097173E+04  0.46999998093E+01 0. -1.
</event>
<event>
 5   0  0.1029922E-05  0.2884547E+04  0.7818609E-02  0.8277490E-01
        2   -1    0    0  501    0  0.00000000000E+00  0.00000000000E+00  0.24378105509E+04  0.24378105509E+04  0.25500000920E-02 0. -1.
       -2   -1    0    0    0  501  0.00000000000E+00  0.00000000000E+00 -0.85328727864E+03  0.85328727864E+03  0.25500000920E-02 0.  1.
    10030    2    1    2    0    0  0.00000000000E+00  0.00000000000E+00  0.15845232723E+04  0.32910978296E+04  0.28845469182E+04 0.  0.
        1    1    3    3  502    0 -0.11326453961E+04  0.81439170056E+03  0.12099665007E+04  0.18466559961E+04  0.50400001928E-02 0.  1.
       -1    1    3    3    0  502  0.11326453961E+04 -0.81439170056E+03  0.37455677163E+03  0.14444418335E+04  0.50400001928E-02 0. -1.
</event>
<event>
 5   0  0.1028450E-05  0.2993833E+04  0.7818609E-02  0.8245494E-01
       -2   -1    0    0    0  501  0.00000000000E+00  0.00000000000E+00  0.16656106016E+04  0.16656106016E+04  0.25500000920E-02 0. -1.
        2   -1    0    0  501    0  0.00000000000E+00  0.00000000000E+00 -0.13453079398E+04  0.13453079398E+04  0.25500000920E-02 0.  1.
    10030    2    1    2    0    0  0.00000000000E+00  0.00000000000E+00  0.32030266177E+03  0.30109185414E+04  0.29938331062E+04 0.  0.
        3    1    3    3  502    0 -0.97643309343E+03 -0.97233925778E+03  0.74820521134E+03  0.15680166666E+04  0.10100000352E+00 0. -1.
       -3    1    3    3    0  502  0.97643309343E+03  0.97233925778E+03 -0.42790254957E+03  0.14429018748E+04  0.10100000352E+00 0.  1.
</event>
<event>
 5   0  0.1089569E-05  0.3001561E+04  0.7818609E-02  0.8243285E-01
        2   -1    0    0  501    0  0.00000000000E+00  0.00000000000E+00  0.10865823895E+04  0.10865823896E+04  0.25500000920E-02 0.  1.
       -2   -1    0    0    0  501  0.00000000000E+00  0.00000000000E+00 -0.20728679000E+04  0.20728679000E+04  0.25500000920E-02 0. -1.
    10030    2    1    2    0    0  0.00000000000E+00  0.00000000000E+00 -0.98628551042E+03  0.31594502895E+04  0.30015607647E+04 0.  0.
        5    1    3    3  502    0  0.11957547929E+04  0.53182082869E+03 -0.12663985666E+04  0.18211123902E+04  0.46999998093E+01 0. -1.
       -5    1    3    3    0  502 -0.11957547929E+04 -0.53182082869E+03  0.28011305614E+03  0.13383378993E+04  0.46999998093E+01 0.  1.
</event>
<event>
 5   0  0.3896630E-06  0.3057500E+04  0.7818609E-02  0.8227499E-01
       -1   -1    0    0    0  501  0.00000000000E+00  0.00000000000E+00  0.12780272082E+04  0.12780272082E+04  0.50400001928E-02 0. -1.
        1   -1    0    0  501    0  0.00000000000E+00  0.00000000000E+00 -0.18286590035E+04  0.18286590035E+04  0.50400001928E-02 0.  1.
    10030    2    1    2    0    0  0.00000000000E+00  0.00000000000E+00 -0.55063179529E+03  0.31066862117E+04  0.30574996065E+04 0.  0.
        5    1    3    3  502    0 -0.27735858829E+03 -0.29625178757E+03 -0.17729198414E+04  0.18187797454E+04  0.46999998093E+01 0.  1.
       -5    1    3    3    0  502  0.27735858829E+03  0.29625178757E+03  0.12222880461E+04  0.12879064663E+04  0.46999998093E+01 0. -1.
</event>
<event>
 5   0  0.1028450E-05  0.2911099E+04  0.7818609E-02  0.8269583E-01
        2   -1    0    0  501    0  0.00000000000E+00  0.00000000000E+00  0.13984833509E+04  0.13984833509E+04  0.25500000920E-02 0.  1.
       -2   -1    0    0    0  501  0.00000000000E+00  0.00000000000E+00 -0.15149444303E+04  0.15149444303E+04  0.25500000920E-02 0. -1.
    10030    2    1    2    0    0  0.00000000000E+00  0.00000000000E+00 -0.11646107937E+03  0.29134277812E+04  0.29110991487E+04 0.  0.
        3    1    3    3  502    0 -0.22807307567E+03  0.47414816552E+03  0.12999809585E+04  0.14024208760E+04  0.10100000352E+00 0.  1.
       -3    1    3    3    0  502  0.22807307567E+03 -0.47414816552E+03 -0.14164420379E+04  0.15110069052E+04  0.10100000352E+00 0. -1.
</event>
<event>
 5   0  0.1057036E-05  0.2975663E+04  0.7818609E-02  0.8250715E-01
        2   -1    0    0  501    0  0.00000000000E+00  0.00000000000E+00  0.28450516085E+04  0.28450516085E+04  0.25500000920E-02 0.  1.
       -2   -1    0    0    0  501  0.00000000000E+00  0.00000000000E+00 -0.77806753259E+03  0.77806753259E+03  0.25500000920E-02 0. -1.
    10030    2    1    2    0    0  0.00000000000E+00  0.00000000000E+00  0.20669840759E+04  0.36231191411E+04  0.29756628069E+04 0.  0.
        4    1    3    3  502    0  0.12363406300E+04 -0.21196546040E+03  0.20076909281E+04  0.23673385870E+04  0.12699999809E+01 0. -1.
       -4    1    3    3    0  502 -0.12363406300E+04  0.21196546040E+03  0.59293147820E+02  0.12557805541E+04  0.12699999809E+01 0.  1.
</event>
<event>
 5   0  0.3313750E-06  0.3005338E+04  0.7818609E-02  0.8242208E-01
        4   -1    0    0  501    0  0.00000000000E+00  0.00000000000E+00  0.12298724303E+04  0.12298730860E+04  0.12699999809E+01 0. -1.
       -4   -1    0    0    0  501  0.00000000000E+00  0.00000000000E+00 -0.18359723522E+04  0.18359727915E+04  0.12699999809E+01 0.  1.
    10030    2    1    2    0    0  0.00000000000E+00  0.00000000000E+00 -0.60609992194E+03  0.30658458775E+04  0.30053375566E+04 0.  0.
        3    1    3    3  502    0  0.20574577509E+03 -0.24993836704E+02  0.12152219438E+04  0.12327694021E+04  0.10100000352E+00 0. -1.
       -3    1    3    3    0  502 -0.20574577509E+03  0.24993836704E+02 -0.18213218657E+04  0.18330764754E+04  0.10100000352E+00 0.  1.
</event>
<event>
 5   0  0.3896630E-06  0.2411755E+04  0.7818609E-02  0.8435116E-01
       -1   -1    0    0    0  501  0.00000000000E+00  0.00000000000E+00  0.72981923078E+03  0.72981923080E+03  0.50400001928E-02 0.  1.
        1   -1    0    0  501    0  0.00000000000E+00  0.00000000000E+00 -0.19924675513E+04  0.19924675513E+04  0.50400001928E-02 0. -1.
    10030    2    1    2    0    0  0.00000000000E+00  0.00000000000E+00 -0.12626483206E+04  0.27222867821E+04  0.24117554898E+04 0.  0.
        5    1    3    3  502    0 -0.94675964885E+03  0.69467143979E+03 -0.94085240812E+03  0.15047084720E+04  0.46999998093E+01 0. -1.
       -5    1    3    3    0  502  0.94675964885E+03 -0.69467143979E+03 -0.32179591243E+03  0.12175783101E+04  0.46999998093E+01 0.  1.
</event>
<event>
 5   0  0.1028450E-05  0.3031864E+04  0.7818609E-02  0.8234690E-01
       -2   -1    0    0    0  501  0.00000000000E+00  0.00000000000E+00  0.98685714352E+03  0.98685714353E+03  0.25500000920E-02 0.  1.
        2   -1    0    0  501    0  0.00000000000E+00  0.00000000000E+00 -0.23286556919E+04  0.23286556919E+04  0.25500000920E-02 0. -1.
    10030    2    1    2    0    0  0.00000000000E+00  0.00000000000E+00 -0.13417985483E+04  0.33155128354E+04  0.30318644457E+04 0.  0.
        3    1    3    3  502    0  0.26183551508E+02 -0.14176062009E+04 -0.84282718236E+02  0.14203508391E+04  0.10100000352E+00 0.  1.
       -3    1    3    3    0  502 -0.26183551508E+02  0.14176062009E+04 -0.12575158301E+04  0.18951619963E+04  0.10100000352E+00 0. -1.
</event>
<event>
 5   0  0.1029922E-05  0.3035570E+04  0.7818609E-02  0.8233646E-01
        2   -1    0    0  501    0  0.00000000000E+00  0.00000000000E+00  0.14313812793E+04  0.14313812793E+04  0.25500000920E-02 0.  1.
       -2   -1    0    0    0  501  0.00000000000E+00  0.00000000000E+00 -0.16094048710E+04  0.16094048710E+04  0.25500000920E-02 0. -1.
    10030    2    1    2    0    0  0.00000000000E+00  0.00000000000E+00 -0.17802359172E+03  0.30407861503E+04  0.30355704592E+04 0.  0.
        1    1    3    3  502    0 -0.11789544968E+04 -0.17875573432E+03  0.85163555461E+03  0.14653226389E+04  0.50400001928E-02 0.  1.
       -1    1    3    3    0  502  0.11789544968E+04  0.17875573432E+03 -0.10296591463E+04  0.15754635114E+04  0.50400001928E-02 0. -1.
</event>
<event>
 5   0  0.1057036E-05  0.2852999E+04  0.7818609E-02  0.8287001E-01
       -2   -1    0    0    0  501  0.00000000000E+00  0.00000000000E+00  0.70465283052E+03  0.70465283052E+03  0.25500000920E-02 0.  1.
        2   -1    0    0  501    0  0.00000000000E+00  0.00000000000E+00 -0.28878065664E+04  0.28878065664E+04  0.25500000920E-02 0. -1.
    10030    2    1    2    0    0  0.00000000000E+00  0.00000000000E+00 -0.21831537359E+04  0.35924593969E+04  0.28529991735E+04 0.  0.
        4    1    3    3  502    0 -0.11223310946E+04 -0.13508582330E+03  0.40056705520E+01  0.11304392614E+04  0.12699999809E+01 0.  1.
       -4    1    3    3    0  502  0.11223310946E+04  0.13508582330E+03 -0.21871594064E+04  0.24620201355E+04  0.12699999809E+01 0. -1.
</event>
<event>
 5   0  0.1029922E-05  0.2894958E+04  0.7818609E-02  0.8274379E-01
       -2   -1    0    0    0  501  0.00000000000E+00  0.00000000000E+00  0.10877904926E+04  0.10877904926E+04  0.25500000920E-02 0. -1.
        2   -1    0    0  501    0  0.00000000000E+00  0.00000000000E+00 -0.19261020287E+04  0.19261020287E+04  0.25500000920E-02 0.  1.
    10030    2    1    2    0    0  0.00000000000E+00  0.00000000000E+00 -0.83831153612E+03  0.30138925213E+04  0.28949580132E+04 0.  0.
        1    1    3    3  502    0 -0.12157529778E+04 -0.15431654328E+03  0.38276671962E+03  0.12838922308E+04  0.50400001928E-02 0.  1.
       -1    1    3    3    0  502  0.12157529778E+04  0.15431654328E+03 -0.12210782557E+04  0.17300002905E+04  0.50400001928E-02 0. -1.
</event>
<event>
 5   0  0.1028450E-05  0.2830798E+04  0.7818609E-02  0.8293770E-01
       -2   -1    0    0    0  501  0.00000000000E+00  0.00000000000E+00  0.14625841452E+04  0.14625841452E+04  0.25500000920E-02 0.  1.
        2   -1    0    0  501    0  0.00000000000E+00  0.00000000000E+00 -0.13697363036E+04  0.13697363036E+04  0.25500000920E-02 0. -1.
    10030    2    1    2    0    0  0.00000000000E+00  0.00000000000E+00  0.92847841571E+02  0.28323204489E+04  0.28307981919E+04 0.  0.
        3    1    3    3  502    0 -0.91542980455E+03  0.86406399639E+03  0.69387024619E+03  0.14373845156E+04  0.10100000352E+00 0.  1.
       -3    1    3    3    0  502  0.91542980455E+03 -0.86406399639E+03 -0.60102240462E+03  0.13949359333E+04  0.10100000352E+00 0. -1.
</event>
<event>
 5   0  0.9647945E-06  0.2976173E+04  0.7818609E-02  0.8250568E-01
        2   -1    0    0  501    0  0.00000000000E+00  0.00000000000E+00  0.10364814487E+04  0.10364814487E+04  0.25500000920E-02 0.  1.
       -2   -1    0    0    0  501  0.00000000000E+00  0.00000000000E+00 -0.21364600669E+04  0.21364600669E+04  0.25500000920E-02 0. -1.
    10030    2    1    2    0    0  0.00000000000E+00  0.00000000000E+00 -0.10999786181E+04  0.31729415156E+04  0.29761728614E+04 0.  0.
        2    1    3    3  502    0  0.76535293966E+03  0.99768857451E+03  0.29839524405E+03  0.12923572786E+04  0.25500000920E-02 0.  1.
       -2    1    3    3    0  502 -0.76535293966E+03 -0.99768857451E+03 -0.13983738622E+04  0.18805842370E+04  0.25500000920E-02 0. -1.
</event>
<event>
 5   0  0.1029922E-05  0.2978447E+04  0.7818609E-02  0.8249912E-01
        2   -1    0    0  501    0  0.00000000000E+00  0.00000000000E+00  0.89398814127E+03  0.89398814128E+03  0.25500000920E-02 0.  1.
       -2   -1    0    0    0  501  0.00000000000E+00  0.00000000000E+00 -0.24807790481E+04  0.24807790481E+04  0.25500000920E-02 0. -1.
    10030    2    1    2    0    0  0.00000000000E+00  0.00000000000E+00 -0.15867909068E+04  0.33747671894E+04  0.29784472801E+04 0.  0.
        1    1    3    3  502    0 -0.11055525876E+04 -0.83289605383E+03 -0.14158838811E+04  0.19800731111E+04  0.50400001928E-02 0.  1.
       -1    1    3    3    0  502  0.11055525876E+04  0.83289605383E+03 -0.17090702575E+03  0.13946940783E+04  0.50400001928E-02 0. -1.
</event>
<event>
 5   0  0.9647945E-06  0.2936494E+04  0.7818609E-02  0.8262101E-01
        2   -1    0    0  501    0  0.00000000000E+00  0.00000000000E+00  0.17297109777E+04  0.17297109777E+04  0.25500000920E-02 0.  1.
       -2   -1    0    0    0  501  0.00000000000E+00  0.00000000000E+00 -0.12463061268E+04  0.12463061268E+04  0.25500000920E-02 0. -1.
    10030    2    1    2    0    0  0.00000000000E+00  0.00000000000E+00  0.48340485087E+03  0.29760171045E+04  0.29364940927E+04 0.  0.
        2    1    3    3  502    0 -0.13392239579E+04 -0.55055058093E+03 -0.47216817623E+01  0.14479810240E+04  0.25500000920E-02 0. -1.
       -2    1    3    3    0  502  0.13392239579E+04  0.55055058093E+03  0.48812653264E+03  0.15280360805E+04  0.25500000920E-02 0.  1.
</event>
<event>
 5   0  0.3852126E-06  0.2752859E+04  0.7818609E-02  0.8318055E-01
       -1   -1    0    0    0  501  0.00000000000E+00  0.00000000000E+00  0.10299269000E+04  0.10299269000E+04  0.50400001928E-02 0.  1.
        1   -1    0    0  501    0  0.00000000000E+00  0.00000000000E+00 -0.18395075401E+04  0.18395075401E+04  0.50400001928E-02 0. -1.
    10030    2    1    2    0    0  0.00000000000E+00  0.00000000000E+00 -0.80958064011E+03  0.28694344400E+04  0.27528590943E+04 0.  0.
        1    1    3    3  502    0  0.38413841985E+03  0.11962503252E+04 -0.99071649471E+03  0.16000301057E+04  0.50400001928E-02 0. -1.
       -1    1    3    3    0  502 -0.38413841985E+03 -0.11962503252E+04  0.18113585460E+03  0.12694043343E+04  0.50400001928E-02 0.  1.
</event>
<event>
 5   0  0.3725232E-06  0.3066994E+04  0.7818609E-02  0.8224855E-01
        1   -1    0    0  501    0  0.00000000000E+00  0.00000000000E+00  0.20149539534E+04  0.20149539535E+04  0.50400001928E-02 0.  1.
       -1   -1    0    0    0  501  0.00000000000E+00  0.00000000000E+00 -0.11670802415E+04  0.11670802415E+04  0.50400001928E-02 0. -1.
    10030    2    1    2    0    0  0.00000000000E+00  0.00000000000E+00  0.84787371194E+03  0.31820341950E+04  0.30669939332E+04 0.  0.
        2    1    3    3  502    0 -0.11208696461E+04 -0.10003682586E+04  0.10495125376E+03  0.15060213086E+04  0.25500000920E-02 0. -1.
       -2    1    3    3    0  502  0.11208696461E+04  0.10003682586E+04  0.74292245818E+03  0.16760128864E+04  0.25500000920E-02 0.  1.
</event>
<event>
 5   0  0.3636718E-06  0.3011186E+04  0.7818609E-02  0.8240544E-01
        1   -1    0    0  501    0  0.00000000000E+00  0.00000000000E+00  0.17674360030E+04  0.17674360030E+04  0.50400001928E-02 0.  1.
       -1   -1    0    0    0  501  0.00000000000E+00  0.00000000000E+00 -0.12825420590E+04  0.12825420590E+04  0.50400001928E-02 0. -1.
    10030    2    1    2    0    0  0.00000000000E+00  0.00000000000E+00  0.48489394396E+03  0.30499780620E+04  0.30111864841E+04 0.  0.
        4    1    3    3  502    0  0.12906533354E+04  0.65192107843E+03  0.66740190525E+03  0.15925495411E+04  0.12699999809E+01 0.  1.
       -4    1    3    3    0  502 -0.12906533354E+04 -0.65192107843E+03 -0.18250796129E+03  0.14574285209E+04  0.12699999809E+01 0. -1.
</event>
<event>
 5   0  0.3313750E-06  0.3027406E+04  0.7818609E-02  0.8235948E-01
       -3   -1    0    0    0  501  0.00000000000E+00  0.00000000000E+00  0.14279028103E+04  0.14279028138E+04  0.10100000352E+00 0.  1.
        3   -1    0    0  501    0  0.00000000000E+00  0.00000000000E+00 -0.16046584433E+04  0.16046584465E+04  0.10100000352E+00 0. -1.
    10030    2    1    2    0    0  0.00000000000E+00  0.00000000000E+00 -0.17675563301E+03  0.30325612603E+04  0.30274056953E+04 0.  0.
        4    1    3    3  502    0 -0.83157484821E+03 -0.69873348715E+03  0.96771809129E+03  0.14547251051E+04  0.12699999809E+01 0.  1.
       -4    1    3    3    0  502  0.83157484821E+03  0.69873348715E+03 -0.11444737243E+04  0.15778361552E+04  0.12699999809E+01 0. -1.
</event>
<event>
 5   0  0.1028450E-05  0.2901297E+04  0.7818609E-02  0.8272492E-01
        2   -1    0    0  501    0  0.00000000000E+00  0.00000000000E+00  0.14332281495E+04  0.14332281495E+04  0.25500000920E-02 0. -1.
       -2   -1    0    0    0  501  0.00000000000E+00  0.00000000000E+00 -0.14682806334E+04  0.14682806334E+04  0.25500000920E-02 0.  1.
    10030    2    1    2    0    0  0.00000000000E+00  0.00000000000E+00 -0.35052483947E+02  0.29015087829E+04  0.29012970445E+04 0.  0.
        3    1    3    3  502    0  0.66750806697E+03 -0.11921666624E+04  0.46990316762E+03  0.14448658649E+04  0.10100000352E+00 0. -1.
       -3    1    3    3    0  502 -0.66750806697E+03  0.11921666624E+04 -0.50495565157E+03  0.14566429180E+04  0.10100000352E+00 0.  1.
</event>
<event>
 5   0  0.1028450E-05  0.2836315E+04  0.7818609E-02  0.8292082E-01
        2   -1    0    0  501    0  0.00000000000E+00  0.00000000000E+00  0.23075585205E+04  0.23075585205E+04  0.25500000920E-02 0. -1.
       -2   -1    0    0    0  501  0.00000000000E+00  0.00000000000E+00 -0.87155807333E+03  0.87155807334E+03  0.25500000920E-02 0.  1.
    10030    2    1    2    0    0  0.00000000000E+00  0.00000000000E+00  0.14360004472E+04  0.31791165938E+04  0.28363153973E+04 0.  0.
        3    1    3    3  502    0 -0.90325586447E+03 -0.60383870793E+03 -0.30357070272E+03  0.11281168041E+04  0.10100000352E+00 0.  1.
       -3    1    3    3    0  502  0.90325586447E+03  0.60383870793E+03  0.17395711499E+04  0.20509997898E+04  0.10100000352E+00 0. -1.
</event>
<event>
 5   0  0.3592331E-06  0.2484819E+04  0.7818609E-02  0.8408414E-01
       -1   -1    0    0    0  501  0.00000000000E+00  0.00000000000E+00  0.75412811753E+03  0.75412811755E+03  0.50400001928E-02 0. -1.
        1   -1    0    0  501    0  0.00000000000E+00  0.00000000000E+00 -0.20468415463E+04  0.20468415463E+04  0.50400001928E-02 0.  1.
    10030    2    1    2    0    0  0.00000000000E+00  0.00000000000E+00 -0.12927134288E+04  0.28009696639E+04  0.24848185143E+04 0.  0.
        3    1    3    3  502    0  0.90307178481E+03  0.72280249972E+03 -0.11574778736E+04  0.16363792776E+04  0.10100000352E+00 0.  1.
       -3    1    3    3    0  502 -0.90307178481E+03 -0.72280249972E+03 -0.13523555516E+03  0.11645903862E+04  0.10100000352E+00 0. -1.
</event>
<event>
 5   0  0.3636718E-06  0.2975176E+04  0.7818609E-02  0.8250855E-01
        1   -1    0    0  501    0  0.00000000000E+00  0.00000000000E+00  0.15495934508E+04  0.15495934508E+04  0.50400001928E-02 0. -1.
       -1   -1    0    0    0  501  0.00000000000E+00  0.00000000000E+00 -0.14280640069E+04  0.14280640069E+04  0.50400001928E-02 0.  1.
    10030    2    1    2    0    0  0.00000000000E+00  0.00000000000E+00  0.12152944384E+03  0.29776574577E+04  0.29751763863E+04 0.  0.
        4    1    3    3  502    0 -0.71966096665E+03  0.12788300037E+04 -0.18356779285E+03  0.14788565964E+04  0.12699999809E+01 0. -1.
       -4    1    3    3    0  502  0.71966096665E+03 -0.12788300037E+04  0.30509723669E+03  0.14988008613E+04  0.12699999809E+01 0.  1.
</event>
<event>
 5   0  0.3313750E-06  0.2705481E+04  0.7818609E-02  0.8333229E-01
       -3   -1    0    0    0  501  0.00000000000E+00  0.00000000000E+00  0.15153011455E+04  0.15153011488E+04  0.10100000352E+00 0. -1.
        3   -1    0    0  501    0  0.00000000000E+00  0.00000000000E+00 -0.12076188517E+04  0.12076188559E+04  0.10100000352E+00 0.  1.
    10030    2    1    2    0    0  0.00000000000E+00  0.00000000000E+00  0.30768229380E+03  0.27229200048E+04  0.27054805411E+04 0.  0.
        2    1    3    3  502    0 -0.13636325307E+03  0.13013925368E+04 -0.19142816258E+03  0.13224455426E+04  0.25500000920E-02 0.  1.
       -2    1    3    3    0  502  0.13636325307E+03 -0.13013925368E+04  0.49911045638E+03  0.14004744622E+04  0.25500000920E-02 0. -1.
</event>
<event>
 5   0  0.1057036E-05  0.2985799E+04  0.7818609E-02  0.8247798E-01
        2   -1    0    0  501    0  0.00000000000E+00  0.00000000000E+00  0.22634611927E+04  0.22634611927E+04  0.25500000920E-02 0. -1.
       -2   -1    0    0    0  501  0.00000000000E+00  0.00000000000E+00 -0.98466400189E+03  0.98466400189E+03  0.25500000920E-02 0.  1.
    10030    2    1    2    0    0  0.00000000000E+00  0.00000000000E+00  0.12787971908E+04  0.32481251946E+04  0.29857988922E+04 0.  0.
        4    1    3    3  502    0  0.70085935603E+03 -0.41030682815E+03 -0.72333259664E+03  0.10875510050E+04  0.12699999809E+01 0.  1.
       -4    1    3    3    0  502 -0.70085935603E+03  0.41030682815E+03  0.20021297875E+04  0.21605741896E+04  0.12699999809E+01 0. -1.
</event>
<event>
 5   0  0.1057036E-05  0.3029734E+04  0.7818609E-02  0.8235291E-01
        2   -1    0    0  501    0  0.00000000000E+00  0.00000000000E+00  0.12754383743E+04  0.12754383743E+04  0.25500000920E-02 0.  1.
       -2   -1    0    0    0  501  0.00000000000E+00  0.00000000000E+00 -0.17992416445E+04  0.17992416445E+04  0.25500000920E-02 0. -1.
    10030    2    1    2    0    0  0.00000000000E+00  0.00000000000E+00 -0.52380327022E+03  0.30746800187E+04  0.30297338747E+04 0.  0.
        4    1    3    3  502    0  0.12599364361E+04  0.26072978754E+03  0.54958596474E+03  0.13990947754E+04  0.12699999809E+01 0. -1.
       -4    1    3    3    0  502 -0.12599364361E+04 -0.26072978754E+03 -0.10733892350E+04  0.16755852433E+04  0.12699999809E+01 0.  1.
</event>
<event>
 5   0  0.1028450E-05  0.3045983E+04  0.7818609E-02  0.8230721E-01
        2   -1    0    0  501    0  0.00000000000E+00  0.00000000000E+00  0.11884618516E+04  0.11884618516E+04  0.25500000920E-02 0. -1.
       -2   -1    0    0    0  501  0.00000000000E+00  0.00000000000E+00 -0.19516847376E+04  0.19516847376E+04  0.25500000920E-02 0.  1.
    10030    2    1    2    0    0  0.00000000000E+00  0.00000000000E+00 -0.76322288604E+03  0.31401465892E+04  0.30459828345E+04 0.  0.
        3    1    3    3  502    0  0.89715598856E+02 -0.14403491020E+04  0.12010428896E+03  0.14481296470E+04  0.10100000352E+00 0. -1.
       -3    1    3    3    0  502 -0.89715598856E+02  0.14403491020E+04 -0.88332717500E+03  0.16920169421E+04  0.10100000352E+00 0.  1.
</event>
<event>
 5   0  0.3852126E-06  0.2880581E+04  0.7818609E-02  0.8278679E-01
       -1   -1    0    0    0  501  0.00000000000E+00  0.00000000000E+00  0.69719412134E+03  0.69719412136E+03  0.50400001928E-02 0. -1.
        1   -1    0    0  501    0  0.00000000000E+00  0.00000000000E+00 -0.29754081299E+04  0.29754081299E+04  0.50400001928E-02 0.  1.
    10030    2    1    2    0    0  0.00000000000E+00  0.00000000000E+00 -0.22782140086E+04  0.36726022513E+04  0.28805812308E+04 0.  0.
        1    1    3    3  502    0 -0.41078779326E+03 -0.33110580849E+02 -0.28986301771E+04  0.29277806996E+04  0.50400001928E-02 0.  1.
       -1    1    3    3    0  502  0.41078779326E+03  0.33110580849E+02  0.62041616849E+03  0.74482155165E+03  0.50400001928E-02 0. -1.
</event>
<event>
 5   0  0.1057036E-05  0.3003670E+04  0.7818609E-02  0.8242684E-01
       -2   -1    0    0    0  501  0.00000000000E+00  0.00000000000E+00  0.22180968741E+04  0.22180968741E+04  0.25500000920E-02 0.  1.
        2   -1    0    0  501    0  0.00000000000E+00  0.00000000000E+00 -0.10168662769E+04  0.10168662769E+04  0.25500000920E-02 0. -1.
    10030    2    1    2    0    0  0.00000000000E+00  0.00000000000E+00  0.12012305972E+04  0.32349631509E+04  0.30036696956E+04 0.  0.
        4    1    3    3  502    0 -0.57142524261E+03  0.13874443209E+04  0.66854123978E+03  0.16427043416E+04  0.12699999809E+01 0.  1.
       -4    1    3    3    0  502  0.57142524261E+03 -0.13874443209E+04  0.53268935744E+03  0.15922588094E+04  0.12699999809E+01 0. -1.
</event>
<event>
 5   0  0.3636718E-06  0.3066180E+04  0.7818609E-02  0.8225081E-01
        1   -1    0    0  501    0  0.00000000000E+00  0.00000000000E+00  0.19393290303E+04  0.19393290303E+04  0.50400001928E-02 0. -1.
       -1   -1    0    0    0  501  0.00000000000E+00  0.00000000000E+00 -0.12119477594E+04  0.12119477594E+04  0.50400001928E-02 0.  1.
    10030    2    1    2    0    0  0.00000000000E+00  0.00000000000E+00  0.72738127098E+03  0.31512767897E+04  0.30661803424E+04 0.  0.
        4    1    3    3  502    0 -0.14032717062E+04 -0.16286903292E+03  0.97575721844E+03  0.17169162954E+04  0.12699999809E+01 0. -1.
       -4    1    3    3    0  502  0.14032717062E+04  0.16286903292E+03 -0.24837594746E+03  0.14343604943E+04  0.12699999809E+01 0.  1.
</event>
<event>
 5   0  0.1029922E-05  0.3062865E+04  0.7818609E-02  0.8226004E-01
       -2   -1    0    0    0  501  0.00000000000E+00  0.00000000000E+00  0.12237334512E+04  0.12237334512E+04  0.25500000920E-02 0. -1.
        2   -1    0    0  501    0  0.00000000000E+00  0.00000000000E+00 -0.19165002341E+04  0.19165002341E+04  0.25500000920E-02 0.  1.
    10030    2    1    2    0    0  0.00000000000E+00  0.00000000000E+00 -0.69276678293E+03  0.31402336853E+04  0.30628649632E+04 0.  0.
        1    1    3    3  502    0 -0.13397136515E+04  0.42837492065E+03  0.27468039385E+03  0.14331039947E+04  0.50400001928E-02 0. -1.
       -1    1    3    3    0  502  0.13397136515E+04 -0.42837492065E+03 -0.96744717678E+03  0.17071296906E+04  0.50400001928E-02 0.  1.
</event>
<event>
 5   0  0.1089569E-05  0.3024215E+04  0.7818609E-02  0.8236850E-01
        2   -1    0    0  501    0  0.00000000000E+00  0.00000000000E+00  0.21256227398E+04  0.21256227398E+04  0.25500000920E-02 0.  1.
       -2   -1    0    0    0  501  0.00000000000E+00  0.00000000000E+00 -0.10756699001E+04  0.10756699001E+04  0.25500000920E-02 0. -1.
    10030    2    1    2    0    0  0.00000000000E+00  0.00000000000E+00  0.10499528396E+04  0.32012926399E+04  0.30242145428E+04 0.  0.
        5    1    3    3  502    0  0.34327907223E+03 -0.95781046300E+03  0.17090453840E+04  0.19889946252E+04  0.46999998093E+01 0.  1.
       -5    1    3    3    0  502 -0.34327907223E+03  0.95781046300E+03 -0.65909254433E+03  0.12122980147E+04  0.46999998093E+01 0. -1.
</event>
<event>
 5   0  0.3852126E-06  0.2971752E+04  0.7818609E-02  0.8251844E-01
       -1   -1    0    0    0  501  0.00000000000E+00  0.00000000000E+00  0.14621770828E+04  0.14621770828E+04  0.50400001928E-02 0. -1.
        1   -1    0    0  501    0  0.00000000000E+00  0.00000000000E+00 -0.15099591067E+04  0.15099591067E+04  0.50400001928E-02 0.  1.
    10030    2    1    2    0    0  0.00000000000E+00  0.00000000000E+00 -0.47782023919E+02  0.29721361894E+04  0.29717520769E+04 0.  0.
        1    1    3    3  502    0  0.53954917150E+03 -0.13470196890E+04  0.29591937814E+03  0.14809266117E+04  0.50400001928E-02 0.  1.
       -1    1    3    3    0  502 -0.53954917150E+03  0.13470196890E+04 -0.34370140206E+03  0.14912095777E+04  0.50400001928E-02 0. -1.
</event>
<event>
 5   0  0.3852126E-06  0.3050202E+04  0.7818609E-02  0.8229539E-01
       -1   -1    0    0    0  501  0.00000000000E+00  0.00000000000E+00  0.12106808266E+04  0.12106808266E+04  0.50400001928E-02 0. -1.
        1   -1    0    0  501    0  0.00000000000E+00  0.00000000000E+00 -0.19211778785E+04  0.19211778785E+04  0.50400001928E-02 0.  1.
    10030    2    1    2    0    0  0.00000000000E+00  0.00000000000E+00 -0.71049705192E+03  0.31318587051E+04  0.30502021061E+04 0.  0.
        1    1    3    3  502    0 -0.88671768515E+03 -0.82085536242E+03  0.60017898910E+03  0.13491799725E+04  0.50400001928E-02 0. -1.
       -1    1    3    3    0  502  0.88671768515E+03  0.82085536242E+03 -0.13106760410E+04  0.17826787326E+04  0.50400001928E-02 0.  1.
</event>
<event>
 5   0  0.3636718E-06  0.1837642E+04  0.7818609E-02  0.8686534E-01
       -1   -1    0    0    0  501  0.00000000000E+00  0.00000000000E+00  0.44729057241E+03  0.44729057244E+03  0.50400001928E-02 0. -1.
        1   -1    0    0  501    0  0.00000000000E+00  0.00000000000E+00 -0.18874355233E+04  0.18874355233E+04  0.50400001928E-02 0.  1.
    10030    2    1    2    0    0  0.00000000000E+00  0.00000000000E+00 -0.14401449509E+04  0.23347260958E+04  0.18376420932E+04 0.  0.
        4    1    3    3  502    0 -0.31891930784E+03  0.74058087752E+02 -0.18108080277E+04  0.18401688649E+04  0.12699999809E+01 0.  1.
       -4    1    3    3    0  502  0.31891930784E+03 -0.74058087752E+02  0.37066307675E+03  0.49455723090E+03  0.12699999809E+01 0. -1.
</event>
<event>
 5   0  0.1057036E-05  0.2956415E+04  0.7818609E-02  0.8256288E-01
        2   -1    0    0  501    0  0.00000000000E+00  0.00000000000E+00  0.16145699602E+04  0.16145699602E+04  0.25500000920E-02 0. -1.
       -2   -1    0    0    0  501  0.00000000000E+00  0.00000000000E+00 -0.13533617180E+04  0.13533617180E+04  0.25500000920E-02 0.  1.
    10030    2    1    2    0    0  0.00000000000E+00  0.00000000000E+00  0.26120824216E+03  0.29679316782E+04  0.29564148391E+04 0.  0.
        4    1    3    3  502    0 -0.62668302243E+03 -0.10810547354E+04 -0.66220938467E+03  0.14141901688E+04  0.12699999809E+01 0.  1.
       -4    1    3    3    0  502  0.62668302243E+03  0.10810547354E+04  0.92341762683E+03  0.15537415094E+04  0.12699999809E+01 0. -1.
</event>
<event>
 5   0  0.3852126E-06  0.2697849E+04  0.7818609E-02  0.8335703E-01
        1   -1    0    0  501    0  0.00000000000E+00  0.00000000000E+00  0.22235334261E+04  0.22235334261E+04  0.50400001928E-02 0. -1.
       -1   -1    0    0    0  501  0.00000000000E+00  0.00000000000E+00 -0.81833609152E+03  0.81833609154E+03  0.50400001928E-02 0.  1.
    10030    2    1    2    0    0  0.00000000000E+00  0.00000000000E+00  0.14051973345E+04  0.30418695176E+04  0.26978492569E+04 0.  0.
        1    1    3    3  502    0  0.98735200855E+03 -0.69227007955E+02 -0.33075114652E+03  0.10435768723E+04  0.50400001928E-02 0.  1.
       -1    1    3    3    0  502 -0.98735200855E+03  0.69227007955E+02  0.17359484810E+04  0.19982926453E+04  0.50400001928E-02 0. -1.
</event>
<event>
 5   0  0.1029922E-05  0.2811075E+04  0.7818609E-02  0.8299838E-01
        2   -1    0    0  501    0  0.00000000000E+00  0.00000000000E+00  0.29120146130E+04  0.29120146130E+04  0.25500000920E-02 0.  1.
       -2   -1    0    0    0  501  0.00000000000E+00  0.00000000000E+00 -0.67840841083E+03  0.67840841083E+03  0.25500000920E-02 0. -1.
    10030    2    1    2    0    0  0.00000000000E+00  0.00000000000E+00  0.22336062021E+04  0.35904230238E+04  0.28110746741E+04 0.  0.
        1    1    3    3  502    0  0.75202835808E+03  0.11873246253E+04  0.10966571101E+04  0.17826786683E+04  0.50400001928E-02 0. -1.
       -1    1    3    3    0  502 -0.75202835808E+03 -0.11873246253E+04  0.11369490920E+04  0.18077443555E+04  0.50400001928E-02 0.  1.
</event>
<event>
 5   0  0.3313750E-06  0.2986385E+04  0.7818609E-02  0.8247629E-01
       -3   -1    0    0    0  501  0.00000000000E+00  0.00000000000E+00  0.18918887993E+04  0.18918888019E+04  0.10100000352E+00 0. -1.
        3   -1    0    0  501    0  0.00000000000E+00  0.00000000000E+00 -0.11785176068E+04  0.11785176111E+04  0.10100000352E+00 0.  1.
    10030    2    1    2    0    0  0.00000000000E+00  0.00000000000E+00  0.71337119246E+03  0.30704064131E+04  0.29863852871E+04 0.  0.
        1    1    3    3  502    0  0.69693311452E+03 -0.17431884004E+03 -0.98915864156E+03  0.12225128393E+04  0.50400001928E-02 0.  1.
       -1    1    3    3    0  502 -0.69693311452E+03  0.17431884004E+03  0.17025298340E+04  0.18478935737E+04  0.50400001928E-02 0. -1.
</event>
<event>
 5   0  0.1028450E-05  0.3015298E+04  0.7818609E-02  0.8239376E-01
        2   -1    0    0  501    0  0.00000000000E+00  0.00000000000E+00  0.18798036487E+04  0.18798036487E+04  0.25500000920E-02 0.  1.
       -2   -1    0    0    0  501  0.00000000000E+00  0.00000000000E+00 -0.12091715272E+04  0.12091715272E+04  0.25500000920E-02 0. -1.
    10030    2    1    2    0    0  0.00000000000E+00  0.00000000000E+00  0.67063212143E+03  0.30889751759E+04  0.30152976959E+04 0.  0.
        3    1    3    3  502    0  0.48451347030E+03 -0.13024142410E+04 -0.26375386191E+03  0.14144264802E+04  0.10100000352E+00 0. -1.
       -3    1    3    3    0  502 -0.48451347030E+03  0.13024142410E+04  0.93438598335E+03  0.16745486957E+04  0.10100000352E+00 0.  1.
</event>
<event>
 5   0  0.3852126E-06  0.2859364E+04  0.7818609E-02  0.8285072E-01
        1   -1    0    0  501    0  0.00000000000E+00  0.00000000000E+00  0.18155545392E+04  0.18155545392E+04  0.50400001928E-02 0.  1.
       -1   -1    0    0    0  501  0.00000000000E+00  0.00000000000E+00 -0.11258213471E+04  0.11258213471E+04  0.50400001928E-02 0. -1.
    10030    2    1    2    0    0  0.00000000000E+00  0.00000000000E+00  0.68973319209E+03  0.29413758862E+04  0.28593636054E+04 0.  0.
        1    1    3    3  502    0  0.63541036708E+03 -0.11565308317E+04 -0.22107695880E+03  0.13379779225E+04  0.50400001928E-02 0. -1.
       -1    1    3    3    0  502 -0.63541036708E+03  0.11565308317E+04  0.91081015089E+03  0.16033979638E+04  0.50400001928E-02 0.  1.
</event>
<event>
 5   0  0.3313750E-06  0.3086546E+04  0.7818609E-02  0.8219440E-01
        3   -1    0    0  501    0  0.00000000000E+00  0.00000000000E+00  0.17757947894E+04  0.17757947923E+04  0.10100000352E+00 0.  1.
       -3   -1    0    0    0  501  0.00000000000E+00  0.00000000000E+00 -0.13411979187E+04  0.13411979225E+04  0.10100000352E+00 0. -1.
    10030    2    1    2    0    0  0.00000000000E+00  0.00000000000E+00  0.43459687069E+03  0.31169927148E+04  0.30865464753E+04 0.  0.
        1    1    3    3  502    0  0.47536571640E+03  0.13663629082E+03 -0.12589869934E+04  0.13526604488E+04  0.50400001928E-02 0. -1.
       -1    1    3    3    0  502 -0.47536571640E+03 -0.13663629082E+03  0.16935838641E+04  0.17643322660E+04  0.50400001928E-02 0.  1.
</event>
<event>
 5   0  0.1089569E-05  0.2903090E+04  0.7818609E-02  0.8271959E-01
        2   -1    0    0  501    0  0.00000000000E+00  0.00000000000E+00  0.16273045909E+04  0.16273045909E+04  0.25500000920E-02 0.  1.
       -2   -1    0    0    0  501  0.00000000000E+00  0.00000000000E+00 -0.12947685636E+04  0.12947685636E+04  0.25500000920E-02 0. -1.
    10030    2    1    2    0    0  0.00000000000E+00  0.00000000000E+00  0.33253602731E+03  0.29220731544E+04  0.29030899591E+04 0.  0.
        5    1    3    3  502    0 -0.19875022509E+03  0.99697904987E+02  0.16100531334E+04  0.16253413508E+04  0.46999998093E+01 0.  1.
       -5    1    3    3    0  502  0.19875022509E+03 -0.99697904987E+02 -0.12775171061E+04  0.12967318036E+04  0.46999998093E+01 0. -1.
</event>
<event>
 5   0  0.3852126E-06  0.2944958E+04  0.7818609E-02  0.8259625E-01
       -1   -1    0    0    0  501  0.00000000000E+00  0.00000000000E+00  0.11282538515E+04  0.11282538515E+04  0.50400001928E-02 0. -1.
        1   -1    0    0  501    0  0.00000000000E+00  0.00000000000E+00 -0.19217263294E+04  0.19217263294E+04  0.50400001928E-02 0.  1.
    10030    2    1    2    0    0  0.00000000000E+00  0.00000000000E+00 -0.79347247788E+03  0.30499801808E+04  0.29449584938E+04 0.  0.
        1    1    3    3  502    0  0.10384362031E+04 -0.80817825497E+03  0.28765761351E+03  0.13469405118E+04  0.50400001928E-02 0.  1.
       -1    1    3    3    0  502 -0.10384362031E+04  0.80817825497E+03 -0.10811300914E+04  0.17030396690E+04  0.50400001928E-02 0. -1.
</event>
<event>
 5   0  0.3896630E-06  0.3110807E+04  0.7818609E-02  0.8212778E-01
        1   -1    0    0  501    0  0.00000000000E+00  0.00000000000E+00  0.26523845981E+04  0.26523845981E+04  0.50400001928E-02 0. -1.
       -1   -1    0    0    0  501  0.00000000000E+00  0.00000000000E+00 -0.91211489710E+03  0.91211489712E+03  0.50400001928E-02 0.  1.
    10030    2    1    2    0    0  0.00000000000E+00  0.00000000000E+00  0.17402697010E+04  0.35644994952E+04  0.31108066509E+04 0.  0.
        5    1    3    3  502    0  0.63405297050E+02 -0.77039561679E+03  0.24166966503E+04  0.25373163831E+04  0.46999998093E+01 0. -1.
       -5    1    3    3    0  502 -0.63405297050E+02  0.77039561679E+03 -0.67642694935E+03  0.10271831121E+04  0.46999998093E+01 0.  1.
</event>
<event>
 5   0  0.3592331E-06  0.2949879E+04  0.7818609E-02  0.8258190E-01
       -1   -1    0    0    0  501  0.00000000000E+00  0.00000000000E+00  0.11101294946E+04  0.11101294946E+04  0.50400001928E-02 0.  1.
        1   -1    0    0  501    0  0.00000000000E+00  0.00000000000E+00 -0.19596326616E+04  0.19596326616E+04  0.50400001928E-02 0. -1.
    10030    2    1    2    0    0  0.00000000000E+00  0.00000000000E+00 -0.84950316700E+03  0.30697621562E+04  0.29498786526E+04 0.  0.
        3    1    3    3  502    0 -0.10406324698E+04 -0.10444689021E+04 -0.38293414455E+03  0.15233088308E+04  0.10100000352E+00 0. -1.
       -3    1    3    3    0  502  0.10406324698E+04  0.10444689021E+04 -0.46656902244E+03  0.15464533254E+04  0.10100000352E+00 0.  1.
</event>
<event>
 5   0  0.1057036E-05  0.3014172E+04  0.7818609E-02  0.8239695E-01
        2   -1    0    0  501    0  0.00000000000E+00  0.00000000000E+00  0.21324347171E+04  0.21324347171E+04  0.25500000920E-02 0.  1.
       -2   -1    0    0    0  501  0.00000000000E+00  0.00000000000E+00 -0.10651246808E+04  0.10651246808E+04  0.25500000920E-02 0. -1.
    10030    2    1    2    0    0  0.00000000000E+00  0.00000000000E+00  0.10673100363E+04  0.31975593980E+04  0.30141724221E+04 0.  0.
        4    1    3    3  502    0 -0.50975849239E+03  0.15252951102E+03 -0.96216479508E+03  0.10994915543E+04  0.12699999809E+01 0. -1.
       -4    1    3    3    0  502  0.50975849239E+03 -0.15252951102E+03  0.20294748314E+04  0.20980678436E+04  0.12699999809E+01 0.  1.
</event>
<event>
 5   0  0.3725232E-06  0.2926028E+04  0.7818609E-02  0.8265175E-01
       -1   -1    0    0    0  501  0.00000000000E+00  0.00000000000E+00  0.93273339137E+03  0.93273339139E+03  0.50400001928E-02 0.  1.
        1   -1    0    0  501    0  0.00000000000E+00  0.00000000000E+00 -0.22947713475E+04  0.22947713475E+04  0.50400001928E-02 0. -1.
    10030    2    1    2    0    0  0.00000000000E+00  0.00000000000E+00 -0.13620379561E+04  0.32275047389E+04  0.29260279298E+04 0.  0.
        2    1    3    3  502    0 -0.13592931326E+04 -0.33491258307E+03 -0.11497308267E+04  0.18115532652E+04  0.25500000920E-02 0. -1.
       -2    1    3    3    0  502  0.13592931326E+04  0.33491258307E+03 -0.21230712949E+03  0.14159514737E+04  0.25500000920E-02 0.  1.
</event>
<event>
 5   0  0.1029922E-05  0.2956067E+04  0.7818609E-02  0.8256389E-01
       -2   -1    0    0    0  501  0.00000000000E+00  0.00000000000E+00  0.86105983685E+03  0.86105983685E+03  0.25500000920E-02 0. -1.
        2   -1    0    0  501    0  0.00000000000E+00  0.00000000000E+00 -0.25370863562E+04  0.25370863562E+04  0.25500000920E-02 0.  1.
    10030    2    1    2    0    0  0.00000000000E+00  0.00000000000E+00 -0.16760265194E+04  0.33981461931E+04  0.29560670926E+04 0.  0.
        1    1    3    3  502    0  0.99451487550E+03 -0.10743754395E+04 -0.10714617148E+04  0.18142140526E+04  0.50400001928E-02 0. -1.
       -1    1    3    3    0  502 -0.99451487550E+03  0.10743754395E+04 -0.60456480462E+03  0.15839321404E+04  0.50400001928E-02 0.  1.
</event>
<event>
 5   0  0.1057036E-05  0.3044843E+04  0.7818609E-02  0.8231040E-01
        2   -1    0    0  501    0  0.00000000000E+00  0.00000000000E+00  0.21371521662E+04  0.21371521662E+04  0.25500000920E-02 0. -1.
       -2   -1    0    0    0  501  0.00000000000E+00  0.00000000000E+00 -0.10845119870E+04  0.10845119870E+04  0.25500000920E-02 0.  1.
    10030    2    1    2    0    0  0.00000000000E+00  0.00000000000E+00  0.10526401792E+04  0.32216641532E+04  0.30448429465E+04 0.  0.
        4    1    3    3  502    0  0.11384631809E+04  0.99289879476E+03  0.72657016746E+03  0.16762613913E+04  0.12699999809E+01 0. -1.
       -4    1    3    3    0  502 -0.11384631809E+04 -0.99289879476E+03  0.32607001177E+03  0.15454027619E+04  0.12699999809E+01 0.  1.
</event>
<event>
 5   0  0.1057036E-05  0.3002654E+04  0.7818609E-02  0.8242973E-01
       -2   -1    0    0    0  501  0.00000000000E+00  0.00000000000E+00  0.14168500174E+04  0.14168500174E+04  0.25500000920E-02 0.  1.
        2   -1    0    0  501    0  0.00000000000E+00  0.00000000000E+00 -0.15908408074E+04  0.15908408074E+04  0.25500000920E-02 0. -1.
    10030    2    1    2    0    0  0.00000000000E+00  0.00000000000E+00 -0.17399079002E+03  0.30076908249E+04  0.30026540432E+04 0.  0.
        4    1    3    3  502    0 -0.10837288828E+04  0.74449141138E+03 -0.81294930303E+03  0.15458408506E+04  0.12699999809E+01 0. -1.
       -4    1    3    3    0  502  0.10837288828E+04 -0.74449141138E+03  0.63895851301E+03  0.14618499743E+04  0.12699999809E+01 0.  1.
</event>
<event>
 5   0  0.9647945E-06  0.2945276E+04  0.7818609E-02  0.8259533E-01
        2   -1    0    0  501    0  0.00000000000E+00  0.00000000000E+00  0.17844881411E+04  0.17844881411E+04  0.25500000920E-02 0.  1.
       -2   -1    0    0    0  501  0.00000000000E+00  0.00000000000E+00 -0.12152856813E+04  0.12152856813E+04  0.25500000920E-02 0. -1.
    10030    2    1    2    0    0  0.00000000000E+00  0.00000000000E+00  0.56920245982E+03  0.29997738225E+04  0.29452761408E+04 0.  0.
        2    1    3    3  502    0  0.16829303280E+03  0.29090052543E+03 -0.11757058111E+04  0.12227959007E+04  0.25500000920E-02 0. -1.
       -2    1    3    3    0  502 -0.16829303280E+03 -0.29090052543E+03  0.17449082709E+04  0.17769779218E+04  0.25500000920E-02 0.  1.
</event>
<event>
 5   0  0.1028450E-05  0.3062162E+04  0.7818609E-02  0.8226200E-01
        2   -1    0    0  501    0  0.00000000000E+00  0.00000000000E+00  0.20950990563E+04  0.20950990563E+04  0.25500000920E-02 0. -1.
       -2   -1    0    0    0  501  0.00000000000E+00  0.00000000000E+00 -0.11189012348E+04  0.11189012348E+04  0.25500000920E-02 0.  1.
    10030    2    1    2    0    0  0.00000000000E+00  0.00000000000E+00  0.97619782149E+03  0.32140002911E+04  0.30621619298E+04 0.  0.
        3    1    3    3  502    0  0.13552409661E+04  0.35058629276E+02  0.12349301287E+04  0.18338374019E+04  0.10100000352E+00 0. -1.
       -3    1    3    3    0  502 -0.13552409661E+04 -0.35058629276E+02 -0.25873230717E+03  0.13801628892E+04  0.10100000352E+00 0.  1.
</event>
<event>
 5   0  0.3592331E-06  0.2433121E+04  0.7818609E-02  0.8427207E-01
       -1   -1    0    0    0  501  0.00000000000E+00  0.00000000000E+00  0.10474741044E+04  0.10474741044E+04  0.50400001928E-02 0. -1.
        1   -1    0    0  501    0  0.00000000000E+00  0.00000000000E+00 -0.14129411432E+04  0.14129411432E+04  0.50400001928E-02 0.  1.
    10030    2    1    2    0    0  0.00000000000E+00  0.00000000000E+00 -0.36546703878E+03  0.24604152476E+04  0.24331208425E+04 0.  0.
        3    1    3    3  502    0  0.11173099376E+04  0.48128662280E+03 -0.18175388272E+03  0.12300621098E+04  0.10100000352E+00 0.  1.
       -3    1    3    3    0  502 -0.11173099376E+04 -0.48128662280E+03 -0.18371315606E+03  0.12303531378E+04  0.10100000352E+00 0. -1.
</event>
<event>
 5   0  0.3636718E-06  0.2825768E+04  0.7818609E-02  0.8295313E-01
       -1   -1    0    0    0  501  0.00000000000E+00  0.00000000000E+00  0.15553633450E+04  0.15553633450E+04  0.50400001928E-02 0.  1.
        1   -1    0    0  501    0  0.00000000000E+00  0.00000000000E+00 -0.12834561575E+04  0.12834561575E+04  0.50400001928E-02 0. -1.
    10030    2    1    2    0    0  0.00000000000E+00  0.00000000000E+00  0.27190718755E+03  0.28388195025E+04  0.28257676212E+04 0.  0.
        4    1    3    3  502    0 -0.10778574705E+03  0.54584768418E+03  0.14406714324E+04  0.15443779494E+04  0.12699999809E+01 0.  1.
       -4    1    3    3    0  502  0.10778574705E+03 -0.54584768418E+03 -0.11687642448E+04  0.12944415531E+04  0.12699999809E+01 0. -1.
</event>
<event>
 5   0  0.1028450E-05  0.3007928E+04  0.7818609E-02  0.8241471E-01
       -2   -1    0    0    0  501  0.00000000000E+00  0.00000000000E+00  0.11593759253E+04  0.11593759253E+04  0.25500000920E-02 0.  1.
        2   -1    0    0  501    0  0.00000000000E+00  0.00000000000E+00 -0.19509700742E+04  0.19509700742E+04  0.25500000920E-02 0. -1.
    10030    2    1    2    0    0  0.00000000000E+00  0.00000000000E+00 -0.79159414891E+03  0.31103459995E+04  0.30079280145E+04 0.  0.
        3    1    3    3  502    0 -0.13164168152E+04 -0.58717902333E+03  0.47971907941E+02  0.14422322112E+04  0.10100000352E+00 0. -1.
       -3    1    3    3    0  502  0.13164168152E+04  0.58717902333E+03 -0.83956605685E+03  0.16681137883E+04  0.10100000352E+00 0.  1.
</event>
<event>
 5   0  0.9647945E-06  0.2248502E+04  0.7818609E-02  0.8498507E-01
       -2   -1    0    0    0  501  0.00000000000E+00  0.00000000000E+00  0.72091260398E+03  0.72091260398E+03  0.25500000920E-02 0.  1.
        2   -1    0    0  501    0  0.00000000000E+00  0.00000000000E+00 -0.17532509094E+04  0.17532509094E+04  0.25500000920E-02 0. -1.
    10030    2    1    2    0    0  0.00000000000E+00  0.00000000000E+00 -0.10323383055E+04  0.24741635134E+04  0.22485023269E+04 0.  0.
        2    1    3    3  502    0 -0.60131005832E+03 -0.85369196499E+03 -0.57730690396E+02  0.10457994980E+04  0.25500000920E-02 0.  1.
       -2    1    3    3    0  502  0.60131005832E+03  0.85369196499E+03 -0.97460761507E+03  0.14283640155E+04  0.25500000920E-02 0. -1.
</event>
<event>
 5   0  0.3852126E-06  0.1832736E+04  0.7818609E-02  0.8689082E-01
        1   -1    0    0  501    0  0.00000000000E+00  0.00000000000E+00  0.13831045935E+04  0.13831045935E+04  0.50400001928E-02 0. -1.
       -1   -1    0    0    0  501  0.00000000000E+00  0.00000000000E+00 -0.60713416998E+03  0.60713417000E+03  0.50400001928E-02 0.  1.
    10030    2    1    2    0    0  0.00000000000E+00  0.00000000000E+00  0.77597042354E+03  0.19902387635E+04  0.18327357250E+04 0.  0.
        1    1    3    3  502    0 -0.21999032484E+03 -0.19160824014E+03 -0.55535785757E+03  0.62732113842E+03  0.50400001928E-02 0.  1.
       -1    1    3    3    0  502  0.21999032484E+03  0.19160824014E+03  0.13313282811E+04  0.13629176251E+04  0.50400001928E-02 0. -1.
</event>
<event>
 5   0  0.1029922E-05  0.2983924E+04  0.7818609E-02  0.8248336E-01
       -2   -1    0    0    0  501  0.00000000000E+00  0.00000000000E+00  0.13955637595E+04  0.13955637595E+04  0.25500000920E-02 0.  1.
        2   -1    0    0  501    0  0.00000000000E+00  0.00000000000E+00 -0.15950191517E+04  0.15950191517E+04  0.25500000920E-02 0. -1.
    10030    2    1    2    0    0  0.00000000000E+00  0.00000000000E+00 -0.19945539224E+03  0.29905829112E+04  0.29839242107E+04 0.  0.
        1    1    3    3  502    0 -0.97394644482E+03 -0.10715197286E+04  0.26055288545E+03  0.14712627271E+04  0.50400001928E-02 0.  1.
       -1    1    3    3    0  502  0.97394644482E+03  0.10715197286E+04 -0.46000827770E+03  0.15193201841E+04  0.50400001928E-02 0. -1.
</event>
<event>
 5   0  0.3725232E-06  0.3020118E+04  0.7818609E-02  0.8238009E-01
       -1   -1    0    0    0  501  0.00000000000E+00  0.00000000000E+00  0.18214973002E+04  0.18214973002E+04  0.50400001928E-02 0.  1.
        1   -1    0    0  501    0  0.00000000000E+00  0.00000000000E+00 -0.12518705533E+04  0.12518705533E+04  0.50400001928E-02 0. -1.
    10030    2    1    2    0    0  0.00000000000E+00  0.00000000000E+00  0.56962674694E+03  0.30733678536E+04  0.30201184302E+04 0.  0.
        2    1    3    3  502    0 -0.12365222069E+04 -0.22953905980E+03 -0.56574856494E+03  0.13790383558E+04  0.25500000920E-02 0. -1.
       -2    1    3    3    0  502  0.12365222069E+04  0.22953905980E+03  0.11353753119E+04  0.16943294977E+04  0.25500000920E-02 0.  1.
</event>
<event>
 5   0  0.1089569E-05  0.2974057E+04  0.7818609E-02  0.8251178E-01
       -2   -1    0    0    0  501  0.00000000000E+00  0.00000000000E+00  0.97121495688E+03  0.97121495688E+03  0.25500000920E-02 0. -1.
        2   -1    0    0  501    0  0.00000000000E+00  0.00000000000E+00 -0.22767916759E+04  0.22767916759E+04  0.25500000920E-02 0.  1.
    10030    2    1    2    0    0  0.00000000000E+00  0.00000000000E+00 -0.13055767190E+04  0.32480066327E+04  0.29740572485E+04 0.  0.
        5    1    3    3  502    0 -0.11829685902E+04 -0.28037743021E+03  0.28236005999E+03  0.12481087622E+04  0.46999998093E+01 0. -1.
       -5    1    3    3    0  502  0.11829685902E+04  0.28037743021E+03 -0.15879367790E+04  0.19998978706E+04  0.46999998093E+01 0.  1.
</event>
<event>
 5   0  0.3725232E-06  0.3028356E+04  0.7818609E-02  0.8235680E-01
       -1   -1    0    0    0  501  0.00000000000E+00  0.00000000000E+00  0.14048401043E+04  0.14048401043E+04  0.50400001928E-02 0.  1.
        1   -1    0    0  501    0  0.00000000000E+00  0.00000000000E+00 -0.16320250802E+04  0.16320250802E+04  0.50400001928E-02 0. -1.
    10030    2    1    2    0    0  0.00000000000E+00  0.00000000000E+00 -0.22718497584E+03  0.30368651845E+04  0.30283555167E+04 0.  0.
        2    1    3    3  502    0 -0.99854016995E+03 -0.78562277052E+03  0.71240200901E+03  0.14566407351E+04  0.25500000920E-02 0.  1.
       -2    1    3    3    0  502  0.99854016995E+03  0.78562277052E+03 -0.93958698484E+03  0.15802244495E+04  0.25500000920E-02 0. -1.
</event>
<event>
 5   0  0.3592331E-06  0.3056211E+04  0.7818609E-02  0.8227859E-01
        1   -1    0    0  501    0  0.00000000000E+00  0.00000000000E+00  0.22552223453E+04  0.22552223453E+04  0.50400001928E-02 0. -1.
       -1   -1    0    0    0  501  0.00000000000E+00  0.00000000000E+00 -0.10354220524E+04  0.10354220524E+04  0.50400001928E-02 0.  1.
    10030    2    1    2    0    0  0.00000000000E+00  0.00000000000E+00  0.12198002929E+04  0.32906443977E+04  0.30562113471E+04 0.  0.
        3    1    3    3  502    0  0.81732029203E+03  0.19370065970E+03  0.19843683063E+04  0.21548201760E+04  0.10100000352E+00 0. -1.
       -3    1    3    3    0  502 -0.81732029203E+03 -0.19370065970E+03 -0.76456801348E+03  0.11358242218E+04  0.10100000352E+00 0.  1.
</event>
<event>
 5   0  0.3313750E-06  0.3004601E+04  0.7818609E-02  0.8242418E-01
        3   -1    0    0  501    0  0.00000000000E+00  0.00000000000E+00  0.13790435933E+04  0.13790435970E+04  0.10100000352E+00 0. -1.
       -3   -1    0    0    0  501  0.00000000000E+00  0.00000000000E+00 -0.16365737400E+04  0.16365737431E+04  0.10100000352E+00 0.  1.
    10030    2    1    2    0    0  0.00000000000E+00  0.00000000000E+00 -0.25753014663E+03  0.30156173401E+04  0.30046008330E+04 0.  0.
        2    1    3    3  502    0  0.10194009967E+04 -0.10673134525E+04 -0.41009648281E+03  0.15318340390E+04  0.25500000920E-02 0.  1.
       -2    1    3    3    0  502 -0.10194009967E+04  0.10673134525E+04  0.15256633618E+03  0.14837833011E+04  0.25500000920E-02 0. -1.
</event>
<event>
 5   0  0.1029922E-05  0.3116982E+04  0.7818609E-02  0.8211093E-01
        2   -1    0    0  501    0  0.00000000000E+00  0.00000000000E+00  0.14930908263E+04  0.14930908263E+04  0.25500000920E-02 0.  1.
       -2   -1    0    0    0  501  0.00000000000E+00  0.00000000000E+00 -0.16267561756E+04  0.16267561756E+04  0.25500000920E-02 0. -1.
    10030    2    1    2    0    0  0.00000000000E+00  0.00000000000E+00 -0.13366534926E+03  0.31198470019E+04  0.31169823370E+04 0.  0.
        1    1    3    3  502    0 -0.57627605343E+03 -0.85331861935E+03  0.11041348041E+04  0.15097550866E+04  0.50400001928E-02 0.  1.
       -1    1    3    3    0  502  0.57627605343E+03  0.85331861935E+03 -0.12378001534E+04  0.16100919153E+04  0.50400001928E-02 0. -1.
</event>
<event>
 5   0  0.3592331E-06  0.3014429E+04  0.7818609E-02  0.8239623E-01
       -1   -1    0    0    0  501  0.00000000000E+00  0.00000000000E+00  0.13070720035E+04  0.13070720035E+04  0.50400001928E-02 0.  1.
        1   -1    0    0  501    0  0.00000000000E+00  0.00000000000E+00 -0.17380029479E+04  0.17380029479E+04  0.50400001928E-02 0. -1.
    10030    2    1    2    0    0  0.00000000000E+00  0.00000000000E+00 -0.43093094438E+03  0.30450749514E+04  0.30144286325E+04 0.  0.
        3    1    3    3  502    0 -0.19202431795E+03  0.40726291094E+03  0.12375454450E+04  0.13169112179E+04  0.10100000352E+00 0.  1.
       -3    1    3    3    0  502  0.19202431795E+03 -0.40726291094E+03 -0.16684763894E+04  0.17281637334E+04  0.10100000352E+00 0. -1.
</event>
<event>
 5   0  0.9647945E-06  0.2963491E+04  0.7818609E-02  0.8254234E-01
        2   -1    0    0  501    0  0.00000000000E+00  0.00000000000E+00  0.17768887731E+04  0.17768887731E+04  0.25500000920E-02 0. -1.
       -2   -1    0    0    0  501  0.00000000000E+00  0.00000000000E+00 -0.12356262626E+04  0.12356262626E+04  0.25500000920E-02 0.  1.
    10030    2    1    2    0    0  0.00000000000E+00  0.00000000000E+00  0.54126251055E+03  0.30125150357E+04  0.29634914772E+04 0.  0.
        2    1    3    3  502    0 -0.87753303900E+03 -0.12409010065E+02 -0.94299968053E+03  0.12882028627E+04  0.25500000920E-02 0.  1.
       -2    1    3    3    0  502  0.87753303900E+03  0.12409010065E+02  0.14842621911E+04  0.17243121730E+04  0.25500000920E-02 0. -1.
</event>
<event>
 5   0  0.3636718E-06  0.3054522E+04  0.7818609E-02  0.8228331E-01
       -1   -1    0    0    0  501  0.00000000000E+00  0.00000000000E+00  0.11668765221E+04  0.11668765221E+04  0.50400001928E-02 0.  1.
        1   -1    0    0  501    0  0.00000000000E+00  0.00000000000E+00 -0.19989489504E+04  0.19989489504E+04  0.50400001928E-02 0. -1.
    10030    2    1    2    0    0  0.00000000000E+00  0.00000000000E+00 -0.83207242837E+03  0.31658254725E+04  0.30545222861E+04 0.  0.
        4    1    3    3  502    0 -0.13847137039E+04 -0.63158574066E+03 -0.54792237809E+03  0.16175763150E+04  0.12699999809E+01 0. -1.
       -4    1    3    3    0  502  0.13847137039E+04  0.63158574066E+03 -0.28415005028E+03  0.15482491575E+04  0.12699999809E+01 0.  1.
</event>
<event>
 5   0  0.3896630E-06  0.2991359E+04  0.7818609E-02  0.8246203E-01
        1   -1    0    0  501    0  0.00000000000E+00  0.00000000000E+00  0.18678879428E+04  0.18678879428E+04  0.50400001928E-02 0. -1.
       -1   -1    0    0    0  501  0.00000000000E+00  0.00000000000E+00 -0.11976400682E+04  0.11976400682E+04  0.50400001928E-02 0.  1.
    10030    2    1    2    0    0  0.00000000000E+00  0.00000000000E+00  0.67024787463E+03  0.30655280111E+04  0.29913591849E+04 0.  0.
        5    1    3    3  502    0  0.33176203607E+03 -0.10404241091E+03 -0.11556417331E+04  0.12068225956E+04  0.46999998093E+01 0.  1.
       -5    1    3    3    0  502 -0.33176203607E+03  0.10404241091E+03  0.18258896078E+04  0.18587054155E+04  0.46999998093E+01 0. -1.
</event>
<event>
 5   0  0.1089569E-05  0.3111293E+04  0.7818609E-02  0.8212646E-01
        2   -1    0    0  501    0  0.00000000000E+00  0.00000000000E+00  0.98349295512E+03  0.98349295512E+03  0.25500000920E-02 0.  1.
       -2   -1    0    0    0  501  0.00000000000E+00  0.00000000000E+00 -0.24606539030E+04  0.24606539030E+04  0.25500000920E-02 0. -1.
    10030    2    1    2    0    0  0.00000000000E+00  0.00000000000E+00 -0.14771609479E+04  0.34441468581E+04  0.31112928365E+04 0.  0.
        5    1    3    3  502    0  0.74634588208E+03 -0.40479880932E+02 -0.22488482808E+04  0.23698125404E+04  0.46999998093E+01 0. -1.
       -5    1    3    3    0  502 -0.74634588208E+03  0.40479880932E+02  0.77168733293E+03  0.10743343177E+04  0.46999998093E+01 0.  1.
</event>
<event>
 5   0  0.3896630E-06  0.2952380E+04  0.7818609E-02  0.8257461E-01
       -1   -1    0    0    0  501  0.00000000000E+00  0.00000000000E+00  0.29645616255E+04  0.29645616255E+04  0.50400001928E-02 0.  1.
        1   -1    0    0  501    0  0.00000000000E+00  0.00000000000E+00 -0.73506225032E+03  0.73506225033E+03  0.50400001928E-02 0. -1.
    10030    2    1    2    0    0  0.00000000000E+00  0.00000000000E+00  0.22294993752E+04  0.36996238759E+04  0.29523802870E+04 0.  0.
        5    1    3    3  502    0  0.64931855848E+03 -0.16418368617E+03 -0.53370360710E+03  0.85640673948E+03  0.46999998093E+01 0. -1.
       -5    1    3    3    0  502 -0.64931855848E+03  0.16418368617E+03  0.27632029823E+04  0.28432171364E+04  0.46999998093E+01 0.  1.
</event>
<event>
 5   0  0.3725232E-06  0.2968778E+04  0.7818609E-02  0.8252703E-01
        1   -1    0    0  501    0  0.00000000000E+00  0.00000000000E+00  0.19865100591E+04  0.19865100591E+04  0.50400001928E-02 0.  1.
       -1   -1    0    0    0  501  0.00000000000E+00  0.00000000000E+00 -0.11091868279E+04  0.11091868279E+04  0.50400001928E-02 0. -1.
    10030    2    1    2    0    0  0.00000000000E+00  0.00000000000E+00  0.87732323117E+03  0.30956968870E+04  0.29687780591E+04 0.  0.
        2    1    3    3  502    0  0.24776729811E+03 -0.13454832754E+04  0.10392147159E+04  0.17180457224E+04  0.25500000920E-02 0.  1.
       -2    1    3    3    0  502 -0.24776729811E+03  0.13454832754E+04 -0.16189148476E+03  0.13776511646E+04  0.25500000920E-02 0. -1.
</event>
<event>
 5   0  0.1029922E-05  0.2926295E+04  0.7818609E-02  0.8265097E-01
        2   -1    0    0  501    0  0.00000000000E+00  0.00000000000E+00  0.18893487044E+04  0.18893487044E+04  0.25500000920E-02 0.  1.
       -2   -1    0    0    0  501  0.00000000000E+00  0.00000000000E+00 -0.11330894474E+04  0.11330894474E+04  0.25500000920E-02 0. -1.
    10030    2    1    2    0    0  0.00000000000E+00  0.00000000000E+00  0.75625925697E+03  0.30224381519E+04  0.29262953231E+04 0.  0.
        1    1    3    3  502    0  0.40543457140E+02 -0.10195695512E+04  0.14612172532E+04  0.17822238082E+04  0.50400001928E-02 0.  1.
       -1    1    3    3    0  502 -0.40543457140E+02  0.10195695512E+04 -0.70495799622E+03  0.12402143436E+04  0.50400001928E-02 0. -1.
</event>
<event>
 5   0  0.3852126E-06  0.1995995E+04  0.7818609E-02  0.8608496E-01
       -1   -1    0    0    0  501  0.00000000000E+00  0.00000000000E+00  0.11886276589E+04  0.11886276589E+04  0.50400001928E-02 0.  1.
        1   -1    0    0  501    0  0.00000000000E+00  0.00000000000E+00 -0.83794001021E+03  0.83794001023E+03  0.50400001928E-02 0. -1.
    10030    2    1    2    0    0  0.00000000000E+00  0.00000000000E+00  0.35068764871E+03  0.20265676692E+04  0.19959946620E+04 0.  0.
        1    1    3    3  502    0 -0.44847121085E+03 -0.58718518103E+03 -0.50581657953E+03  0.89541234967E+03  0.50400001928E-02 0. -1.
       -1    1    3    3    0  502  0.44847121085E+03  0.58718518103E+03  0.85650422824E+03  0.11311553195E+04  0.50400001928E-02 0.  1.
</event>
<event>
 5   0  0.1029922E-05  0.3114864E+04  0.7818609E-02  0.8211670E-01
       -2   -1    0    0    0  501  0.00000000000E+00  0.00000000000E+00  0.15851523298E+04  0.15851523298E+04  0.25500000920E-02 0. -1.
        2   -1    0    0  501    0  0.00000000000E+00  0.00000000000E+00 -0.15301965433E+04  0.15301965433E+04  0.25500000920E-02 0.  1.
    10030    2    1    2    0    0  0.00000000000E+00  0.00000000000E+00  0.54955786503E+02  0.31153488730E+04  0.31148641162E+04 0.  0.
        1    1    3    3  502    0  0.11624516510E+04  0.82687738401E+03  0.65253480562E+03  0.15687006476E+04  0.50400001928E-02 0.  1.
       -1    1    3    3    0  502 -0.11624516510E+04 -0.82687738401E+03 -0.59757901911E+03  0.15466482254E+04  0.50400001928E-02 0. -1.
</event>
<event>
 5   0  0.1029922E-05  0.2941503E+04  0.7818609E-02  0.8260635E-01
        2   -1    0    0  501    0  0.00000000000E+00  0.00000000000E+00  0.17479407498E+04  0.17479407498E+04  0.25500000920E-02 0.  1.
       -2   -1    0    0    0  501  0.00000000000E+00  0.00000000000E+00 -0.12375188201E+04  0.12375188201E+04  0.25500000920E-02 0. -1.
    10030    2    1    2    0    0  0.00000000000E+00  0.00000000000E+00  0.51042192975E+03  0.29854595699E+04  0.29415027277E+04 0.  0.
        1    1    3    3  502    0  0.97367400660E+03  0.74309333437E+02  0.13714398222E+04  0.16835706502E+04  0.50400001928E-02 0.  1.
       -1    1    3    3    0  502 -0.97367400660E+03 -0.74309333437E+02 -0.86101789244E+03  0.13018889197E+04  0.50400001928E-02 0. -1.
</event>
<event>
 5   0  0.3636718E-06  0.2850115E+04  0.7818609E-02  0.8287876E-01
        1   -1    0    0  501    0  0.00000000000E+00  0.00000000000E+00  0.15907492889E+04  0.15907492889E+04  0.50400001928E-02 0. -1.
       -1   -1    0    0    0  501  0.00000000000E+00  0.00000000000E+00 -0.12766243019E+04  0.12766243019E+04  0.50400001928E-02 0.  1.
    10030    2    1    2    0    0  0.00000000000E+00  0.00000000000E+00  0.31412498708E+03  0.28673735908E+04  0.28501152261E+04 0.  0.
        4    1    3    3  502    0  0.13373574223E+04 -0.33590159937E+03 -0.20488375788E+03  0.13940350521E+04  0.12699999809E+01 0.  1.
       -4    1    3    3    0  502 -0.13373574223E+04  0.33590159937E+03  0.51900874497E+03  0.14733385387E+04  0.12699999809E+01 0. -1.
</event>
<event>
 5   0  0.3896630E-06  0.3004027E+04  0.7818609E-02  0.8242582E-01
       -1   -1    0    0    0  501  0.00000000000E+00  0.00000000000E+00  0.20351868356E+04  0.20351868356E+04  0.50400001928E-02 0. -1.
        1   -1    0    0  501    0  0.00000000000E+00  0.00000000000E+00 -0.11085193036E+04  0.11085193036E+04  0.50400001928E-02 0.  1.
    10030    2    1    2    0    0  0.00000000000E+00  0.00000000000E+00  0.92666753206E+03  0.31437061392E+04  0.30040265603E+04 0.  0.
        5    1    3    3  502    0 -0.31667327135E+03  0.13924187329E+04 -0.24057651376E+02  0.14281851242E+04  0.46999998093E+01 0.  1.
       -5    1    3    3    0  502  0.31667327135E+03 -0.13924187329E+04  0.95072518344E+03  0.17155210150E+04  0.46999998093E+01 0. -1.
</event>
<event>
 5   0  0.1057036E-05  0.2304100E+04  0.7818609E-02  0.8476306E-01
        2   -1    0    0  501    0  0.00000000000E+00  0.00000000000E+00  0.19710167356E+04  0.19710167356E+04  0.25500000920E-02 0.  1.
       -2   -1    0    0    0  501  0.00000000000E+00  0.00000000000E+00 -0.67336774878E+03  0.67336774878E+03  0.25500000920E-02 0. -1.
    10030    2    1    2    0    0  0.00000000000E+00  0.00000000000E+00  0.12976489868E+04  0.26443844844E+04  0.23040999128E+04 0.  0.
        4    1    3    3  502    0 -0.10091582354E+04 -0.39862524137E+03  0.20445326999E+03  0.11041309613E+04  0.12699999809E+01 0. -1.
       -4    1    3    3    0  502  0.10091582354E+04  0.39862524137E+03  0.10931957168E+04  0.15402535231E+04  0.12699999809E+01 0.  1.
</event>
<event>
 5   0  0.3636718E-06  0.2847359E+04  0.7818609E-02  0.8288714E-01
       -1   -1    0    0    0  501  0.00000000000E+00  0.00000000000E+00  0.13029185464E+04  0.13029185464E+04  0.50400001928E-02 0.  1.
        1   -1    0    0  501    0  0.00000000000E+00  0.00000000000E+00 -0.15556329196E+04  0.15556329196E+04  0.50400001928E-02 0. -1.
    10030    2    1    2    0    0  0.00000000000E+00  0.00000000000E+00 -0.25271437320E+03  0.28585514660E+04  0.28473587637E+04 0.  0.
        4    1    3    3  502    0 -0.83123331105E+02 -0.10345802839E+04  0.85194528896E+03  0.13427874889E+04  0.12699999809E+01 0.  1.
       -4    1    3    3    0  502  0.83123331105E+02  0.10345802839E+04 -0.11046596622E+04  0.15157639771E+04  0.12699999809E+01 0. -1.
</event>
<event>
 5   0  0.3852126E-06  0.2929860E+04  0.7818609E-02  0.8264048E-01
        1   -1    0    0  501    0  0.00000000000E+00  0.00000000000E+00  0.22222544115E+04  0.22222544115E+04  0.50400001928E-02 0.  1.
       -1   -1    0    0    0  501  0.00000000000E+00  0.00000000000E+00 -0.96569474919E+03  0.96569474920E+03  0.50400001928E-02 0. -1.
    10030    2    1    2    0    0  0.00000000000E+00  0.00000000000E+00  0.12565596623E+04  0.31879491607E+04  0.29298596666E+04 0.  0.
        1    1    3    3  502    0 -0.54954301527E+03  0.62541547234E+03  0.19398123058E+04  0.21109272419E+04  0.50400001928E-02 0.  1.
       -1    1    3    3    0  502  0.54954301527E+03 -0.62541547234E+03 -0.68325264354E+03  0.10770219188E+04  0.50400001928E-02 0. -1.
</event>
<event>
 5   0  0.3896630E-06  0.2991531E+04  0.7818609E-02  0.8246153E-01
        1   -1    0    0  501    0  0.00000000000E+00  0.00000000000E+00  0.19689177141E+04  0.19689177141E+04  0.50400001928E-02 0.  1.
       -1   -1    0    0    0  501  0.00000000000E+00  0.00000000000E+00 -0.11363168565E+04  0.11363168565E+04  0.50400001928E-02 0. -1.
    10030    2    1    2    0    0  0.00000000000E+00  0.00000000000E+00  0.83260085762E+03  0.31052345706E+04  0.29915309710E+04 0.  0.
        5    1    3    3  502    0 -0.14276919183E+04  0.12042313833E+03 -0.29543678001E+02  0.14330739216E+04  0.46999998093E+01 0.  1.
       -5    1    3    3    0  502  0.14276919183E+04 -0.12042313833E+03  0.86214453562E+03  0.16721606490E+04  0.46999998093E+01 0. -1.
</event>
<event>
 5   0  0.1057036E-05  0.2969959E+04  0.7818609E-02  0.8252362E-01
       -2   -1    0    0    0  501  0.00000000000E+00  0.00000000000E+00  0.17040128490E+04  0.17040128490E+04  0.25500000920E-02 0. -1.
        2   -1    0    0  501    0  0.00000000000E+00  0.00000000000E+00 -0.12941008466E+04  0.12941008466E+04  0.25500000920E-02 0.  1.
    10030    2    1    2    0    0  0.00000000000E+00  0.00000000000E+00  0.40991200242E+03  0.29981136957E+04  0.29699592392E+04 0.  0.
        4    1    3    3  502    0 -0.14093933419E+04 -0.32653930203E+03  0.54301168670E+03  0.15452769372E+04  0.12699999809E+01 0. -1.
       -4    1    3    3    0  502  0.14093933419E+04  0.32653930203E+03 -0.13309968429E+03  0.14528367585E+04  0.12699999809E+01 0.  1.
</event>
<event>
 5   0  0.9647945E-06  0.2946769E+04  0.7818609E-02  0.8259097E-01
        2   -1    0    0  501    0  0.00000000000E+00  0.00000000000E+00  0.14379348329E+04  0.14379348329E+04  0.25500000920E-02 0.  1.
       -2   -1    0    0    0  501  0.00000000000E+00  0.00000000000E+00 -0.15097078679E+04  0.15097078679E+04  0.25500000920E-02 0. -1.
    10030    2    1    2    0    0  0.00000000000E+00  0.00000000000E+00 -0.71773034982E+02  0.29476427009E+04  0.29467687597E+04 0.  0.
        2    1    3    3  502    0  0.80354100940E+03  0.91371458749E+03  0.79520827173E+03  0.14535847745E+04  0.25500000920E-02 0. -1.
       -2    1    3    3    0  502 -0.80354100940E+03 -0.91371458749E+03 -0.86698130671E+03  0.14940579264E+04  0.25500000920E-02 0.  1.
</event>
<event>
 5   0  0.3896630E-06  0.2943214E+04  0.7818609E-02  0.8260135E-01
        1   -1    0    0  501    0  0.00000000000E+00  0.00000000000E+00  0.14770509127E+04  0.14770509127E+04  0.50400001928E-02 0.  1.
       -1   -1    0    0    0  501  0.00000000000E+00  0.00000000000E+00 -0.14661828430E+04  0.14661828431E+04  0.50400001928E-02 0. -1.
    10030    2    1    2    0    0  0.00000000000E+00  0.00000000000E+00  0.10868069686E+02  0.29432337558E+04  0.29432136902E+04 0.  0.
        5    1    3    3  502    0  0.50284741914E+03  0.67365685663E+03 -0.12024382357E+04  0.14671567361E+04  0.46999998093E+01 0. -1.
       -5    1    3    3    0  502 -0.50284741914E+03 -0.67365685663E+03  0.12133063054E+04  0.14760770197E+04  0.46999998093E+01 0.  1.
</event>
<event>
 5   0  0.3852126E-06  0.2942211E+04  0.7818609E-02  0.8260428E-01
        1   -1    0    0  501    0  0.00000000000E+00  0.00000000000E+00  0.64089582762E+03  0.64089582764E+03  0.50400001928E-02 0.  1.
       -1   -1    0    0    0  501  0.00000000000E+00  0.00000000000E+00 -0.33767594825E+04  0.33767594825E+04  0.50400001928E-02 0. -1.
    10030    2    1    2    0    0  0.00000000000E+00  0.00000000000E+00 -0.27358636549E+04  0.40176553102E+04  0.29422107765E+04 0.  0.
        1    1    3    3  502    0  0.13995063178E+04  0.43452202770E+03 -0.11913420504E+04  0.18885770324E+04  0.50400001928E-02 0. -1.
       -1    1    3    3    0  502 -0.13995063178E+04 -0.43452202770E+03 -0.15445216045E+04  0.21290782778E+04  0.50400001928E-02 0.  1.
</event>
<event>
 5   0  0.1028450E-05  0.3095109E+04  0.7818609E-02  0.8217082E-01
        2   -1    0    0  501    0  0.00000000000E+00  0.00000000000E+00  0.17965337794E+04  0.17965337794E+04  0.25500000920E-02 0.  1.
       -2   -1    0    0    0  501  0.00000000000E+00  0.00000000000E+00 -0.13330808000E+04  0.13330808000E+04  0.25500000920E-02 0. -1.
    10030    2    1    2    0    0  0.00000000000E+00  0.00000000000E+00  0.46345297938E+03  0.31296145795E+04  0.30951088433E+04 0.  0.
        3    1    3    3  502    0  0.60819644937E+03  0.10414059471E+04 -0.74887662953E+03  0.14195934221E+04  0.10100000352E+00 0. -1.
       -3    1    3    3    0  502 -0.60819644937E+03 -0.10414059471E+04  0.12123296089E+04  0.17100211573E+04  0.10100000352E+00 0.  1.
</event>
<event>
 5   0  0.1057036E-05  0.2925474E+04  0.7818609E-02  0.8265338E-01
        2   -1    0    0  501    0  0.00000000000E+00  0.00000000000E+00  0.93628742643E+03  0.93628742643E+03  0.25500000920E-02 0. -1.
       -2   -1    0    0    0  501  0.00000000000E+00  0.00000000000E+00 -0.22851953971E+04  0.22851953971E+04  0.25500000920E-02 0.  1.
    10030    2    1    2    0    0  0.00000000000E+00  0.00000000000E+00 -0.13489079707E+04  0.32214828236E+04  0.29254741272E+04 0.  0.
        4    1    3    3  502    0  0.45454701590E+03 -0.13684881049E+04 -0.94469389224E+03  0.17238969940E+04  0.12699999809E+01 0.  1.
       -4    1    3    3    0  502 -0.45454701590E+03  0.13684881049E+04 -0.40421407846E+03  0.14975858296E+04  0.12699999809E+01 0. -1.
</event>
<event>
 5   0  0.1057036E-05  0.2973470E+04  0.7818609E-02  0.8251347E-01
       -2   -1    0    0    0  501  0.00000000000E+00  0.00000000000E+00  0.10776980778E+04  0.10776980778E+04  0.25500000920E-02 0. -1.
        2   -1    0    0  501    0  0.00000000000E+00  0.00000000000E+00 -0.20510212882E+04  0.20510212882E+04  0.25500000920E-02 0.  1.
    10030    2    1    2    0    0  0.00000000000E+00  0.00000000000E+00 -0.97332321037E+03  0.31287193660E+04  0.29734704975E+04 0.  0.
        4    1    3    3  502    0 -0.96349519907E+03 -0.10476336013E+04 -0.93864844400E+03  0.17049696993E+04  0.12699999809E+01 0.  1.
       -4    1    3    3    0  502  0.96349519907E+03  0.10476336013E+04 -0.34674766375E+02  0.14237496667E+04  0.12699999809E+01 0. -1.
</event>
<event>
 5   0  0.3592331E-06  0.2989710E+04  0.7818609E-02  0.8246675E-01
       -1   -1    0    0    0  501  0.00000000000E+00  0.00000000000E+00  0.15816294910E+04  0.15816294910E+04  0.50400001928E-02 0. -1.
        1   -1    0    0  501    0  0.00000000000E+00  0.00000000000E+00 -0.14128411800E+04  0.14128411800E+04  0.50400001928E-02 0.  1.
    10030    2    1    2    0    0  0.00000000000E+00  0.00000000000E+00  0.16878831095E+03  0.29944706710E+04  0.29897098698E+04 0.  0.
        3    1    3    3  502    0 -0.12016901084E+04 -0.84783028286E+03  0.35261895543E+03  0.15123542717E+04  0.10100000352E+00 0. -1.
       -3    1    3    3    0  502  0.12016901084E+04  0.84783028286E+03 -0.18383064448E+03  0.14821163994E+04  0.10100000352E+00 0.  1.
</event>
<event>
 5   0  0.3896630E-06  0.3013351E+04  0.7818609E-02  0.8239929E-01
       -1   -1    0    0    0  501  0.00000000000E+00  0.00000000000E+00  0.15355900622E+04  0.15355900622E+04  0.50400001928E-02 0.  1.
        1   -1    0    0  501    0  0.00000000000E+00  0.00000000000E+00 -0.14783050410E+04  0.14783050411E+04  0.50400001928E-02 0. -1.
    10030    2    1    2    0    0  0.00000000000E+00  0.00000000000E+00  0.57285021163E+02  0.30138951033E+04  0.30133506467E+04 0.  0.
        5    1    3    3  502    0  0.68017468943E+03 -0.90213973940E+03  0.10255947605E+04  0.15258965956E+04  0.46999998093E+01 0.  1.
       -5    1    3    3    0  502 -0.68017468943E+03  0.90213973940E+03 -0.96830973937E+03  0.14879985077E+04  0.46999998093E+01 0. -1.
</event>
<event>
 5   0  0.3592331E-06  0.2995624E+04  0.7818609E-02  0.8244982E-01
        1   -1    0    0  501    0  0.00000000000E+00  0.00000000000E+00  0.16126809737E+04  0.16126809737E+04  0.50400001928E-02 0.  1.
       -1   -1    0    0    0  501  0.00000000000E+00  0.00000000000E+00 -0.13911248448E+04  0.13911248448E+04  0.50400001928E-02 0. -1.
    10030    2    1    2    0    0  0.00000000000E+00  0.00000000000E+00  0.22155612888E+03  0.30038058185E+04  0.29956238544E+04 0.  0.
        3    1    3    3  502    0  0.14120944872E+04  0.36879462509E+03 -0.22692100193E+03  0.14769947419E+04  0.10100000352E+00 0. -1.
       -3    1    3    3    0  502 -0.14120944872E+04 -0.36879462509E+03  0.44847713081E+03  0.15268110766E+04  0.10100000352E+00 0.  1.
</event>
<event>
 5   0  0.3725232E-06  0.2994066E+04  0.7818609E-02  0.8245427E-01
        1   -1    0    0  501    0  0.00000000000E+00  0.00000000000E+00  0.18188804112E+04  0.18188804113E+04  0.50400001928E-02 0. -1.
       -1   -1    0    0    0  501  0.00000000000E+00  0.00000000000E+00 -0.12321360894E+04  0.12321360894E+04  0.50400001928E-02 0.  1.
    10030    2    1    2    0    0  0.00000000000E+00  0.00000000000E+00  0.58674432188E+03  0.30510165006E+04  0.29940662631E+04 0.  0.
        2    1    3    3  502    0 -0.13968974661E+04 -0.44425940221E+02 -0.25331339424E+03  0.14203745530E+04  0.25500000920E-02 0. -1.
       -2    1    3    3    0  502  0.13968974661E+04  0.44425940221E+02  0.84005771612E+03  0.16306419477E+04  0.25500000920E-02 0.  1.
</event>
<event>
 5   0  0.1028450E-05  0.2918194E+04  0.7818609E-02  0.8267485E-01
        2   -1    0    0  501    0  0.00000000000E+00  0.00000000000E+00  0.20391690903E+04  0.20391690903E+04  0.25500000920E-02 0. -1.
       -2   -1    0    0    0  501  0.00000000000E+00  0.00000000000E+00 -0.10440348951E+04  0.10440348952E+04  0.25500000920E-02 0.  1.
    10030    2    1    2    0    0  0.00000000000E+00  0.00000000000E+00  0.99513419518E+03  0.30832039855E+04  0.29181937478E+04 0.  0.
        3    1    3    3  502    0  0.12022142764E+02  0.58175110658E+02  0.20378909113E+04  0.20387565456E+04  0.10100000352E+00 0. -1.
       -3    1    3    3    0  502 -0.12022142764E+02 -0.58175110658E+02 -0.10427567162E+04  0.10444474399E+04  0.10100000352E+00 0.  1.
</event>
<event>
 5   0  0.1028450E-05  0.3081959E+04  0.7818609E-02  0.8220706E-01
        2   -1    0    0  501    0  0.00000000000E+00  0.00000000000E+00  0.20518698754E+04  0.20518698754E+04  0.25500000920E-02 0. -1.
       -2   -1    0    0    0  501  0.00000000000E+00  0.00000000000E+00 -0.11572949116E+04  0.11572949116E+04  0.25500000920E-02 0.  1.
    10030    2    1    2    0    0  0.00000000000E+00  0.00000000000E+00  0.89457496385E+03  0.32091647870E+04  0.30819594845E+04 0.  0.
        3    1    3    3  502    0 -0.67719507285E+03 -0.73474966166E+03 -0.77423333243E+03  0.12640757474E+04  0.10100000352E+00 0.  1.
       -3    1    3    3    0  502  0.67719507285E+03  0.73474966166E+03  0.16688082963E+04  0.19450890396E+04  0.10100000352E+00 0. -1.
</event>
<event>
 5   0  0.3592331E-06  0.2621200E+04  0.7818609E-02  0.8361036E-01
        1   -1    0    0  501    0  0.00000000000E+00  0.00000000000E+00  0.11678806299E+04  0.11678806299E+04  0.50400001928E-02 0.  1.
       -1   -1    0    0    0  501  0.00000000000E+00  0.00000000000E+00 -0.14707602684E+04  0.14707602684E+04  0.50400001928E-02 0. -1.
    10030    2    1    2    0    0  0.00000000000E+00  0.00000000000E+00 -0.30287963847E+03  0.26386408984E+04  0.26212000525E+04 0.  0.
        3    1    3    3  502    0  0.71452228390E+03  0.28116513639E+03 -0.12206162978E+04  0.14420471853E+04  0.10100000352E+00 0. -1.
       -3    1    3    3    0  502 -0.71452228390E+03 -0.28116513639E+03  0.91773665928E+03  0.11965937131E+04  0.10100000352E+00 0.  1.
</event>
<event>
 5   0  0.9647945E-06  0.2998572E+04  0.7818609E-02  0.8244139E-01
        2   -1    0    0  501    0  0.00000000000E+00  0.00000000000E+00  0.13006331922E+04  0.13006331922E+04  0.25500000920E-02 0. -1.
       -2   -1    0    0    0  501  0.00000000000E+00  0.00000000000E+00 -0.17282799360E+04  0.17282799360E+04  0.25500000920E-02 0.  1.
    10030    2    1    2    0    0  0.00000000000E+00  0.00000000000E+00 -0.42764674378E+03  0.30289131283E+04  0.29985718269E+04 0.  0.
        2    1    3    3  502    0  0.12838827731E+04  0.47425575450E+03  0.40440283375E+03  0.14271703289E+04  0.25500000920E-02 0. -1.
       -2    1    3    3    0  502 -0.12838827731E+04 -0.47425575450E+03 -0.83204957753E+03  0.16017427994E+04  0.25500000920E-02 0.  1.
</event>
<event>
 5   0  0.1029922E-05  0.2525203E+04  0.7818609E-02  0.8394062E-01
        2   -1    0    0  501    0  0.00000000000E+00  0.00000000000E+00  0.10890010483E+04  0.10890010483E+04  0.25500000920E-02 0. -1.
       -2   -1    0    0    0  501  0.00000000000E+00  0.00000000000E+00 -0.14638756908E+04  0.14638756908E+04  0.25500000920E-02 0.  1.
    10030    2    1    2    0    0  0.00000000000E+00  0.00000000000E+00 -0.37487464252E+03  0.25528767392E+04  0.25252026944E+04 0.  0.
        1    1    3    3  502    0 -0.12510940075E+04  0.90493906841E+02 -0.41856400558E+02  0.12550606843E+04  0.50400001928E-02 0. -1.
       -1    1    3    3    0  502  0.12510940075E+04 -0.90493906841E+02 -0.33301824196E+03  0.12978160549E+04  0.50400001928E-02 0.  1.
</event>
<event>
 5   0  0.1057036E-05  0.3008226E+04  0.7818609E-02  0.8241386E-01
        2   -1    0    0  501    0  0.00000000000E+00  0.00000000000E+00  0.18198266834E+04  0.18198266834E+04  0.25500000920E-02 0.  1.
       -2   -1    0    0    0  501  0.00000000000E+00  0.00000000000E+00 -0.12431708123E+04  0.12431708123E+04  0.25500000920E-02 0. -1.
    10030    2    1    2    0    0  0.00000000000E+00  0.00000000000E+00  0.57665587115E+03  0.30629974957E+04  0.30082256672E+04 0.  0.
        4    1    3    3  502    0 -0.10581195235E+04  0.98589417546E+03  0.70907007970E+03  0.16107098566E+04  0.12699999809E+01 0.  1.
       -4    1    3    3    0  502  0.10581195235E+04 -0.98589417546E+03 -0.13241420855E+03  0.14522876391E+04  0.12699999809E+01 0. -1.
</event>
<event>
 5   0  0.3896630E-06  0.2800450E+04  0.7818609E-02  0.8303129E-01
       -1   -1    0    0    0  501  0.00000000000E+00  0.00000000000E+00  0.93982930378E+03  0.93982930379E+03  0.50400001928E-02 0.  1.
        1   -1    0    0  501    0  0.00000000000E+00  0.00000000000E+00 -0.20861553059E+04  0.20861553059E+04  0.50400001928E-02 0. -1.
    10030    2    1    2    0    0  0.00000000000E+00  0.00000000000E+00 -0.11463260021E+04  0.30259846097E+04  0.28004498844E+04 0.  0.
        5    1    3    3  502    0 -0.57284659804E+03  0.88280546848E+03 -0.15711874755E+04  0.18910713612E+04  0.46999998093E+01 0. -1.
       -5    1    3    3    0  502  0.57284659804E+03 -0.88280546848E+03  0.42486147336E+03  0.11349132485E+04  0.46999998093E+01 0.  1.
</event>
<event>
 5   0  0.1029922E-05  0.3023478E+04  0.7818609E-02  0.8237058E-01
       -2   -1    0    0    0  501  0.00000000000E+00  0.00000000000E+00  0.18571051912E+04  0.18571051912E+04  0.25500000920E-02 0. -1.
        2   -1    0    0  501    0  0.00000000000E+00  0.00000000000E+00 -0.12306003301E+04  0.12306003301E+04  0.25500000920E-02 0.  1.
    10030    2    1    2    0    0  0.00000000000E+00  0.00000000000E+00  0.62650486107E+03  0.30877055213E+04  0.30234776410E+04 0.  0.
        1    1    3    3  502    0 -0.71648605139E+03 -0.13007736282E+04  0.60208547219E+03  0.16024578651E+04  0.50400001928E-02 0.  1.
       -1    1    3    3    0  502  0.71648605139E+03  0.13007736282E+04  0.24419388874E+02  0.14852476562E+04  0.50400001928E-02 0. -1.
</event>
<event>
 5   0  0.1028450E-05  0.3016873E+04  0.7818609E-02  0.8238929E-01
        2   -1    0    0  501    0  0.00000000000E+00  0.00000000000E+00  0.19207629505E+04  0.19207629505E+04  0.25500000920E-02 0. -1.
       -2   -1    0    0    0  501  0.00000000000E+00  0.00000000000E+00 -0.11846232403E+04  0.11846232403E+04  0.25500000920E-02 0.  1.
    10030    2    1    2    0    0  0.00000000000E+00  0.00000000000E+00  0.73613971018E+03  0.31053861908E+04  0.30168728381E+04 0.  0.
        3    1    3    3  502    0 -0.24233357352E+03  0.65808583140E+03 -0.10066197650E+04  0.12268194178E+04  0.10100000352E+00 0.  1.
       -3    1    3    3    0  502  0.24233357352E+03 -0.65808583140E+03  0.17427594752E+04  0.18785667731E+04  0.10100000352E+00 0. -1.
</event>
<event>
 5   0  0.3636718E-06  0.3016125E+04  0.7818609E-02  0.8239141E-01
       -1   -1    0    0    0  501  0.00000000000E+00  0.00000000000E+00  0.13185858375E+04  0.13185858375E+04  0.50400001928E-02 0.  1.
        1   -1    0    0  501    0  0.00000000000E+00  0.00000000000E+00 -0.17247668533E+04  0.17247668533E+04  0.50400001928E-02 0. -1.
    10030    2    1    2    0    0  0.00000000000E+00  0.00000000000E+00 -0.40618101581E+03  0.30433526908E+04  0.30161254256E+04 0.  0.
        4    1    3    3  502    0  0.10078323323E+04 -0.18994665862E+03 -0.13187141059E+04  0.16705730302E+04  0.12699999809E+01 0. -1.
       -4    1    3    3    0  502 -0.10078323323E+04  0.18994665862E+03  0.91253309008E+03  0.13727796606E+04  0.12699999809E+01 0.  1.
</event>
<event>
 5   0  0.1089569E-05  0.2966214E+04  0.7818609E-02  0.8253445E-01
        2   -1    0    0  501    0  0.00000000000E+00  0.00000000000E+00  0.13629999417E+04  0.13629999417E+04  0.25500000920E-02 0. -1.
       -2   -1    0    0    0  501  0.00000000000E+00  0.00000000000E+00 -0.16137982547E+04  0.16137982547E+04  0.25500000920E-02 0.  1.
    10030    2    1    2    0    0  0.00000000000E+00  0.00000000000E+00 -0.25079831295E+03  0.29767981964E+04  0.29662143733E+04 0.  0.
        5    1    3    3  502    0  0.44822985181E+03  0.33191565286E+03 -0.15045321219E+04  0.16045924705E+04  0.46999998093E+01 0.  1.
       -5    1    3    3    0  502 -0.44822985181E+03 -0.33191565286E+03  0.12537338089E+04  0.13722057259E+04  0.46999998093E+01 0. -1.
</event>
<event>
 5   0  0.9647945E-06  0.3072669E+04  0.7818609E-02  0.8223279E-01
        2   -1    0    0  501    0  0.00000000000E+00  0.00000000000E+00  0.19965814507E+04  0.19965814507E+04  0.25500000920E-02 0. -1.
       -2   -1    0    0    0  501  0.00000000000E+00  0.00000000000E+00 -0.11821826886E+04  0.11821826886E+04  0.25500000920E-02 0.  1.
    10030    2    1    2    0    0  0.00000000000E+00  0.00000000000E+00  0.81439876210E+03  0.31787641394E+04  0.30726692158E+04 0.  0.
        2    1    3    3  502    0  0.65734613332E+02 -0.13140071514E+04 -0.41353342210E+03  0.13791104831E+04  0.25500000920E-02 0.  1.
       -2    1    3    3    0  502 -0.65734613332E+02  0.13140071514E+04  0.12279321842E+04  0.17996536562E+04  0.25500000920E-02 0. -1.
</event>
<event>
 5   0  0.9647945E-06  0.2914892E+04  0.7818609E-02  0.8268460E-01
       -2   -1    0    0    0  501  0.00000000000E+00  0.00000000000E+00  0.81935185685E+03  0.81935185686E+03  0.25500000920E-02 0.  1.
        2   -1    0    0  501    0  0.00000000000E+00  0.00000000000E+00 -0.25924745048E+04  0.25924745048E+04  0.25500000920E-02 0. -1.
    10030    2    1    2    0    0  0.00000000000E+00  0.00000000000E+00 -0.17731226479E+04  0.34118263616E+04  0.29148919701E+04 0.  0.
        2    1    3    3  502    0 -0.89930072326E+03 -0.11250875497E+04 -0.11472004898E+04  0.18413670870E+04  0.25500000920E-02 0.  1.
       -2    1    3    3    0  502  0.89930072326E+03  0.11250875497E+04 -0.62592215812E+03  0.15704592746E+04  0.25500000920E-02 0. -1.
</event>
<event>
 5   0  0.3592331E-06  0.3013632E+04  0.7818609E-02  0.8239849E-01
       -1   -1    0    0    0  501  0.00000000000E+00  0.00000000000E+00  0.15101385221E+04  0.15101385221E+04  0.50400001928E-02 0.  1.
        1   -1    0    0  501    0  0.00000000000E+00  0.00000000000E+00 -0.15035010599E+04  0.15035010599E+04  0.50400001928E-02 0. -1.
    10030    2    1    2    0    0  0.00000000000E+00  0.00000000000E+00  0.66374622747E+01  0.30136395820E+04  0.30136322726E+04 0.  0.
        3    1    3    3  502    0 -0.10105047691E+04  0.85804548058E+03 -0.71301597584E+03  0.15052420826E+04  0.10100000352E+00 0. -1.
       -3    1    3    3    0  502  0.10105047691E+04 -0.85804548058E+03  0.71965343811E+03  0.15083974994E+04  0.10100000352E+00 0.  1.
</event>
<event>
 5   0  0.3725232E-06  0.2350184E+04  0.7818609E-02  0.8458393E-01
       -1   -1    0    0    0  501  0.00000000000E+00  0.00000000000E+00  0.10254553029E+04  0.10254553029E+04  0.50400001928E-02 0. -1.
        1   -1    0    0  501    0  0.00000000000E+00  0.00000000000E+00 -0.13465645336E+04  0.13465645337E+04  0.50400001928E-02 0.  1.
    10030    2    1    2    0    0  0.00000000000E+00  0.00000000000E+00 -0.32110923080E+03  0.23720198365E+04  0.23501844538E+04 0.  0.
        2    1    3    3  502    0 -0.40844639748E+03  0.89344194660E+03  0.49024222161E+03  0.10979091071E+04  0.25500000920E-02 0. -1.
       -2    1    3    3    0  502  0.40844639748E+03 -0.89344194660E+03 -0.81135145241E+03  0.12741107294E+04  0.25500000920E-02 0.  1.
</event>
<event>
 5   0  0.1029922E-05  0.2944116E+04  0.7818609E-02  0.8259871E-01
        2   -1    0    0  501    0  0.00000000000E+00  0.00000000000E+00  0.14296829113E+04  0.14296829113E+04  0.25500000920E-02 0.  1.
       -2   -1    0    0    0  501  0.00000000000E+00  0.00000000000E+00 -0.15156887578E+04  0.15156887578E+04  0.25500000920E-02 0. -1.
    10030    2    1    2    0    0  0.00000000000E+00  0.00000000000E+00 -0.86005846454E+02  0.29453716691E+04  0.29441157015E+04 0.  0.
        1    1    3    3  502    0 -0.73647620489E+03 -0.88200010705E+03  0.87751618713E+03  0.14458063660E+04  0.50400001928E-02 0.  1.
       -1    1    3    3    0  502  0.73647620489E+03  0.88200010705E+03 -0.96352203358E+03  0.14995653032E+04  0.50400001928E-02 0. -1.
</event>
<event>
 5   0  0.3725232E-06  0.2943581E+04  0.7818609E-02  0.8260028E-01
        1   -1    0    0  501    0  0.00000000000E+00  0.00000000000E+00  0.16910831308E+04  0.16910831308E+04  0.50400001928E-02 0.  1.
       -1   -1    0    0    0  501  0.00000000000E+00  0.00000000000E+00 -0.12809349533E+04  0.12809349533E+04  0.50400001928E-02 0. -1.
    10030    2    1    2    0    0  0.00000000000E+00  0.00000000000E+00  0.41014817753E+03  0.29720180841E+04  0.29435811463E+04 0.  0.
        2    1    3    3  502    0 -0.79821539668E+03  0.12194802489E+04 -0.15676959638E+01  0.14574918026E+04  0.25500000920E-02 0.  1.
       -2    1    3    3    0  502  0.79821539668E+03 -0.12194802489E+04  0.41171587350E+03  0.15145262815E+04  0.25500000920E-02 0. -1.
</event>
<event>
 5   0  0.3896630E-06  0.2970339E+04  0.7818609E-02  0.8252252E-01
       -1   -1    0    0    0  501  0.00000000000E+00  0.00000000000E+00  0.17114467408E+04  0.17114467408E+04  0.50400001928E-02 0. -1.
        1   -1    0    0  501    0  0.00000000000E+00  0.00000000000E+00 -0.12888092368E+04  0.12888092368E+04  0.50400001928E-02 0.  1.
    10030    2    1    2    0    0  0.00000000000E+00  0.00000000000E+00  0.42263750399E+03  0.30002559777E+04  0.29703389490E+04 0.  0.
        5    1    3    3  502    0 -0.62289568735E+03 -0.13440359365E+04  0.31857032689E+03  0.15152362124E+04  0.46999998093E+01 0. -1.
       -5    1    3    3    0  502  0.62289568735E+03  0.13440359365E+04  0.10406717710E+03  0.14850197653E+04  0.46999998093E+01 0.  1.
</event>
<event>
 5   0  0.1089569E-05  0.3023321E+04  0.7818609E-02  0.8237103E-01
        2   -1    0    0  501    0  0.00000000000E+00  0.00000000000E+00  0.19078035095E+04  0.19078035095E+04  0.25500000920E-02 0.  1.
       -2   -1    0    0    0  501  0.00000000000E+00  0.00000000000E+00 -0.11977741391E+04  0.11977741391E+04  0.25500000920E-02 0. -1.
    10030    2    1    2    0    0  0.00000000000E+00  0.00000000000E+00  0.71002937048E+03  0.31055776486E+04  0.30233211580E+04 0.  0.
        5    1    3    3  502    0 -0.12760737203E+04 -0.77325713527E+03  0.10591981119E+03  0.14958381708E+04  0.46999998093E+01 0. -1.
       -5    1    3    3    0  502  0.12760737203E+04  0.77325713527E+03  0.60410955929E+03  0.16097394778E+04  0.46999998093E+01 0.  1.
</event>
<event>
 5   0  0.3725232E-06  0.2978060E+04  0.7818609E-02  0.8250024E-01
       -1   -1    0    0    0  501  0.00000000000E+00  0.00000000000E+00  0.10391542003E+04  0.10391542003E+04  0.50400001928E-02 0.  1.
        1   -1    0    0  501    0  0.00000000000E+00  0.00000000000E+00 -0.21336688994E+04  0.21336688994E+04  0.50400001928E-02 0. -1.
    10030    2    1    2    0    0  0.00000000000E+00  0.00000000000E+00 -0.10945146991E+04  0.31728230998E+04  0.29780604419E+04 0.  0.
        2    1    3    3  502    0  0.98852109425E+03 -0.56322749854E+03  0.47619806416E+03  0.12333546794E+04  0.25500000920E-02 0.  1.
       -2    1    3    3    0  502 -0.98852109425E+03  0.56322749854E+03 -0.15707127633E+04  0.19394684204E+04  0.25500000920E-02 0. -1.
</event>
<event>
 5   0  0.3592331E-06  0.2965079E+04  0.7818609E-02  0.8253774E-01
        1   -1    0    0  501    0  0.00000000000E+00  0.00000000000E+00  0.12084890075E+04  0.12084890075E+04  0.50400001928E-02 0.  1.
       -1   -1    0    0    0  501  0.00000000000E+00  0.00000000000E+00 -0.18187364046E+04  0.18187364046E+04  0.50400001928E-02 0. -1.
    10030    2    1    2    0    0  0.00000000000E+00  0.00000000000E+00 -0.61024739706E+03  0.30272254121E+04  0.29650787190E+04 0.  0.
        3    1    3    3  502    0  0.13854112306E+04  0.52638062922E+03 -0.26581877738E+03  0.15056893695E+04  0.10100000352E+00 0.  1.
       -3    1    3    3    0  502 -0.13854112306E+04 -0.52638062922E+03 -0.34442861968E+03  0.15215360426E+04  0.10100000352E+00 0. -1.
</event>
<event>
 5   0  0.3896630E-06  0.2966229E+04  0.7818609E-02  0.8253441E-01
        1   -1    0    0  501    0  0.00000000000E+00  0.00000000000E+00  0.21218823906E+04  0.21218823907E+04  0.50400001928E-02 0.  1.
       -1   -1    0    0    0  501  0.00000000000E+00  0.00000000000E+00 -0.10366401118E+04  0.10366401119E+04  0.50400001928E-02 0. -1.
    10030    2    1    2    0    0  0.00000000000E+00  0.00000000000E+00  0.10852422788E+04  0.31585225025E+04  0.29662288508E+04 0.  0.
        5    1    3    3  502    0  0.13740236974E+04  0.39348230361E+03  0.96432094070E+03  0.17241538246E+04  0.46999998093E+01 0.  1.
       -5    1    3    3    0  502 -0.13740236974E+04 -0.39348230361E+03  0.12092133810E+03  0.14343686779E+04  0.46999998093E+01 0. -1.
</event>
<event>
 5   0  0.9647945E-06  0.3068500E+04  0.7818609E-02  0.8224436E-01
       -2   -1    0    0    0  501  0.00000000000E+00  0.00000000000E+00  0.11575946260E+04  0.11575946260E+04  0.25500000920E-02 0. -1.
        2   -1    0    0  501    0  0.00000000000E+00  0.00000000000E+00 -0.20334603241E+04  0.20334603241E+04  0.25500000920E-02 0.  1.
    10030    2    1    2    0    0  0.00000000000E+00  0.00000000000E+00 -0.87586569811E+03  0.31910549501E+04  0.30684997920E+04 0.  0.
        2    1    3    3  502    0 -0.10908422225E+04 -0.12938115689E+03 -0.15518081047E+04  0.19012586967E+04  0.25500000920E-02 0.  1.
       -2    1    3    3    0  502  0.10908422225E+04  0.12938115689E+03  0.67594240658E+03  0.12897962533E+04  0.25500000920E-02 0. -1.
</event>
<event>
 5   0  0.1028450E-05  0.2032795E+04  0.7818609E-02  0.8591440E-01
       -2   -1    0    0    0  501  0.00000000000E+00  0.00000000000E+00  0.51304447497E+03  0.51304447498E+03  0.25500000920E-02 0.  1.
        2   -1    0    0  501    0  0.00000000000E+00  0.00000000000E+00 -0.20135945340E+04  0.20135945340E+04  0.25500000920E-02 0. -1.
    10030    2    1    2    0    0  0.00000000000E+00  0.00000000000E+00 -0.15005500590E+04  0.25266390090E+04  0.20327946778E+04 0.  0.
        3    1    3    3  502    0 -0.50388163346E+02  0.71543255314E+03 -0.16454332056E+04  0.17949465589E+04  0.10100000352E+00 0. -1.
       -3    1    3    3    0  502  0.50388163346E+02 -0.71543255314E+03  0.14488314659E+03  0.73169245005E+03  0.10100000352E+00 0.  1.
</event>
<event>
 5   0  0.3592331E-06  0.2998495E+04  0.7818609E-02  0.8244161E-01
       -1   -1    0    0    0  501  0.00000000000E+00  0.00000000000E+00  0.13855665749E+04  0.13855665749E+04  0.50400001928E-02 0. -1.
        1   -1    0    0  501    0  0.00000000000E+00  0.00000000000E+00 -0.16222553225E+04  0.16222553225E+04  0.50400001928E-02 0.  1.
    10030    2    1    2    0    0  0.00000000000E+00  0.00000000000E+00 -0.23668874761E+03  0.30078218974E+04  0.29984947896E+04 0.  0.
        3    1    3    3  502    0  0.61605175492E+03 -0.78127856605E+02  0.12504951470E+04  0.13961954912E+04  0.10100000352E+00 0. -1.
       -3    1    3    3    0  502 -0.61605175492E+03  0.78127856605E+02 -0.14871838946E+04  0.16116264063E+04  0.10100000352E+00 0.  1.
</event>
<event>
 5   0  0.1029922E-05  0.2059753E+04  0.7818609E-02  0.8579183E-01
       -2   -1    0    0    0  501  0.00000000000E+00  0.00000000000E+00  0.15008344935E+04  0.15008344935E+04  0.25500000920E-02 0. -1.
        2   -1    0    0  501    0  0.00000000000E+00  0.00000000000E+00 -0.70670409282E+03  0.70670409283E+03  0.25500000920E-02 0.  1.
    10030    2    1    2    0    0  0.00000000000E+00  0.00000000000E+00  0.79413040072E+03  0.22075385864E+04  0.20597532660E+04 0.  0.
        1    1    3    3  502    0  0.62193612419E+03 -0.55950740660E+03  0.10408223028E+04  0.13353516940E+04  0.50400001928E-02 0. -1.
       -1    1    3    3    0  502 -0.62193612419E+03  0.55950740660E+03 -0.24669190210E+03  0.87218689236E+03  0.50400001928E-02 0.  1.
</event>
<event>
 5   0  0.1029922E-05  0.1961008E+04  0.7818609E-02  0.8625071E-01
        2   -1    0    0  501    0  0.00000000000E+00  0.00000000000E+00  0.69388403573E+03  0.69388403573E+03  0.25500000920E-02 0.  1.
       -2   -1    0    0    0  501  0.00000000000E+00  0.00000000000E+00 -0.13855175927E+04  0.13855175927E+04  0.25500000920E-02 0. -1.
    10030    2    1    2    0    0  0.00000000000E+00  0.00000000000E+00 -0.69163355699E+03  0.20794016284E+04  0.19610084536E+04 0.  0.
        1    1    3    3  502    0  0.40257758685E+03  0.66941111117E+03  0.28259089330E+03  0.83068499576E+03  0.50400001928E-02 0.  1.
       -1    1    3    3    0  502 -0.40257758685E+03 -0.66941111117E+03 -0.97422445028E+03  0.12487166327E+04  0.50400001928E-02 0. -1.
</event>
<event>
 5   0  0.1089569E-05  0.3117325E+04  0.7818609E-02  0.8210999E-01
       -2   -1    0    0    0  501  0.00000000000E+00  0.00000000000E+00  0.14952710270E+04  0.14952710270E+04  0.25500000920E-02 0.  1.
        2   -1    0    0  501    0  0.00000000000E+00  0.00000000000E+00 -0.16247415139E+04  0.16247415139E+04  0.25500000920E-02 0. -1.
    10030    2    1    2    0    0  0.00000000000E+00  0.00000000000E+00 -0.12947048687E+03  0.31200125410E+04  0.31173250791E+04 0.  0.
        5    1    3    3  502    0 -0.11717082137E+04  0.53964445024E+03  0.81082779942E+03  0.15236732199E+04  0.46999998093E+01 0.  1.
       -5    1    3    3    0  502  0.11717082137E+04 -0.53964445024E+03 -0.94029828630E+03  0.15963393211E+04  0.46999998093E+01 0. -1.
</event>
<event>
 5   0  0.1028450E-05  0.2158856E+04  0.7818609E-02  0.8535751E-01
       -2   -1    0    0    0  501  0.00000000000E+00  0.00000000000E+00  0.71601428260E+03  0.71601428261E+03  0.25500000920E-02 0. -1.
        2   -1    0    0  501    0  0.00000000000E+00  0.00000000000E+00 -0.16272921039E+04  0.16272921039E+04  0.25500000920E-02 0.  1.
    10030    2    1    2    0    0  0.00000000000E+00  0.00000000000E+00 -0.91127782133E+03  0.23433063865E+04  0.21588556120E+04 0.  0.
        3    1    3    3  502    0 -0.59084223988E+03  0.89522610298E+03 -0.32430503401E+03  0.11205793560E+04  0.10100000352E+00 0. -1.
       -3    1    3    3    0  502  0.59084223988E+03 -0.89522610298E+03 -0.58697278732E+03  0.12227270305E+04  0.10100000352E+00 0.  1.
</event>
<event>
 5   0  0.3852126E-06  0.2988439E+04  0.7818609E-02  0.8247040E-01
        1   -1    0    0  501    0  0.00000000000E+00  0.00000000000E+00  0.18704292584E+04  0.18704292584E+04  0.50400001928E-02 0. -1.
       -1   -1    0    0    0  501  0.00000000000E+00  0.00000000000E+00 -0.11936787314E+04  0.11936787314E+04  0.50400001928E-02 0.  1.
    10030    2    1    2    0    0  0.00000000000E+00  0.00000000000E+00  0.67675052696E+03  0.30641079898E+04  0.29884388061E+04 0.  0.
        1    1    3    3  502    0  0.17253752427E+03 -0.11593951666E+04  0.12885135592E+04  0.17419051472E+04  0.50400001928E-02 0. -1.
       -1    1    3    3    0  502 -0.17253752427E+03  0.11593951666E+04 -0.61176303224E+03  0.13222028427E+04  0.50400001928E-02 0.  1.
</event>
<event>
 5   0  0.3852126E-06  0.2870983E+04  0.7818609E-02  0.8281564E-01
       -1   -1    0    0    0  501  0.00000000000E+00  0.00000000000E+00  0.29420938443E+04  0.29420938443E+04  0.50400001928E-02 0. -1.
        1   -1    0    0  501    0  0.00000000000E+00  0.00000000000E+00 -0.70039774272E+03  0.70039774274E+03  0.50400001928E-02 0.  1.
    10030    2    1    2    0    0  0.00000000000E+00  0.00000000000E+00  0.22416961016E+04  0.36424915871E+04  0.28709830285E+04 0.  0.
        1    1    3    3  502    0 -0.10445858417E+03  0.14246080488E+04  0.13012402214E+04  0.19322644235E+04  0.50400001928E-02 0.  1.
       -1    1    3    3    0  502  0.10445858417E+03 -0.14246080488E+04  0.94045588018E+03  0.17102271636E+04  0.50400001928E-02 0. -1.
</event>
<event>
 5   0  0.3592331E-06  0.2997878E+04  0.7818609E-02  0.8244337E-01
        1   -1    0    0  501    0  0.00000000000E+00  0.00000000000E+00  0.13367191203E+04  0.13367191203E+04  0.50400001928E-02 0.  1.
       -1   -1    0    0    0  501  0.00000000000E+00  0.00000000000E+00 -0.16808453537E+04  0.16808453538E+04  0.50400001928E-02 0. -1.
    10030    2    1    2    0    0  0.00000000000E+00  0.00000000000E+00 -0.34412623348E+03  0.30175644740E+04  0.29978779979E+04 0.  0.
        3    1    3    3  502    0  0.13938275023E+04 -0.26939218532E+03  0.31223136921E+03  0.14535527833E+04  0.10100000352E+00 0.  1.
       -3    1    3    3    0  502 -0.13938275023E+04  0.26939218532E+03 -0.65635760269E+03  0.15640116907E+04  0.10100000352E+00 0. -1.
</event>
<event>
 5   0  0.1089569E-05  0.3035443E+04  0.7818609E-02  0.8233682E-01
       -2   -1    0    0    0  501  0.00000000000E+00  0.00000000000E+00  0.10984671816E+04  0.10984671816E+04  0.25500000920E-02 0.  1.
        2   -1    0    0  501    0  0.00000000000E+00  0.00000000000E+00 -0.20969938425E+04  0.20969938425E+04  0.25500000920E-02 0. -1.
    10030    2    1    2    0    0  0.00000000000E+00  0.00000000000E+00 -0.99852666096E+03  0.31954610241E+04  0.30354432401E+04 0.  0.
        5    1    3    3  502    0 -0.27187259422E+02 -0.80909541451E+02 -0.20944574973E+04  0.20962012782E+04  0.46999998093E+01 0. -1.
       -5    1    3    3    0  502  0.27187259422E+02  0.80909541451E+02  0.10959308363E+04  0.10992597459E+04  0.46999998093E+01 0.  1.
</event>
<event>
 5   0  0.1029922E-05  0.2860911E+04  0.7818609E-02  0.8284604E-01
       -2   -1    0    0    0  501  0.00000000000E+00  0.00000000000E+00  0.92425497779E+03  0.92425497779E+03  0.25500000920E-02 0.  1.
        2   -1    0    0  501    0  0.00000000000E+00  0.00000000000E+00 -0.22138943015E+04  0.22138943015E+04  0.25500000920E-02 0. -1.
    10030    2    1    2    0    0  0.00000000000E+00  0.00000000000E+00 -0.12896393237E+04  0.31381492793E+04  0.28609109238E+04 0.  0.
        1    1    3    3  502    0 -0.12092878952E+04 -0.38474065037E+03 -0.13689437570E+04  0.18666573310E+04  0.50400001928E-02 0. -1.
       -1    1    3    3    0  502  0.12092878952E+04  0.38474065037E+03  0.79304433241E+02  0.12714919483E+04  0.50400001928E-02 0.  1.
</event>
<event>
 5   0  0.3896630E-06  0.2975850E+04  0.7818609E-02  0.8250661E-01
        1   -1    0    0  501    0  0.00000000000E+00  0.00000000000E+00  0.20650374873E+04  0.20650374873E+04  0.50400001928E-02 0. -1.
       -1   -1    0    0    0  501  0.00000000000E+00  0.00000000000E+00 -0.10720968371E+04  0.10720968371E+04  0.50400001928E-02 0.  1.
    10030    2    1    2    0    0  0.00000000000E+00  0.00000000000E+00  0.99294065029E+03  0.31371343244E+04  0.29758495651E+04 0.  0.
        5    1    3    3  502    0  0.61983997933E+03  0.13129243575E+04  0.15336802235E+03  0.14599711671E+04  0.46999998093E+01 0.  1.
       -5    1    3    3    0  502 -0.61983997933E+03 -0.13129243575E+04  0.83957262795E+03  0.16771631573E+04  0.46999998093E+01 0. -1.
</event>
<event>
 5   0  0.3896630E-06  0.3007904E+04  0.7818609E-02  0.8241477E-01
        1   -1    0    0  501    0  0.00000000000E+00  0.00000000000E+00  0.14473521440E+04  0.14473521440E+04  0.50400001928E-02 0.  1.
       -1   -1    0    0    0  501  0.00000000000E+00  0.00000000000E+00 -0.15627655989E+04  0.15627655989E+04  0.50400001928E-02 0. -1.
    10030    2    1    2    0    0  0.00000000000E+00  0.00000000000E+00 -0.11541345487E+03  0.30101177429E+04  0.30079043469E+04 0.  0.
        5    1    3    3  502    0  0.67881679524E+03  0.12736487224E+04 -0.48095617380E+03  0.15212870343E+04  0.46999998093E+01 0. -1.
       -5    1    3    3    0  502 -0.67881679524E+03 -0.12736487224E+04  0.36554271894E+03  0.14888307086E+04  0.46999998093E+01 0.  1.
</event>
<event>
 5   0  0.1029922E-05  0.2603740E+04  0.7818609E-02  0.8366932E-01
        2   -1    0    0  501    0  0.00000000000E+00  0.00000000000E+00  0.78863372524E+03  0.78863372524E+03  0.25500000920E-02 0.  1.
       -2   -1    0    0    0  501  0.00000000000E+00  0.00000000000E+00 -0.21491159906E+04  0.21491159906E+04  0.25500000920E-02 0. -1.
    10030    2    1    2    0    0  0.00000000000E+00  0.00000000000E+00 -0.13604822653E+04  0.29377497158E+04  0.26037398869E+04 0.  0.
        1    1    3    3  502    0  0.28211920455E+03 -0.50229523026E+03 -0.19974690290E+04  0.20788877473E+04  0.50400001928E-02 0. -1.
       -1    1    3    3    0  502 -0.28211920455E+03  0.50229523026E+03  0.63698676366E+03  0.85886196855E+03  0.50400001928E-02 0.  1.
</event>
<event>
 5   0  0.3592331E-06  0.2993092E+04  0.7818609E-02  0.8245706E-01
       -1   -1    0    0    0  501  0.00000000000E+00  0.00000000000E+00  0.22850922047E+04  0.22850922047E+04  0.50400001928E-02 0. -1.
        1   -1    0    0  501    0  0.00000000000E+00  0.00000000000E+00 -0.98011338393E+03  0.98011338394E+03  0.50400001928E-02 0.  1.
    10030    2    1    2    0    0  0.00000000000E+00  0.00000000000E+00  0.13049788207E+04  0.32652055886E+04  0.29930916814E+04 0.  0.
        3    1    3    3  502    0 -0.47930660603E+03 -0.44466046709E+03 -0.81607357736E+03  0.10456738724E+04  0.10100000352E+00 0.  1.
       -3    1    3    3    0  502  0.47930660603E+03  0.44466046709E+03  0.21210523981E+04  0.22195317162E+04  0.10100000352E+00 0. -1.
</event>
<event>
 5   0  0.3725232E-06  0.2993540E+04  0.7818609E-02  0.8245578E-01
        1   -1    0    0  501    0  0.00000000000E+00  0.00000000000E+00  0.27837238786E+04  0.27837238786E+04  0.50400001928E-02 0. -1.
       -1   -1    0    0    0  501  0.00000000000E+00  0.00000000000E+00 -0.80479238790E+03  0.80479238791E+03  0.50400001928E-02 0.  1.
    10030    2    1    2    0    0  0.00000000000E+00  0.00000000000E+00  0.19789314907E+04  0.35885162665E+04  0.29935395688E+04 0.  0.
        2    1    3    3  502    0 -0.14517222862E+04  0.48081530940E+01  0.55262067656E+03  0.15533545400E+04  0.25500000920E-02 0. -1.
       -2    1    3    3    0  502  0.14517222862E+04 -0.48081530940E+01  0.14263108141E+04  0.20351617265E+04  0.25500000920E-02 0.  1.
</event>
<event>
 5   0  0.3636718E-06  0.2958322E+04  0.7818609E-02  0.8255733E-01
       -1   -1    0    0    0  501  0.00000000000E+00  0.00000000000E+00  0.98961432380E+03  0.98961432381E+03  0.50400001928E-02 0. -1.
        1   -1    0    0  501    0  0.00000000000E+00  0.00000000000E+00 -0.22108787961E+04  0.22108787961E+04  0.50400001928E-02 0.  1.
    10030    2    1    2    0    0  0.00000000000E+00  0.00000000000E+00 -0.12212644723E+04  0.32004931199E+04  0.29583220412E+04 0.  0.
        4    1    3    3  502    0  0.74481594062E+03  0.30909806085E+03  0.73088552366E+03  0.10883417010E+04  0.12699999809E+01 0. -1.
       -4    1    3    3    0  502 -0.74481594062E+03 -0.30909806085E+03 -0.19521499960E+04  0.21121514189E+04  0.12699999809E+01 0.  1.
</event>
<event>
 5   0  0.3636718E-06  0.2931367E+04  0.7818609E-02  0.8263605E-01
        1   -1    0    0  501    0  0.00000000000E+00  0.00000000000E+00  0.10285043486E+04  0.10285043486E+04  0.50400001928E-02 0.  1.
       -1   -1    0    0    0  501  0.00000000000E+00  0.00000000000E+00 -0.20886920107E+04  0.20886920107E+04  0.50400001928E-02 0. -1.
    10030    2    1    2    0    0  0.00000000000E+00  0.00000000000E+00 -0.10601876620E+04  0.31171963593E+04  0.29313674733E+04 0.  0.
        4    1    3    3  502    0 -0.62801719960E+03 -0.23628289848E+03 -0.19157698935E+04  0.20298795799E+04  0.12699999809E+01 0. -1.
       -4    1    3    3    0  502  0.62801719960E+03  0.23628289848E+03  0.85558223145E+03  0.10873167794E+04  0.12699999809E+01 0.  1.
</event>
<event>
 5   0  0.3852126E-06  0.3033577E+04  0.7818609E-02  0.8234207E-01
       -1   -1    0    0    0  501  0.00000000000E+00  0.00000000000E+00  0.13519572651E+04  0.13519572651E+04  0.50400001928E-02 0.  1.
        1   -1    0    0  501    0  0.00000000000E+00  0.00000000000E+00 -0.17017163363E+04  0.17017163363E+04  0.50400001928E-02 0. -1.
    10030    2    1    2    0    0  0.00000000000E+00  0.00000000000E+00 -0.34975907123E+03  0.30536736015E+04  0.30335772705E+04 0.  0.
        1    1    3    3  502    0  0.11906368721E+04  0.34801481380E+03  0.70378170269E+03  0.14261974467E+04  0.50400001928E-02 0.  1.
       -1    1    3    3    0  502 -0.11906368721E+04 -0.34801481380E+03 -0.10535407739E+04  0.16274761548E+04  0.50400001928E-02 0. -1.
</event>
<event>
 5   0  0.3592331E-06  0.3040762E+04  0.7818609E-02  0.8232186E-01
        1   -1    0    0  501    0  0.00000000000E+00  0.00000000000E+00  0.13509542619E+04  0.13509542619E+04  0.50400001928E-02 0. -1.
       -1   -1    0    0    0  501  0.00000000000E+00  0.00000000000E+00 -0.17110561555E+04  0.17110561555E+04  0.50400001928E-02 0.  1.
    10030    2    1    2    0    0  0.00000000000E+00  0.00000000000E+00 -0.36010189356E+03  0.30620104174E+04  0.30407621450E+04 0.  0.
        3    1    3    3  502    0 -0.83508244401E+02  0.64455583683E+03 -0.15641126484E+04  0.16937751446E+04  0.10100000352E+00 0.  1.
       -3    1    3    3    0  502  0.83508244401E+02 -0.64455583683E+03  0.12040107548E+04  0.13682352727E+04  0.10100000352E+00 0. -1.
</event>
<event>
 5   0  0.3636718E-06  0.2969689E+04  0.7818609E-02  0.8252440E-01
        1   -1    0    0  501    0  0.00000000000E+00  0.00000000000E+00  0.14965247056E+04  0.14965247056E+04  0.50400001928E-02 0.  1.
       -1   -1    0    0    0  501  0.00000000000E+00  0.00000000000E+00 -0.14732556827E+04  0.14732556827E+04  0.50400001928E-02 0. -1.
    10030    2    1    2    0    0  0.00000000000E+00  0.00000000000E+00  0.23269022862E+02  0.29697803883E+04  0.29696892274E+04 0.  0.
        4    1    3    3  502    0 -0.77872546351E+03  0.13674789896E+03  0.12685138061E+04  0.14947381792E+04  0.12699999809E+01 0.  1.
       -4    1    3    3    0  502  0.77872546351E+03 -0.13674789896E+03 -0.12452447832E+04  0.14750422090E+04  0.12699999809E+01 0. -1.
</event>
<event>
 5   0  0.1089569E-05  0.2977341E+04  0.7818609E-02  0.8250231E-01
        2   -1    0    0  501    0  0.00000000000E+00  0.00000000000E+00  0.12633818950E+04  0.12633818950E+04  0.25500000920E-02 0.  1.
       -2   -1    0    0    0  501  0.00000000000E+00  0.00000000000E+00 -0.17541331723E+04  0.17541331723E+04  0.25500000920E-02 0. -1.
    10030    2    1    2    0    0  0.00000000000E+00  0.00000000000E+00 -0.49075127733E+03  0.30175150673E+04  0.29773411570E+04 0.  0.
        5    1    3    3  502    0 -0.13816976659E+04 -0.28313773929E+03  0.23735212958E+03  0.14302494687E+04  0.46999998093E+01 0.  1.
       -5    1    3    3    0  502  0.13816976659E+04  0.28313773929E+03 -0.72810340691E+03  0.15872655986E+04  0.46999998093E+01 0. -1.
</event>
<event>
 5   0  0.3636718E-06  0.2487945E+04  0.7818609E-02  0.8407293E-01
       -1   -1    0    0    0  501  0.00000000000E+00  0.00000000000E+00  0.17746460074E+04  0.17746460075E+04  0.50400001928E-02 0. -1.
        1   -1    0    0  501    0  0.00000000000E+00  0.00000000000E+00 -0.87198690406E+03  0.87198690407E+03  0.50400001928E-02 0.  1.
    10030    2    1    2    0    0  0.00000000000E+00  0.00000000000E+00  0.90265910339E+03  0.26466329115E+04  0.24879453996E+04 0.  0.
        4    1    3    3  502    0  0.12090643093E+04  0.29252905224E+03  0.44331830592E+03  0.13205841449E+04  0.12699999809E+01 0. -1.
       -4    1    3    3    0  502 -0.12090643093E+04 -0.29252905224E+03  0.45934079747E+03  0.13260487667E+04  0.12699999809E+01 0.  1.
</event>
<event>
 5   0  0.3592331E-06  0.3035004E+04  0.7818609E-02  0.8233805E-01
       -1   -1    0    0    0  501  0.00000000000E+00  0.00000000000E+00  0.98031981527E+03  0.98031981528E+03  0.50400001928E-02 0. -1.
        1   -1    0    0  501    0  0.00000000000E+00  0.00000000000E+00 -0.23490425492E+04  0.23490425492E+04  0.50400001928E-02 0.  1.
    10030    2    1    2    0    0  0.00000000000E+00  0.00000000000E+00 -0.13687227339E+04  0.33293623644E+04  0.30350044203E+04 0.  0.
        3    1    3    3  502    0 -0.29137810045E+03 -0.14090268556E+04 -0.15535043767E+03  0.14472013149E+04  0.10100000352E+00 0. -1.
       -3    1    3    3    0  502  0.29137810045E+03  0.14090268556E+04 -0.12133722962E+04  0.18821610496E+04  0.10100000352E+00 0.  1.
</event>
<event>
 5   0  0.3725232E-06  0.3017645E+04  0.7818609E-02  0.8238710E-01
        1   -1    0    0  501    0  0.00000000000E+00  0.00000000000E+00  0.13881768278E+04  0.13881768278E+04  0.50400001928E-02 0.  1.
       -1   -1    0    0    0  501  0.00000000000E+00  0.00000000000E+00 -0.16399528954E+04  0.16399528954E+04  0.50400001928E-02 0. -1.
    10030    2    1    2    0    0  0.00000000000E+00  0.00000000000E+00 -0.25177606767E+03  0.30281297232E+04  0.30176445172E+04 0.  0.
        2    1    3    3  502    0 -0.78676772146E+03  0.10814852046E+04 -0.82683565300E+03  0.15723456657E+04  0.25500000920E-02 0. -1.
       -2    1    3    3    0  502  0.78676772146E+03 -0.10814852046E+04  0.57505958534E+03  0.14557840575E+04  0.25500000920E-02 0.  1.
</event>
<event>
 5   0  0.1029922E-05  0.2923217E+04  0.7818609E-02  0.8266003E-01
       -2   -1    0    0    0  501  0.00000000000E+00  0.00000000000E+00  0.18608985036E+04  0.18608985036E+04  0.25500000920E-02 0.  1.
        2   -1    0    0  501    0  0.00000000000E+00  0.00000000000E+00 -0.11479935166E+04  0.11479935166E+04  0.25500000920E-02 0. -1.
    10030    2    1    2    0    0  0.00000000000E+00  0.00000000000E+00  0.71290498705E+03  0.30088920202E+04  0.29232170068E+04 0.  0.
        1    1    3    3  502    0  0.40362949996E+03  0.60771213521E+03 -0.94718551827E+03  0.11955715029E+04  0.50400001928E-02 0. -1.
       -1    1    3    3    0  502 -0.40362949996E+03 -0.60771213521E+03  0.16600905053E+04  0.18133205173E+04  0.50400001928E-02 0.  1.
</event>
<event>
 5   0  0.3852126E-06  0.3171865E+04  0.7818609E-02  0.8196287E-01
       -1   -1    0    0    0  501  0.00000000000E+00  0.00000000000E+00  0.21938789235E+04  0.21938789235E+04  0.50400001928E-02 0.  1.
        1   -1    0    0  501    0  0.00000000000E+00  0.00000000000E+00 -0.11464541069E+04  0.11464541069E+04  0.50400001928E-02 0. -1.
    10030    2    1    2    0    0  0.00000000000E+00  0.00000000000E+00  0.10474248166E+04  0.33403330304E+04  0.31718647524E+04 0.  0.
        1    1    3    3  502    0 -0.11309136203E+04 -0.42010415756E+03 -0.56039519467E+03  0.13302240014E+04  0.50400001928E-02 0. -1.
       -1    1    3    3    0  502  0.11309136203E+04  0.42010415756E+03  0.16078200113E+04  0.20101090290E+04  0.50400001928E-02 0.  1.
</event>
<event>
 5   0  0.9647945E-06  0.3019352E+04  0.7818609E-02  0.8238226E-01
       -2   -1    0    0    0  501  0.00000000000E+00  0.00000000000E+00  0.92090877910E+03  0.92090877910E+03  0.25500000920E-02 0.  1.
        2   -1    0    0  501    0  0.00000000000E+00  0.00000000000E+00 -0.24748621572E+04  0.24748621572E+04  0.25500000920E-02 0. -1.
    10030    2    1    2    0    0  0.00000000000E+00  0.00000000000E+00 -0.15539533781E+04  0.33957709363E+04  0.30193524390E+04 0.  0.
        2    1    3    3  502    0  0.10138068367E+04  0.11186118232E+04 -0.78266427492E+03  0.17004881889E+04  0.25500000920E-02 0.  1.
       -2    1    3    3    0  502 -0.10138068367E+04 -0.11186118232E+04 -0.77128910322E+03  0.16952827475E+04  0.25500000920E-02 0. -1.
</event>
<event>
 5   0  0.3313750E-06  0.2992319E+04  0.7818609E-02  0.8245928E-01
       -3   -1    0    0    0  501  0.00000000000E+00  0.00000000000E+00  0.93914696366E+03  0.93914696910E+03  0.10100000352E+00 0.  1.
        3   -1    0    0  501    0  0.00000000000E+00  0.00000000000E+00 -0.23835389431E+04  0.23835389452E+04  0.10100000352E+00 0. -1.
    10030    2    1    2    0    0  0.00000000000E+00  0.00000000000E+00 -0.14443919794E+04  0.33226859143E+04  0.29923190831E+04 0.  0.
        5    1    3    3  502    0  0.30524960521E+03 -0.11013684314E+04 -0.17943444611E+04  0.21274124843E+04  0.46999998093E+01 0. -1.
       -5    1    3    3    0  502 -0.30524960521E+03  0.11013684314E+04  0.34995248166E+03  0.11952734301E+04  0.46999998093E+01 0.  1.
</event>
<event>
 5   0  0.3852126E-06  0.3044585E+04  0.7818609E-02  0.8231113E-01
        1   -1    0    0  501    0  0.00000000000E+00  0.00000000000E+00  0.21008248422E+04  0.21008248422E+04  0.50400001928E-02 0.  1.
       -1   -1    0    0    0  501  0.00000000000E+00  0.00000000000E+00 -0.11030785642E+04  0.11030785643E+04  0.50400001928E-02 0. -1.
    10030    2    1    2    0    0  0.00000000000E+00  0.00000000000E+00  0.99774627792E+03  0.32039034064E+04  0.30445852595E+04 0.  0.
        1    1    3    3  502    0  0.47597507680E+03  0.14006579562E+04  0.87680389419E+03  0.17196453277E+04  0.50400001928E-02 0.  1.
       -1    1    3    3    0  502 -0.47597507680E+03 -0.14006579562E+04  0.12094238373E+03  0.14842580787E+04  0.50400001928E-02 0. -1.
</event>
<event>
 5   0  0.3592331E-06  0.3021647E+04  0.7818609E-02  0.8237576E-01
       -1   -1    0    0    0  501  0.00000000000E+00  0.00000000000E+00  0.14292823492E+04  0.14292823492E+04  0.50400001928E-02 0. -1.
        1   -1    0    0  501    0  0.00000000000E+00  0.00000000000E+00 -0.15970169723E+04  0.15970169723E+04  0.50400001928E-02 0.  1.
    10030    2    1    2    0    0  0.00000000000E+00  0.00000000000E+00 -0.16773462312E+03  0.30262993216E+04  0.30216473454E+04 0.  0.
        3    1    3    3  502    0 -0.10771947271E+03  0.14214939648E+04 -0.58497707672E+03  0.15409239979E+04  0.10100000352E+00 0.  1.
       -3    1    3    3    0  502  0.10771947271E+03 -0.14214939648E+04  0.41724245361E+03  0.14853753237E+04  0.10100000352E+00 0. -1.
</event>
<event>
 5   0  0.1028450E-05  0.3026363E+04  0.7818609E-02  0.8236243E-01
       -2   -1    0    0    0  501  0.00000000000E+00  0.00000000000E+00  0.11559201187E+04  0.11559201187E+04  0.25500000920E-02 0. -1.
        2   -1    0    0  501    0  0.00000000000E+00  0.00000000000E+00 -0.19808618986E+04  0.19808618986E+04  0.25500000920E-02 0.  1.
    10030    2    1    2    0    0  0.00000000000E+00  0.00000000000E+00 -0.82494177992E+03  0.31367820172E+04  0.30263629134E+04 0.  0.
        3    1    3    3  502    0  0.86693144665E+02  0.33913302754E+03 -0.19383212604E+04  0.19696741432E+04  0.10100000352E+00 0.  1.
       -3    1    3    3    0  502 -0.86693144665E+02 -0.33913302754E+03  0.11133794805E+04  0.11671078740E+04  0.10100000352E+00 0. -1.
</event>
<event>
 5   0  0.1057036E-05  0.2971544E+04  0.7818609E-02  0.8251904E-01
       -2   -1    0    0    0  501  0.00000000000E+00  0.00000000000E+00  0.14965250736E+04  0.14965250736E+04  0.25500000920E-02 0. -1.
        2   -1    0    0  501    0  0.00000000000E+00  0.00000000000E+00 -0.14750961554E+04  0.14750961554E+04  0.25500000920E-02 0.  1.
    10030    2    1    2    0    0  0.00000000000E+00  0.00000000000E+00  0.21428918196E+02  0.29716212290E+04  0.29715439640E+04 0.  0.
        4    1    3    3  502    0 -0.13235610095E+04  0.56826726923E+03 -0.35367851463E+03  0.14831829084E+04  0.12699999809E+01 0.  1.
       -4    1    3    3    0  502  0.13235610095E+04 -0.56826726923E+03  0.37510743282E+03  0.14884383206E+04  0.12699999809E+01 0. -1.
</event>
<event>
 5   0  0.3852126E-06  0.2111951E+04  0.7818609E-02  0.8555997E-01
       -1   -1    0    0    0  501  0.00000000000E+00  0.00000000000E+00  0.40217948122E+03  0.40217948125E+03  0.50400001928E-02 0. -1.
        1   -1    0    0  501    0  0.00000000000E+00  0.00000000000E+00 -0.27726042072E+04  0.27726042072E+04  0.50400001928E-02 0.  1.
    10030    2    1    2    0    0  0.00000000000E+00  0.00000000000E+00 -0.23704247260E+04  0.31747836884E+04  0.21119512511E+04 0.  0.
        1    1    3    3  502    0 -0.10093595889E+04 -0.29036592470E+03 -0.13496470167E+04  0.17101655533E+04  0.50400001928E-02 0.  1.
       -1    1    3    3    0  502  0.10093595889E+04  0.29036592470E+03 -0.10207777092E+04  0.14646181351E+04  0.50400001928E-02 0. -1.
</event>
<event>
 5   0  0.3896630E-06  0.3004053E+04  0.7818609E-02  0.8242575E-01
       -1   -1    0    0    0  501  0.00000000000E+00  0.00000000000E+00  0.15100082139E+04  0.15100082140E+04  0.50400001928E-02 0.  1.
        1   -1    0    0  501    0  0.00000000000E+00  0.00000000000E+00 -0.14940867040E+04  0.14940867040E+04  0.50400001928E-02 0. -1.
    10030    2    1    2    0    0  0.00000000000E+00  0.00000000000E+00  0.15921509924E+02  0.30040949180E+04  0.30040527262E+04 0.  0.
        5    1    3    3  502    0 -0.40097432949E+03  0.14458136638E+04  0.77987034081E+02  0.15024185938E+04  0.46999998093E+01 0.  1.
       -5    1    3    3    0  502  0.40097432949E+03 -0.14458136638E+04 -0.62065524157E+02  0.15016763242E+04  0.46999998093E+01 0. -1.
</event>
<event>
 5   0  0.1028450E-05  0.2769185E+04  0.7818609E-02  0.8312899E-01
        2   -1    0    0  501    0  0.00000000000E+00  0.00000000000E+00  0.11424306670E+04  0.11424306670E+04  0.25500000920E-02 0. -1.
       -2   -1    0    0    0  501  0.00000000000E+00  0.00000000000E+00 -0.16780858276E+04  0.16780858276E+04  0.25500000920E-02 0.  1.
    10030    2    1    2    0    0  0.00000000000E+00  0.00000000000E+00 -0.53565516060E+03  0.28205164946E+04  0.27691852313E+04 0.  0.
        3    1    3    3  502    0 -0.33116547429E+03 -0.93657076391E+03 -0.12502066979E+04  0.15968256526E+04  0.10100000352E+00 0.  1.
       -3    1    3    3    0  502  0.33116547429E+03  0.93657076391E+03  0.71455153725E+03  0.12236908420E+04  0.10100000352E+00 0. -1.
</event>
<event>
 5   0  0.3636718E-06  0.3030258E+04  0.7818609E-02  0.8235143E-01
       -1   -1    0    0    0  501  0.00000000000E+00  0.00000000000E+00  0.10620270028E+04  0.10620270028E+04  0.50400001928E-02 0.  1.
        1   -1    0    0  501    0  0.00000000000E+00  0.00000000000E+00 -0.21615419146E+04  0.21615419146E+04  0.50400001928E-02 0. -1.
    10030    2    1    2    0    0  0.00000000000E+00  0.00000000000E+00 -0.10995149118E+04  0.32235689174E+04  0.30302579962E+04 0.  0.
        4    1    3    3  502    0  0.62133435727E+02 -0.36369183986E+03 -0.21130207937E+04  0.21449920292E+04  0.12699999809E+01 0. -1.
       -4    1    3    3    0  502 -0.62133435727E+02  0.36369183986E+03  0.10135058818E+04  0.10785768881E+04  0.12699999809E+01 0.  1.
</event>
<event>
 5   0  0.1028450E-05  0.3065786E+04  0.7818609E-02  0.8225191E-01
        2   -1    0    0  501    0  0.00000000000E+00  0.00000000000E+00  0.16108336455E+04  0.16108336455E+04  0.25500000920E-02 0. -1.
       -2   -1    0    0    0  501  0.00000000000E+00  0.00000000000E+00 -0.14587230651E+04  0.14587230651E+04  0.25500000920E-02 0.  1.
    10030    2    1    2    0    0  0.00000000000E+00  0.00000000000E+00  0.15211058041E+03  0.30695567106E+04  0.30657855063E+04 0.  0.
        3    1    3    3  502    0 -0.24399252567E+03 -0.14570402331E+04 -0.33342405840E+03  0.15144867799E+04  0.10100000352E+00 0.  1.
       -3    1    3    3    0  502  0.24399252567E+03  0.14570402331E+04  0.48553463881E+03  0.15550699307E+04  0.10100000352E+00 0. -1.
</event>
<event>
 5   0  0.3313750E-06  0.2020570E+04  0.7818609E-02  0.8597064E-01
        3   -1    0    0  501    0  0.00000000000E+00  0.00000000000E+00  0.72250651502E+03  0.72250652207E+03  0.10100000352E+00 0.  1.
       -3   -1    0    0    0  501  0.00000000000E+00  0.00000000000E+00 -0.14126868050E+04  0.14126868086E+04  0.10100000352E+00 0. -1.
    10030    2    1    2    0    0  0.00000000000E+00  0.00000000000E+00 -0.69018028995E+03  0.21351933306E+04  0.20205696540E+04 0.  0.
        3    1    3    3  502    0 -0.74796983876E+03  0.25581575536E+03  0.31970443437E+03  0.85270834166E+03  0.10100000352E+00 0.  1.
       -3    1    3    3    0  502  0.74796983876E+03 -0.25581575536E+03 -0.10098847243E+04  0.12824849890E+04  0.10100000352E+00 0. -1.
</event>
<event>
 5   0  0.3725232E-06  0.3021747E+04  0.7818609E-02  0.8237548E-01
       -1   -1    0    0    0  501  0.00000000000E+00  0.00000000000E+00  0.12028749795E+04  0.12028749795E+04  0.50400001928E-02 0. -1.
        1   -1    0    0  501    0  0.00000000000E+00  0.00000000000E+00 -0.18977360614E+04  0.18977360614E+04  0.50400001928E-02 0.  1.
    10030    2    1    2    0    0  0.00000000000E+00  0.00000000000E+00 -0.69486108187E+03  0.31006110409E+04  0.30217473263E+04 0.  0.
        2    1    3    3  502    0 -0.59143725497E+03 -0.46573334248E+03  0.99673278801E+03  0.12490723852E+04  0.25500000920E-02 0. -1.
       -2    1    3    3    0  502  0.59143725497E+03  0.46573334248E+03 -0.16915938699E+04  0.18515386557E+04  0.25500000920E-02 0.  1.
</event>
<event>
 5   0  0.1089569E-05  0.2972149E+04  0.7818609E-02  0.8251729E-01
       -2   -1    0    0    0  501  0.00000000000E+00  0.00000000000E+00  0.20576123594E+04  0.20576123594E+04  0.25500000920E-02 0. -1.
        2   -1    0    0  501    0  0.00000000000E+00  0.00000000000E+00 -0.10732915917E+04  0.10732915917E+04  0.25500000920E-02 0.  1.
    10030    2    1    2    0    0  0.00000000000E+00  0.00000000000E+00  0.98432076772E+03  0.31309039511E+04  0.29721494204E+04 0.  0.
        5    1    3    3  502    0 -0.11738332003E+04  0.53341524335E+03  0.12705326858E+04  0.18101634179E+04  0.46999998093E+01 0. -1.
       -5    1    3    3    0  502  0.11738332003E+04 -0.53341524335E+03 -0.28621191810E+03  0.13207405332E+04  0.46999998093E+01 0.  1.
</event>
<event>
 5   0  0.3852126E-06  0.2914142E+04  0.7818609E-02  0.8268682E-01
       -1   -1    0    0    0  501  0.00000000000E+00  0.00000000000E+00  0.97168487083E+03  0.97168487084E+03  0.50400001928E-02 0.  1.
        1   -1    0    0  501    0  0.00000000000E+00  0.00000000000E+00 -0.21849224193E+04  0.21849224193E+04  0.50400001928E-02 0. -1.
    10030    2    1    2    0    0  0.00000000000E+00  0.00000000000E+00 -0.12132375485E+04  0.31566072901E+04  0.29141421096E+04 0.  0.
        1    1    3    3  502    0  0.13944868923E+04  0.40387841580E+03 -0.74079868274E+03  0.16298755032E+04  0.50400001928E-02 0. -1.
       -1    1    3    3    0  502 -0.13944868923E+04 -0.40387841580E+03 -0.47243886573E+03  0.15267317870E+04  0.50400001928E-02 0.  1.
</event>
<event>
 5   0  0.3852126E-06  0.3043182E+04  0.7818609E-02  0.8231506E-01
       -1   -1    0    0    0  501  0.00000000000E+00  0.00000000000E+00  0.17119238129E+04  0.17119238129E+04  0.50400001928E-02 0. -1.
        1   -1    0    0  501    0  0.00000000000E+00  0.00000000000E+00 -0.13524198926E+04  0.13524198927E+04  0.50400001928E-02 0.  1.
    10030    2    1    2    0    0  0.00000000000E+00  0.00000000000E+00  0.35950392026E+03  0.30643437056E+04  0.30431824259E+04 0.  0.
        1    1    3    3  502    0  0.54614588422E+03  0.32622006964E+03 -0.12120842120E+04  0.13688838511E+04  0.50400001928E-02 0.  1.
       -1    1    3    3    0  502 -0.54614588422E+03 -0.32622006964E+03  0.15715881323E+04  0.16954598545E+04  0.50400001928E-02 0. -1.
</event>
<event>
 5   0  0.1089569E-05  0.2704887E+04  0.7818609E-02  0.8333421E-01
       -2   -1    0    0    0  501  0.00000000000E+00  0.00000000000E+00  0.76136054215E+03  0.76136054216E+03  0.25500000920E-02 0.  1.
        2   -1    0    0  501    0  0.00000000000E+00  0.00000000000E+00 -0.24024142764E+04  0.24024142764E+04  0.25500000920E-02 0. -1.
    10030    2    1    2    0    0  0.00000000000E+00  0.00000000000E+00 -0.16410537342E+04  0.31637748185E+04  0.27048870113E+04 0.  0.
        5    1    3    3  502    0 -0.74244126737E+03 -0.10737755647E+04 -0.40721048614E+03  0.13674997144E+04  0.46999998093E+01 0.  1.
       -5    1    3    3    0  502  0.74244126737E+03  0.10737755647E+04 -0.12338432481E+04  0.17962751041E+04  0.46999998093E+01 0. -1.
</event>
<event>
 5   0  0.3636718E-06  0.2430982E+04  0.7818609E-02  0.8427994E-01
        1   -1    0    0  501    0  0.00000000000E+00  0.00000000000E+00  0.11986666959E+04  0.11986666959E+04  0.50400001928E-02 0. -1.
       -1   -1    0    0    0  501  0.00000000000E+00  0.00000000000E+00 -0.12325519338E+04  0.12325519338E+04  0.50400001928E-02 0.  1.
    10030    2    1    2    0    0  0.00000000000E+00  0.00000000000E+00 -0.33885237921E+02  0.24312186298E+04  0.24309824796E+04 0.  0.
        4    1    3    3  502    0  0.92899590813E+03 -0.62811364681E+03 -0.48587748362E+03  0.12221451193E+04  0.12699999809E+01 0. -1.
       -4    1    3    3    0  502 -0.92899590813E+03  0.62811364681E+03  0.45199224570E+03  0.12090735105E+04  0.12699999809E+01 0.  1.
</event>
<event>
 5   0  0.3852126E-06  0.2963023E+04  0.7818609E-02  0.8254369E-01
       -1   -1    0    0    0  501  0.00000000000E+00  0.00000000000E+00  0.19783684745E+04  0.19783684745E+04  0.50400001928E-02 0. -1.
        1   -1    0    0  501    0  0.00000000000E+00  0.00000000000E+00 -0.11094376856E+04  0.11094376856E+04  0.50400001928E-02 0.  1.
    10030    2    1    2    0    0  0.00000000000E+00  0.00000000000E+00  0.86893078891E+03  0.30878061601E+04  0.29630231465E+04 0.  0.
        1    1    3    3  502    0  0.38135484173E+01 -0.14377682676E+04  0.62087478226E+02  0.14391132650E+04  0.50400001928E-02 0.  1.
       -1    1    3    3    0  502 -0.38135484173E+01  0.14377682676E+04  0.80684331068E+03  0.16486928951E+04  0.50400001928E-02 0. -1.
</event>
<event>
 5   0  0.1089569E-05  0.2972937E+04  0.7818609E-02  0.8251501E-01
        2   -1    0    0  501    0  0.00000000000E+00  0.00000000000E+00  0.14114508325E+04  0.14114508325E+04  0.25500000920E-02 0. -1.
       -2   -1    0    0    0  501  0.00000000000E+00  0.00000000000E+00 -0.15654735987E+04  0.15654735987E+04  0.25500000920E-02 0.  1.
    10030    2    1    2    0    0  0.00000000000E+00  0.00000000000E+00 -0.15402276613E+03  0.29769244312E+04  0.29729372776E+04 0.  0.
        5    1    3    3  502    0 -0.20021524159E+03  0.14290055014E+04 -0.43445519249E+03  0.15069559616E+04  0.46999998093E+01 0.  1.
       -5    1    3    3    0  502  0.20021524159E+03 -0.14290055014E+04  0.28043242636E+03  0.14699684696E+04  0.46999998093E+01 0. -1.
</event>
<event>
 5   0  0.3896630E-06  0.3020026E+04  0.7818609E-02  0.8238035E-01
        1   -1    0    0  501    0  0.00000000000E+00  0.00000000000E+00  0.20154542783E+04  0.20154542783E+04  0.50400001928E-02 0.  1.
       -1   -1    0    0    0  501  0.00000000000E+00  0.00000000000E+00 -0.11313274134E+04  0.11313274134E+04  0.50400001928E-02 0. -1.
    10030    2    1    2    0    0  0.00000000000E+00  0.00000000000E+00  0.88412686492E+03  0.31467816916E+04  0.30200256127E+04 0.  0.
        5    1    3    3  502    0  0.60911538732E+03 -0.13773515473E+04  0.32793185785E+03  0.15413241818E+04  0.46999998093E+01 0.  1.
       -5    1    3    3    0  502 -0.60911538732E+03  0.13773515473E+04  0.55619500706E+03  0.16054575098E+04  0.46999998093E+01 0. -1.
</event>
<event>
 5   0  0.1028450E-05  0.3017108E+04  0.7818609E-02  0.8238862E-01
       -2   -1    0    0    0  501  0.00000000000E+00  0.00000000000E+00  0.90411989523E+03  0.90411989524E+03  0.25500000920E-02 0.  1.
        2   -1    0    0  501    0  0.00000000000E+00  0.00000000000E+00 -0.25170718270E+04  0.25170718270E+04  0.25500000920E-02 0. -1.
    10030    2    1    2    0    0  0.00000000000E+00  0.00000000000E+00 -0.16129519318E+04  0.34211917223E+04  0.30171076988E+04 0.  0.
        3    1    3    3  502    0 -0.58027595536E+03  0.13501351048E+04 -0.42002385427E+03  0.15283995007E+04  0.10100000352E+00 0.  1.
       -3    1    3    3    0  502  0.58027595536E+03 -0.13501351048E+04 -0.11929280775E+04  0.18927922215E+04  0.10100000352E+00 0. -1.
</event>
<event>
 5   0  0.3725232E-06  0.2606745E+04  0.7818609E-02  0.8365914E-01
       -1   -1    0    0    0  501  0.00000000000E+00  0.00000000000E+00  0.14299611025E+04  0.14299611025E+04  0.50400001928E-02 0.  1.
        1   -1    0    0  501    0  0.00000000000E+00  0.00000000000E+00 -0.11879898544E+04  0.11879898544E+04  0.50400001928E-02 0. -1.
    10030    2    1    2    0    0  0.00000000000E+00  0.00000000000E+00  0.24197124812E+03  0.26179509570E+04  0.26067445460E+04 0.  0.
        2    1    3    3  502    0 -0.33347101056E+03 -0.25294692356E+03  0.13606316466E+04  0.14235531387E+04  0.25500000920E-02 0.  1.
       -2    1    3    3    0  502  0.33347101056E+03  0.25294692356E+03 -0.11186603985E+04  0.11943978182E+04  0.25500000920E-02 0. -1.
</event>
<event>
 5   0  0.3636718E-06  0.2970909E+04  0.7818609E-02  0.8252087E-01
        1   -1    0    0  501    0  0.00000000000E+00  0.00000000000E+00  0.23840985712E+04  0.23840985712E+04  0.50400001928E-02 0. -1.
       -1   -1    0    0    0  501  0.00000000000E+00  0.00000000000E+00 -0.92553877141E+03  0.92553877143E+03  0.50400001928E-02 0.  1.
    10030    2    1    2    0    0  0.00000000000E+00  0.00000000000E+00  0.14585597998E+04  0.33096373427E+04  0.29709093979E+04 0.  0.
        4    1    3    3  502    0 -0.61271676634E+03  0.41009304208E+03  0.21658736728E+04  0.22879266856E+04  0.12699999809E+01 0. -1.
       -4    1    3    3    0  502  0.61271676634E+03 -0.41009304208E+03 -0.70731387304E+03  0.10217106571E+04  0.12699999809E+01 0.  1.
</event>
<event>
 5   0  0.3852126E-06  0.2017144E+04  0.7818609E-02  0.8598647E-01
       -1   -1    0    0    0  501  0.00000000000E+00  0.00000000000E+00  0.12425597690E+04  0.12425597690E+04  0.50400001928E-02 0.  1.
        1   -1    0    0  501    0  0.00000000000E+00  0.00000000000E+00 -0.81864681519E+03  0.81864681521E+03  0.50400001928E-02 0. -1.
    10030    2    1    2    0    0  0.00000000000E+00  0.00000000000E+00  0.42391295384E+03  0.20612065842E+04  0.20171441174E+04 0.  0.
        1    1    3    3  502    0  0.81453546627E+03 -0.14057675910E+03  0.80249721138E+03  0.11520553916E+04  0.50400001928E-02 0.  1.
       -1    1    3    3    0  502 -0.81453546627E+03  0.14057675910E+03 -0.37858425754E+03  0.90915119265E+03  0.50400001928E-02 0. -1.
</event>
<event>
 5   0  0.3636718E-06  0.2277012E+04  0.7818609E-02  0.8487040E-01
        1   -1    0    0  501    0  0.00000000000E+00  0.00000000000E+00  0.15735526777E+04  0.15735526777E+04  0.50400001928E-02 0.  1.
       -1   -1    0    0    0  501  0.00000000000E+00  0.00000000000E+00 -0.82373851880E+03  0.82373851882E+03  0.50400001928E-02 0. -1.
    10030    2    1    2    0    0  0.00000000000E+00  0.00000000000E+00  0.74981415892E+03  0.23972911965E+04  0.22770120351E+04 0.  0.
        4    1    3    3  502    0 -0.85903343094E+03 -0.25235111513E+03 -0.36550153762E+03  0.96706385915E+03  0.12699999809E+01 0. -1.
       -4    1    3    3    0  502  0.85903343094E+03  0.25235111513E+03  0.11153156965E+04  0.14302273374E+04  0.12699999809E+01 0.  1.
</event>
<event>
 5   0  0.9647945E-06  0.2947937E+04  0.7818609E-02  0.8258756E-01
        2   -1    0    0  501    0  0.00000000000E+00  0.00000000000E+00  0.13798937392E+04  0.13798937392E+04  0.25500000920E-02 0.  1.
       -2   -1    0    0    0  501  0.00000000000E+00  0.00000000000E+00 -0.15744564302E+04  0.15744564302E+04  0.25500000920E-02 0. -1.
    10030    2    1    2    0    0  0.00000000000E+00  0.00000000000E+00 -0.19456269104E+03  0.29543501695E+04  0.29479366145E+04 0.  0.
        2    1    3    3  502    0 -0.80364198378E+03  0.55231257786E+03 -0.12049882480E+04  0.15501246078E+04  0.25500000920E-02 0. -1.
       -2    1    3    3    0  502  0.80364198378E+03 -0.55231257786E+03  0.10104255570E+04  0.14042255617E+04  0.25500000920E-02 0.  1.
</event>
<event>
 5   0  0.1029922E-05  0.3045575E+04  0.7818609E-02  0.8230835E-01
       -2   -1    0    0    0  501  0.00000000000E+00  0.00000000000E+00  0.86762435420E+03  0.86762435421E+03  0.25500000920E-02 0. -1.
        2   -1    0    0  501    0  0.00000000000E+00  0.00000000000E+00 -0.26726789800E+04  0.26726789800E+04  0.25500000920E-02 0.  1.
    10030    2    1    2    0    0  0.00000000000E+00  0.00000000000E+00 -0.18050546258E+04  0.35403033342E+04  0.30455747399E+04 0.  0.
        1    1    3    3  502    0  0.13035988650E+04 -0.29749227477E+03 -0.17496034503E+04  0.22020408461E+04  0.50400001928E-02 0.  1.
       -1    1    3    3    0  502 -0.13035988650E+04  0.29749227477E+03 -0.55451175497E+02  0.13382624882E+04  0.50400001928E-02 0. -1.
</event>
<event>
 5   0  0.1028450E-05  0.2980735E+04  0.7818609E-02  0.8249254E-01
        2   -1    0    0  501    0  0.00000000000E+00  0.00000000000E+00  0.17804394235E+04  0.17804394235E+04  0.25500000920E-02 0.  1.
       -2   -1    0    0    0  501  0.00000000000E+00  0.00000000000E+00 -0.12475545395E+04  0.12475545395E+04  0.25500000920E-02 0. -1.
    10030    2    1    2    0    0  0.00000000000E+00  0.00000000000E+00  0.53288488394E+03  0.30279939630E+04  0.29807350001E+04 0.  0.
        3    1    3    3  502    0 -0.11233387930E+04  0.29881443506E+02 -0.72806453451E+03  0.13389775656E+04  0.10100000352E+00 0. -1.
       -3    1    3    3    0  502  0.11233387930E+04 -0.29881443506E+02  0.12609494184E+04  0.16890163974E+04  0.10100000352E+00 0.  1.
</event>
<event>
 5   0  0.1029922E-05  0.2960273E+04  0.7818609E-02  0.8255167E-01
       -2   -1    0    0    0  501  0.00000000000E+00  0.00000000000E+00  0.86271089036E+03  0.86271089036E+03  0.25500000920E-02 0.  1.
        2   -1    0    0  501    0  0.00000000000E+00  0.00000000000E+00 -0.25394423328E+04  0.25394423328E+04  0.25500000920E-02 0. -1.
    10030    2    1    2    0    0  0.00000000000E+00  0.00000000000E+00 -0.16767314424E+04  0.34021532232E+04  0.29602733360E+04 0.  0.
        1    1    3    3  502    0 -0.51048943596E+03  0.13427077056E+04 -0.42825004524E+03  0.14989534843E+04  0.50400001928E-02 0.  1.
       -1    1    3    3    0  502  0.51048943596E+03 -0.13427077056E+04 -0.12484813972E+04  0.19031997389E+04  0.50400001928E-02 0. -1.
</event>
<event>
 5   0  0.1057036E-05  0.2235170E+04  0.7818609E-02  0.8503930E-01
       -2   -1    0    0    0  501  0.00000000000E+00  0.00000000000E+00  0.85313110034E+03  0.85313110035E+03  0.25500000920E-02 0. -1.
        2   -1    0    0  501    0  0.00000000000E+00  0.00000000000E+00 -0.14640150625E+04  0.14640150625E+04  0.25500000920E-02 0.  1.
    10030    2    1    2    0    0  0.00000000000E+00  0.00000000000E+00 -0.61088396216E+03  0.23171461629E+04  0.22351704912E+04 0.  0.
        4    1    3    3  502    0  0.48402460982E+03 -0.65173521956E+02 -0.13475290441E+04  0.14333051135E+04  0.12699999809E+01 0.  1.
       -4    1    3    3    0  502 -0.48402460982E+03  0.65173521956E+02  0.73664508193E+03  0.88384104934E+03  0.12699999809E+01 0. -1.
</event>
<event>
 5   0  0.3592331E-06  0.1925415E+04  0.7818609E-02  0.8642308E-01
        1   -1    0    0  501    0  0.00000000000E+00  0.00000000000E+00  0.11749775864E+04  0.11749775864E+04  0.50400001928E-02 0. -1.
       -1   -1    0    0    0  501  0.00000000000E+00  0.00000000000E+00 -0.78878552424E+03  0.78878552426E+03  0.50400001928E-02 0.  1.
    10030    2    1    2    0    0  0.00000000000E+00  0.00000000000E+00  0.38619206215E+03  0.19637631107E+04  0.19254145647E+04 0.  0.
        3    1    3    3  502    0 -0.80999926567E+03 -0.62858343788E+02 -0.33367440028E+03  0.87828730913E+03  0.10100000352E+00 0.  1.
       -3    1    3    3    0  502  0.80999926567E+03  0.62858343788E+02  0.71986646243E+03  0.10854758015E+04  0.10100000352E+00 0. -1.
</event>
<event>
 5   0  0.3852126E-06  0.3044203E+04  0.7818609E-02  0.8231220E-01
       -1   -1    0    0    0  501  0.00000000000E+00  0.00000000000E+00  0.10941951345E+04  0.10941951345E+04  0.50400001928E-02 0. -1.
        1   -1    0    0  501    0  0.00000000000E+00  0.00000000000E+00 -0.21173486824E+04  0.21173486824E+04  0.50400001928E-02 0.  1.
    10030    2    1    2    0    0  0.00000000000E+00  0.00000000000E+00 -0.10231535479E+04  0.32115438169E+04  0.30442027701E+04 0.  0.
        1    1    3    3  502    0 -0.76649014684E+03  0.37375767812E+03  0.81851904622E+03  0.11820217325E+04  0.50400001928E-02 0. -1.
       -1    1    3    3    0  502  0.76649014684E+03 -0.37375767812E+03 -0.18416725941E+04  0.20295220844E+04  0.50400001928E-02 0.  1.
</event>
<event>
 5   0  0.3313750E-06  0.2951795E+04  0.7818609E-02  0.8257632E-01
        3   -1    0    0  501    0  0.00000000000E+00  0.00000000000E+00  0.22934915317E+04  0.22934915339E+04  0.10100000352E+00 0. -1.
       -3   -1    0    0    0  501  0.00000000000E+00  0.00000000000E+00 -0.94976318189E+03  0.94976318727E+03  0.10100000352E+00 0.  1.
    10030    2    1    2    0    0  0.00000000000E+00  0.00000000000E+00  0.13437283498E+04  0.32432547211E+04  0.29517952687E+04 0.  0.
        5    1    3    3  502    0 -0.11650863970E+04  0.15366016521E+03 -0.30916580432E+03  0.12151721456E+04  0.46999998093E+01 0.  1.
       -5    1    3    3    0  502  0.11650863970E+04 -0.15366016521E+03  0.16528941541E+04  0.20280825756E+04  0.46999998093E+01 0. -1.
</event>
<event>
 5   0  0.3852126E-06  0.3067468E+04  0.7818609E-02  0.8224723E-01
       -1   -1    0    0    0  501  0.00000000000E+00  0.00000000000E+00  0.14818539991E+04  0.14818539991E+04  0.50400001928E-02 0. -1.
        1   -1    0    0  501    0  0.00000000000E+00  0.00000000000E+00 -0.15874298217E+04  0.15874298217E+04  0.50400001928E-02 0.  1.
    10030    2    1    2    0    0  0.00000000000E+00  0.00000000000E+00 -0.10557582265E+03  0.30692838208E+04  0.30674675090E+04 0.  0.
        1    1    3    3  502    0  0.13514018868E+04 -0.61488491692E+03 -0.43768269119E+03  0.15478813452E+04  0.50400001928E-02 0.  1.
       -1    1    3    3    0  502 -0.13514018868E+04  0.61488491692E+03  0.33210686854E+03  0.15214024756E+04  0.50400001928E-02 0. -1.
</event>
<event>
 5   0  0.3636718E-06  0.2386119E+04  0.7818609E-02  0.8444719E-01
        1   -1    0    0  501    0  0.00000000000E+00  0.00000000000E+00  0.10903617965E+04  0.10903617965E+04  0.50400001928E-02 0.  1.
       -1   -1    0    0    0  501  0.00000000000E+00  0.00000000000E+00 -0.13054304490E+04  0.13054304490E+04  0.50400001928E-02 0. -1.
    10030    2    1    2    0    0  0.00000000000E+00  0.00000000000E+00 -0.21506865249E+03  0.23957922455E+04  0.23861194350E+04 0.  0.
        4    1    3    3  502    0  0.81370704960E+03  0.70018485532E+03 -0.63023269315E+03  0.12448184023E+04  0.12699999809E+01 0. -1.
       -4    1    3    3    0  502 -0.81370704960E+03 -0.70018485532E+03  0.41516404066E+03  0.11509738432E+04  0.12699999809E+01 0.  1.
</event>
<event>
 5   0  0.3592331E-06  0.2983973E+04  0.7818609E-02  0.8248322E-01
       -1   -1    0    0    0  501  0.00000000000E+00  0.00000000000E+00  0.75171038813E+03  0.75171038815E+03  0.50400001928E-02 0. -1.
        1   -1    0    0  501    0  0.00000000000E+00  0.00000000000E+00 -0.29612784997E+04  0.29612784997E+04  0.50400001928E-02 0.  1.
    10030    2    1    2    0    0  0.00000000000E+00  0.00000000000E+00 -0.22095681116E+04  0.37129888879E+04  0.29839730632E+04 0.  0.
        3    1    3    3  502    0 -0.49893312060E+03 -0.76717905911E+03  0.36145820593E+03  0.98394614304E+03  0.10100000352E+00 0. -1.
       -3    1    3    3    0  502  0.49893312060E+03  0.76717905911E+03 -0.25710263175E+04  0.27290427448E+04  0.10100000352E+00 0.  1.
</event>
<event>
 5   0  0.1057036E-05  0.3156064E+04  0.7818609E-02  0.8200518E-01
       -2   -1    0    0    0  501  0.00000000000E+00  0.00000000000E+00  0.19585359746E+04  0.19585359746E+04  0.25500000920E-02 0. -1.
        2   -1    0    0  501    0  0.00000000000E+00  0.00000000000E+00 -0.12714522875E+04  0.12714522875E+04  0.25500000920E-02 0.  1.
    10030    2    1    2    0    0  0.00000000000E+00  0.00000000000E+00  0.68708368705E+03  0.32299882621E+04  0.31560640330E+04 0.  0.
        4    1    3    3  502    0  0.14374051934E+03  0.11117241558E+04 -0.79314496950E+03  0.13731979067E+04  0.12699999809E+01 0.  1.
       -4    1    3    3    0  502 -0.14374051934E+03 -0.11117241558E+04  0.14802286566E+04  0.18567903554E+04  0.12699999809E+01 0. -1.
</event>
<event>
 5   0  0.3725232E-06  0.2961891E+04  0.7818609E-02  0.8254698E-01
        1   -1    0    0  501    0  0.00000000000E+00  0.00000000000E+00  0.14195950326E+04  0.14195950326E+04  0.50400001928E-02 0.  1.
       -1   -1    0    0    0  501  0.00000000000E+00  0.00000000000E+00 -0.15449475985E+04  0.15449475985E+04  0.50400001928E-02 0. -1.
    10030    2    1    2    0    0  0.00000000000E+00  0.00000000000E+00 -0.12535256595E+03  0.29645426311E+04  0.29618912448E+04 0.  0.
        2    1    3    3  502    0 -0.13276760164E+04  0.47595595411E+03  0.38932764384E+03  0.14631588051E+04  0.25500000920E-02 0. -1.
       -2    1    3    3    0  502  0.13276760164E+04 -0.47595595411E+03 -0.51468020978E+03  0.15013838260E+04  0.25500000920E-02 0.  1.
</event>
<event>
 5   0  0.3592331E-06  0.2984331E+04  0.7818609E-02  0.8248220E-01
        1   -1    0    0  501    0  0.00000000000E+00  0.00000000000E+00  0.16265347485E+04  0.16265347485E+04  0.50400001928E-02 0.  1.
       -1   -1    0    0    0  501  0.00000000000E+00  0.00000000000E+00 -0.13688963048E+04  0.13688963048E+04  0.50400001928E-02 0. -1.
    10030    2    1    2    0    0  0.00000000000E+00  0.00000000000E+00  0.25763844371E+03  0.29954310534E+04  0.29843306834E+04 0.  0.
        3    1    3    3  502    0  0.70685800057E+03 -0.21608613093E+03 -0.11722336177E+04  0.13858113557E+04  0.10100000352E+00 0. -1.
       -3    1    3    3    0  502 -0.70685800057E+03  0.21608613093E+03  0.14298720614E+04  0.16096196977E+04  0.10100000352E+00 0.  1.
</event>
<event>
 5   0  0.1089569E-05  0.2990009E+04  0.7818609E-02  0.8246590E-01
       -2   -1    0    0    0  501  0.00000000000E+00  0.00000000000E+00  0.14142347399E+04  0.14142347399E+04  0.25500000920E-02 0. -1.
        2   -1    0    0  501    0  0.00000000000E+00  0.00000000000E+00 -0.15803870874E+04  0.15803870874E+04  0.25500000920E-02 0.  1.
    10030    2    1    2    0    0  0.00000000000E+00  0.00000000000E+00 -0.16615234749E+03  0.29946218273E+04  0.29900089107E+04 0.  0.
        5    1    3    3  502    0  0.10233009523E+04  0.10840776782E+04  0.29556118279E+02  0.14910616706E+04  0.46999998093E+01 0. -1.
       -5    1    3    3    0  502 -0.10233009523E+04 -0.10840776782E+04 -0.19570846577E+03  0.15035601567E+04  0.46999998093E+01 0.  1.
</event>
<event>
 5   0  0.3725232E-06  0.2151798E+04  0.7818609E-02  0.8538763E-01
        1   -1    0    0  501    0  0.00000000000E+00  0.00000000000E+00  0.11520768090E+04  0.11520768090E+04  0.50400001928E-02 0. -1.
       -1   -1    0    0    0  501  0.00000000000E+00  0.00000000000E+00 -0.10047586126E+04  0.10047586126E+04  0.50400001928E-02 0.  1.
    10030    2    1    2    0    0  0.00000000000E+00  0.00000000000E+00  0.14731819644E+03  0.21568354216E+04  0.21517984071E+04 0.  0.
        2    1    3    3  502    0  0.87512645721E+02 -0.50913518882E+02  0.11472912806E+04  0.11517499433E+04  0.25500000920E-02 0. -1.
       -2    1    3    3    0  502 -0.87512645721E+02  0.50913518882E+02 -0.99997308411E+03  0.10050854782E+04  0.25500000920E-02 0.  1.
</event>
<event>
 5   0  0.3896630E-06  0.1847079E+04  0.7818609E-02  0.8681657E-01
       -1   -1    0    0    0  501  0.00000000000E+00  0.00000000000E+00  0.98721519795E+03  0.98721519797E+03  0.50400001928E-02 0.  1.
        1   -1    0    0  501    0  0.00000000000E+00  0.00000000000E+00 -0.86397071282E+03  0.86397071284E+03  0.50400001928E-02 0. -1.
    10030    2    1    2    0    0  0.00000000000E+00  0.00000000000E+00  0.12324448513E+03  0.18511859108E+04  0.18470787945E+04 0.  0.
        5    1    3    3  502    0  0.75232012741E+03 -0.52905932635E+03 -0.22311115102E+02  0.92000501127E+03  0.46999998093E+01 0.  1.
       -5    1    3    3    0  502 -0.75232012741E+03  0.52905932635E+03  0.14555560023E+03  0.93118089954E+03  0.46999998093E+01 0. -1.
</event>
<event>
 5   0  0.3896630E-06  0.2997430E+04  0.7818609E-02  0.8244465E-01
       -1   -1    0    0    0  501  0.00000000000E+00  0.00000000000E+00  0.10755008668E+04  0.10755008668E+04  0.50400001928E-02 0. -1.
        1   -1    0    0  501    0  0.00000000000E+00  0.00000000000E+00 -0.20884655476E+04  0.20884655476E+04  0.50400001928E-02 0.  1.
    10030    2    1    2    0    0  0.00000000000E+00  0.00000000000E+00 -0.10129646809E+04  0.31639664144E+04  0.29974299036E+04 0.  0.
        5    1    3    3  502    0 -0.84908563606E+03 -0.11976950386E+04 -0.18857725835E+03  0.14802038019E+04  0.46999998093E+01 0. -1.
       -5    1    3    3    0  502  0.84908563606E+03  0.11976950386E+04 -0.82438742250E+03  0.16837626125E+04  0.46999998093E+01 0.  1.
</event>
<event>
 5   0  0.9647945E-06  0.2984662E+04  0.7818609E-02  0.8248124E-01
       -2   -1    0    0    0  501  0.00000000000E+00  0.00000000000E+00  0.10265688975E+04  0.10265688975E+04  0.25500000920E-02 0.  1.
        2   -1    0    0  501    0  0.00000000000E+00  0.00000000000E+00 -0.21694133242E+04  0.21694133242E+04  0.25500000920E-02 0. -1.
    10030    2    1    2    0    0  0.00000000000E+00  0.00000000000E+00 -0.11428444267E+04  0.31959822217E+04  0.29846622888E+04 0.  0.
        2    1    3    3  502    0  0.95901136117E+03  0.95809740194E+03 -0.12396222163E+04  0.18369313165E+04  0.25500000920E-02 0. -1.
       -2    1    3    3    0  502 -0.95901136117E+03 -0.95809740194E+03  0.96777789548E+02  0.13590509052E+04  0.25500000920E-02 0.  1.
</event>
<event>
 5   0  0.9647945E-06  0.2071349E+04  0.7818609E-02  0.8573971E-01
        2   -1    0    0  501    0  0.00000000000E+00  0.00000000000E+00  0.12114979990E+04  0.12114979990E+04  0.25500000920E-02 0. -1.
       -2   -1    0    0    0  501  0.00000000000E+00  0.00000000000E+00 -0.88536769744E+03  0.88536769744E+03  0.25500000920E-02 0.  1.
    10030    2    1    2    0    0  0.00000000000E+00  0.00000000000E+00  0.32613030152E+03  0.20968656964E+04  0.20713485402E+04 0.  0.
        2    1    3    3  502    0 -0.57874317156E+03 -0.85397651114E+03  0.25585486077E+03  0.10628646433E+04  0.25500000920E-02 0. -1.
       -2    1    3    3    0  502  0.57874317156E+03  0.85397651114E+03  0.70275440751E+02  0.10340010531E+04  0.25500000920E-02 0.  1.
</event>
<event>
 5   0  0.1089569E-05  0.3081317E+04  0.7818609E-02  0.8220884E-01
        2   -1    0    0  501    0  0.00000000000E+00  0.00000000000E+00  0.73138929225E+03  0.73138929226E+03  0.25500000920E-02 0.  1.
       -2   -1    0    0    0  501  0.00000000000E+00  0.00000000000E+00 -0.32453695284E+04  0.32453695284E+04  0.25500000920E-02 0. -1.
    10030    2    1    2    0    0  0.00000000000E+00  0.00000000000E+00 -0.25139802362E+04  0.39767588207E+04  0.30813169408E+04 0.  0.
        5    1    3    3  502    0 -0.94961572163E+03 -0.95212761656E+03 -0.28664034581E+03  0.13749551974E+04  0.46999998093E+01 0. -1.
       -5    1    3    3    0  502  0.94961572163E+03  0.95212761656E+03 -0.22273398903E+04  0.26018036233E+04  0.46999998093E+01 0.  1.
</event>
<event>
 5   0  0.1057036E-05  0.2975258E+04  0.7818609E-02  0.8250832E-01
       -2   -1    0    0    0  501  0.00000000000E+00  0.00000000000E+00  0.11137567556E+04  0.11137567556E+04  0.25500000920E-02 0.  1.
        2   -1    0    0  501    0  0.00000000000E+00  0.00000000000E+00 -0.19870041780E+04  0.19870041780E+04  0.25500000920E-02 0. -1.
    10030    2    1    2    0    0  0.00000000000E+00  0.00000000000E+00 -0.87324742242E+03  0.31007609337E+04  0.29752575194E+04 0.  0.
        4    1    3    3  502    0  0.11258055623E+04 -0.16513198422E+03 -0.14353427740E+04  0.18316433136E+04  0.12699999809E+01 0. -1.
       -4    1    3    3    0  502 -0.11258055623E+04  0.16513198422E+03  0.56209535162E+03  0.12691176201E+04  0.12699999809E+01 0.  1.
</event>
<event>
 5   0  0.3852126E-06  0.3233883E+04  0.7818609E-02  0.8179926E-01
       -1   -1    0    0    0  501  0.00000000000E+00  0.00000000000E+00  0.11390156773E+04  0.11390156773E+04  0.50400001928E-02 0.  1.
        1   -1    0    0  501    0  0.00000000000E+00  0.00000000000E+00 -0.22954033430E+04  0.22954033430E+04  0.50400001928E-02 0. -1.
    10030    2    1    2    0    0  0.00000000000E+00  0.00000000000E+00 -0.11563876657E+04  0.34344190204E+04  0.32338833582E+04 0.  0.
        1    1    3    3  502    0 -0.12347378566E+04  0.17424075866E+03  0.51498777584E+03  0.13491292843E+04  0.50400001928E-02 0.  1.
       -1    1    3    3    0  502  0.12347378566E+04 -0.17424075866E+03 -0.16713754415E+04  0.20852897360E+04  0.50400001928E-02 0. -1.
</event>
<event>
 5   0  0.1057036E-05  0.3070554E+04  0.7818609E-02  0.8223866E-01
        2   -1    0    0  501    0  0.00000000000E+00  0.00000000000E+00  0.11810852942E+04  0.11810852942E+04  0.25500000920E-02 0.  1.
       -2   -1    0    0    0  501  0.00000000000E+00  0.00000000000E+00 -0.19956858270E+04  0.19956858270E+04  0.25500000920E-02 0. -1.
    10030    2    1    2    0    0  0.00000000000E+00  0.00000000000E+00 -0.81460053283E+03  0.31767711211E+04  0.30705538146E+04 0.  0.
        4    1    3    3  502    0  0.37806641866E+03  0.72268803058E+03 -0.17530106364E+04  0.19334580706E+04  0.12699999809E+01 0. -1.
       -4    1    3    3    0  502 -0.37806641866E+03 -0.72268803058E+03  0.93841010353E+03  0.12433130506E+04  0.12699999809E+01 0.  1.
</event>
<event>
 5   0  0.3636718E-06  0.2839379E+04  0.7818609E-02  0.8291146E-01
       -1   -1    0    0    0  501  0.00000000000E+00  0.00000000000E+00  0.10124968378E+04  0.10124968378E+04  0.50400001928E-02 0.  1.
        1   -1    0    0  501    0  0.00000000000E+00  0.00000000000E+00 -0.19906421275E+04  0.19906421275E+04  0.50400001928E-02 0. -1.
    10030    2    1    2    0    0  0.00000000000E+00  0.00000000000E+00 -0.97814528967E+03  0.30031389653E+04  0.28393794106E+04 0.  0.
        4    1    3    3  502    0 -0.11424427224E+04 -0.74019391355E+03 -0.91537558821E+03  0.16404196061E+04  0.12699999809E+01 0.  1.
       -4    1    3    3    0  502  0.11424427224E+04  0.74019391355E+03 -0.62769701456E+02  0.13627193592E+04  0.12699999809E+01 0. -1.
</event>
<event>
 5   0  0.1029922E-05  0.2954404E+04  0.7818609E-02  0.8256872E-01
        2   -1    0    0  501    0  0.00000000000E+00  0.00000000000E+00  0.25896714797E+04  0.25896714797E+04  0.25500000920E-02 0. -1.
       -2   -1    0    0    0  501  0.00000000000E+00  0.00000000000E+00 -0.84262663308E+03  0.84262663309E+03  0.25500000920E-02 0.  1.
    10030    2    1    2    0    0  0.00000000000E+00  0.00000000000E+00  0.17470448466E+04  0.34322981128E+04  0.29544042782E+04 0.  0.
        1    1    3    3  502    0 -0.66980627017E+02 -0.27994625960E+03  0.25567747053E+04  0.25729269726E+04  0.50400001928E-02 0. -1.
       -1    1    3    3    0  502  0.66980627017E+02  0.27994625960E+03 -0.80972985864E+03  0.85937114023E+03  0.50400001928E-02 0.  1.
</event>
<event>
 5   0  0.3592331E-06  0.3021065E+04  0.7818609E-02  0.8237741E-01
       -1   -1    0    0    0  501  0.00000000000E+00  0.00000000000E+00  0.15118932622E+04  0.15118932622E+04  0.50400001928E-02 0. -1.
        1   -1    0    0  501    0  0.00000000000E+00  0.00000000000E+00 -0.15091726606E+04  0.15091726606E+04  0.50400001928E-02 0.  1.
    10030    2    1    2    0    0  0.00000000000E+00  0.00000000000E+00  0.27206016498E+01  0.30210659228E+04  0.30210646978E+04 0.  0.
        3    1    3    3  502    0  0.59836728819E+03  0.27743762770E+02 -0.13853250991E+04  0.15092841907E+04  0.10100000352E+00 0.  1.
       -3    1    3    3    0  502 -0.59836728819E+03 -0.27743762770E+02  0.13880457007E+04  0.15117817321E+04  0.10100000352E+00 0. -1.
</event>
<event>
 5   0  0.1028450E-05  0.3010435E+04  0.7818609E-02  0.8240757E-01
       -2   -1    0    0    0  501  0.00000000000E+00  0.00000000000E+00  0.12224205636E+04  0.12224205636E+04  0.25500000920E-02 0. -1.
        2   -1    0    0  501    0  0.00000000000E+00  0.00000000000E+00 -0.18534369126E+04  0.18534369126E+04  0.25500000920E-02 0.  1.
    10030    2    1    2    0    0  0.00000000000E+00  0.00000000000E+00 -0.63101634899E+03  0.30758574763E+04  0.30104347828E+04 0.  0.
        3    1    3    3  502    0 -0.28377682067E+03  0.14051175667E+04 -0.78460970973E+03  0.16341655568E+04  0.10100000352E+00 0. -1.
       -3    1    3    3    0  502  0.28377682067E+03 -0.14051175667E+04  0.15359336074E+03  0.14416919195E+04  0.10100000352E+00 0.  1.
</event>
<event>
 5   0  0.3896630E-06  0.3007355E+04  0.7818609E-02  0.8241634E-01
        1   -1    0    0  501    0  0.00000000000E+00  0.00000000000E+00  0.14112467407E+04  0.14112467408E+04  0.50400001928E-02 0.  1.
       -1   -1    0    0    0  501  0.00000000000E+00  0.00000000000E+00 -0.16021620203E+04  0.16021620203E+04  0.50400001928E-02 0. -1.
    10030    2    1    2    0    0  0.00000000000E+00  0.00000000000E+00 -0.19091527955E+03  0.30134087610E+04  0.30073549370E+04 0.  0.
        5    1    3    3  502    0  0.14069854906E+04  0.25092664194E+03  0.37287115765E+03  0.14770332903E+04  0.46999998093E+01 0.  1.
       -5    1    3    3    0  502 -0.14069854906E+04 -0.25092664194E+03 -0.56378643720E+03  0.15363754708E+04  0.46999998093E+01 0. -1.
</event>
<event>
 5   0  0.1029922E-05  0.2990434E+04  0.7818609E-02  0.8246468E-01
        2   -1    0    0  501    0  0.00000000000E+00  0.00000000000E+00  0.16739666798E+04  0.16739666798E+04  0.25500000920E-02 0. -1.
       -2   -1    0    0    0  501  0.00000000000E+00  0.00000000000E+00 -0.13355542096E+04  0.13355542096E+04  0.25500000920E-02 0.  1.
    10030    2    1    2    0    0  0.00000000000E+00  0.00000000000E+00  0.33841247022E+03  0.30095208894E+04  0.29904335778E+04 0.  0.
        1    1    3    3  502    0  0.45601898365E+03 -0.41702494214E+03 -0.12010311962E+04  0.13506809580E+04  0.50400001928E-02 0.  1.
       -1    1    3    3    0  502 -0.45601898365E+03  0.41702494214E+03  0.15394436665E+04  0.16588399314E+04  0.50400001928E-02 0. -1.
</event>
<event>
 5   0  0.1028450E-05  0.2836369E+04  0.7818609E-02  0.8292065E-01
       -2   -1    0    0    0  501  0.00000000000E+00  0.00000000000E+00  0.13091770857E+04  0.13091770857E+04  0.25500000920E-02 0. -1.
        2   -1    0    0  501    0  0.00000000000E+00  0.00000000000E+00 -0.15362685245E+04  0.15362685245E+04  0.25500000920E-02 0.  1.
    10030    2    1    2    0    0  0.00000000000E+00  0.00000000000E+00 -0.22709143875E+03  0.28454456102E+04  0.28363691930E+04 0.  0.
        3    1    3    3  502    0  0.19870928510E+03  0.14025686287E+04 -0.18131484197E+03  0.14281313736E+04  0.10100000352E+00 0.  1.
       -3    1    3    3    0  502 -0.19870928510E+03 -0.14025686287E+04 -0.45776596772E+02  0.14173142366E+04  0.10100000352E+00 0. -1.
</event>
<event>
 5   0  0.3313750E-06  0.2974322E+04  0.7818609E-02  0.8251102E-01
       -3   -1    0    0    0  501  0.00000000000E+00  0.00000000000E+00  0.13350737953E+04  0.13350737991E+04  0.10100000352E+00 0.  1.
        3   -1    0    0  501    0  0.00000000000E+00  0.00000000000E+00 -0.16565735193E+04  0.16565735224E+04  0.10100000352E+00 0. -1.
    10030    2    1    2    0    0  0.00000000000E+00  0.00000000000E+00 -0.32149972401E+03  0.29916473215E+04  0.29743220444E+04 0.  0.
        5    1    3    3  502    0  0.10907100165E+04 -0.19704204701E+03 -0.11580657033E+04  0.16030009893E+04  0.46999998093E+01 0. -1.
       -5    1    3    3    0  502 -0.10907100165E+04  0.19704204701E+03  0.83656597926E+03  0.13886463323E+04  0.46999998093E+01 0.  1.
</event>
<event>
 5   0  0.3636718E-06  0.2983366E+04  0.7818609E-02  0.8248497E-01
       -1   -1    0    0    0  501  0.00000000000E+00  0.00000000000E+00  0.21222843215E+04  0.21222843215E+04  0.50400001928E-02 0. -1.
        1   -1    0    0  501    0  0.00000000000E+00  0.00000000000E+00 -0.10484543321E+04  0.10484543321E+04  0.50400001928E-02 0.  1.
    10030    2    1    2    0    0  0.00000000000E+00  0.00000000000E+00  0.10738299894E+04  0.31707386536E+04  0.29833660123E+04 0.  0.
        4    1    3    3  502    0 -0.34980272948E+03 -0.40635139818E+03 -0.94249888689E+03  0.10843381267E+04  0.12699999809E+01 0.  1.
       -4    1    3    3    0  502  0.34980272948E+03  0.40635139818E+03  0.20163288763E+04  0.20864005269E+04  0.12699999809E+01 0. -1.
</event>
<event>
 5   0  0.3636718E-06  0.3077706E+04  0.7818609E-02  0.8221883E-01
       -1   -1    0    0    0  501  0.00000000000E+00  0.00000000000E+00  0.11387874298E+04  0.11387874298E+04  0.50400001928E-02 0. -1.
        1   -1    0    0  501    0  0.00000000000E+00  0.00000000000E+00 -0.20794653859E+04  0.20794653859E+04  0.50400001928E-02 0.  1.
    10030    2    1    2    0    0  0.00000000000E+00  0.00000000000E+00 -0.94067795615E+03  0.32182528157E+04  0.30777063162E+04 0.  0.
        4    1    3    3  502    0 -0.91969490396E+03 -0.92684837493E+03 -0.13218866288E+04  0.18580291975E+04  0.12699999809E+01 0.  1.
       -4    1    3    3    0  502  0.91969490396E+03  0.92684837493E+03  0.38120867267E+03  0.13602236182E+04  0.12699999809E+01 0. -1.
</event>
<event>
 5   0  0.1057036E-05  0.2967178E+04  0.7818609E-02  0.8253166E-01
       -2   -1    0    0    0  501  0.00000000000E+00  0.00000000000E+00  0.16421461094E+04  0.16421461094E+04  0.25500000920E-02 0. -1.
        2   -1    0    0  501    0  0.00000000000E+00  0.00000000000E+00 -0.13403410909E+04  0.13403410909E+04  0.25500000920E-02 0.  1.
    10030    2    1    2    0    0  0.00000000000E+00  0.00000000000E+00  0.30180501851E+03  0.29824872003E+04  0.29671777214E+04 0.  0.
        4    1    3    3  502    0 -0.13046645700E+04  0.56539986859E+03  0.57641596016E+03  0.15343023247E+04  0.12699999809E+01 0. -1.
       -4    1    3    3    0  502  0.13046645700E+04 -0.56539986859E+03 -0.27461094165E+03  0.14481848756E+04  0.12699999809E+01 0.  1.
</event>
<event>
 5   0  0.1029922E-05  0.3062003E+04  0.7818609E-02  0.8226244E-01
        2   -1    0    0  501    0  0.00000000000E+00  0.00000000000E+00  0.20698422089E+04  0.20698422089E+04  0.25500000920E-02 0.  1.
       -2   -1    0    0    0  501  0.00000000000E+00  0.00000000000E+00 -0.11324369991E+04  0.11324369991E+04  0.25500000920E-02 0. -1.
    10030    2    1    2    0    0  0.00000000000E+00  0.00000000000E+00  0.93740520987E+03  0.32022792080E+04  0.30620032003E+04 0.  0.
        1    1    3    3  502    0  0.18115416177E+03 -0.67836009200E+03  0.18915359216E+04  0.20176464971E+04  0.50400001928E-02 0.  1.
       -1    1    3    3    0  502 -0.18115416177E+03  0.67836009200E+03 -0.95413071169E+03  0.11846327109E+04  0.50400001928E-02 0. -1.
</event>
<event>
 5   0  0.3852126E-06  0.2983109E+04  0.7818609E-02  0.8248571E-01
        1   -1    0    0  501    0  0.00000000000E+00  0.00000000000E+00  0.84734923986E+03  0.84734923988E+03  0.50400001928E-02 0.  1.
       -1   -1    0    0    0  501  0.00000000000E+00  0.00000000000E+00 -0.26255237446E+04  0.26255237446E+04  0.50400001928E-02 0. -1.
    10030    2    1    2    0    0  0.00000000000E+00  0.00000000000E+00 -0.17781745047E+04  0.34728729845E+04  0.29831094846E+04 0.  0.
        1    1    3    3  502    0  0.11029737359E+04  0.89038724365E+03 -0.34878402748E+03  0.14597913562E+04  0.50400001928E-02 0.  1.
       -1    1    3    3    0  502 -0.11029737359E+04 -0.89038724365E+03 -0.14293904772E+04  0.20130816283E+04  0.50400001928E-02 0. -1.
</event>
<event>
 5   0  0.1089569E-05  0.2970014E+04  0.7818609E-02  0.8252346E-01
       -2   -1    0    0    0  501  0.00000000000E+00  0.00000000000E+00  0.10418746533E+04  0.10418746533E+04  0.25500000920E-02 0.  1.
        2   -1    0    0  501    0  0.00000000000E+00  0.00000000000E+00 -0.21166127566E+04  0.21166127566E+04  0.25500000920E-02 0. -1.
    10030    2    1    2    0    0  0.00000000000E+00  0.00000000000E+00 -0.10747381033E+04  0.31584874098E+04  0.29700135904E+04 0.  0.
        5    1    3    3  502    0 -0.34717870104E+03  0.64457102606E+03 -0.19113391254E+04  0.20467643246E+04  0.46999998093E+01 0. -1.
       -5    1    3    3    0  502  0.34717870104E+03 -0.64457102606E+03  0.83660102210E+03  0.11117230852E+04  0.46999998093E+01 0.  1.
</event>
<event>
 5   0  0.3636718E-06  0.3618710E+04  0.7818609E-02  0.8086219E-01
       -1   -1    0    0    0  501  0.00000000000E+00  0.00000000000E+00  0.23247480519E+04  0.23247480519E+04  0.50400001928E-02 0.  1.
        1   -1    0    0  501    0  0.00000000000E+00  0.00000000000E+00 -0.14082239206E+04  0.14082239206E+04  0.50400001928E-02 0. -1.
    10030    2    1    2    0    0  0.00000000000E+00  0.00000000000E+00  0.91652413127E+03  0.37329719725E+04  0.36187101659E+04 0.  0.
        4    1    3    3  502    0 -0.10310373693E+04 -0.69191743513E+03 -0.89933820199E+03  0.15331662038E+04  0.12699999809E+01 0. -1.
       -4    1    3    3    0  502  0.10310373693E+04  0.69191743513E+03  0.18158623333E+04  0.21998057688E+04  0.12699999809E+01 0.  1.
</event>
<event>
 5   0  0.3896630E-06  0.3101015E+04  0.7818609E-02  0.8215459E-01
        1   -1    0    0  501    0  0.00000000000E+00  0.00000000000E+00  0.15779750224E+04  0.15779750224E+04  0.50400001928E-02 0. -1.
       -1   -1    0    0    0  501  0.00000000000E+00  0.00000000000E+00 -0.15235184117E+04  0.15235184117E+04  0.50400001928E-02 0.  1.
    10030    2    1    2    0    0  0.00000000000E+00  0.00000000000E+00  0.54456610671E+02  0.31014934341E+04  0.31010153175E+04 0.  0.
        5    1    3    3  502    0 -0.97737962944E+03  0.53480834821E+02 -0.11754215483E+04  0.15296303626E+04  0.46999998093E+01 0.  1.
       -5    1    3    3    0  502  0.97737962944E+03 -0.53480834821E+02  0.12298781590E+04  0.15718630716E+04  0.46999998093E+01 0. -1.
</event>
<event>
 5   0  0.3725232E-06  0.3013228E+04  0.7818609E-02  0.8239964E-01
       -1   -1    0    0    0  501  0.00000000000E+00  0.00000000000E+00  0.14466334736E+04  0.14466334736E+04  0.50400001928E-02 0.  1.
        1   -1    0    0  501    0  0.00000000000E+00  0.00000000000E+00 -0.15690812940E+04  0.15690812940E+04  0.50400001928E-02 0. -1.
    10030    2    1    2    0    0  0.00000000000E+00  0.00000000000E+00 -0.12244782039E+03  0.30157147677E+04  0.30132278525E+04 0.  0.
        2    1    3    3  502    0  0.71018690081E+03  0.83308715586E+03  0.97475643410E+03  0.14657932150E+04  0.25500000920E-02 0.  1.
       -2    1    3    3    0  502 -0.71018690081E+03 -0.83308715586E+03 -0.10972042545E+04  0.15499215527E+04  0.25500000920E-02 0. -1.
</event>
<event>
 5   0  0.1057036E-05  0.2924276E+04  0.7818609E-02  0.8265691E-01
        2   -1    0    0  501    0  0.00000000000E+00  0.00000000000E+00  0.25018285419E+04  0.25018285419E+04  0.25500000920E-02 0.  1.
       -2   -1    0    0    0  501  0.00000000000E+00  0.00000000000E+00 -0.85451414961E+03  0.85451414962E+03  0.25500000920E-02 0. -1.
    10030    2    1    2    0    0  0.00000000000E+00  0.00000000000E+00  0.16473143923E+04  0.33563426915E+04  0.29242762448E+04 0.  0.
        4    1    3    3  502    0 -0.10348488569E+04 -0.78657920717E+02  0.20057561073E+04  0.22583530281E+04  0.12699999809E+01 0.  1.
       -4    1    3    3    0  502  0.10348488569E+04  0.78657920717E+02 -0.35844171494E+03  0.10979896634E+04  0.12699999809E+01 0. -1.
</event>
<event>
 5   0  0.3852126E-06  0.3006960E+04  0.7818609E-02  0.8241746E-01
       -1   -1    0    0    0  501  0.00000000000E+00  0.00000000000E+00  0.14099271729E+04  0.14099271729E+04  0.50400001928E-02 0.  1.
        1   -1    0    0  501    0  0.00000000000E+00  0.00000000000E+00 -0.16032405323E+04  0.16032405323E+04  0.50400001928E-02 0. -1.
    10030    2    1    2    0    0  0.00000000000E+00  0.00000000000E+00 -0.19331335942E+03  0.30131677051E+04  0.30069601867E+04 0.  0.
        1    1    3    3  502    0  0.10287778077E+04  0.10098527146E+04 -0.52446436928E+03  0.15340303639E+04  0.50400001928E-02 0. -1.
       -1    1    3    3    0  502 -0.10287778077E+04 -0.10098527146E+04  0.33115100986E+03  0.14791373412E+04  0.50400001928E-02 0.  1.
</event>
<event>
 5   0  0.3592331E-06  0.2859934E+04  0.7818609E-02  0.8284899E-01
       -1   -1    0    0    0  501  0.00000000000E+00  0.00000000000E+00  0.84508378913E+03  0.84508378914E+03  0.50400001928E-02 0.  1.
        1   -1    0    0  501    0  0.00000000000E+00  0.00000000000E+00 -0.24196492175E+04  0.24196492175E+04  0.50400001928E-02 0. -1.
    10030    2    1    2    0    0  0.00000000000E+00  0.00000000000E+00 -0.15745654283E+04  0.32647330066E+04  0.28599344951E+04 0.  0.
        3    1    3    3  502    0 -0.11714195176E+03  0.45869945927E+03 -0.23275931652E+04  0.23752510149E+04  0.10100000352E+00 0. -1.
       -3    1    3    3    0  502  0.11714195176E+03 -0.45869945927E+03  0.75302773691E+03  0.88948199169E+03  0.10100000352E+00 0.  1.
</event>
<event>
 5   0  0.9647945E-06  0.2351228E+04  0.7818609E-02  0.8457992E-01
       -2   -1    0    0    0  501  0.00000000000E+00  0.00000000000E+00  0.84112557138E+03  0.84112557139E+03  0.25500000920E-02 0.  1.
        2   -1    0    0  501    0  0.00000000000E+00  0.00000000000E+00 -0.16431182942E+04  0.16431182942E+04  0.25500000920E-02 0. -1.
    10030    2    1    2    0    0  0.00000000000E+00  0.00000000000E+00 -0.80199272286E+03  0.24842438656E+04  0.23512284569E+04 0.  0.
        2    1    3    3  502    0 -0.65206403477E+03 -0.21850917927E+03  0.60643066324E+03  0.91689253252E+03  0.25500000920E-02 0.  1.
       -2    1    3    3    0  502  0.65206403477E+03  0.21850917927E+03 -0.14084233861E+04  0.15673513331E+04  0.25500000920E-02 0. -1.
</event>
<event>
 5   0  0.1057036E-05  0.3000790E+04  0.7818609E-02  0.8243505E-01
       -2   -1    0    0    0  501  0.00000000000E+00  0.00000000000E+00  0.15198476403E+04  0.15198476403E+04  0.25500000920E-02 0.  1.
        2   -1    0    0  501    0  0.00000000000E+00  0.00000000000E+00 -0.14811915369E+04  0.14811915369E+04  0.25500000920E-02 0. -1.
    10030    2    1    2    0    0  0.00000000000E+00  0.00000000000E+00  0.38656103373E+02  0.30010391771E+04  0.30007902040E+04 0.  0.
        4    1    3    3  502    0 -0.52437538616E+02 -0.80994832973E+03  0.12813431511E+04  0.15167754864E+04  0.12699999809E+01 0.  1.
       -4    1    3    3    0  502  0.52437538616E+02  0.80994832973E+03 -0.12426870477E+04  0.14842636908E+04  0.12699999809E+01 0. -1.
</event>
<event>
 5   0  0.3896630E-06  0.3022020E+04  0.7818609E-02  0.8237471E-01
        1   -1    0    0  501    0  0.00000000000E+00  0.00000000000E+00  0.21251973639E+04  0.21251973639E+04  0.50400001928E-02 0. -1.
       -1   -1    0    0    0  501  0.00000000000E+00  0.00000000000E+00 -0.10743246598E+04  0.10743246598E+04  0.50400001928E-02 0.  1.
    10030    2    1    2    0    0  0.00000000000E+00  0.00000000000E+00  0.10508727041E+04  0.31995220237E+04  0.30220204731E+04 0.  0.
        5    1    3    3  502    0  0.30472749361E+03 -0.14176967315E+04  0.75745175332E+02  0.14520613932E+04  0.46999998093E+01 0.  1.
       -5    1    3    3    0  502 -0.30472749361E+03  0.14176967315E+04  0.97512752878E+03  0.17474606306E+04  0.46999998093E+01 0. -1.
</event>
<event>
 5   0  0.1057036E-05  0.2917989E+04  0.7818609E-02  0.8267545E-01
        2   -1    0    0  501    0  0.00000000000E+00  0.00000000000E+00  0.14160539545E+04  0.14160539545E+04  0.25500000920E-02 0. -1.
       -2   -1    0    0    0  501  0.00000000000E+00  0.00000000000E+00 -0.15032369901E+04  0.15032369901E+04  0.25500000920E-02 0.  1.
    10030    2    1    2    0    0  0.00000000000E+00  0.00000000000E+00 -0.87183035568E+02  0.29192909446E+04  0.29179888172E+04 0.  0.
        4    1    3    3  502    0  0.12228685732E+04  0.58098963394E+02 -0.83759549576E+03  0.14833579690E+04  0.12699999809E+01 0.  1.
       -4    1    3    3    0  502 -0.12228685732E+04 -0.58098963394E+02  0.75041246019E+03  0.14359329755E+04  0.12699999809E+01 0. -1.
</event>
<event>
 5   0  0.3725232E-06  0.2845748E+04  0.7818609E-02  0.8289204E-01
        1   -1    0    0  501    0  0.00000000000E+00  0.00000000000E+00  0.16174081495E+04  0.16174081496E+04  0.50400001928E-02 0. -1.
       -1   -1    0    0    0  501  0.00000000000E+00  0.00000000000E+00 -0.12517378732E+04  0.12517378732E+04  0.50400001928E-02 0.  1.
    10030    2    1    2    0    0  0.00000000000E+00  0.00000000000E+00  0.36567027637E+03  0.28691460227E+04  0.28457484339E+04 0.  0.
        2    1    3    3  502    0  0.40626309204E+03  0.19143774087E+03  0.15440740150E+04  0.16080617750E+04  0.25500000920E-02 0. -1.
       -2    1    3    3    0  502 -0.40626309204E+03 -0.19143774087E+03 -0.11784037386E+04  0.12610842477E+04  0.25500000920E-02 0.  1.
</event>
<event>
 5   0  0.1089569E-05  0.2945840E+04  0.7818609E-02  0.8259368E-01
        2   -1    0    0  501    0  0.00000000000E+00  0.00000000000E+00  0.15661986273E+04  0.15661986273E+04  0.25500000920E-02 0.  1.
       -2   -1    0    0    0  501  0.00000000000E+00  0.00000000000E+00 -0.13851964373E+04  0.13851964373E+04  0.25500000920E-02 0. -1.
    10030    2    1    2    0    0  0.00000000000E+00  0.00000000000E+00  0.18100218992E+03  0.29513950646E+04  0.29458396145E+04 0.  0.
        5    1    3    3  502    0 -0.14728799365E+04 -0.63249946739E+01  0.83046926329E+02  0.14752403855E+04  0.46999998093E+01 0. -1.
       -5    1    3    3    0  502  0.14728799365E+04  0.63249946739E+01  0.97955263591E+02  0.14761546791E+04  0.46999998093E+01 0.  1.
</event>
<event>
 5   0  0.3636718E-06  0.3082823E+04  0.7818609E-02  0.8220468E-01
       -1   -1    0    0    0  501  0.00000000000E+00  0.00000000000E+00  0.12328040779E+04  0.12328040779E+04  0.50400001928E-02 0. -1.
        1   -1    0    0  501    0  0.00000000000E+00  0.00000000000E+00 -0.19272720222E+04  0.19272720222E+04  0.50400001928E-02 0.  1.
    10030    2    1    2    0    0  0.00000000000E+00  0.00000000000E+00 -0.69446794428E+03  0.31600761002E+04  0.30828226081E+04 0.  0.
        4    1    3    3  502    0  0.52318991416E+03 -0.10823553302E+04 -0.13361514071E+04  0.17973655563E+04  0.12699999809E+01 0.  1.
       -4    1    3    3    0  502 -0.52318991416E+03  0.10823553302E+04  0.64168346284E+03  0.13627105439E+04  0.12699999809E+01 0. -1.
</event>
<event>
 5   0  0.1028450E-05  0.3260151E+04  0.7818609E-02  0.8173110E-01
       -2   -1    0    0    0  501  0.00000000000E+00  0.00000000000E+00  0.11237123802E+04  0.11237123802E+04  0.25500000920E-02 0. -1.
        2   -1    0    0  501    0  0.00000000000E+00  0.00000000000E+00 -0.23646134223E+04  0.23646134223E+04  0.25500000920E-02 0.  1.
    10030    2    1    2    0    0  0.00000000000E+00  0.00000000000E+00 -0.12409010421E+04  0.34883258025E+04  0.32601505346E+04 0.  0.
        3    1    3    3  502    0 -0.12592256115E+04  0.10084707095E+04 -0.37069786867E+03  0.16553184687E+04  0.10100000352E+00 0.  1.
       -3    1    3    3    0  502  0.12592256115E+04 -0.10084707095E+04 -0.87020317342E+03  0.18330073338E+04  0.10100000352E+00 0. -1.
</event>
<event>
 5   0  0.3725232E-06  0.2790632E+04  0.7818609E-02  0.8306183E-01
       -1   -1    0    0    0  501  0.00000000000E+00  0.00000000000E+00  0.73284475114E+03  0.73284475115E+03  0.50400001928E-02 0. -1.
        1   -1    0    0  501    0  0.00000000000E+00  0.00000000000E+00 -0.26566430716E+04  0.26566430716E+04  0.50400001928E-02 0.  1.
    10030    2    1    2    0    0  0.00000000000E+00  0.00000000000E+00 -0.19237983205E+04  0.33894878228E+04  0.27906321368E+04 0.  0.
        2    1    3    3  502    0 -0.13186674429E+04  0.34615962691E+03 -0.13226085549E+04  0.18994745857E+04  0.25500000920E-02 0.  1.
       -2    1    3    3    0  502  0.13186674429E+04 -0.34615962691E+03 -0.60118976560E+03  0.14900132371E+04  0.25500000920E-02 0. -1.
</event>
<event>
 5   0  0.9647945E-06  0.3059213E+04  0.7818609E-02  0.8227022E-01
       -2   -1    0    0    0  501  0.00000000000E+00  0.00000000000E+00  0.14916879329E+04  0.14916879329E+04  0.25500000920E-02 0.  1.
        2   -1    0    0  501    0  0.00000000000E+00  0.00000000000E+00 -0.15684888480E+04  0.15684888480E+04  0.25500000920E-02 0. -1.
    10030    2    1    2    0    0  0.00000000000E+00  0.00000000000E+00 -0.76800915166E+02  0.30601767809E+04  0.30592128971E+04 0.  0.
        2    1    3    3  502    0  0.41335026421E+02  0.53795834147E+03  0.13933394804E+04  0.14941561730E+04  0.25500000920E-02 0.  1.
       -2    1    3    3    0  502 -0.41335026421E+02 -0.53795834147E+03 -0.14701403956E+04  0.15660206079E+04  0.25500000920E-02 0. -1.
</event>
<event>
 5   0  0.1057036E-05  0.2605853E+04  0.7818609E-02  0.8366216E-01
        2   -1    0    0  501    0  0.00000000000E+00  0.00000000000E+00  0.12852294189E+04  0.12852294189E+04  0.25500000920E-02 0. -1.
       -2   -1    0    0    0  501  0.00000000000E+00  0.00000000000E+00 -0.13208671999E+04  0.13208671999E+04  0.25500000920E-02 0.  1.
    10030    2    1    2    0    0  0.00000000000E+00  0.00000000000E+00 -0.35637780982E+02  0.26060966187E+04  0.26058529381E+04 0.  0.
        4    1    3    3  502    0 -0.15614624760E+02  0.81213667193E+03 -0.10366417828E+04  0.13169804817E+04  0.12699999809E+01 0.  1.
       -4    1    3    3    0  502  0.15614624760E+02 -0.81213667193E+03  0.10010040018E+04  0.12891161371E+04  0.12699999809E+01 0. -1.
</event>
<event>
 5   0  0.1089569E-05  0.2679375E+04  0.7818609E-02  0.8341728E-01
       -2   -1    0    0    0  501  0.00000000000E+00  0.00000000000E+00  0.15696839472E+04  0.15696839472E+04  0.25500000920E-02 0. -1.
        2   -1    0    0  501    0  0.00000000000E+00  0.00000000000E+00 -0.11433910133E+04  0.11433910133E+04  0.25500000920E-02 0.  1.
    10030    2    1    2    0    0  0.00000000000E+00  0.00000000000E+00  0.42629293391E+03  0.27130749605E+04  0.26793749412E+04 0.  0.
        5    1    3    3  502    0 -0.26579326129E+03  0.60895767032E+03 -0.96478416298E+03  0.11714546825E+04  0.46999998093E+01 0.  1.
       -5    1    3    3    0  502  0.26579326129E+03 -0.60895767032E+03  0.13910770969E+04  0.15416202780E+04  0.46999998093E+01 0. -1.
</event>
<event>
 5   0  0.3852126E-06  0.2232922E+04  0.7818609E-02  0.8504849E-01
       -1   -1    0    0    0  501  0.00000000000E+00  0.00000000000E+00  0.10775714265E+04  0.10775714265E+04  0.50400001928E-02 0.  1.
        1   -1    0    0  501    0  0.00000000000E+00  0.00000000000E+00 -0.11567540500E+04  0.11567540500E+04  0.50400001928E-02 0. -1.
    10030    2    1    2    0    0  0.00000000000E+00  0.00000000000E+00 -0.79182623511E+02  0.22343254766E+04  0.22329219528E+04 0.  0.
        1    1    3    3  502    0 -0.54714672266E+03  0.67663601871E+03  0.66033336221E+03  0.10923579941E+04  0.50400001928E-02 0.  1.
       -1    1    3    3    0  502  0.54714672266E+03 -0.67663601871E+03 -0.73951598572E+03  0.11419674825E+04  0.50400001928E-02 0. -1.
</event>
<event>
 5   0  0.3725232E-06  0.2973968E+04  0.7818609E-02  0.8251204E-01
        1   -1    0    0  501    0  0.00000000000E+00  0.00000000000E+00  0.22578230342E+04  0.22578230342E+04  0.50400001928E-02 0.  1.
       -1   -1    0    0    0  501  0.00000000000E+00  0.00000000000E+00 -0.97931536987E+03  0.97931536989E+03  0.50400001928E-02 0. -1.
    10030    2    1    2    0    0  0.00000000000E+00  0.00000000000E+00  0.12785076644E+04  0.32371384041E+04  0.29739675855E+04 0.  0.
        2    1    3    3  502    0 -0.14635287664E+04  0.17192596973E+03  0.85598615652E+03  0.17041676236E+04  0.25500000920E-02 0.  1.
       -2    1    3    3    0  502  0.14635287664E+04 -0.17192596973E+03  0.42252150784E+03  0.15329707805E+04  0.25500000920E-02 0. -1.
</event>
<event>
 5   0  0.1089569E-05  0.2934950E+04  0.7818609E-02  0.8262554E-01
        2   -1    0    0  501    0  0.00000000000E+00  0.00000000000E+00  0.25295489348E+04  0.25295489348E+04  0.25500000920E-02 0. -1.
       -2   -1    0    0    0  501  0.00000000000E+00  0.00000000000E+00 -0.85133099175E+03  0.85133099175E+03  0.25500000920E-02 0.  1.
    10030    2    1    2    0    0  0.00000000000E+00  0.00000000000E+00  0.16782179430E+04  0.33808799266E+04  0.29349503596E+04 0.  0.
        5    1    3    3  502    0 -0.62495496285E+03 -0.12750510111E+04  0.12656955068E+04  0.19021911030E+04  0.46999998093E+01 0. -1.
       -5    1    3    3    0  502  0.62495496285E+03  0.12750510111E+04  0.41252243627E+03  0.14786888235E+04  0.46999998093E+01 0.  1.
</event>
<event>
 5   0  0.3592331E-06  0.2991137E+04  0.7818609E-02  0.8246266E-01
        1   -1    0    0  501    0  0.00000000000E+00  0.00000000000E+00  0.17531013887E+04  0.17531013887E+04  0.50400001928E-02 0.  1.
       -1   -1    0    0    0  501  0.00000000000E+00  0.00000000000E+00 -0.12758678845E+04  0.12758678845E+04  0.50400001928E-02 0. -1.
    10030    2    1    2    0    0  0.00000000000E+00  0.00000000000E+00  0.47723350419E+03  0.30289692732E+04  0.29911374159E+04 0.  0.
        3    1    3    3  502    0  0.64878846214E+03 -0.13183950462E+04  0.52076923652E+03  0.15589395672E+04  0.10100000352E+00 0.  1.
       -3    1    3    3    0  502 -0.64878846214E+03  0.13183950462E+04 -0.43535732330E+02  0.14700297060E+04  0.10100000352E+00 0. -1.
</event>
<event>
 5   0  0.1029922E-05  0.2982059E+04  0.7818609E-02  0.8248873E-01
       -2   -1    0    0    0  501  0.00000000000E+00  0.00000000000E+00  0.13071935790E+04  0.13071935790E+04  0.25500000920E-02 0.  1.
        2   -1    0    0  501    0  0.00000000000E+00  0.00000000000E+00 -0.17007186747E+04  0.17007186747E+04  0.25500000920E-02 0. -1.
    10030    2    1    2    0    0  0.00000000000E+00  0.00000000000E+00 -0.39352509570E+03  0.30079122537E+04  0.29820587058E+04 0.  0.
        1    1    3    3  502    0  0.13364460995E+04 -0.55764886794E+03  0.16143322454E+03  0.14570933816E+04  0.50400001928E-02 0.  1.
       -1    1    3    3    0  502 -0.13364460995E+04  0.55764886794E+03 -0.55495832024E+03  0.15508188721E+04  0.50400001928E-02 0. -1.
</event>
<event>
 5   0  0.3852126E-06  0.2437910E+04  0.7818609E-02  0.8425446E-01
        1   -1    0    0  501    0  0.00000000000E+00  0.00000000000E+00  0.19737589296E+04  0.19737589296E+04  0.50400001928E-02 0. -1.
       -1   -1    0    0    0  501  0.00000000000E+00  0.00000000000E+00 -0.75280257096E+03  0.75280257098E+03  0.50400001928E-02 0.  1.
    10030    2    1    2    0    0  0.00000000000E+00  0.00000000000E+00  0.12209563587E+04  0.27265615006E+04  0.24379095937E+04 0.  0.
        1    1    3    3  502    0 -0.11170081174E+04  0.41978667171E+03  0.88878448018E+03  0.14879065281E+04  0.50400001928E-02 0.  1.
       -1    1    3    3    0  502  0.11170081174E+04 -0.41978667171E+03  0.33217187850E+03  0.12386549725E+04  0.50400001928E-02 0. -1.
</event>
<event>
 5   0  0.1029922E-05  0.2937062E+04  0.7818609E-02  0.8261935E-01
       -2   -1    0    0    0  501  0.00000000000E+00  0.00000000000E+00  0.13697021597E+04  0.13697021598E+04  0.25500000920E-02 0. -1.
        2   -1    0    0  501    0  0.00000000000E+00  0.00000000000E+00 -0.15744902121E+04  0.15744902121E+04  0.25500000920E-02 0.  1.
    10030    2    1    2    0    0  0.00000000000E+00  0.00000000000E+00 -0.20478805238E+03  0.29441923719E+04  0.29370615547E+04 0.  0.
        1    1    3    3  502    0  0.11507871217E+04 -0.74723533661E+03 -0.62702976066E+03  0.15085880712E+04  0.50400001928E-02 0.  1.
       -1    1    3    3    0  502 -0.11507871217E+04  0.74723533661E+03  0.42224170829E+03  0.14356043007E+04  0.50400001928E-02 0. -1.
</event>
<event>
 5   0  0.1029922E-05  0.2994553E+04  0.7818609E-02  0.8245288E-01
        2   -1    0    0  501    0  0.00000000000E+00  0.00000000000E+00  0.18166144793E+04  0.18166144793E+04  0.25500000920E-02 0. -1.
       -2   -1    0    0    0  501  0.00000000000E+00  0.00000000000E+00 -0.12340740386E+04  0.12340740387E+04  0.25500000920E-02 0.  1.
    10030    2    1    2    0    0  0.00000000000E+00  0.00000000000E+00  0.58254044070E+03  0.30506885180E+04  0.29945528997E+04 0.  0.
        1    1    3    3  502    0 -0.11377512808E+04  0.27060750393E+03  0.12437460911E+04  0.17072231071E+04  0.50400001928E-02 0. -1.
       -1    1    3    3    0  502  0.11377512808E+04 -0.27060750393E+03 -0.66120565041E+03  0.13434654109E+04  0.50400001928E-02 0.  1.
</event>
<event>
 5   0  0.1089569E-05  0.3066011E+04  0.7818609E-02  0.8225128E-01
       -2   -1    0    0    0  501  0.00000000000E+00  0.00000000000E+00  0.80306475497E+03  0.80306475498E+03  0.25500000920E-02 0.  1.
        2   -1    0    0  501    0  0.00000000000E+00  0.00000000000E+00 -0.29264212657E+04  0.29264212658E+04  0.25500000920E-02 0. -1.
    10030    2    1    2    0    0  0.00000000000E+00  0.00000000000E+00 -0.21233565108E+04  0.37294860207E+04  0.30660109437E+04 0.  0.
        5    1    3    3  502    0 -0.12117336096E+04 -0.70693072769E+03 -0.30983647349E+03  0.14366872049E+04  0.46999998093E+01 0.  1.
       -5    1    3    3    0  502  0.12117336096E+04  0.70693072769E+03 -0.18135200373E+04  0.22927988159E+04  0.46999998093E+01 0. -1.
</event>
<event>
 5   0  0.1028450E-05  0.2984967E+04  0.7818609E-02  0.8248037E-01
       -2   -1    0    0    0  501  0.00000000000E+00  0.00000000000E+00  0.15374624939E+04  0.15374624939E+04  0.25500000920E-02 0.  1.
        2   -1    0    0  501    0  0.00000000000E+00  0.00000000000E+00 -0.14488200570E+04  0.14488200570E+04  0.25500000920E-02 0. -1.
    10030    2    1    2    0    0  0.00000000000E+00  0.00000000000E+00  0.88642436848E+02  0.29862825509E+04  0.29849666652E+04 0.  0.
        3    1    3    3  502    0  0.14367640412E+04 -0.27680041304E+03 -0.25008237600E+03  0.14844024332E+04  0.10100000352E+00 0. -1.
       -3    1    3    3    0  502 -0.14367640412E+04  0.27680041304E+03  0.33872481284E+03  0.15018801177E+04  0.10100000352E+00 0.  1.
</event>
<event>
 5   0  0.3636718E-06  0.3003344E+04  0.7818609E-02  0.8242777E-01
        1   -1    0    0  501    0  0.00000000000E+00  0.00000000000E+00  0.13048906402E+04  0.13048906402E+04  0.50400001928E-02 0. -1.
       -1   -1    0    0    0  501  0.00000000000E+00  0.00000000000E+00 -0.17281288255E+04  0.17281288255E+04  0.50400001928E-02 0.  1.
    10030    2    1    2    0    0  0.00000000000E+00  0.00000000000E+00 -0.42323818530E+03  0.30330194657E+04  0.30033442224E+04 0.  0.
        4    1    3    3  502    0  0.43171101627E+03  0.48218863538E+02  0.12400534820E+04  0.13139382449E+04  0.12699999809E+01 0. -1.
       -4    1    3    3    0  502 -0.43171101627E+03 -0.48218863538E+02 -0.16632916673E+04  0.17190812208E+04  0.12699999809E+01 0.  1.
</event>
<event>
 5   0  0.3592331E-06  0.3017676E+04  0.7818609E-02  0.8238701E-01
       -1   -1    0    0    0  501  0.00000000000E+00  0.00000000000E+00  0.12353833489E+04  0.12353833490E+04  0.50400001928E-02 0. -1.
        1   -1    0    0  501    0  0.00000000000E+00  0.00000000000E+00 -0.18428224507E+04  0.18428224507E+04  0.50400001928E-02 0.  1.
    10030    2    1    2    0    0  0.00000000000E+00  0.00000000000E+00 -0.60743910177E+03  0.30782057997E+04  0.30176760401E+04 0.  0.
        3    1    3    3  502    0 -0.27989302777E+03 -0.14141312322E+03  0.12017755121E+04  0.12420153663E+04  0.10100000352E+00 0. -1.
       -3    1    3    3    0  502  0.27989302777E+03  0.14141312322E+03 -0.18092146139E+04  0.18361904334E+04  0.10100000352E+00 0.  1.
</event>
<event>
 5   0  0.3725232E-06  0.2990549E+04  0.7818609E-02  0.8246435E-01
       -1   -1    0    0    0  501  0.00000000000E+00  0.00000000000E+00  0.14432968111E+04  0.14432968112E+04  0.50400001928E-02 0.  1.
        1   -1    0    0  501    0  0.00000000000E+00  0.00000000000E+00 -0.15491239070E+04  0.15491239070E+04  0.50400001928E-02 0. -1.
    10030    2    1    2    0    0  0.00000000000E+00  0.00000000000E+00 -0.10582709586E+03  0.29924207182E+04  0.29905488427E+04 0.  0.
        2    1    3    3  502    0  0.24579458555E+03 -0.31030389262E+03 -0.14957391515E+04  0.15472359527E+04  0.25500000920E-02 0. -1.
       -2    1    3    3    0  502 -0.24579458555E+03  0.31030389262E+03  0.13899120556E+04  0.14451847655E+04  0.25500000920E-02 0.  1.
</event>
<event>
 5   0  0.3852126E-06  0.3072307E+04  0.7818609E-02  0.8223379E-01
       -1   -1    0    0    0  501  0.00000000000E+00  0.00000000000E+00  0.15847954166E+04  0.15847954166E+04  0.50400001928E-02 0.  1.
        1   -1    0    0  501    0  0.00000000000E+00  0.00000000000E+00 -0.14890047533E+04  0.14890047533E+04  0.50400001928E-02 0. -1.
    10030    2    1    2    0    0  0.00000000000E+00  0.00000000000E+00  0.95790663271E+02  0.30738001699E+04  0.30723072167E+04 0.  0.
        1    1    3    3  502    0  0.11246752090E+04  0.22029250900E+00  0.10947658468E+04  0.15695243336E+04  0.50400001928E-02 0.  1.
       -1    1    3    3    0  502 -0.11246752090E+04 -0.22029250900E+00 -0.99897518358E+03  0.15042758363E+04  0.50400001928E-02 0. -1.
</event>
<event>
 5   0  0.1029922E-05  0.2919224E+04  0.7818609E-02  0.8267181E-01
       -2   -1    0    0    0  501  0.00000000000E+00  0.00000000000E+00  0.10915030820E+04  0.10915030820E+04  0.25500000920E-02 0.  1.
        2   -1    0    0  501    0  0.00000000000E+00  0.00000000000E+00 -0.19518658117E+04  0.19518658117E+04  0.25500000920E-02 0. -1.
    10030    2    1    2    0    0  0.00000000000E+00  0.00000000000E+00 -0.86036272971E+03  0.30433688937E+04  0.29192242457E+04 0.  0.
        1    1    3    3  502    0  0.19112540375E+03 -0.12619916318E+04  0.30796555992E+03  0.13130097428E+04  0.50400001928E-02 0.  1.
       -1    1    3    3    0  502 -0.19112540375E+03  0.12619916318E+04 -0.11683282896E+04  0.17303591509E+04  0.50400001928E-02 0. -1.
</event>
<event>
 5   0  0.3592331E-06  0.3119984E+04  0.7818609E-02  0.8210275E-01
        1   -1    0    0  501    0  0.00000000000E+00  0.00000000000E+00  0.15991263967E+04  0.15991263967E+04  0.50400001928E-02 0.  1.
       -1   -1    0    0    0  501  0.00000000000E+00  0.00000000000E+00 -0.15218151115E+04  0.15218151115E+04  0.50400001928E-02 0. -1.
    10030    2    1    2    0    0  0.00000000000E+00  0.00000000000E+00  0.77311285233E+02  0.31209415083E+04  0.31199837921E+04 0.  0.
        3    1    3    3  502    0  0.47214948370E+03 -0.66273176892E+01 -0.14486113142E+04  0.15236285001E+04  0.10100000352E+00 0. -1.
       -3    1    3    3    0  502 -0.47214948370E+03  0.66273176892E+01  0.15259225995E+04  0.15973130082E+04  0.10100000352E+00 0.  1.
</event>
<event>
 5   0  0.9647945E-06  0.2970600E+04  0.7818609E-02  0.8252176E-01
       -2   -1    0    0    0  501  0.00000000000E+00  0.00000000000E+00  0.11023207779E+04  0.11023207779E+04  0.25500000920E-02 0. -1.
        2   -1    0    0  501    0  0.00000000000E+00  0.00000000000E+00 -0.20013374563E+04  0.20013374563E+04  0.25500000920E-02 0.  1.
    10030    2    1    2    0    0  0.00000000000E+00  0.00000000000E+00 -0.89901667844E+03  0.31036582342E+04  0.29705998462E+04 0.  0.
        2    1    3    3  502    0  0.11785483053E+03  0.10442462638E+04  0.64716266355E+03  0.12341634955E+04  0.25500000920E-02 0. -1.
       -2    1    3    3    0  502 -0.11785483053E+03 -0.10442462638E+04 -0.15461793420E+04  0.18694947387E+04  0.25500000920E-02 0.  1.
</event>
<event>
 5   0  0.3896630E-06  0.2934252E+04  0.7818609E-02  0.8262759E-01
        1   -1    0    0  501    0  0.00000000000E+00  0.00000000000E+00  0.16852927707E+04  0.16852927707E+04  0.50400001928E-02 0.  1.
       -1   -1    0    0    0  501  0.00000000000E+00  0.00000000000E+00 -0.12772017667E+04  0.12772017667E+04  0.50400001928E-02 0. -1.
    10030    2    1    2    0    0  0.00000000000E+00  0.00000000000E+00  0.40809100400E+03  0.29624945373E+04  0.29342521392E+04 0.  0.
        5    1    3    3  502    0 -0.73600018066E+02  0.48814605276E+03  0.15989123470E+04  0.16733936521E+04  0.46999998093E+01 0.  1.
       -5    1    3    3    0  502  0.73600018066E+02 -0.48814605276E+03 -0.11908213430E+04  0.12891008853E+04  0.46999998093E+01 0. -1.
</event>
<event>
 5   0  0.1057036E-05  0.2805273E+04  0.7818609E-02  0.8301633E-01
        2   -1    0    0  501    0  0.00000000000E+00  0.00000000000E+00  0.26584598541E+04  0.26584598541E+04  0.25500000920E-02 0.  1.
       -2   -1    0    0    0  501  0.00000000000E+00  0.00000000000E+00 -0.74004844092E+03  0.74004844092E+03  0.25500000920E-02 0. -1.
    10030    2    1    2    0    0  0.00000000000E+00  0.00000000000E+00  0.19184114132E+04  0.33985082950E+04  0.28052729424E+04 0.  0.
        4    1    3    3  502    0  0.13297343257E+04  0.25216446055E+03  0.51308279270E+03  0.14474238692E+04  0.12699999809E+01 0. -1.
       -4    1    3    3    0  502 -0.13297343257E+04 -0.25216446055E+03  0.14053286205E+04  0.19510844258E+04  0.12699999809E+01 0.  1.
</event>
<event>
 5   0  0.1029922E-05  0.3017041E+04  0.7818609E-02  0.8238881E-01
        2   -1    0    0  501    0  0.00000000000E+00  0.00000000000E+00  0.21592330150E+04  0.21592330150E+04  0.25500000920E-02 0.  1.
       -2   -1    0    0    0  501  0.00000000000E+00  0.00000000000E+00 -0.10539087090E+04  0.10539087090E+04  0.25500000920E-02 0. -1.
    10030    2    1    2    0    0  0.00000000000E+00  0.00000000000E+00  0.11053243060E+04  0.32131417240E+04  0.30170412521E+04 0.  0.
        1    1    3    3  502    0 -0.78294606762E+03  0.77195533402E+03 -0.54728751597E+03  0.12281869596E+04  0.50400001928E-02 0.  1.
       -1    1    3    3    0  502  0.78294606762E+03 -0.77195533402E+03  0.16526118220E+04  0.19849547644E+04  0.50400001928E-02 0. -1.
</event>
<event>
 5   0  0.1029922E-05  0.2107528E+04  0.7818609E-02  0.8557934E-01
        2   -1    0    0  501    0  0.00000000000E+00  0.00000000000E+00  0.14565997819E+04  0.14565997819E+04  0.25500000920E-02 0. -1.
       -2   -1    0    0    0  501  0.00000000000E+00  0.00000000000E+00 -0.76233643766E+03  0.76233643767E+03  0.25500000920E-02 0.  1.
    10030    2    1    2    0    0  0.00000000000E+00  0.00000000000E+00  0.69426334422E+03  0.22189362196E+04  0.21075284945E+04 0.  0.
        1    1    3    3  502    0  0.81081301498E+03 -0.66945827144E+03  0.42028069001E+03  0.11323550595E+04  0.50400001928E-02 0. -1.
       -1    1    3    3    0  502 -0.81081301498E+03  0.66945827144E+03  0.27398265422E+03  0.10865811600E+04  0.50400001928E-02 0.  1.
</event>
<event>
 5   0  0.3636718E-06  0.2918952E+04  0.7818609E-02  0.8267261E-01
        1   -1    0    0  501    0  0.00000000000E+00  0.00000000000E+00  0.27290231462E+04  0.27290231462E+04  0.50400001928E-02 0.  1.
       -1   -1    0    0    0  501  0.00000000000E+00  0.00000000000E+00 -0.78052465087E+03  0.78052465089E+03  0.50400001928E-02 0. -1.
    10030    2    1    2    0    0  0.00000000000E+00  0.00000000000E+00  0.19484984954E+04  0.35095477971E+04  0.29189517560E+04 0.  0.
        4    1    3    3  502    0  0.52279141974E+03  0.13395849906E+04  0.12742771324E+04  0.19213491714E+04  0.12699999809E+01 0. -1.
       -4    1    3    3    0  502 -0.52279141974E+03 -0.13395849906E+04  0.67422136301E+03  0.15881986257E+04  0.12699999809E+01 0.  1.
</event>
<event>
 5   0  0.1057036E-05  0.2994533E+04  0.7818609E-02  0.8245294E-01
       -2   -1    0    0    0  501  0.00000000000E+00  0.00000000000E+00  0.79949691643E+03  0.79949691643E+03  0.25500000920E-02 0.  1.
        2   -1    0    0  501    0  0.00000000000E+00  0.00000000000E+00 -0.28040213541E+04  0.28040213541E+04  0.25500000920E-02 0. -1.
    10030    2    1    2    0    0  0.00000000000E+00  0.00000000000E+00 -0.20045244377E+04  0.36035182705E+04  0.29945326355E+04 0.  0.
        4    1    3    3  502    0 -0.14943817390E+04  0.34268265770E+02 -0.89836973157E+03  0.17439669960E+04  0.12699999809E+01 0. -1.
       -4    1    3    3    0  502  0.14943817390E+04 -0.34268265770E+02 -0.11061547061E+04  0.18595512745E+04  0.12699999809E+01 0.  1.
</event>
<event>
 5   0  0.1057036E-05  0.2996966E+04  0.7818609E-02  0.8244598E-01
        2   -1    0    0  501    0  0.00000000000E+00  0.00000000000E+00  0.21600557486E+04  0.21600557486E+04  0.25500000920E-02 0.  1.
       -2   -1    0    0    0  501  0.00000000000E+00  0.00000000000E+00 -0.10395342423E+04  0.10395342423E+04  0.25500000920E-02 0. -1.
    10030    2    1    2    0    0  0.00000000000E+00  0.00000000000E+00  0.11205215063E+04  0.31995899909E+04  0.29969664102E+04 0.  0.
        4    1    3    3  502    0  0.29177687178E+03  0.12183021592E+04 -0.31755611345E+03  0.12923766448E+04  0.12699999809E+01 0. -1.
       -4    1    3    3    0  502 -0.29177687178E+03 -0.12183021592E+04  0.14380776198E+04  0.19072133461E+04  0.12699999809E+01 0.  1.
</event>
<event>
 5   0  0.3725232E-06  0.2981898E+04  0.7818609E-02  0.8248919E-01
        1   -1    0    0  501    0  0.00000000000E+00  0.00000000000E+00  0.18658141096E+04  0.18658141096E+04  0.50400001928E-02 0. -1.
       -1   -1    0    0    0  501  0.00000000000E+00  0.00000000000E+00 -0.11913990023E+04  0.11913990023E+04  0.50400001928E-02 0.  1.
    10030    2    1    2    0    0  0.00000000000E+00  0.00000000000E+00  0.67441510728E+03  0.30572131119E+04  0.29818980993E+04 0.  0.
        2    1    3    3  502    0  0.56155762923E+03  0.13698325950E+04  0.15628299816E+03  0.14886949603E+04  0.25500000920E-02 0. -1.
       -2    1    3    3    0  502 -0.56155762923E+03 -0.13698325950E+04  0.51813210911E+03  0.15685181516E+04  0.25500000920E-02 0.  1.
</event>
<event>
 5   0  0.1029922E-05  0.2924330E+04  0.7818609E-02  0.8265675E-01
       -2   -1    0    0    0  501  0.00000000000E+00  0.00000000000E+00  0.91785354907E+03  0.91785354908E+03  0.25500000920E-02 0. -1.
        2   -1    0    0  501    0  0.00000000000E+00  0.00000000000E+00 -0.23292671427E+04  0.23292671427E+04  0.25500000920E-02 0.  1.
    10030    2    1    2    0    0  0.00000000000E+00  0.00000000000E+00 -0.14114135937E+04  0.32471206918E+04  0.29243297445E+04 0.  0.
        1    1    3    3  502    0 -0.54230179990E+03 -0.12321423307E+04 -0.13393640316E+04  0.18989897247E+04  0.50400001928E-02 0.  1.
       -1    1    3    3    0  502  0.54230179990E+03  0.12321423307E+04 -0.72049562066E+02  0.13481309672E+04  0.50400001928E-02 0. -1.
</event>
<event>
 5   0  0.3896630E-06  0.3058864E+04  0.7818609E-02  0.8227119E-01
        1   -1    0    0  501    0  0.00000000000E+00  0.00000000000E+00  0.27626154989E+04  0.27626154989E+04  0.50400001928E-02 0. -1.
       -1   -1    0    0    0  501  0.00000000000E+00  0.00000000000E+00 -0.84672006769E+03  0.84672006771E+03  0.50400001928E-02 0.  1.
    10030    2    1    2    0    0  0.00000000000E+00  0.00000000000E+00  0.19158954312E+04  0.36093355666E+04  0.30588638298E+04 0.  0.
        5    1    3    3  502    0  0.22992559316E+03  0.83788369689E+02  0.27393559025E+04  0.27502689178E+04  0.46999998093E+01 0. -1.
       -5    1    3    3    0  502 -0.22992559316E+03 -0.83788369689E+02 -0.82346047134E+03  0.85906664884E+03  0.46999998093E+01 0.  1.
</event>
<event>
 5   0  0.3896630E-06  0.2956288E+04  0.7818609E-02  0.8256325E-01
        1   -1    0    0  501    0  0.00000000000E+00  0.00000000000E+00  0.14482710949E+04  0.14482710949E+04  0.50400001928E-02 0. -1.
       -1   -1    0    0    0  501  0.00000000000E+00  0.00000000000E+00 -0.15086325898E+04  0.15086325898E+04  0.50400001928E-02 0.  1.
    10030    2    1    2    0    0  0.00000000000E+00  0.00000000000E+00 -0.60361494854E+02  0.29569036847E+04  0.29562875183E+04 0.  0.
        5    1    3    3  502    0  0.15456544324E+02  0.13513541684E+04  0.56868429753E+03  0.14662267606E+04  0.46999998093E+01 0.  1.
       -5    1    3    3    0  502 -0.15456544324E+02 -0.13513541684E+04 -0.62904579238E+03  0.14906769241E+04  0.46999998093E+01 0. -1.
</event>
<event>
 5   0  0.3896630E-06  0.3071408E+04  0.7818609E-02  0.8223629E-01
       -1   -1    0    0    0  501  0.00000000000E+00  0.00000000000E+00  0.19385057121E+04  0.19385057121E+04  0.50400001928E-02 0.  1.
        1   -1    0    0  501    0  0.00000000000E+00  0.00000000000E+00 -0.12166004458E+04  0.12166004458E+04  0.50400001928E-02 0. -1.
    10030    2    1    2    0    0  0.00000000000E+00  0.00000000000E+00  0.72190526630E+03  0.31551061578E+04  0.30714080897E+04 0.  0.
        5    1    3    3  502    0  0.35553154101E+02  0.73957151032E+02  0.19362445818E+04  0.19379883533E+04  0.46999998093E+01 0.  1.
       -5    1    3    3    0  502 -0.35553154101E+02 -0.73957151032E+02 -0.12143393155E+04  0.12171178045E+04  0.46999998093E+01 0. -1.
</event>
<event>
 5   0  0.3725232E-06  0.2996992E+04  0.7818609E-02  0.8244590E-01
       -1   -1    0    0    0  501  0.00000000000E+00  0.00000000000E+00  0.10506394642E+04  0.10506394642E+04  0.50400001928E-02 0.  1.
        1   -1    0    0  501    0  0.00000000000E+00  0.00000000000E+00 -0.21372598637E+04  0.21372598637E+04  0.50400001928E-02 0. -1.
    10030    2    1    2    0    0  0.00000000000E+00  0.00000000000E+00 -0.10866203995E+04  0.31878993279E+04  0.29969915303E+04 0.  0.
        2    1    3    3  502    0  0.10377700425E+03  0.13750388830E+04  0.80554919626E+02  0.13813003625E+04  0.25500000920E-02 0.  1.
       -2    1    3    3    0  502 -0.10377700425E+03 -0.13750388830E+04 -0.11671753191E+04  0.18065989654E+04  0.25500000920E-02 0. -1.
</event>
<event>
 5   0  0.1028450E-05  0.3420651E+04  0.7818609E-02  0.8132856E-01
       -2   -1    0    0    0  501  0.00000000000E+00  0.00000000000E+00  0.11327198153E+04  0.11327198153E+04  0.25500000920E-02 0. -1.
        2   -1    0    0  501    0  0.00000000000E+00  0.00000000000E+00 -0.25824691354E+04  0.25824691354E+04  0.25500000920E-02 0.  1.
    10030    2    1    2    0    0  0.00000000000E+00  0.00000000000E+00 -0.14497493201E+04  0.37151889506E+04  0.34206513777E+04 0.  0.
        3    1    3    3  502    0  0.79214895409E+03 -0.73120174054E+03 -0.21670079160E+04  0.24203469316E+04  0.10100000352E+00 0.  1.
       -3    1    3    3    0  502 -0.79214895409E+03  0.73120174054E+03  0.71725859588E+03  0.12948420191E+04  0.10100000352E+00 0. -1.
</event>
<event>
 5   0  0.1089569E-05  0.2937757E+04  0.7818609E-02  0.8261731E-01
        2   -1    0    0  501    0  0.00000000000E+00  0.00000000000E+00  0.23555311470E+04  0.23555311470E+04  0.25500000920E-02 0. -1.
       -2   -1    0    0    0  501  0.00000000000E+00  0.00000000000E+00 -0.91597366574E+03  0.91597366574E+03  0.25500000920E-02 0.  1.
    10030    2    1    2    0    0  0.00000000000E+00  0.00000000000E+00  0.14395574812E+04  0.32715048127E+04  0.29377573075E+04 0.  0.
        5    1    3    3  502    0  0.14558545506E+04 -0.19287690728E+03  0.68696162298E+03  0.16213119180E+04  0.46999998093E+01 0.  1.
       -5    1    3    3    0  502 -0.14558545506E+04  0.19287690728E+03  0.75259585825E+03  0.16501928947E+04  0.46999998093E+01 0. -1.
</event>
<event>
 5   0  0.9647945E-06  0.2859972E+04  0.7818609E-02  0.8284887E-01
        2   -1    0    0  501    0  0.00000000000E+00  0.00000000000E+00  0.17378769177E+04  0.17378769177E+04  0.25500000920E-02 0.  1.
       -2   -1    0    0    0  501  0.00000000000E+00  0.00000000000E+00 -0.11766428288E+04  0.11766428288E+04  0.25500000920E-02 0. -1.
    10030    2    1    2    0    0  0.00000000000E+00  0.00000000000E+00  0.56123408891E+03  0.29145197465E+04  0.28599723163E+04 0.  0.
        2    1    3    3  502    0 -0.22789291929E+03  0.39949733907E+03 -0.10992115879E+04  0.11915533649E+04  0.25500000920E-02 0. -1.
       -2    1    3    3    0  502  0.22789291929E+03 -0.39949733907E+03  0.16604456768E+04  0.17229663816E+04  0.25500000920E-02 0.  1.
</event>
<event>
 5   0  0.3636718E-06  0.2989437E+04  0.7818609E-02  0.8246754E-01
        1   -1    0    0  501    0  0.00000000000E+00  0.00000000000E+00  0.15388582651E+04  0.15388582651E+04  0.50400001928E-02 0. -1.
       -1   -1    0    0    0  501  0.00000000000E+00  0.00000000000E+00 -0.14518448146E+04  0.14518448147E+04  0.50400001928E-02 0.  1.
    10030    2    1    2    0    0  0.00000000000E+00  0.00000000000E+00  0.87013450440E+02  0.29907030798E+04  0.29894369989E+04 0.  0.
        4    1    3    3  502    0 -0.62225189289E+03  0.13183497923E+04 -0.28669091370E+03  0.14857445561E+04  0.12699999809E+01 0.  1.
       -4    1    3    3    0  502  0.62225189289E+03 -0.13183497923E+04  0.37370436414E+03  0.15049585236E+04  0.12699999809E+01 0. -1.
</event>
<event>
 5   0  0.1029922E-05  0.2703029E+04  0.7818609E-02  0.8334023E-01
       -2   -1    0    0    0  501  0.00000000000E+00  0.00000000000E+00  0.15585573449E+04  0.15585573449E+04  0.25500000920E-02 0.  1.
        2   -1    0    0  501    0  0.00000000000E+00  0.00000000000E+00 -0.11719758820E+04  0.11719758820E+04  0.25500000920E-02 0. -1.
    10030    2    1    2    0    0  0.00000000000E+00  0.00000000000E+00  0.38658146289E+03  0.27305332269E+04  0.27030291296E+04 0.  0.
        1    1    3    3  502    0  0.18303912722E+03 -0.83263169905E+03  0.12526813308E+04  0.15152522513E+04  0.50400001928E-02 0.  1.
       -1    1    3    3    0  502 -0.18303912722E+03  0.83263169905E+03 -0.86609986794E+03  0.12152809756E+04  0.50400001928E-02 0. -1.
</event>
<event>
 5   0  0.3725232E-06  0.2957375E+04  0.7818609E-02  0.8256009E-01
        1   -1    0    0  501    0  0.00000000000E+00  0.00000000000E+00  0.12344498776E+04  0.12344498776E+04  0.50400001928E-02 0. -1.
       -1   -1    0    0    0  501  0.00000000000E+00  0.00000000000E+00 -0.17712476590E+04  0.17712476590E+04  0.50400001928E-02 0.  1.
    10030    2    1    2    0    0  0.00000000000E+00  0.00000000000E+00 -0.53679778139E+03  0.30056975367E+04  0.29573748196E+04 0.  0.
        2    1    3    3  502    0 -0.12026457078E+04  0.68024929368E+03  0.26691473959E+03  0.14072452801E+04  0.25500000920E-02 0. -1.
       -2    1    3    3    0  502  0.12026457078E+04 -0.68024929368E+03 -0.80371252098E+03  0.15984522566E+04  0.25500000920E-02 0.  1.
</event>
<event>
 5   0  0.3852126E-06  0.2982612E+04  0.7818609E-02  0.8248714E-01
        1   -1    0    0  501    0  0.00000000000E+00  0.00000000000E+00  0.14620464456E+04  0.14620464456E+04  0.50400001928E-02 0. -1.
       -1   -1    0    0    0  501  0.00000000000E+00  0.00000000000E+00 -0.15211510059E+04  0.15211510059E+04  0.50400001928E-02 0.  1.
    10030    2    1    2    0    0  0.00000000000E+00  0.00000000000E+00 -0.59104560344E+02  0.29831974515E+04  0.29826118898E+04 0.  0.
        1    1    3    3  502    0 -0.91824068501E+03  0.36961083949E+03  0.10861106987E+04  0.14694946676E+04  0.50400001928E-02 0. -1.
       -1    1    3    3    0  502  0.91824068501E+03 -0.36961083949E+03 -0.11452152590E+04  0.15137027839E+04  0.50400001928E-02 0.  1.
</event>
<event>
 5   0  0.3592331E-06  0.1951819E+04  0.7818609E-02  0.8629484E-01
       -1   -1    0    0    0  501  0.00000000000E+00  0.00000000000E+00  0.10867024927E+04  0.10867024927E+04  0.50400001928E-02 0.  1.
        1   -1    0    0  501    0  0.00000000000E+00  0.00000000000E+00 -0.87641222589E+03  0.87641222590E+03  0.50400001928E-02 0. -1.
    10030    2    1    2    0    0  0.00000000000E+00  0.00000000000E+00  0.21029026681E+03  0.19631147186E+04  0.19518189983E+04 0.  0.
        3    1    3    3  502    0  0.62127830437E+03 -0.68732683036E+03  0.41350454905E+03  0.10145890427E+04  0.10100000352E+00 0.  1.
       -3    1    3    3    0  502 -0.62127830437E+03  0.68732683036E+03 -0.20321428224E+03  0.94852567594E+03  0.10100000352E+00 0. -1.
</event>
<event>
 5   0  0.3725232E-06  0.2956343E+04  0.7818609E-02  0.8256308E-01
       -1   -1    0    0    0  501  0.00000000000E+00  0.00000000000E+00  0.13146868705E+04  0.13146868705E+04  0.50400001928E-02 0.  1.
        1   -1    0    0  501    0  0.00000000000E+00  0.00000000000E+00 -0.16619860174E+04  0.16619860175E+04  0.50400001928E-02 0. -1.
    10030    2    1    2    0    0  0.00000000000E+00  0.00000000000E+00 -0.34729914698E+03  0.29766728879E+04  0.29563431439E+04 0.  0.
        2    1    3    3  502    0 -0.11752919035E+04 -0.89311768636E+03 -0.25177785455E+03  0.14974519519E+04  0.25500000920E-02 0.  1.
       -2    1    3    3    0  502  0.11752919035E+04  0.89311768636E+03 -0.95521292432E+02  0.14792209360E+04  0.25500000920E-02 0. -1.
</event>
<event>
 5   0  0.3592331E-06  0.2876045E+04  0.7818609E-02  0.8280041E-01
        1   -1    0    0  501    0  0.00000000000E+00  0.00000000000E+00  0.15142011905E+04  0.15142011905E+04  0.50400001928E-02 0. -1.
       -1   -1    0    0    0  501  0.00000000000E+00  0.00000000000E+00 -0.13656763768E+04  0.13656763768E+04  0.50400001928E-02 0.  1.
    10030    2    1    2    0    0  0.00000000000E+00  0.00000000000E+00  0.14852481368E+03  0.28798775674E+04  0.28760450592E+04 0.  0.
        3    1    3    3  502    0  0.16964102088E+01 -0.13146311767E+04  0.65783467433E+03  0.14700355362E+04  0.10100000352E+00 0. -1.
       -3    1    3    3    0  502 -0.16964102088E+01  0.13146311767E+04 -0.50930986065E+03  0.14098420312E+04  0.10100000352E+00 0.  1.
</event>
<event>
 5   0  0.3852126E-06  0.2957824E+04  0.7818609E-02  0.8255878E-01
       -1   -1    0    0    0  501  0.00000000000E+00  0.00000000000E+00  0.98242723774E+03  0.98242723775E+03  0.50400001928E-02 0.  1.
        1   -1    0    0  501    0  0.00000000000E+00  0.00000000000E+00 -0.22263023307E+04  0.22263023307E+04  0.50400001928E-02 0. -1.
    10030    2    1    2    0    0  0.00000000000E+00  0.00000000000E+00 -0.12438750930E+04  0.32087295685E+04  0.29578235574E+04 0.  0.
        1    1    3    3  502    0 -0.86950078746E+03 -0.59765256551E+03 -0.17461667789E+04  0.20401761268E+04  0.50400001928E-02 0. -1.
       -1    1    3    3    0  502  0.86950078746E+03  0.59765256551E+03  0.50229168589E+03  0.11685534417E+04  0.50400001928E-02 0.  1.
</event>
<event>
 5   0  0.3725232E-06  0.1980649E+04  0.7818609E-02  0.8615722E-01
        1   -1    0    0  501    0  0.00000000000E+00  0.00000000000E+00  0.11793228253E+04  0.11793228253E+04  0.50400001928E-02 0.  1.
       -1   -1    0    0    0  501  0.00000000000E+00  0.00000000000E+00 -0.83161469982E+03  0.83161469984E+03  0.50400001928E-02 0. -1.
    10030    2    1    2    0    0  0.00000000000E+00  0.00000000000E+00  0.34770812547E+03  0.20109375251E+04  0.19806485780E+04 0.  0.
        2    1    3    3  502    0 -0.23835910743E+03  0.58785292171E+03 -0.59827305055E+03  0.87196144679E+03  0.25500000920E-02 0. -1.
       -2    1    3    3    0  502  0.23835910743E+03 -0.58785292171E+03  0.94598117603E+03  0.11389760784E+04  0.25500000920E-02 0.  1.
</event>
<event>
 5   0  0.9647945E-06  0.3064591E+04  0.7818609E-02  0.8225523E-01
        2   -1    0    0  501    0  0.00000000000E+00  0.00000000000E+00  0.17047533629E+04  0.17047533629E+04  0.25500000920E-02 0.  1.
       -2   -1    0    0    0  501  0.00000000000E+00  0.00000000000E+00 -0.13772840737E+04  0.13772840737E+04  0.25500000920E-02 0. -1.
    10030    2    1    2    0    0  0.00000000000E+00  0.00000000000E+00  0.32746928920E+03  0.30820374365E+04  0.30645911024E+04 0.  0.
        2    1    3    3  502    0  0.57180213867E+03  0.14031528366E+04  0.39336339444E+03  0.15654169824E+04  0.25500000920E-02 0.  1.
       -2    1    3    3    0  502 -0.57180213867E+03 -0.14031528366E+04 -0.65894105242E+02  0.15166204541E+04  0.25500000920E-02 0. -1.
</event>
<event>
 5   0  0.3725232E-06  0.2554700E+04  0.7818609E-02  0.8383753E-01
       -1   -1    0    0    0  501  0.00000000000E+00  0.00000000000E+00  0.11917150645E+04  0.11917150645E+04  0.50400001928E-02 0. -1.
        1   -1    0    0  501    0  0.00000000000E+00  0.00000000000E+00 -0.13691389354E+04  0.13691389354E+04  0.50400001928E-02 0.  1.
    10030    2    1    2    0    0  0.00000000000E+00  0.00000000000E+00 -0.17742387084E+03  0.25608539999E+04  0.25547003697E+04 0.  0.
        2    1    3    3  502    0 -0.44481643039E+03  0.10652622840E+04  0.45939404421E+03  0.12424525256E+04  0.25500000920E-02 0. -1.
       -2    1    3    3    0  502  0.44481643039E+03 -0.10652622840E+04 -0.63681791505E+03  0.13184014743E+04  0.25500000920E-02 0.  1.
</event>
<event>
 5   0  0.3896630E-06  0.3074328E+04  0.7818609E-02  0.8222819E-01
        1   -1    0    0  501    0  0.00000000000E+00  0.00000000000E+00  0.22979256199E+04  0.22979256199E+04  0.50400001928E-02 0.  1.
       -1   -1    0    0    0  501  0.00000000000E+00  0.00000000000E+00 -0.10282636121E+04  0.10282636121E+04  0.50400001928E-02 0. -1.
    10030    2    1    2    0    0  0.00000000000E+00  0.00000000000E+00  0.12696620078E+04  0.33261892320E+04  0.30743280880E+04 0.  0.
        5    1    3    3  502    0  0.18193662907E+03  0.13511820448E+04  0.14029645243E+04  0.19563040156E+04  0.46999998093E+01 0.  1.
       -5    1    3    3    0  502 -0.18193662907E+03 -0.13511820448E+04 -0.13330251647E+03  0.13698852163E+04  0.46999998093E+01 0. -1.
</event>
<event>
 5   0  0.1028450E-05  0.3003375E+04  0.7818609E-02  0.8242768E-01
        2   -1    0    0  501    0  0.00000000000E+00  0.00000000000E+00  0.14858240430E+04  0.14858240430E+04  0.25500000920E-02 0. -1.
       -2   -1    0    0    0  501  0.00000000000E+00  0.00000000000E+00 -0.15177200449E+04  0.15177200449E+04  0.25500000920E-02 0.  1.
    10030    2    1    2    0    0  0.00000000000E+00  0.00000000000E+00 -0.31896001955E+02  0.30035440879E+04  0.30033747241E+04 0.  0.
        3    1    3    3  502    0 -0.14682716688E+04  0.11916075528E+03  0.27569139270E+03  0.14986749925E+04  0.10100000352E+00 0. -1.
       -3    1    3    3    0  502  0.14682716688E+04 -0.11916075528E+03 -0.30758739465E+03  0.15048690954E+04  0.10100000352E+00 0.  1.
</event>
<event>
 5   0  0.1028450E-05  0.2930671E+04  0.7818609E-02  0.8263810E-01
       -2   -1    0    0    0  501  0.00000000000E+00  0.00000000000E+00  0.16463580751E+04  0.16463580751E+04  0.25500000920E-02 0. -1.
        2   -1    0    0  501    0  0.00000000000E+00  0.00000000000E+00 -0.13042165890E+04  0.13042165890E+04  0.25500000920E-02 0.  1.
    10030    2    1    2    0    0  0.00000000000E+00  0.00000000000E+00  0.34214148604E+03  0.29505746641E+04  0.29306705806E+04 0.  0.
        3    1    3    3  502    0 -0.61778051639E+03 -0.11140375912E+04 -0.55805426204E+03  0.13907397638E+04  0.10100000352E+00 0.  1.
       -3    1    3    3    0  502  0.61778051639E+03  0.11140375912E+04  0.90019574808E+03  0.15598349003E+04  0.10100000352E+00 0. -1.
</event>
<event>
 5   0  0.1057036E-05  0.2656989E+04  0.7818609E-02  0.8349097E-01
        2   -1    0    0  501    0  0.00000000000E+00  0.00000000000E+00  0.22389543339E+04  0.22389543339E+04  0.25500000920E-02 0. -1.
       -2   -1    0    0    0  501  0.00000000000E+00  0.00000000000E+00 -0.78826845495E+03  0.78826845495E+03  0.25500000920E-02 0.  1.
    10030    2    1    2    0    0  0.00000000000E+00  0.00000000000E+00  0.14506858790E+04  0.30272227889E+04  0.26569885762E+04 0.  0.
        4    1    3    3  502    0 -0.32661767371E+03  0.97328293727E+03 -0.23531805562E+03  0.10532497239E+04  0.12699999809E+01 0. -1.
       -4    1    3    3    0  502  0.32661767371E+03 -0.97328293727E+03  0.16860039346E+04  0.19739730649E+04  0.12699999809E+01 0.  1.
</event>
<event>
 5   0  0.1028450E-05  0.3049831E+04  0.7818609E-02  0.8229643E-01
        2   -1    0    0  501    0  0.00000000000E+00  0.00000000000E+00  0.15410143031E+04  0.15410143031E+04  0.25500000920E-02 0. -1.
       -2   -1    0    0    0  501  0.00000000000E+00  0.00000000000E+00 -0.15089845998E+04  0.15089845998E+04  0.25500000920E-02 0.  1.
    10030    2    1    2    0    0  0.00000000000E+00  0.00000000000E+00  0.32029703338E+02  0.30499989029E+04  0.30498307175E+04 0.  0.
        3    1    3    3  502    0  0.19414462702E+03  0.91853985033E+03  0.12177296720E+04  0.15376193147E+04  0.10100000352E+00 0. -1.
       -3    1    3    3    0  502 -0.19414462702E+03 -0.91853985033E+03 -0.11856999686E+04  0.15123795881E+04  0.10100000352E+00 0.  1.
</event>
<event>
 5   0  0.1029922E-05  0.2964630E+04  0.7818609E-02  0.8253904E-01
       -2   -1    0    0    0  501  0.00000000000E+00  0.00000000000E+00  0.27890887604E+04  0.27890887604E+04  0.25500000920E-02 0. -1.
        2   -1    0    0  501    0  0.00000000000E+00  0.00000000000E+00 -0.78780485506E+03  0.78780485507E+03  0.25500000920E-02 0.  1.
    10030    2    1    2    0    0  0.00000000000E+00  0.00000000000E+00  0.20012839053E+04  0.35768936155E+04  0.29646299375E+04 0.  0.
        1    1    3    3  502    0 -0.14191213121E+04  0.42807873626E+03  0.10127651821E+04  0.17952297950E+04  0.50400001928E-02 0. -1.
       -1    1    3    3    0  502  0.14191213121E+04 -0.42807873626E+03  0.98851872323E+03  0.17816638204E+04  0.50400001928E-02 0.  1.
</event>
<event>
 5   0  0.1089569E-05  0.3092619E+04  0.7818609E-02  0.8217766E-01
        2   -1    0    0  501    0  0.00000000000E+00  0.00000000000E+00  0.22893968116E+04  0.22893968116E+04  0.25500000920E-02 0. -1.
       -2   -1    0    0    0  501  0.00000000000E+00  0.00000000000E+00 -0.10444120244E+04  0.10444120244E+04  0.25500000920E-02 0.  1.
    10030    2    1    2    0    0  0.00000000000E+00  0.00000000000E+00  0.12449847871E+04  0.33338088360E+04  0.30926193162E+04 0.  0.
        5    1    3    3  502    0  0.71588399074E+03 -0.10696219407E+04 -0.30135747875E+03  0.13218999222E+04  0.46999998093E+01 0.  1.
       -5    1    3    3    0  502 -0.71588399074E+03  0.10696219407E+04  0.15463422659E+04  0.20119089138E+04  0.46999998093E+01 0. -1.
</event>
<event>
 5   0  0.1089569E-05  0.2995844E+04  0.7818609E-02  0.8244919E-01
        2   -1    0    0  501    0  0.00000000000E+00  0.00000000000E+00  0.11944567048E+04  0.11944567048E+04  0.25500000920E-02 0. -1.
       -2   -1    0    0    0  501  0.00000000000E+00  0.00000000000E+00 -0.18784858510E+04  0.18784858510E+04  0.25500000920E-02 0.  1.
    10030    2    1    2    0    0  0.00000000000E+00  0.00000000000E+00 -0.68402914619E+03  0.30729425558E+04  0.29958438007E+04 0.  0.
        5    1    3    3  502    0  0.34523023485E+03  0.14310547492E+04 -0.62599010902E+03  0.15996835052E+04  0.46999998093E+01 0.  1.
       -5    1    3    3    0  502 -0.34523023485E+03 -0.14310547492E+04 -0.58039037170E+02  0.14732590506E+04  0.46999998093E+01 0. -1.
</event>
<event>
 5   0  0.3896630E-06  0.3007310E+04  0.7818609E-02  0.8241647E-01
        1   -1    0    0  501    0  0.00000000000E+00  0.00000000000E+00  0.16097850505E+04  0.16097850505E+04  0.50400001928E-02 0. -1.
       -1   -1    0    0    0  501  0.00000000000E+00  0.00000000000E+00 -0.14045219444E+04  0.14045219444E+04  0.50400001928E-02 0.  1.
    10030    2    1    2    0    0  0.00000000000E+00  0.00000000000E+00  0.20526310612E+03  0.30143069949E+04  0.30073100467E+04 0.  0.
        5    1    3    3  502    0 -0.23831285911E+03  0.10373615817E+04  0.11671969558E+04  0.15796464458E+04  0.46999998093E+01 0. -1.
       -5    1    3    3    0  502  0.23831285911E+03 -0.10373615817E+04 -0.96193384972E+03  0.14346605491E+04  0.46999998093E+01 0.  1.
</event>
<event>
 5   0  0.3852126E-06  0.2965700E+04  0.7818609E-02  0.8253594E-01
        1   -1    0    0  501    0  0.00000000000E+00  0.00000000000E+00  0.17603091980E+04  0.17603091980E+04  0.50400001928E-02 0. -1.
       -1   -1    0    0    0  501  0.00000000000E+00  0.00000000000E+00 -0.12491234029E+04  0.12491234029E+04  0.50400001928E-02 0.  1.
    10030    2    1    2    0    0  0.00000000000E+00  0.00000000000E+00  0.51118579507E+03  0.30094326009E+04  0.29656995233E+04 0.  0.
        1    1    3    3  502    0  0.12817038749E+04  0.23861724902E+03 -0.46132403145E+03  0.13829399396E+04  0.50400001928E-02 0.  1.
       -1    1    3    3    0  502 -0.12817038749E+04 -0.23861724902E+03  0.97250982652E+03  0.16264926613E+04  0.50400001928E-02 0. -1.
</event>
<event>
 5   0  0.3592331E-06  0.2211753E+04  0.7818609E-02  0.8513552E-01
       -1   -1    0    0    0  501  0.00000000000E+00  0.00000000000E+00  0.15843394688E+04  0.15843394688E+04  0.50400001928E-02 0. -1.
        1   -1    0    0  501    0  0.00000000000E+00  0.00000000000E+00 -0.77190737466E+03  0.77190737468E+03  0.50400001928E-02 0.  1.
    10030    2    1    2    0    0  0.00000000000E+00  0.00000000000E+00  0.81243209411E+03  0.23562468435E+04  0.22117534401E+04 0.  0.
        3    1    3    3  502    0  0.56285345230E+03  0.94301823441E+03  0.26782191333E+03  0.11304052312E+04  0.10100000352E+00 0.  1.
       -3    1    3    3    0  502 -0.56285345230E+03 -0.94301823441E+03  0.54461018077E+03  0.12258416123E+04  0.10100000352E+00 0. -1.
</event>
<event>
 5   0  0.3852126E-06  0.2422272E+04  0.7818609E-02  0.8431212E-01
        1   -1    0    0  501    0  0.00000000000E+00  0.00000000000E+00  0.18423247640E+04  0.18423247641E+04  0.50400001928E-02 0.  1.
       -1   -1    0    0    0  501  0.00000000000E+00  0.00000000000E+00 -0.79619549191E+03  0.79619549193E+03  0.50400001928E-02 0. -1.
    10030    2    1    2    0    0  0.00000000000E+00  0.00000000000E+00  0.10461292721E+04  0.26385202560E+04  0.24222722157E+04 0.  0.
        1    1    3    3  502    0  0.10897665751E+04  0.33732461293E+02 -0.51388821895E+02  0.10914989135E+04  0.50400001928E-02 0. -1.
       -1    1    3    3    0  502 -0.10897665751E+04 -0.33732461293E+02  0.10975180940E+04  0.15470213424E+04  0.50400001928E-02 0.  1.
</event>
<event>
 5   0  0.3636718E-06  0.2900029E+04  0.7818609E-02  0.8272869E-01
        1   -1    0    0  501    0  0.00000000000E+00  0.00000000000E+00  0.19769025825E+04  0.19769025825E+04  0.50400001928E-02 0. -1.
       -1   -1    0    0    0  501  0.00000000000E+00  0.00000000000E+00 -0.10635537445E+04  0.10635537445E+04  0.50400001928E-02 0.  1.
    10030    2    1    2    0    0  0.00000000000E+00  0.00000000000E+00  0.91334883801E+03  0.30404563270E+04  0.29000290647E+04 0.  0.
        4    1    3    3  502    0 -0.85482721103E+03 -0.16003496909E+02  0.16845179050E+04  0.18890706334E+04  0.12699999809E+01 0. -1.
       -4    1    3    3    0  502  0.85482721103E+03  0.16003496909E+02 -0.77116906700E+03  0.11513856936E+04  0.12699999809E+01 0.  1.
</event>
<event>
 5   0  0.1057036E-05  0.3002837E+04  0.7818609E-02  0.8242921E-01
        2   -1    0    0  501    0  0.00000000000E+00  0.00000000000E+00  0.19231153102E+04  0.19231153102E+04  0.25500000920E-02 0.  1.
       -2   -1    0    0    0  501  0.00000000000E+00  0.00000000000E+00 -0.11721902739E+04  0.11721902739E+04  0.25500000920E-02 0. -1.
    10030    2    1    2    0    0  0.00000000000E+00  0.00000000000E+00  0.75092503634E+03  0.30953055841E+04  0.30028367003E+04 0.  0.
        4    1    3    3  502    0  0.11924610895E+04 -0.36028135883E+03  0.12394186391E+04  0.17572496360E+04  0.12699999809E+01 0.  1.
       -4    1    3    3    0  502 -0.11924610895E+04  0.36028135883E+03 -0.48849360276E+03  0.13380559481E+04  0.12699999809E+01 0. -1.
</event>
<event>
 5   0  0.1089569E-05  0.2932966E+04  0.7818609E-02  0.8263136E-01
        2   -1    0    0  501    0  0.00000000000E+00  0.00000000000E+00  0.21503333851E+04  0.21503333851E+04  0.25500000920E-02 0. -1.
       -2   -1    0    0    0  501  0.00000000000E+00  0.00000000000E+00 -0.10001110371E+04  0.10001110371E+04  0.25500000920E-02 0.  1.
    10030    2    1    2    0    0  0.00000000000E+00  0.00000000000E+00  0.11502223480E+04  0.31504444223E+04  0.29329658382E+04 0.  0.
        5    1    3    3  502    0 -0.42360230900E+03  0.10463623935E+04 -0.43037379779E+03  0.12081212152E+04  0.46999998093E+01 0.  1.
       -5    1    3    3    0  502  0.42360230900E+03 -0.10463623935E+04  0.15805961458E+04  0.19423232071E+04  0.46999998093E+01 0. -1.
</event>
<event>
 5   0  0.3852126E-06  0.3036687E+04  0.7818609E-02  0.8233332E-01
        1   -1    0    0  501    0  0.00000000000E+00  0.00000000000E+00  0.20121724746E+04  0.20121724746E+04  0.50400001928E-02 0.  1.
       -1   -1    0    0    0  501  0.00000000000E+00  0.00000000000E+00 -0.11457101842E+04  0.11457101842E+04  0.50400001928E-02 0. -1.
    10030    2    1    2    0    0  0.00000000000E+00  0.00000000000E+00  0.86646229048E+03  0.31578826588E+04  0.30366866789E+04 0.  0.
        1    1    3    3  502    0  0.45044783910E+03  0.97152241739E+03  0.15525766494E+04  0.18860682160E+04  0.50400001928E-02 0.  1.
       -1    1    3    3    0  502 -0.45044783910E+03 -0.97152241739E+03 -0.68611435893E+03  0.12718144428E+04  0.50400001928E-02 0. -1.
</event>
<event>
 5   0  0.1028450E-05  0.2955930E+04  0.7818609E-02  0.8256428E-01
        2   -1    0    0  501    0  0.00000000000E+00  0.00000000000E+00  0.15461487504E+04  0.15461487504E+04  0.25500000920E-02 0. -1.
       -2   -1    0    0    0  501  0.00000000000E+00  0.00000000000E+00 -0.14127883518E+04  0.14127883518E+04  0.25500000920E-02 0.  1.
    10030    2    1    2    0    0  0.00000000000E+00  0.00000000000E+00  0.13336039868E+03  0.29589371022E+04  0.29559302730E+04 0.  0.
        3    1    3    3  502    0 -0.12244691058E+04 -0.80058376700E+03 -0.14358578587E+03  0.14699917847E+04  0.10100000352E+00 0.  1.
       -3    1    3    3    0  502  0.12244691058E+04  0.80058376700E+03  0.27694618455E+03  0.14889453175E+04  0.10100000352E+00 0. -1.
</event>
<event>
 5   0  0.1029922E-05  0.2980760E+04  0.7818609E-02  0.8249246E-01
       -2   -1    0    0    0  501  0.00000000000E+00  0.00000000000E+00  0.92500993720E+03  0.92500993720E+03  0.25500000920E-02 0. -1.
        2   -1    0    0  501    0  0.00000000000E+00  0.00000000000E+00 -0.24013073639E+04  0.24013073639E+04  0.25500000920E-02 0.  1.
    10030    2    1    2    0    0  0.00000000000E+00  0.00000000000E+00 -0.14762974267E+04  0.33263173011E+04  0.29807604224E+04 0.  0.
        1    1    3    3  502    0  0.97195871704E+03 -0.75891467912E+03  0.19588990191E+03  0.12486104643E+04  0.50400001928E-02 0.  1.
       -1    1    3    3    0  502 -0.97195871704E+03  0.75891467912E+03 -0.16721873286E+04  0.20777068368E+04  0.50400001928E-02 0. -1.
</event>
<event>
 5   0  0.9647945E-06  0.2983270E+04  0.7818609E-02  0.8248524E-01
       -2   -1    0    0    0  501  0.00000000000E+00  0.00000000000E+00  0.14258432722E+04  0.14258432722E+04  0.25500000920E-02 0.  1.
        2   -1    0    0  501    0  0.00000000000E+00  0.00000000000E+00 -0.15604626450E+04  0.15604626450E+04  0.25500000920E-02 0. -1.
    10030    2    1    2    0    0  0.00000000000E+00  0.00000000000E+00 -0.13461937286E+03  0.29863059172E+04  0.29832701278E+04 0.  0.
        2    1    3    3  502    0 -0.91151381790E+03  0.81281982510E+03  0.78997388527E+03  0.14545075619E+04  0.25500000920E-02 0.  1.
       -2    1    3    3    0  502  0.91151381790E+03 -0.81281982510E+03 -0.92459325813E+03  0.15317983553E+04  0.25500000920E-02 0. -1.
</event>
<event>
 5   0  0.3725232E-06  0.3094341E+04  0.7818609E-02  0.8217293E-01
        1   -1    0    0  501    0  0.00000000000E+00  0.00000000000E+00  0.27971640143E+04  0.27971640143E+04  0.50400001928E-02 0. -1.
       -1   -1    0    0    0  501  0.00000000000E+00  0.00000000000E+00 -0.85577292013E+03  0.85577292015E+03  0.50400001928E-02 0.  1.
    10030    2    1    2    0    0  0.00000000000E+00  0.00000000000E+00  0.19413910942E+04  0.36529369344E+04  0.30943414270E+04 0.  0.
        2    1    3    3  502    0 -0.11625805450E+04  0.85019572164E+03  0.16377800225E+04  0.21809974074E+04  0.25500000920E-02 0. -1.
       -2    1    3    3    0  502  0.11625805450E+04 -0.85019572164E+03  0.30361107161E+03  0.14719395271E+04  0.25500000920E-02 0.  1.
</event>
<event>
 5   0  0.3636718E-06  0.3034247E+04  0.7818609E-02  0.8234018E-01
       -1   -1    0    0    0  501  0.00000000000E+00  0.00000000000E+00  0.16153688076E+04  0.16153688077E+04  0.50400001928E-02 0. -1.
        1   -1    0    0  501    0  0.00000000000E+00  0.00000000000E+00 -0.14248537220E+04  0.14248537220E+04  0.50400001928E-02 0.  1.
    10030    2    1    2    0    0  0.00000000000E+00  0.00000000000E+00  0.19051508564E+03  0.30402225297E+04  0.30342473584E+04 0.  0.
        4    1    3    3  502    0  0.10659394600E+04 -0.24831947653E+03  0.11479325289E+04  0.15860769838E+04  0.12699999809E+01 0. -1.
       -4    1    3    3    0  502 -0.10659394600E+04  0.24831947653E+03 -0.95741744328E+03  0.14541455458E+04  0.12699999809E+01 0.  1.
</event>
<event>
 5   0  0.1089569E-05  0.2992307E+04  0.7818609E-02  0.8245931E-01
       -2   -1    0    0    0  501  0.00000000000E+00  0.00000000000E+00  0.91492238478E+03  0.91492238478E+03  0.25500000920E-02 0. -1.
        2   -1    0    0  501    0  0.00000000000E+00  0.00000000000E+00 -0.24466280182E+04  0.24466280182E+04  0.25500000920E-02 0.  1.
    10030    2    1    2    0    0  0.00000000000E+00  0.00000000000E+00 -0.15317056334E+04  0.33615504030E+04  0.29923066294E+04 0.  0.
        5    1    3    3  502    0 -0.48883706524E+02  0.91055995528E+02  0.91089939425E+03  0.91675547859E+03  0.46999998093E+01 0. -1.
       -5    1    3    3    0  502  0.48883706524E+02 -0.91055995528E+02 -0.24426050277E+04  0.24447949244E+04  0.46999998093E+01 0.  1.
</event>
<event>
 5   0  0.3725232E-06  0.3121358E+04  0.7818609E-02  0.8209901E-01
       -1   -1    0    0    0  501  0.00000000000E+00  0.00000000000E+00  0.16241018128E+04  0.16241018128E+04  0.50400001928E-02 0.  1.
        1   -1    0    0  501    0  0.00000000000E+00  0.00000000000E+00 -0.14997327910E+04  0.14997327910E+04  0.50400001928E-02 0. -1.
    10030    2    1    2    0    0  0.00000000000E+00  0.00000000000E+00  0.12436902178E+03  0.31238346039E+04  0.31213578742E+04 0.  0.
        2    1    3    3  502    0  0.46204114794E+03  0.96884832050E+03 -0.10716617889E+04  0.15167755537E+04  0.25500000920E-02 0. -1.
       -2    1    3    3    0  502 -0.46204114794E+03 -0.96884832050E+03  0.11960308107E+04  0.16070590501E+04  0.25500000920E-02 0.  1.
</event>
<event>
 5   0  0.3896630E-06  0.2094656E+04  0.7818609E-02  0.8563601E-01
        1   -1    0    0  501    0  0.00000000000E+00  0.00000000000E+00  0.12405685996E+04  0.12405685996E+04  0.50400001928E-02 0.  1.
       -1   -1    0    0    0  501  0.00000000000E+00  0.00000000000E+00 -0.88418843401E+03  0.88418843402E+03  0.50400001928E-02 0. -1.
    10030    2    1    2    0    0  0.00000000000E+00  0.00000000000E+00  0.35638016559E+03  0.21247570336E+04  0.20946564467E+04 0.  0.
        5    1    3    3  502    0  0.25880178226E+03  0.98966322459E+03 -0.49676966577E+02  0.10241589484E+04  0.46999998093E+01 0. -1.
       -5    1    3    3    0  502 -0.25880178226E+03 -0.98966322459E+03  0.40605713217E+03  0.11005980852E+04  0.46999998093E+01 0.  1.
</event>
<event>
 5   0  0.3636718E-06  0.3008941E+04  0.7818609E-02  0.8241182E-01
       -1   -1    0    0    0  501  0.00000000000E+00  0.00000000000E+00  0.11431584522E+04  0.11431584522E+04  0.50400001928E-02 0.  1.
        1   -1    0    0  501    0  0.00000000000E+00  0.00000000000E+00 -0.19799801512E+04  0.19799801512E+04  0.50400001928E-02 0. -1.
    10030    2    1    2    0    0  0.00000000000E+00  0.00000000000E+00 -0.83682169899E+03  0.31231386035E+04  0.30089407074E+04 0.  0.
        4    1    3    3  502    0  0.25631706594E+03  0.90434279269E+03  0.80086133421E+03  0.12348744124E+04  0.12699999809E+01 0.  1.
       -4    1    3    3    0  502 -0.25631706594E+03 -0.90434279269E+03 -0.16376830332E+04  0.18882641910E+04  0.12699999809E+01 0. -1.
</event>
<event>
 5   0  0.3592331E-06  0.2874551E+04  0.7818609E-02  0.8280490E-01
       -1   -1    0    0    0  501  0.00000000000E+00  0.00000000000E+00  0.91794415975E+03  0.91794415976E+03  0.50400001928E-02 0. -1.
        1   -1    0    0  501    0  0.00000000000E+00  0.00000000000E+00 -0.22504209870E+04  0.22504209870E+04  0.50400001928E-02 0.  1.
    10030    2    1    2    0    0  0.00000000000E+00  0.00000000000E+00 -0.13324768273E+04  0.31683651468E+04  0.28745509577E+04 0.  0.
        3    1    3    3  502    0 -0.40960701034E+03  0.12941709322E+04 -0.11868566395E+04  0.18031319967E+04  0.10100000352E+00 0.  1.
       -3    1    3    3    0  502  0.40960701034E+03 -0.12941709322E+04 -0.14562018781E+03  0.13652331501E+04  0.10100000352E+00 0. -1.
</event>
<event>
 5   0  0.3896630E-06  0.2918281E+04  0.7818609E-02  0.8267459E-01
       -1   -1    0    0    0  501  0.00000000000E+00  0.00000000000E+00  0.14841577729E+04  0.14841577729E+04  0.50400001928E-02 0. -1.
        1   -1    0    0  501    0  0.00000000000E+00  0.00000000000E+00 -0.14345446739E+04  0.14345446739E+04  0.50400001928E-02 0.  1.
    10030    2    1    2    0    0  0.00000000000E+00  0.00000000000E+00  0.49613099030E+02  0.29187024469E+04  0.29182807462E+04 0.  0.
        5    1    3    3  502    0  0.25072638216E+03 -0.17824931425E+03 -0.14017347249E+04  0.14351023886E+04  0.46999998093E+01 0.  1.
       -5    1    3    3    0  502 -0.25072638216E+03  0.17824931425E+03  0.14513478240E+04  0.14836000582E+04  0.46999998093E+01 0. -1.
</event>
<event>
 5   0  0.3852126E-06  0.2895204E+04  0.7818609E-02  0.8274306E-01
        1   -1    0    0  501    0  0.00000000000E+00  0.00000000000E+00  0.18751193799E+04  0.18751193799E+04  0.50400001928E-02 0. -1.
       -1   -1    0    0    0  501  0.00000000000E+00  0.00000000000E+00 -0.11175563579E+04  0.11175563579E+04  0.50400001928E-02 0.  1.
    10030    2    1    2    0    0  0.00000000000E+00  0.00000000000E+00  0.75756302200E+03  0.29926757379E+04  0.28952040238E+04 0.  0.
        1    1    3    3  502    0  0.71812457465E+03  0.10646670574E+04  0.10693549337E+04  0.16711489527E+04  0.50400001928E-02 0.  1.
       -1    1    3    3    0  502 -0.71812457465E+03 -0.10646670574E+04 -0.31179191169E+03  0.13215267852E+04  0.50400001928E-02 0. -1.
</event>
<event>
 5   0  0.1029922E-05  0.2908778E+04  0.7818609E-02  0.8270271E-01
        2   -1    0    0  501    0  0.00000000000E+00  0.00000000000E+00  0.15741425302E+04  0.15741425302E+04  0.25500000920E-02 0. -1.
       -2   -1    0    0    0  501  0.00000000000E+00  0.00000000000E+00 -0.13437454632E+04  0.13437454632E+04  0.25500000920E-02 0.  1.
    10030    2    1    2    0    0  0.00000000000E+00  0.00000000000E+00  0.23039706699E+03  0.29178879934E+04  0.29087776700E+04 0.  0.
        1    1    3    3  502    0  0.13129988879E+04  0.11287328728E+03 -0.50198484564E+03  0.14102110636E+04  0.50400001928E-02 0.  1.
       -1    1    3    3    0  502 -0.13129988879E+04 -0.11287328728E+03  0.73238191263E+03  0.15076769298E+04  0.50400001928E-02 0. -1.
</event>
<event>
 5   0  0.3852126E-06  0.3014797E+04  0.7818609E-02  0.8239518E-01
        1   -1    0    0  501    0  0.00000000000E+00  0.00000000000E+00  0.20243124596E+04  0.20243124596E+04  0.50400001928E-02 0. -1.
       -1   -1    0    0    0  501  0.00000000000E+00  0.00000000000E+00 -0.11224797069E+04  0.11224797069E+04  0.50400001928E-02 0.  1.
    10030    2    1    2    0    0  0.00000000000E+00  0.00000000000E+00  0.90183275271E+03  0.31467921664E+04  0.30147966142E+04 0.  0.
        1    1    3    3  502    0 -0.81722748010E+03  0.75927866840E+03  0.15091517258E+04  0.18766735950E+04  0.50400001928E-02 0. -1.
       -1    1    3    3    0  502  0.81722748010E+03 -0.75927866840E+03 -0.60731897308E+03  0.12701185715E+04  0.50400001928E-02 0.  1.
</event>
<event>
 5   0  0.1057036E-05  0.2997025E+04  0.7818609E-02  0.8244581E-01
       -2   -1    0    0    0  501  0.00000000000E+00  0.00000000000E+00  0.99188946413E+03  0.99188946413E+03  0.25500000920E-02 0. -1.
        2   -1    0    0  501    0  0.00000000000E+00  0.00000000000E+00 -0.22639006662E+04  0.22639006662E+04  0.25500000920E-02 0.  1.
    10030    2    1    2    0    0  0.00000000000E+00  0.00000000000E+00 -0.12720112021E+04  0.32557901303E+04  0.29970246703E+04 0.  0.
        4    1    3    3  502    0 -0.56095664984E+03 -0.21483561137E+03 -0.21273860857E+04  0.22105655099E+04  0.12699999809E+01 0.  1.
       -4    1    3    3    0  502  0.56095664984E+03  0.21483561137E+03  0.85537488359E+03  0.10452246205E+04  0.12699999809E+01 0. -1.
</event>
<event>
 5   0  0.1089569E-05  0.2532370E+04  0.7818609E-02  0.8391544E-01
       -2   -1    0    0    0  501  0.00000000000E+00  0.00000000000E+00  0.28466911833E+04  0.28466911833E+04  0.25500000920E-02 0. -1.
        2   -1    0    0  501    0  0.00000000000E+00  0.00000000000E+00 -0.56318858143E+03  0.56318858144E+03  0.25500000920E-02 0.  1.
    10030    2    1    2    0    0  0.00000000000E+00  0.00000000000E+00  0.22835026019E+04  0.34098797647E+04  0.25323696170E+04 0.  0.
        5    1    3    3  502    0 -0.51074520631E+03  0.36605119884E+03 -0.33840622354E+03  0.71371913809E+03  0.46999998093E+01 0.  1.
       -5    1    3    3    0  502  0.51074520631E+03 -0.36605119884E+03  0.26219088254E+04  0.26961606267E+04  0.46999998093E+01 0. -1.
</event>
<event>
 5   0  0.3725232E-06  0.2960135E+04  0.7818609E-02  0.8255207E-01
       -1   -1    0    0    0  501  0.00000000000E+00  0.00000000000E+00  0.13123865411E+04  0.13123865411E+04  0.50400001928E-02 0. -1.
        1   -1    0    0  501    0  0.00000000000E+00  0.00000000000E+00 -0.16691730052E+04  0.16691730052E+04  0.50400001928E-02 0.  1.
    10030    2    1    2    0    0  0.00000000000E+00  0.00000000000E+00 -0.35678646410E+03  0.29815595463E+04  0.29601352583E+04 0.  0.
        2    1    3    3  502    0 -0.16992619224E+03  0.14695584417E+04 -0.22480560427E+03  0.14963336807E+04  0.25500000920E-02 0.  1.
       -2    1    3    3    0  502  0.16992619224E+03 -0.14695584417E+04 -0.13198085983E+03  0.14852258656E+04  0.25500000920E-02 0. -1.
</event>
<event>
 5   0  0.3852126E-06  0.2906888E+04  0.7818609E-02  0.8270831E-01
        1   -1    0    0  501    0  0.00000000000E+00  0.00000000000E+00  0.15582469432E+04  0.15582469432E+04  0.50400001928E-02 0.  1.
       -1   -1    0    0    0  501  0.00000000000E+00  0.00000000000E+00 -0.13556899535E+04  0.13556899535E+04  0.50400001928E-02 0. -1.
    10030    2    1    2    0    0  0.00000000000E+00  0.00000000000E+00  0.20255698970E+03  0.29139368966E+04  0.29068881821E+04 0.  0.
        1    1    3    3  502    0 -0.20388522398E+03 -0.15991676885E+03  0.15349062318E+04  0.15566244563E+04  0.50400001928E-02 0.  1.
       -1    1    3    3    0  502  0.20388522398E+03  0.15991676885E+03 -0.13323492421E+04  0.13573124403E+04  0.50400001928E-02 0. -1.
</event>
<event>
 5   0  0.9647945E-06  0.2741846E+04  0.7818609E-02  0.8321554E-01
        2   -1    0    0  501    0  0.00000000000E+00  0.00000000000E+00  0.21938535567E+04  0.21938535567E+04  0.25500000920E-02 0. -1.
       -2   -1    0    0    0  501  0.00000000000E+00  0.00000000000E+00 -0.85667972598E+03  0.85667972598E+03  0.25500000920E-02 0.  1.
    10030    2    1    2    0    0  0.00000000000E+00  0.00000000000E+00  0.13371738307E+04  0.30505332827E+04  0.27418459941E+04 0.  0.
        2    1    3    3  502    0  0.80138377989E+03  0.67050130968E+03  0.16559959905E+04  0.19580885296E+04  0.25500000920E-02 0.  1.
       -2    1    3    3    0  502 -0.80138377989E+03 -0.67050130968E+03 -0.31882215983E+03  0.10924447531E+04  0.25500000920E-02 0. -1.
</event>
<event>
 5   0  0.3592331E-06  0.3073228E+04  0.7818609E-02  0.8223124E-01
        1   -1    0    0  501    0  0.00000000000E+00  0.00000000000E+00  0.26222034994E+04  0.26222034994E+04  0.50400001928E-02 0.  1.
       -1   -1    0    0    0  501  0.00000000000E+00  0.00000000000E+00 -0.90045762536E+03  0.90045762537E+03  0.50400001928E-02 0. -1.
    10030    2    1    2    0    0  0.00000000000E+00  0.00000000000E+00  0.17217458741E+04  0.35226611248E+04  0.30732283588E+04 0.  0.
        3    1    3    3  502    0 -0.10368245540E+04  0.84764305034E+03  0.17245025726E+04  0.21834406403E+04  0.10100000352E+00 0.  1.
       -3    1    3    3    0  502  0.10368245540E+04 -0.84764305034E+03 -0.27566985061E+01  0.13392204845E+04  0.10100000352E+00 0. -1.
</event>
<event>
 5   0  0.3592331E-06  0.3000717E+04  0.7818609E-02  0.8243526E-01
       -1   -1    0    0    0  501  0.00000000000E+00  0.00000000000E+00  0.25644985926E+04  0.25644985926E+04  0.50400001928E-02 0.  1.
        1   -1    0    0  501    0  0.00000000000E+00  0.00000000000E+00 -0.87778365163E+03  0.87778365165E+03  0.50400001928E-02 0. -1.
    10030    2    1    2    0    0  0.00000000000E+00  0.00000000000E+00  0.16867149410E+04  0.34422822443E+04  0.30007165406E+04 0.  0.
        3    1    3    3  502    0  0.57731981939E+03 -0.28557753963E+03 -0.71111889810E+03  0.95944921826E+03  0.10100000352E+00 0. -1.
       -3    1    3    3    0  502 -0.57731981939E+03  0.28557753963E+03  0.23978338391E+04  0.24828330260E+04  0.10100000352E+00 0.  1.
</event>
<event>
 5   0  0.9647945E-06  0.3019088E+04  0.7818609E-02  0.8238301E-01
        2   -1    0    0  501    0  0.00000000000E+00  0.00000000000E+00  0.19661609024E+04  0.19661609024E+04  0.25500000920E-02 0. -1.
       -2   -1    0    0    0  501  0.00000000000E+00  0.00000000000E+00 -0.11589708062E+04  0.11589708062E+04  0.25500000920E-02 0.  1.
    10030    2    1    2    0    0  0.00000000000E+00  0.00000000000E+00  0.80719009619E+03  0.31251317086E+04  0.30190879988E+04 0.  0.
        2    1    3    3  502    0  0.10150939174E+04 -0.11134087358E+04  0.30744312067E+03  0.15377307783E+04  0.25500000920E-02 0. -1.
       -2    1    3    3    0  502 -0.10150939174E+04  0.11134087358E+04  0.49974697552E+03  0.15874009303E+04  0.25500000920E-02 0.  1.
</event>
<event>
 5   0  0.3896630E-06  0.2337932E+04  0.7818609E-02  0.8463113E-01
        1   -1    0    0  501    0  0.00000000000E+00  0.00000000000E+00  0.10105485515E+04  0.10105485515E+04  0.50400001928E-02 0.  1.
       -1   -1    0    0    0  501  0.00000000000E+00  0.00000000000E+00 -0.13522175875E+04  0.13522175875E+04  0.50400001928E-02 0. -1.
    10030    2    1    2    0    0  0.00000000000E+00  0.00000000000E+00 -0.34166903603E+03  0.23627661390E+04  0.23379320130E+04 0.  0.
        5    1    3    3  502    0  0.29380193008E+03  0.11197211334E+04 -0.33493058250E+03  0.12051122669E+04  0.46999998093E+01 0.  1.
       -5    1    3    3    0  502 -0.29380193008E+03 -0.11197211334E+04 -0.67384535331E+01  0.11576538721E+04  0.46999998093E+01 0. -1.
</event>
<event>
 5   0  0.1028450E-05  0.2999579E+04  0.7818609E-02  0.8243851E-01
       -2   -1    0    0    0  501  0.00000000000E+00  0.00000000000E+00  0.10531515352E+04  0.10531515352E+04  0.25500000920E-02 0.  1.
        2   -1    0    0  501    0  0.00000000000E+00  0.00000000000E+00 -0.21358449525E+04  0.21358449525E+04  0.25500000920E-02 0. -1.
    10030    2    1    2    0    0  0.00000000000E+00  0.00000000000E+00 -0.10826934173E+04  0.31889964877E+04  0.29995788976E+04 0.  0.
        3    1    3    3  502    0  0.63877586257E+02  0.94278969084E+03  0.69686055207E+03  0.11741155763E+04  0.10100000352E+00 0.  1.
       -3    1    3    3    0  502 -0.63877586257E+02 -0.94278969084E+03 -0.17795539694E+04  0.20148809115E+04  0.10100000352E+00 0. -1.
</event>
<event>
 5   0  0.1028450E-05  0.3095693E+04  0.7818609E-02  0.8216921E-01
       -2   -1    0    0    0  501  0.00000000000E+00  0.00000000000E+00  0.13954598270E+04  0.13954598270E+04  0.25500000920E-02 0.  1.
        2   -1    0    0  501    0  0.00000000000E+00  0.00000000000E+00 -0.17168735322E+04  0.17168735322E+04  0.25500000920E-02 0. -1.
    10030    2    1    2    0    0  0.00000000000E+00  0.00000000000E+00 -0.32141370520E+03  0.31123333592E+04  0.30956925184E+04 0.  0.
        3    1    3    3  502    0 -0.14623922870E+04 -0.20819954300E+03 -0.62567511304E+03  0.16041844059E+04  0.10100000352E+00 0. -1.
       -3    1    3    3    0  502  0.14623922870E+04  0.20819954300E+03  0.30426140784E+03  0.15081489533E+04  0.10100000352E+00 0.  1.
</event>
<event>
 5   0  0.9647945E-06  0.2794536E+04  0.7818609E-02  0.8304967E-01
       -2   -1    0    0    0  501  0.00000000000E+00  0.00000000000E+00  0.17327939444E+04  0.17327939444E+04  0.25500000920E-02 0. -1.
        2   -1    0    0  501    0  0.00000000000E+00  0.00000000000E+00 -0.11267107973E+04  0.11267107973E+04  0.25500000920E-02 0.  1.
    10030    2    1    2    0    0  0.00000000000E+00  0.00000000000E+00  0.60608314709E+03  0.28595047417E+04  0.27945358446E+04 0.  0.
        2    1    3    3  502    0  0.35635344890E+03  0.45456836836E+03  0.16049167485E+04  0.17056898756E+04  0.25500000920E-02 0. -1.
       -2    1    3    3    0  502 -0.35635344890E+03 -0.45456836836E+03 -0.99883360141E+03  0.11538148662E+04  0.25500000920E-02 0.  1.
</event>
<event>
 5   0  0.3636718E-06  0.2996079E+04  0.7818609E-02  0.8244851E-01
        1   -1    0    0  501    0  0.00000000000E+00  0.00000000000E+00  0.14402215695E+04  0.14402215695E+04  0.50400001928E-02 0.  1.
       -1   -1    0    0    0  501  0.00000000000E+00  0.00000000000E+00 -0.15581788293E+04  0.15581788293E+04  0.50400001928E-02 0. -1.
    10030    2    1    2    0    0  0.00000000000E+00  0.00000000000E+00 -0.11795725977E+03  0.29984003988E+04  0.29960792774E+04 0.  0.
        4    1    3    3  502    0 -0.95992470970E+03  0.15009171557E+03 -0.12000980102E+04  0.15440919074E+04  0.12699999809E+01 0. -1.
       -4    1    3    3    0  502  0.95992470970E+03 -0.15009171557E+03  0.10821407505E+04  0.14543084914E+04  0.12699999809E+01 0.  1.
</event>
<event>
 5   0  0.1029922E-05  0.2598039E+04  0.7818609E-02  0.8368867E-01
       -2   -1    0    0    0  501  0.00000000000E+00  0.00000000000E+00  0.10857122335E+04  0.10857122335E+04  0.25500000920E-02 0. -1.
        2   -1    0    0  501    0  0.00000000000E+00  0.00000000000E+00 -0.15542352391E+04  0.15542352391E+04  0.25500000920E-02 0.  1.
    10030    2    1    2    0    0  0.00000000000E+00  0.00000000000E+00 -0.46852300561E+03  0.26399474726E+04  0.25980394245E+04 0.  0.
        1    1    3    3  502    0  0.12377752523E+04  0.17359143715E+03  0.12532622947E+03  0.12561561313E+04  0.50400001928E-02 0. -1.
       -1    1    3    3    0  502 -0.12377752523E+04 -0.17359143715E+03 -0.59384923508E+03  0.13837913413E+04  0.50400001928E-02 0.  1.
</event>
<event>
 5   0  0.9647945E-06  0.2937172E+04  0.7818609E-02  0.8261903E-01
       -2   -1    0    0    0  501  0.00000000000E+00  0.00000000000E+00  0.17167631400E+04  0.17167631400E+04  0.25500000920E-02 0.  1.
        2   -1    0    0  501    0  0.00000000000E+00  0.00000000000E+00 -0.12562854242E+04  0.12562854242E+04  0.25500000920E-02 0. -1.
    10030    2    1    2    0    0  0.00000000000E+00  0.00000000000E+00  0.46047771582E+03  0.29730485642E+04  0.29371717754E+04 0.  0.
        2    1    3    3  502    0  0.64224834201E+03  0.92906953944E+02 -0.11032863067E+04  0.12799825427E+04  0.25500000920E-02 0. -1.
       -2    1    3    3    0  502 -0.64224834201E+03 -0.92906953944E+02  0.15637640226E+04  0.16930660215E+04  0.25500000920E-02 0.  1.
</event>
<event>
 5   0  0.1029922E-05  0.2985102E+04  0.7818609E-02  0.8247998E-01
       -2   -1    0    0    0  501  0.00000000000E+00  0.00000000000E+00  0.11439354510E+04  0.11439354510E+04  0.25500000920E-02 0.  1.
        2   -1    0    0  501    0  0.00000000000E+00  0.00000000000E+00 -0.19474069536E+04  0.19474069536E+04  0.25500000920E-02 0. -1.
    10030    2    1    2    0    0  0.00000000000E+00  0.00000000000E+00 -0.80347150264E+03  0.30913424046E+04  0.29851015740E+04 0.  0.
        1    1    3    3  502    0  0.12808837304E+03 -0.14729764355E+04 -0.61306125642E+03  0.16005968621E+04  0.50400001928E-02 0. -1.
       -1    1    3    3    0  502 -0.12808837304E+03  0.14729764355E+04 -0.19041024622E+03  0.14907455426E+04  0.50400001928E-02 0.  1.
</event>
<event>
 5   0  0.1028450E-05  0.2878843E+04  0.7818609E-02  0.8279200E-01
        2   -1    0    0  501    0  0.00000000000E+00  0.00000000000E+00  0.16193200739E+04  0.16193200739E+04  0.25500000920E-02 0.  1.
       -2   -1    0    0    0  501  0.00000000000E+00  0.00000000000E+00 -0.12795088459E+04  0.12795088459E+04  0.25500000920E-02 0. -1.
    10030    2    1    2    0    0  0.00000000000E+00  0.00000000000E+00  0.33981122799E+03  0.28988289198E+04  0.28788430724E+04 0.  0.
        3    1    3    3  502    0 -0.10416506819E+04  0.75652625836E+03  0.81824372678E+03  0.15254150023E+04  0.10100000352E+00 0.  1.
       -3    1    3    3    0  502  0.10416506819E+04 -0.75652625836E+03 -0.47843249879E+03  0.13734139175E+04  0.10100000352E+00 0. -1.
</event>
<event>
 5   0  0.3725232E-06  0.3009289E+04  0.7818609E-02  0.8241083E-01
        1   -1    0    0  501    0  0.00000000000E+00  0.00000000000E+00  0.14831959421E+04  0.14831959421E+04  0.50400001928E-02 0.  1.
       -1   -1    0    0    0  501  0.00000000000E+00  0.00000000000E+00 -0.15264035590E+04  0.15264035590E+04  0.50400001928E-02 0. -1.
    10030    2    1    2    0    0  0.00000000000E+00  0.00000000000E+00 -0.43207616923E+02  0.30095995011E+04  0.30092893279E+04 0.  0.
        2    1    3    3  502    0  0.13064433734E+04  0.49514295888E+03  0.53701864572E+03  0.14967798313E+04  0.25500000920E-02 0.  1.
       -2    1    3    3    0  502 -0.13064433734E+04 -0.49514295888E+03 -0.58022626265E+03  0.15128196698E+04  0.25500000920E-02 0. -1.
</event>
<event>
 5   0  0.1028450E-05  0.2943336E+04  0.7818609E-02  0.8260099E-01
       -2   -1    0    0    0  501  0.00000000000E+00  0.00000000000E+00  0.12278478871E+04  0.12278478871E+04  0.25500000920E-02 0.  1.
        2   -1    0    0  501    0  0.00000000000E+00  0.00000000000E+00 -0.17639051204E+04  0.17639051204E+04  0.25500000920E-02 0. -1.
    10030    2    1    2    0    0  0.00000000000E+00  0.00000000000E+00 -0.53605723331E+03  0.29917530075E+04  0.29433363214E+04 0.  0.
        3    1    3    3  502    0  0.12749454833E+04 -0.70793608892E+03 -0.46914100600E+03  0.15319114808E+04  0.10100000352E+00 0. -1.
       -3    1    3    3    0  502 -0.12749454833E+04  0.70793608892E+03 -0.66916227307E+02  0.14598415267E+04  0.10100000352E+00 0.  1.
</event>
<event>
 5   0  0.1057036E-05  0.2019167E+04  0.7818609E-02  0.8597711E-01
       -2   -1    0    0    0  501  0.00000000000E+00  0.00000000000E+00  0.30328727228E+04  0.30328727228E+04  0.25500000920E-02 0.  1.
        2   -1    0    0  501    0  0.00000000000E+00  0.00000000000E+00 -0.33607056405E+03  0.33607056406E+03  0.25500000920E-02 0. -1.
    10030    2    1    2    0    0  0.00000000000E+00  0.00000000000E+00  0.26968021588E+04  0.33689432869E+04  0.20191673994E+04 0.  0.
        4    1    3    3  502    0  0.28115961437E+03  0.96201641057E+03  0.15509091637E+04  0.18465771443E+04  0.12699999809E+01 0. -1.
       -4    1    3    3    0  502 -0.28115961437E+03 -0.96201641057E+03  0.11458929951E+04  0.15223661426E+04  0.12699999809E+01 0.  1.
</event>
<event>
 5   0  0.3852126E-06  0.2879546E+04  0.7818609E-02  0.8278989E-01
       -1   -1    0    0    0  501  0.00000000000E+00  0.00000000000E+00  0.20426717643E+04  0.20426717643E+04  0.50400001928E-02 0. -1.
        1   -1    0    0  501    0  0.00000000000E+00  0.00000000000E+00 -0.10148211395E+04  0.10148211396E+04  0.50400001928E-02 0.  1.
    10030    2    1    2    0    0  0.00000000000E+00  0.00000000000E+00  0.10278506248E+04  0.30574929039E+04  0.28795461362E+04 0.  0.
        1    1    3    3  502    0  0.12848789919E+04 -0.34894187509E+03 -0.67908368288E+02  0.13331489049E+04  0.50400001928E-02 0.  1.
       -1    1    3    3    0  502 -0.12848789919E+04  0.34894187509E+03  0.10957589931E+04  0.17243439990E+04  0.50400001928E-02 0. -1.
</event>
<event>
 5   0  0.3725232E-06  0.3105272E+04  0.7818609E-02  0.8214292E-01
        1   -1    0    0  501    0  0.00000000000E+00  0.00000000000E+00  0.20885451362E+04  0.20885451362E+04  0.50400001928E-02 0. -1.
       -1   -1    0    0    0  501  0.00000000000E+00  0.00000000000E+00 -0.11542383534E+04  0.11542383534E+04  0.50400001928E-02 0.  1.
    10030    2    1    2    0    0  0.00000000000E+00  0.00000000000E+00  0.93430678285E+03  0.32427834896E+04  0.31052722257E+04 0.  0.
        2    1    3    3  502    0  0.99506318356E+03  0.74771257039E+03 -0.50209332482E+03  0.13421335753E+04  0.25500000920E-02 0.  1.
       -2    1    3    3    0  502 -0.99506318356E+03 -0.74771257039E+03  0.14364001077E+04  0.19006499142E+04  0.25500000920E-02 0. -1.
</event>
<event>
 5   0  0.3896630E-06  0.3012487E+04  0.7818609E-02  0.8240174E-01
        1   -1    0    0  501    0  0.00000000000E+00  0.00000000000E+00  0.94987556696E+03  0.94987556698E+03  0.50400001928E-02 0. -1.
       -1   -1    0    0    0  501  0.00000000000E+00  0.00000000000E+00 -0.23884919931E+04  0.23884919931E+04  0.50400001928E-02 0.  1.
    10030    2    1    2    0    0  0.00000000000E+00  0.00000000000E+00 -0.14386164262E+04  0.33383675601E+04  0.30124874680E+04 0.  0.
        5    1    3    3  502    0 -0.68565426300E+03 -0.96741644693E+03  0.31000320927E+03  0.12256183867E+04  0.46999998093E+01 0. -1.
       -5    1    3    3    0  502  0.68565426300E+03  0.96741644693E+03 -0.17486196354E+04  0.21127491734E+04  0.46999998093E+01 0.  1.
</event>
<event>
 5   0  0.3592331E-06  0.2751667E+04  0.7818609E-02  0.8318433E-01
       -1   -1    0    0    0  501  0.00000000000E+00  0.00000000000E+00  0.77899636932E+03  0.77899636933E+03  0.50400001928E-02 0. -1.
        1   -1    0    0  501    0  0.00000000000E+00  0.00000000000E+00 -0.24299440147E+04  0.24299440147E+04  0.50400001928E-02 0.  1.
    10030    2    1    2    0    0  0.00000000000E+00  0.00000000000E+00 -0.16509476453E+04  0.32089403840E+04  0.27516668149E+04 0.  0.
        3    1    3    3  502    0  0.79116453702E+02  0.80659252519E+03  0.47106864142E+03  0.93742017797E+03  0.10100000352E+00 0. -1.
       -3    1    3    3    0  502 -0.79116453702E+02 -0.80659252519E+03 -0.21220162868E+04  0.22715202060E+04  0.10100000352E+00 0.  1.
</event>
<event>
 5   0  0.1057036E-05  0.2455523E+04  0.7818609E-02  0.8419004E-01
        2   -1    0    0  501    0  0.00000000000E+00  0.00000000000E+00  0.24743453169E+04  0.24743453169E+04  0.25500000920E-02 0. -1.
       -2   -1    0    0    0  501  0.00000000000E+00  0.00000000000E+00 -0.60921111771E+03  0.60921111772E+03  0.25500000920E-02 0.  1.
    10030    2    1    2    0    0  0.00000000000E+00  0.00000000000E+00  0.18651341991E+04  0.30835564346E+04  0.24555233056E+04 0.  0.
        4    1    3    3  502    0  0.57486512967E+02 -0.61036761362E+03 -0.40323928232E+03  0.73379619421E+03  0.12699999809E+01 0.  1.
       -4    1    3    3    0  502 -0.57486512967E+02  0.61036761362E+03  0.22683734815E+04  0.23497602404E+04  0.12699999809E+01 0. -1.
</event>
<event>
 5   0  0.3852126E-06  0.3137458E+04  0.7818609E-02  0.8205532E-01
        1   -1    0    0  501    0  0.00000000000E+00  0.00000000000E+00  0.16890118516E+04  0.16890118516E+04  0.50400001928E-02 0.  1.
       -1   -1    0    0    0  501  0.00000000000E+00  0.00000000000E+00 -0.14570121927E+04  0.14570121927E+04  0.50400001928E-02 0. -1.
    10030    2    1    2    0    0  0.00000000000E+00  0.00000000000E+00  0.23199965887E+03  0.31460240443E+04  0.31374581186E+04 0.  0.
        1    1    3    3  502    0 -0.78482856924E+03  0.46717617311E+03 -0.11629043915E+04  0.14787008094E+04  0.50400001928E-02 0. -1.
       -1    1    3    3    0  502  0.78482856924E+03 -0.46717617311E+03  0.13949040504E+04  0.16673232349E+04  0.50400001928E-02 0.  1.
</event>
<event>
 5   0  0.1089569E-05  0.3096186E+04  0.7818609E-02  0.8216785E-01
        2   -1    0    0  501    0  0.00000000000E+00  0.00000000000E+00  0.21093830687E+04  0.21093830687E+04  0.25500000920E-02 0.  1.
       -2   -1    0    0    0  501  0.00000000000E+00  0.00000000000E+00 -0.11361579015E+04  0.11361579015E+04  0.25500000920E-02 0. -1.
    10030    2    1    2    0    0  0.00000000000E+00  0.00000000000E+00  0.97322516720E+03  0.32455409702E+04  0.30961861964E+04 0.  0.
        5    1    3    3  502    0 -0.24108227218E+03 -0.24455610142E+03 -0.10957210371E+04  0.11482835146E+04  0.46999998093E+01 0. -1.
       -5    1    3    3    0  502  0.24108227218E+03  0.24455610142E+03  0.20689462043E+04  0.20972574556E+04  0.46999998093E+01 0.  1.
</event>
<event>
 5   0  0.1089569E-05  0.2950407E+04  0.7818609E-02  0.8258036E-01
        2   -1    0    0  501    0  0.00000000000E+00  0.00000000000E+00  0.20419694501E+04  0.20419694501E+04  0.25500000920E-02 0. -1.
       -2   -1    0    0    0  501  0.00000000000E+00  0.00000000000E+00 -0.10657480683E+04  0.10657480683E+04  0.25500000920E-02 0.  1.
    10030    2    1    2    0    0  0.00000000000E+00  0.00000000000E+00  0.97622138178E+03  0.31077175184E+04  0.29504067496E+04 0.  0.
        5    1    3    3  502    0 -0.80843551960E+03  0.11739175491E+04  0.87638415833E+02  0.14280591666E+04  0.46999998093E+01 0.  1.
       -5    1    3    3    0  502  0.80843551960E+03 -0.11739175491E+04  0.88858296595E+03  0.16796583518E+04  0.46999998093E+01 0. -1.
</event>
<event>
 5   0  0.1089569E-05  0.3004727E+04  0.7818609E-02  0.8242382E-01
       -2   -1    0    0    0  501  0.00000000000E+00  0.00000000000E+00  0.27258185239E+04  0.27258185239E+04  0.25500000920E-02 0. -1.
        2   -1    0    0  501    0  0.00000000000E+00  0.00000000000E+00 -0.82804316247E+03  0.82804316248E+03  0.25500000920E-02 0.  1.
    10030    2    1    2    0    0  0.00000000000E+00  0.00000000000E+00  0.18977753614E+04  0.35538616864E+04  0.30047265372E+04 0.  0.
        5    1    3    3  502    0 -0.38163629030E+03 -0.60084675475E+03  0.25137116468E+04  0.26125526625E+04  0.46999998093E+01 0. -1.
       -5    1    3    3    0  502  0.38163629030E+03  0.60084675475E+03 -0.61593628542E+03  0.94130902389E+03  0.46999998093E+01 0.  1.
</event>
<event>
 5   0  0.9647945E-06  0.2971609E+04  0.7818609E-02  0.8251885E-01
        2   -1    0    0  501    0  0.00000000000E+00  0.00000000000E+00  0.16276567067E+04  0.16276567067E+04  0.25500000920E-02 0.  1.
       -2   -1    0    0    0  501  0.00000000000E+00  0.00000000000E+00 -0.13563151170E+04  0.13563151170E+04  0.25500000920E-02 0. -1.
    10030    2    1    2    0    0  0.00000000000E+00  0.00000000000E+00  0.27134158975E+03  0.29839718237E+04  0.29716092587E+04 0.  0.
        2    1    3    3  502    0 -0.62482777127E+03 -0.70492234691E+03  0.12894898441E+04  0.15969061703E+04  0.25500000920E-02 0.  1.
       -2    1    3    3    0  502  0.62482777127E+03  0.70492234691E+03 -0.10181482543E+04  0.13870656533E+04  0.25500000920E-02 0. -1.
</event>
<event>
 5   0  0.3636718E-06  0.2571773E+04  0.7818609E-02  0.8377853E-01
       -1   -1    0    0    0  501  0.00000000000E+00  0.00000000000E+00  0.64965765785E+03  0.64965765787E+03  0.50400001928E-02 0. -1.
        1   -1    0    0  501    0  0.00000000000E+00  0.00000000000E+00 -0.25451922414E+04  0.25451922414E+04  0.50400001928E-02 0.  1.
    10030    2    1    2    0    0  0.00000000000E+00  0.00000000000E+00 -0.18955345835E+04  0.31948498992E+04  0.25717726419E+04 0.  0.
        4    1    3    3  502    0  0.12058474794E+04  0.44079726772E+03 -0.10367582914E+04  0.16502241492E+04  0.12699999809E+01 0.  1.
       -4    1    3    3    0  502 -0.12058474794E+04 -0.44079726772E+03 -0.85877629208E+03  0.15446257500E+04  0.12699999809E+01 0. -1.
</event>
<event>
 5   0  0.1029922E-05  0.2913107E+04  0.7818609E-02  0.8268988E-01
       -2   -1    0    0    0  501  0.00000000000E+00  0.00000000000E+00  0.12905124756E+04  0.12905124756E+04  0.25500000920E-02 0. -1.
        2   -1    0    0  501    0  0.00000000000E+00  0.00000000000E+00 -0.16439578310E+04  0.16439578310E+04  0.25500000920E-02 0.  1.
    10030    2    1    2    0    0  0.00000000000E+00  0.00000000000E+00 -0.35344535543E+03  0.29344703066E+04  0.29131069944E+04 0.  0.
        1    1    3    3  502    0 -0.23275924130E+03  0.12597588890E+04 -0.87489911072E+03  0.15513277464E+04  0.50400001928E-02 0.  1.
       -1    1    3    3    0  502  0.23275924130E+03 -0.12597588890E+04  0.52145375529E+03  0.13831425602E+04  0.50400001928E-02 0. -1.
</event>
<event>
 5   0  0.1089569E-05  0.2582571E+04  0.7818609E-02  0.8374146E-01
        2   -1    0    0  501    0  0.00000000000E+00  0.00000000000E+00  0.94688195273E+03  0.94688195274E+03  0.25500000920E-02 0.  1.
       -2   -1    0    0    0  501  0.00000000000E+00  0.00000000000E+00 -0.17609567293E+04  0.17609567293E+04  0.25500000920E-02 0. -1.
    10030    2    1    2    0    0  0.00000000000E+00  0.00000000000E+00 -0.81407477655E+03  0.27078386820E+04  0.25825709257E+04 0.  0.
        5    1    3    3  502    0  0.99471362216E+03  0.57280556167E+03 -0.10271948092E+04  0.15403612133E+04  0.46999998093E+01 0. -1.
       -5    1    3    3    0  502 -0.99471362216E+03 -0.57280556167E+03  0.21312003260E+03  0.11674774687E+04  0.46999998093E+01 0.  1.
</event>
<event>
 5   0  0.1057036E-05  0.2980328E+04  0.7818609E-02  0.8249371E-01
        2   -1    0    0  501    0  0.00000000000E+00  0.00000000000E+00  0.24105024643E+04  0.24105024643E+04  0.25500000920E-02 0.  1.
       -2   -1    0    0    0  501  0.00000000000E+00  0.00000000000E+00 -0.92121433891E+03  0.92121433892E+03  0.25500000920E-02 0. -1.
    10030    2    1    2    0    0  0.00000000000E+00  0.00000000000E+00  0.14892881254E+04  0.33317168032E+04  0.29803284611E+04 0.  0.
        4    1    3    3  502    0 -0.70013017793E+02  0.63285885737E+03  0.22507769069E+04  0.23391046265E+04  0.12699999809E+01 0.  1.
       -4    1    3    3    0  502  0.70013017793E+02 -0.63285885737E+03 -0.76148878156E+03  0.99261217671E+03  0.12699999809E+01 0. -1.
</event>
<event>
 5   0  0.1089569E-05  0.2985465E+04  0.7818609E-02  0.8247894E-01
       -2   -1    0    0    0  501  0.00000000000E+00  0.00000000000E+00  0.13294645051E+04  0.13294645051E+04  0.25500000920E-02 0.  1.
        2   -1    0    0  501    0  0.00000000000E+00  0.00000000000E+00 -0.16760511722E+04  0.16760511722E+04  0.25500000920E-02 0. -1.
    10030    2    1    2    0    0  0.00000000000E+00  0.00000000000E+00 -0.34658666713E+03  0.30055156774E+04  0.29854651512E+04 0.  0.
        5    1    3    3  502    0 -0.10938355603E+04  0.72361015177E+03  0.54433392339E+03  0.14200033080E+04  0.46999998093E+01 0.  1.
       -5    1    3    3    0  502  0.10938355603E+04 -0.72361015177E+03 -0.89092059052E+03  0.15855123693E+04  0.46999998093E+01 0. -1.
</event>
<event>
 5   0  0.1089569E-05  0.3069879E+04  0.7818609E-02  0.8224053E-01
        2   -1    0    0  501    0  0.00000000000E+00  0.00000000000E+00  0.24028151731E+04  0.24028151731E+04  0.25500000920E-02 0.  1.
       -2   -1    0    0    0  501  0.00000000000E+00  0.00000000000E+00 -0.98053302254E+03  0.98053302255E+03  0.25500000920E-02 0. -1.
    10030    2    1    2    0    0  0.00000000000E+00  0.00000000000E+00  0.14222821505E+04  0.33833481956E+04  0.30698792317E+04 0.  0.
        5    1    3    3  502    0 -0.11881891281E+04  0.29996842298E+03 -0.30748816348E+03  0.12634656781E+04  0.46999998093E+01 0. -1.
       -5    1    3    3    0  502  0.11881891281E+04 -0.29996842298E+03  0.17297703140E+04  0.21198825175E+04  0.46999998093E+01 0.  1.
</event>
<event>
 5   0  0.3636718E-06  0.3012718E+04  0.7818609E-02  0.8240109E-01
        1   -1    0    0  501    0  0.00000000000E+00  0.00000000000E+00  0.10117478565E+04  0.10117478565E+04  0.50400001928E-02 0.  1.
       -1   -1    0    0    0  501  0.00000000000E+00  0.00000000000E+00 -0.22427693013E+04  0.22427693013E+04  0.50400001928E-02 0. -1.
    10030    2    1    2    0    0  0.00000000000E+00  0.00000000000E+00 -0.12310214448E+04  0.32545171578E+04  0.30127177321E+04 0.  0.
        4    1    3    3  502    0  0.10732714862E+04 -0.58763116235E+03  0.33357791242E+03  0.12682657066E+04  0.12699999809E+01 0.  1.
       -4    1    3    3    0  502 -0.10732714862E+04  0.58763116235E+03 -0.15645993572E+04  0.19862514512E+04  0.12699999809E+01 0. -1.
</event>
<event>
 5   0  0.3592331E-06  0.3015044E+04  0.7818609E-02  0.8239448E-01
       -1   -1    0    0    0  501  0.00000000000E+00  0.00000000000E+00  0.23629136503E+04  0.23629136503E+04  0.50400001928E-02 0. -1.
        1   -1    0    0  501    0  0.00000000000E+00  0.00000000000E+00 -0.96178852899E+03  0.96178852900E+03  0.50400001928E-02 0.  1.
    10030    2    1    2    0    0  0.00000000000E+00  0.00000000000E+00  0.14011251213E+04  0.33247021793E+04  0.30150444401E+04 0.  0.
        3    1    3    3  502    0  0.36912405284E+03 -0.10374338659E+04 -0.43479533288E+03  0.11838786189E+04  0.10100000352E+00 0.  1.
       -3    1    3    3    0  502 -0.36912405284E+03  0.10374338659E+04  0.18359204542E+04  0.21408235604E+04  0.10100000352E+00 0. -1.
</event>
<event>
 5   0  0.3896630E-06  0.2968858E+04  0.7818609E-02  0.8252680E-01
       -1   -1    0    0    0  501  0.00000000000E+00  0.00000000000E+00  0.13678598530E+04  0.13678598530E+04  0.50400001928E-02 0. -1.
        1   -1    0    0  501    0  0.00000000000E+00  0.00000000000E+00 -0.16109317969E+04  0.16109317969E+04  0.50400001928E-02 0.  1.
    10030    2    1    2    0    0  0.00000000000E+00  0.00000000000E+00 -0.24307194389E+03  0.29787916499E+04  0.29688576462E+04 0.  0.
        5    1    3    3  502    0  0.11199079399E+04  0.97388220510E+03 -0.15107079945E+03  0.14918058921E+04  0.46999998093E+01 0. -1.
       -5    1    3    3    0  502 -0.11199079399E+04 -0.97388220510E+03 -0.92001144444E+02  0.14869857578E+04  0.46999998093E+01 0.  1.
</event>
<event>
 5   0  0.1029922E-05  0.3000440E+04  0.7818609E-02  0.8243605E-01
       -2   -1    0    0    0  501  0.00000000000E+00  0.00000000000E+00  0.98067032706E+03  0.98067032706E+03  0.25500000920E-02 0. -1.
        2   -1    0    0  501    0  0.00000000000E+00  0.00000000000E+00 -0.22950226559E+04  0.22950226559E+04  0.25500000920E-02 0.  1.
    10030    2    1    2    0    0  0.00000000000E+00  0.00000000000E+00 -0.13143523289E+04  0.32756929830E+04  0.30004403801E+04 0.  0.
        1    1    3    3  502    0  0.96216102294E+03  0.66460938479E+03  0.36882534990E+03  0.12261694855E+04  0.50400001928E-02 0. -1.
       -1    1    3    3    0  502 -0.96216102294E+03 -0.66460938479E+03 -0.16831776788E+04  0.20495234975E+04  0.50400001928E-02 0.  1.
</event>
<event>
 5   0  0.1089569E-05  0.2507430E+04  0.7818609E-02  0.8400343E-01
       -2   -1    0    0    0  501  0.00000000000E+00  0.00000000000E+00  0.55636599701E+03  0.55636599702E+03  0.25500000920E-02 0.  1.
        2   -1    0    0  501    0  0.00000000000E+00  0.00000000000E+00 -0.28251218848E+04  0.28251218848E+04  0.25500000920E-02 0. -1.
    10030    2    1    2    0    0  0.00000000000E+00  0.00000000000E+00 -0.22687558878E+04  0.33814878818E+04  0.25074303612E+04 0.  0.
        5    1    3    3  502    0 -0.12478510630E+04  0.11758554533E+03 -0.11730198019E+04  0.17166700853E+04  0.46999998093E+01 0. -1.
       -5    1    3    3    0  502  0.12478510630E+04 -0.11758554533E+03 -0.10957360858E+04  0.16648177965E+04  0.46999998093E+01 0.  1.
</event>
<event>
 5   0  0.3896630E-06  0.2874187E+04  0.7818609E-02  0.8280599E-01
        1   -1    0    0  501    0  0.00000000000E+00  0.00000000000E+00  0.23487903510E+04  0.23487903510E+04  0.50400001928E-02 0. -1.
       -1   -1    0    0    0  501  0.00000000000E+00  0.00000000000E+00 -0.87927697186E+03  0.87927697187E+03  0.50400001928E-02 0.  1.
    10030    2    1    2    0    0  0.00000000000E+00  0.00000000000E+00  0.14695133792E+04  0.32280673229E+04  0.28741866797E+04 0.  0.
        5    1    3    3  502    0  0.12244741554E+04 -0.32342151173E+03  0.14975526631E+04  0.19612813414E+04  0.46999998093E+01 0. -1.
       -5    1    3    3    0  502 -0.12244741554E+04  0.32342151173E+03 -0.28039283883E+02  0.12667859815E+04  0.46999998093E+01 0.  1.
</event>
<event>
 5   0  0.3852126E-06  0.3008885E+04  0.7818609E-02  0.8241198E-01
       -1   -1    0    0    0  501  0.00000000000E+00  0.00000000000E+00  0.14727222926E+04  0.14727222926E+04  0.50400001928E-02 0. -1.
        1   -1    0    0  501    0  0.00000000000E+00  0.00000000000E+00 -0.15368457585E+04  0.15368457585E+04  0.50400001928E-02 0.  1.
    10030    2    1    2    0    0  0.00000000000E+00  0.00000000000E+00 -0.64123465866E+02  0.30095680511E+04  0.30088848491E+04 0.  0.
        1    1    3    3  502    0 -0.10284213602E+04  0.21297277403E+03  0.10453732343E+04  0.14818276201E+04  0.50400001928E-02 0. -1.
       -1    1    3    3    0  502  0.10284213602E+04 -0.21297277403E+03 -0.11094967002E+04  0.15277404310E+04  0.50400001928E-02 0.  1.
</event>
<event>
 5   0  0.9647945E-06  0.2750217E+04  0.7818609E-02  0.8318893E-01
        2   -1    0    0  501    0  0.00000000000E+00  0.00000000000E+00  0.19986917229E+04  0.19986917229E+04  0.25500000920E-02 0.  1.
       -2   -1    0    0    0  501  0.00000000000E+00  0.00000000000E+00 -0.94608041472E+03  0.94608041472E+03  0.25500000920E-02 0. -1.
    10030    2    1    2    0    0  0.00000000000E+00  0.00000000000E+00  0.10526113082E+04  0.29447721376E+04  0.27502167872E+04 0.  0.
        2    1    3    3  502    0  0.21520203492E+03  0.25528137838E+03 -0.90201842559E+03  0.96183041025E+03  0.25500000920E-02 0. -1.
       -2    1    3    3    0  502 -0.21520203492E+03 -0.25528137838E+03  0.19546297338E+04  0.19829417274E+04  0.25500000920E-02 0.  1.
</event>
<event>
 5   0  0.3852126E-06  0.2954628E+04  0.7818609E-02  0.8256807E-01
       -1   -1    0    0    0  501  0.00000000000E+00  0.00000000000E+00  0.13512442884E+04  0.13512442884E+04  0.50400001928E-02 0. -1.
        1   -1    0    0  501    0  0.00000000000E+00  0.00000000000E+00 -0.16151460673E+04  0.16151460673E+04  0.50400001928E-02 0.  1.
    10030    2    1    2    0    0  0.00000000000E+00  0.00000000000E+00 -0.26390177889E+03  0.29663903558E+04  0.29546281651E+04 0.  0.
        1    1    3    3  502    0  0.30998296979E+03  0.12101099450E+04  0.65985939897E+03  0.14127526135E+04  0.50400001928E-02 0. -1.
       -1    1    3    3    0  502 -0.30998296979E+03 -0.12101099450E+04 -0.92376117787E+03  0.15536377423E+04  0.50400001928E-02 0.  1.
</event>
<event>
 5   0  0.1057036E-05  0.3032984E+04  0.7818609E-02  0.8234374E-01
        2   -1    0    0  501    0  0.00000000000E+00  0.00000000000E+00  0.18725485761E+04  0.18725485761E+04  0.25500000920E-02 0. -1.
       -2   -1    0    0    0  501  0.00000000000E+00  0.00000000000E+00 -0.12281381396E+04  0.12281381396E+04  0.25500000920E-02 0.  1.
    10030    2    1    2    0    0  0.00000000000E+00  0.00000000000E+00  0.64441043646E+03  0.31006867157E+04  0.30329842232E+04 0.  0.
        4    1    3    3  502    0 -0.32695698550E+03 -0.14616340051E+04  0.79262522303E+02  0.14998529913E+04  0.12699999809E+01 0.  1.
       -4    1    3    3    0  502  0.32695698550E+03  0.14616340051E+04  0.56514791415E+03  0.16008337244E+04  0.12699999809E+01 0. -1.
</event>
<event>
 5   0  0.1029922E-05  0.2987203E+04  0.7818609E-02  0.8247395E-01
        2   -1    0    0  501    0  0.00000000000E+00  0.00000000000E+00  0.25462072343E+04  0.25462072343E+04  0.25500000920E-02 0. -1.
       -2   -1    0    0    0  501  0.00000000000E+00  0.00000000000E+00 -0.87614444991E+03  0.87614444991E+03  0.25500000920E-02 0.  1.
    10030    2    1    2    0    0  0.00000000000E+00  0.00000000000E+00  0.16700627844E+04  0.34223516842E+04  0.29872029303E+04 0.  0.
        1    1    3    3  502    0  0.39979951663E+03  0.54195959448E+03  0.23623811696E+04  0.24565025231E+04  0.50400001928E-02 0. -1.
       -1    1    3    3    0  502 -0.39979951663E+03 -0.54195959448E+03 -0.69231838519E+03  0.96584916112E+03  0.50400001928E-02 0.  1.
</event>
<event>
 5   0  0.3725232E-06  0.1934054E+04  0.7818609E-02  0.8638089E-01
        1   -1    0    0  501    0  0.00000000000E+00  0.00000000000E+00  0.50128017298E+03  0.50128017301E+03  0.50400001928E-02 0.  1.
       -1   -1    0    0    0  501  0.00000000000E+00  0.00000000000E+00 -0.18655058471E+04  0.18655058471E+04  0.50400001928E-02 0. -1.
    10030    2    1    2    0    0  0.00000000000E+00  0.00000000000E+00 -0.13642256741E+04  0.23667860201E+04  0.19340538708E+04 0.  0.
        2    1    3    3  502    0 -0.25378697248E+03 -0.56275462444E+03 -0.15929928751E+04  0.17084281942E+04  0.25500000920E-02 0. -1.
       -2    1    3    3    0  502  0.25378697248E+03  0.56275462444E+03  0.22876720093E+03  0.65835782593E+03  0.25500000920E-02 0.  1.
</event>
<event>
 5   0  0.3852126E-06  0.2911840E+04  0.7818609E-02  0.8269363E-01
       -1   -1    0    0    0  501  0.00000000000E+00  0.00000000000E+00  0.96712606120E+03  0.96712606122E+03  0.50400001928E-02 0.  1.
        1   -1    0    0  501    0  0.00000000000E+00  0.00000000000E+00 -0.21917551399E+04  0.21917551399E+04  0.50400001928E-02 0. -1.
    10030    2    1    2    0    0  0.00000000000E+00  0.00000000000E+00 -0.12246290787E+04  0.31588812011E+04  0.29118403223E+04 0.  0.
        1    1    3    3  502    0 -0.46872503411E+03 -0.15189351803E+03 -0.20985568719E+04  0.21556242120E+04  0.50400001928E-02 0. -1.
       -1    1    3    3    0  502  0.46872503411E+03  0.15189351803E+03  0.87392779326E+03  0.10032569891E+04  0.50400001928E-02 0.  1.
</event>
<event>
 5   0  0.1057036E-05  0.2974418E+04  0.7818609E-02  0.8251074E-01
       -2   -1    0    0    0  501  0.00000000000E+00  0.00000000000E+00  0.14775200045E+04  0.14775200045E+04  0.25500000920E-02 0. -1.
        2   -1    0    0  501    0  0.00000000000E+00  0.00000000000E+00 -0.14969612467E+04  0.14969612467E+04  0.25500000920E-02 0.  1.
    10030    2    1    2    0    0  0.00000000000E+00  0.00000000000E+00 -0.19441242180E+02  0.29744812513E+04  0.29744177165E+04 0.  0.
        4    1    3    3  502    0  0.82826937007E+03  0.11579743660E+04  0.42023483072E+03  0.14844304321E+04  0.12699999809E+01 0. -1.
       -4    1    3    3    0  502 -0.82826937007E+03 -0.11579743660E+04 -0.43967607290E+03  0.14900508192E+04  0.12699999809E+01 0.  1.
</event>
<event>
 5   0  0.3636718E-06  0.3026693E+04  0.7818609E-02  0.8236149E-01
        1   -1    0    0  501    0  0.00000000000E+00  0.00000000000E+00  0.15315678388E+04  0.15315678388E+04  0.50400001928E-02 0.  1.
       -1   -1    0    0    0  501  0.00000000000E+00  0.00000000000E+00 -0.14953415833E+04  0.14953415833E+04  0.50400001928E-02 0. -1.
    10030    2    1    2    0    0  0.00000000000E+00  0.00000000000E+00  0.36226255559E+02  0.30269094221E+04  0.30266926352E+04 0.  0.
        4    1    3    3  502    0  0.81653696127E+03 -0.88758594985E+03  0.93233069011E+03  0.15243961283E+04  0.12699999809E+01 0.  1.
       -4    1    3    3    0  502 -0.81653696127E+03  0.88758594985E+03 -0.89610443455E+03  0.15025132938E+04  0.12699999809E+01 0. -1.
</event>
<event>
 5   0  0.1057036E-05  0.3016860E+04  0.7818609E-02  0.8238933E-01
        2   -1    0    0  501    0  0.00000000000E+00  0.00000000000E+00  0.13519659330E+04  0.13519659330E+04  0.25500000920E-02 0.  1.
       -2   -1    0    0    0  501  0.00000000000E+00  0.00000000000E+00 -0.16830022996E+04  0.16830022996E+04  0.25500000920E-02 0. -1.
    10030    2    1    2    0    0  0.00000000000E+00  0.00000000000E+00 -0.33103636658E+03  0.30349682325E+04  0.30168604702E+04 0.  0.
        4    1    3    3  502    0  0.10286658722E+04  0.58963664917E+03 -0.11036039260E+04  0.16198049552E+04  0.12699999809E+01 0. -1.
       -4    1    3    3    0  502 -0.10286658722E+04 -0.58963664917E+03  0.77256755938E+03  0.14151632773E+04  0.12699999809E+01 0.  1.
</event>
<event>
 5   0  0.3725232E-06  0.2991735E+04  0.7818609E-02  0.8246095E-01
        1   -1    0    0  501    0  0.00000000000E+00  0.00000000000E+00  0.19079660826E+04  0.19079660826E+04  0.50400001928E-02 0.  1.
       -1   -1    0    0    0  501  0.00000000000E+00  0.00000000000E+00 -0.11727776328E+04  0.11727776328E+04  0.50400001928E-02 0. -1.
    10030    2    1    2    0    0  0.00000000000E+00  0.00000000000E+00  0.73518844987E+03  0.30807437154E+04  0.29917352462E+04 0.  0.
        2    1    3    3  502    0 -0.71298345144E+03  0.13094466821E+04  0.24306695461E+03  0.15106546792E+04  0.25500000920E-02 0.  1.
       -2    1    3    3    0  502  0.71298345144E+03 -0.13094466821E+04  0.49212149526E+03  0.15700890362E+04  0.25500000920E-02 0. -1.
</event>
<event>
 5   0  0.1029922E-05  0.3171682E+04  0.7818609E-02  0.8196336E-01
        2   -1    0    0  501    0  0.00000000000E+00  0.00000000000E+00  0.14843018247E+04  0.14843018247E+04  0.25500000920E-02 0. -1.
       -2   -1    0    0    0  501  0.00000000000E+00  0.00000000000E+00 -0.16943264106E+04  0.16943264106E+04  0.25500000920E-02 0.  1.
    10030    2    1    2    0    0  0.00000000000E+00  0.00000000000E+00 -0.21002458589E+03  0.31786282353E+04  0.31716820666E+04 0.  0.
        1    1    3    3  502    0  0.25640731156E+03  0.12440063376E+04 -0.10566155309E+04  0.16521903212E+04  0.50400001928E-02 0.  1.
       -1    1    3    3    0  502 -0.25640731156E+03 -0.12440063376E+04  0.84659094500E+03  0.15264379141E+04  0.50400001928E-02 0. -1.
</event>
<event>
 5   0  0.3592331E-06  0.2972155E+04  0.7818609E-02  0.8251727E-01
       -1   -1    0    0    0  501  0.00000000000E+00  0.00000000000E+00  0.91356348323E+03  0.91356348324E+03  0.50400001928E-02 0.  1.
        1   -1    0    0  501    0  0.00000000000E+00  0.00000000000E+00 -0.24173766444E+04  0.24173766444E+04  0.50400001928E-02 0. -1.
    10030    2    1    2    0    0  0.00000000000E+00  0.00000000000E+00 -0.15038131612E+04  0.33309401276E+04  0.29721554654E+04 0.  0.
        3    1    3    3  502    0 -0.11639431412E+04 -0.30187011549E+03  0.22674025647E+03  0.12236422503E+04  0.10100000352E+00 0. -1.
       -3    1    3    3    0  502  0.11639431412E+04  0.30187011549E+03 -0.17305534176E+04  0.21072978774E+04  0.10100000352E+00 0.  1.
</event>
<event>
 5   0  0.3852126E-06  0.3033990E+04  0.7818609E-02  0.8234091E-01
        1   -1    0    0  501    0  0.00000000000E+00  0.00000000000E+00  0.16911786770E+04  0.16911786770E+04  0.50400001928E-02 0. -1.
       -1   -1    0    0    0  501  0.00000000000E+00  0.00000000000E+00 -0.13607513603E+04  0.13607513603E+04  0.50400001928E-02 0.  1.
    10030    2    1    2    0    0  0.00000000000E+00  0.00000000000E+00  0.33042731671E+03  0.30519300373E+04  0.30339899046E+04 0.  0.
        1    1    3    3  502    0 -0.70176391223E+02 -0.10150550462E+04 -0.96661162124E+03  0.14034242050E+04  0.50400001928E-02 0.  1.
       -1    1    3    3    0  502  0.70176391223E+02  0.10150550462E+04  0.12970389379E+04  0.16485058324E+04  0.50400001928E-02 0. -1.
</event>
<event>
 5   0  0.3592331E-06  0.3016659E+04  0.7818609E-02  0.8238990E-01
       -1   -1    0    0    0  501  0.00000000000E+00  0.00000000000E+00  0.10005369899E+04  0.10005369899E+04  0.50400001928E-02 0.  1.
        1   -1    0    0  501    0  0.00000000000E+00  0.00000000000E+00 -0.22738374125E+04  0.22738374125E+04  0.50400001928E-02 0. -1.
    10030    2    1    2    0    0  0.00000000000E+00  0.00000000000E+00 -0.12733004226E+04  0.32743744025E+04  0.30166593711E+04 0.  0.
        3    1    3    3  502    0  0.76443120407E+03  0.11234051188E+04 -0.13473083304E+04  0.19135396192E+04  0.10100000352E+00 0. -1.
       -3    1    3    3    0  502 -0.76443120407E+03 -0.11234051188E+04  0.74007907802E+02  0.13608347833E+04  0.10100000352E+00 0.  1.
</event>
<event>
 5   0  0.1028450E-05  0.3042700E+04  0.7818609E-02  0.8231642E-01
       -2   -1    0    0    0  501  0.00000000000E+00  0.00000000000E+00  0.19530871116E+04  0.19530871116E+04  0.25500000920E-02 0.  1.
        2   -1    0    0  501    0  0.00000000000E+00  0.00000000000E+00 -0.11850501567E+04  0.11850501567E+04  0.25500000920E-02 0. -1.
    10030    2    1    2    0    0  0.00000000000E+00  0.00000000000E+00  0.76803695486E+03  0.31381372682E+04  0.30427002400E+04 0.  0.
        3    1    3    3  502    0 -0.10236987501E+04 -0.31696014260E+03 -0.72970547084E+03  0.12964925558E+04  0.10100000352E+00 0. -1.
       -3    1    3    3    0  502  0.10236987501E+04  0.31696014260E+03  0.14977424257E+04  0.18416447124E+04  0.10100000352E+00 0.  1.
</event>
<event>
 5   0  0.9647945E-06  0.2218517E+04  0.7818609E-02  0.8510760E-01
       -2   -1    0    0    0  501  0.00000000000E+00  0.00000000000E+00  0.84350097719E+03  0.84350097719E+03  0.25500000920E-02 0.  1.
        2   -1    0    0  501    0  0.00000000000E+00  0.00000000000E+00 -0.14587466525E+04  0.14587466525E+04  0.25500000920E-02 0. -1.
    10030    2    1    2    0    0  0.00000000000E+00  0.00000000000E+00 -0.61524567534E+03  0.23022476297E+04  0.22185168261E+04 0.  0.
        2    1    3    3  502    0  0.16430563043E+03 -0.58672528353E+03  0.65429793803E+03  0.89406302364E+03  0.25500000920E-02 0.  1.
       -2    1    3    3    0  502 -0.16430563043E+03  0.58672528353E+03 -0.12695436134E+04  0.14081846061E+04  0.25500000920E-02 0. -1.
</event>
<event>
 5   0  0.3636718E-06  0.3031997E+04  0.7818609E-02  0.8234652E-01
        1   -1    0    0  501    0  0.00000000000E+00  0.00000000000E+00  0.11420657729E+04  0.11420657729E+04  0.50400001928E-02 0.  1.
       -1   -1    0    0    0  501  0.00000000000E+00  0.00000000000E+00 -0.20123639492E+04  0.20123639492E+04  0.50400001928E-02 0. -1.
    10030    2    1    2    0    0  0.00000000000E+00  0.00000000000E+00 -0.87029817634E+03  0.31544297222E+04  0.30319973543E+04 0.  0.
        4    1    3    3  502    0 -0.62766074686E+03  0.42817825847E+03 -0.17999738367E+04  0.19537661221E+04  0.12699999809E+01 0. -1.
       -4    1    3    3    0  502  0.62766074686E+03 -0.42817825847E+03  0.92967566035E+03  0.12006636001E+04  0.12699999809E+01 0.  1.
</event>
<event>
 5   0  0.1029922E-05  0.2452517E+04  0.7818609E-02  0.8420100E-01
       -2   -1    0    0    0  501  0.00000000000E+00  0.00000000000E+00  0.78552204638E+03  0.78552204638E+03  0.25500000920E-02 0.  1.
        2   -1    0    0  501    0  0.00000000000E+00  0.00000000000E+00 -0.19142808067E+04  0.19142808067E+04  0.25500000920E-02 0. -1.
    10030    2    1    2    0    0  0.00000000000E+00  0.00000000000E+00 -0.11287587603E+04  0.26998028531E+04  0.24525168922E+04 0.  0.
        1    1    3    3  502    0  0.14853404491E+03 -0.25111863807E+03  0.74675742434E+03  0.80172912116E+03  0.50400001928E-02 0.  1.
       -1    1    3    3    0  502 -0.14853404491E+03  0.25111863807E+03 -0.18755161846E+04  0.18980737319E+04  0.50400001928E-02 0. -1.
</event>
<event>
 5   0  0.3725232E-06  0.2057088E+04  0.7818609E-02  0.8580386E-01
       -1   -1    0    0    0  501  0.00000000000E+00  0.00000000000E+00  0.73865152336E+03  0.73865152338E+03  0.50400001928E-02 0.  1.
        1   -1    0    0  501    0  0.00000000000E+00  0.00000000000E+00 -0.14322075106E+04  0.14322075106E+04  0.50400001928E-02 0. -1.
    10030    2    1    2    0    0  0.00000000000E+00  0.00000000000E+00 -0.69355598723E+03  0.21708590340E+04  0.20570875135E+04 0.  0.
        2    1    3    3  502    0 -0.24032472823E+03 -0.58967708834E+03 -0.11991808372E+04  0.13577590817E+04  0.25500000920E-02 0. -1.
       -2    1    3    3    0  502  0.24032472823E+03  0.58967708834E+03  0.50562484999E+03  0.81309995231E+03  0.25500000920E-02 0.  1.
</event>
<event>
 5   0  0.3636718E-06  0.2928934E+04  0.7818609E-02  0.8264320E-01
        1   -1    0    0  501    0  0.00000000000E+00  0.00000000000E+00  0.16157560253E+04  0.16157560253E+04  0.50400001928E-02 0. -1.
       -1   -1    0    0    0  501  0.00000000000E+00  0.00000000000E+00 -0.13273439325E+04  0.13273439325E+04  0.50400001928E-02 0.  1.
    10030    2    1    2    0    0  0.00000000000E+00  0.00000000000E+00  0.28841209277E+03  0.29430999578E+04  0.29289342476E+04 0.  0.
        4    1    3    3  502    0  0.70043783648E+03  0.12167988615E+04 -0.27428115579E+03  0.14305398972E+04  0.12699999809E+01 0. -1.
       -4    1    3    3    0  502 -0.70043783648E+03 -0.12167988615E+04  0.56269324856E+03  0.15125600606E+04  0.12699999809E+01 0.  1.
</event>
<event>
 5   0  0.1029922E-05  0.3023210E+04  0.7818609E-02  0.8237134E-01
       -2   -1    0    0    0  501  0.00000000000E+00  0.00000000000E+00  0.14855601999E+04  0.14855601999E+04  0.25500000920E-02 0.  1.
        2   -1    0    0  501    0  0.00000000000E+00  0.00000000000E+00 -0.15381064321E+04  0.15381064321E+04  0.25500000920E-02 0. -1.
    10030    2    1    2    0    0  0.00000000000E+00  0.00000000000E+00 -0.52546232264E+02  0.30236666320E+04  0.30232100150E+04 0.  0.
        1    1    3    3  502    0  0.34396077910E+03 -0.10909688023E+04  0.96201971982E+03  0.14946584514E+04  0.50400001928E-02 0.  1.
       -1    1    3    3    0  502 -0.34396077910E+03  0.10909688023E+04 -0.10145659521E+04  0.15290081806E+04  0.50400001928E-02 0. -1.
</event>
<event>
 5   0  0.3852126E-06  0.2887965E+04  0.7818609E-02  0.8276467E-01
        1   -1    0    0  501    0  0.00000000000E+00  0.00000000000E+00  0.21898255672E+04  0.21898255672E+04  0.50400001928E-02 0.  1.
       -1   -1    0    0    0  501  0.00000000000E+00  0.00000000000E+00 -0.95216951799E+03  0.95216951800E+03  0.50400001928E-02 0. -1.
    10030    2    1    2    0    0  0.00000000000E+00  0.00000000000E+00  0.12376560492E+04  0.31419950852E+04  0.28879647884E+04 0.  0.
        1    1    3    3  502    0 -0.72285518793E+03  0.44776824963E+03 -0.65090724187E+03  0.10708390475E+04  0.50400001928E-02 0. -1.
       -1    1    3    3    0  502  0.72285518793E+03 -0.44776824963E+03  0.18885632911E+04  0.20711560377E+04  0.50400001928E-02 0.  1.
</event>
<event>
 5   0  0.1029922E-05  0.3002485E+04  0.7818609E-02  0.8243022E-01
       -2   -1    0    0    0  501  0.00000000000E+00  0.00000000000E+00  0.14071738375E+04  0.14071738375E+04  0.25500000920E-02 0.  1.
        2   -1    0    0  501    0  0.00000000000E+00  0.00000000000E+00 -0.16015997747E+04  0.16015997747E+04  0.25500000920E-02 0. -1.
    10030    2    1    2    0    0  0.00000000000E+00  0.00000000000E+00 -0.19442593719E+03  0.30087736122E+04  0.30024851714E+04 0.  0.
        1    1    3    3  502    0 -0.74463317805E+03  0.13031783002E+04 -0.12853622276E+03  0.15064109043E+04  0.50400001928E-02 0.  1.
       -1    1    3    3    0  502  0.74463317805E+03 -0.13031783002E+04 -0.65889714432E+02  0.15023627080E+04  0.50400001928E-02 0. -1.
</event>
<event>
 5   0  0.3636718E-06  0.2976927E+04  0.7818609E-02  0.8250350E-01
       -1   -1    0    0    0  501  0.00000000000E+00  0.00000000000E+00  0.16547089887E+04  0.16547089887E+04  0.50400001928E-02 0. -1.
        1   -1    0    0  501    0  0.00000000000E+00  0.00000000000E+00 -0.13389200735E+04  0.13389200735E+04  0.50400001928E-02 0.  1.
    10030    2    1    2    0    0  0.00000000000E+00  0.00000000000E+00  0.31578891524E+03  0.29936290622E+04  0.29769266573E+04 0.  0.
        4    1    3    3  502    0 -0.37098317944E+03 -0.28693968838E+03  0.15784626624E+04  0.16466659933E+04  0.12699999809E+01 0. -1.
       -4    1    3    3    0  502  0.37098317944E+03  0.28693968838E+03 -0.12626737472E+04  0.13469630688E+04  0.12699999809E+01 0.  1.
</event>
<event>
 5   0  0.9647945E-06  0.3084463E+04  0.7818609E-02  0.8220015E-01
       -2   -1    0    0    0  501  0.00000000000E+00  0.00000000000E+00  0.14652971453E+04  0.14652971453E+04  0.25500000920E-02 0.  1.
        2   -1    0    0  501    0  0.00000000000E+00  0.00000000000E+00 -0.16232054494E+04  0.16232054494E+04  0.25500000920E-02 0. -1.
    10030    2    1    2    0    0  0.00000000000E+00  0.00000000000E+00 -0.15790830407E+03  0.30885025947E+04  0.30844632021E+04 0.  0.
        2    1    3    3  502    0 -0.52155232258E+03 -0.33071011725E+03  0.13360817087E+04  0.14719036447E+04  0.25500000920E-02 0.  1.
       -2    1    3    3    0  502  0.52155232258E+03  0.33071011725E+03 -0.14939900128E+04  0.16165989500E+04  0.25500000920E-02 0. -1.
</event>
<event>
 5   0  0.9647945E-06  0.2976544E+04  0.7818609E-02  0.8250461E-01
        2   -1    0    0  501    0  0.00000000000E+00  0.00000000000E+00  0.12626625353E+04  0.12626625353E+04  0.25500000920E-02 0. -1.
       -2   -1    0    0    0  501  0.00000000000E+00  0.00000000000E+00 -0.17541933951E+04  0.17541933951E+04  0.25500000920E-02 0.  1.
    10030    2    1    2    0    0  0.00000000000E+00  0.00000000000E+00 -0.49153085981E+03  0.30168559305E+04  0.29765444931E+04 0.  0.
        2    1    3    3  502    0 -0.13065374028E+04  0.70991549735E+03 -0.18219210837E+03  0.14980700794E+04  0.25500000920E-02 0.  1.
       -2    1    3    3    0  502  0.13065374028E+04 -0.70991549735E+03 -0.30933875144E+03  0.15187858511E+04  0.25500000920E-02 0. -1.
</event>
<event>
 5   0  0.3636718E-06  0.2984413E+04  0.7818609E-02  0.8248196E-01
        1   -1    0    0  501    0  0.00000000000E+00  0.00000000000E+00  0.13467740966E+04  0.13467740966E+04  0.50400001928E-02 0. -1.
       -1   -1    0    0    0  501  0.00000000000E+00  0.00000000000E+00 -0.16533433671E+04  0.16533433671E+04  0.50400001928E-02 0.  1.
    10030    2    1    2    0    0  0.00000000000E+00  0.00000000000E+00 -0.30656927048E+03  0.30001174637E+04  0.29844128532E+04 0.  0.
        4    1    3    3  502    0 -0.50832174175E+03  0.11574622212E+04 -0.95027983430E+03  0.15815002886E+04  0.12699999809E+01 0.  1.
       -4    1    3    3    0  502  0.50832174175E+03 -0.11574622212E+04  0.64371056382E+03  0.14186171751E+04  0.12699999809E+01 0. -1.
</event>
<event>
 5   0  0.3896630E-06  0.3023395E+04  0.7818609E-02  0.8237082E-01
       -1   -1    0    0    0  501  0.00000000000E+00  0.00000000000E+00  0.10872904849E+04  0.10872904850E+04  0.50400001928E-02 0.  1.
        1   -1    0    0  501    0  0.00000000000E+00  0.00000000000E+00 -0.21017654421E+04  0.21017654421E+04  0.50400001928E-02 0. -1.
    10030    2    1    2    0    0  0.00000000000E+00  0.00000000000E+00 -0.10144749571E+04  0.31890559270E+04  0.30233951556E+04 0.  0.
        5    1    3    3  502    0 -0.10009914047E+04 -0.82585833791E+03 -0.13250807693E+04  0.18546932150E+04  0.46999998093E+01 0. -1.
       -5    1    3    3    0  502  0.10009914047E+04  0.82585833791E+03  0.31060581217E+03  0.13343627120E+04  0.46999998093E+01 0.  1.
</event>
<event>
 5   0  0.3725232E-06  0.2983099E+04  0.7818609E-02  0.8248574E-01
        1   -1    0    0  501    0  0.00000000000E+00  0.00000000000E+00  0.20645523787E+04  0.20645523787E+04  0.50400001928E-02 0. -1.
       -1   -1    0    0    0  501  0.00000000000E+00  0.00000000000E+00 -0.10775794544E+04  0.10775794544E+04  0.50400001928E-02 0.  1.
    10030    2    1    2    0    0  0.00000000000E+00  0.00000000000E+00  0.98697292432E+03  0.31421318332E+04  0.29830985407E+04 0.  0.
        2    1    3    3  502    0  0.79197549788E+03  0.57626682904E+03  0.16783614541E+04  0.19432462062E+04  0.25500000920E-02 0. -1.
       -2    1    3    3    0  502 -0.79197549788E+03 -0.57626682904E+03 -0.69138852973E+03  0.11988856270E+04  0.25500000920E-02 0.  1.
</event>
<event>
 5   0  0.1028450E-05  0.3091616E+04  0.7818609E-02  0.8218042E-01
        2   -1    0    0  501    0  0.00000000000E+00  0.00000000000E+00  0.20043365653E+04  0.20043365653E+04  0.25500000920E-02 0. -1.
       -2   -1    0    0    0  501  0.00000000000E+00  0.00000000000E+00 -0.11921765126E+04  0.11921765126E+04  0.25500000920E-02 0.  1.
    10030    2    1    2    0    0  0.00000000000E+00  0.00000000000E+00  0.81216005271E+03  0.31965130779E+04  0.30916163905E+04 0.  0.
        3    1    3    3  502    0 -0.55966797107E+03  0.72563017934E+02 -0.10818551462E+04  0.12202066206E+04  0.10100000352E+00 0.  1.
       -3    1    3    3    0  502  0.55966797107E+03 -0.72563017934E+02  0.18940151989E+04  0.19763064573E+04  0.10100000352E+00 0. -1.
</event>
<event>
 5   0  0.3725232E-06  0.2976030E+04  0.7818609E-02  0.8250609E-01
        1   -1    0    0  501    0  0.00000000000E+00  0.00000000000E+00  0.16640495022E+04  0.16640495023E+04  0.50400001928E-02 0. -1.
       -1   -1    0    0    0  501  0.00000000000E+00  0.00000000000E+00 -0.13306029179E+04  0.13306029179E+04  0.50400001928E-02 0.  1.
    10030    2    1    2    0    0  0.00000000000E+00  0.00000000000E+00  0.33344658436E+03  0.29946524201E+04  0.29760303246E+04 0.  0.
        2    1    3    3  502    0  0.13754015627E+03  0.10150389605E+04 -0.91936721880E+03  0.13763929195E+04  0.25500000920E-02 0.  1.
       -2    1    3    3    0  502 -0.13754015627E+03 -0.10150389605E+04  0.12528138032E+04  0.16182595006E+04  0.25500000920E-02 0. -1.
</event>
<event>
 5   0  0.3852126E-06  0.2441424E+04  0.7818609E-02  0.8424156E-01
       -1   -1    0    0    0  501  0.00000000000E+00  0.00000000000E+00  0.20358850418E+04  0.20358850418E+04  0.50400001928E-02 0. -1.
        1   -1    0    0  501    0  0.00000000000E+00  0.00000000000E+00 -0.73193587305E+03  0.73193587306E+03  0.50400001928E-02 0.  1.
    10030    2    1    2    0    0  0.00000000000E+00  0.00000000000E+00  0.13039491688E+04  0.27678209149E+04  0.24414235974E+04 0.  0.
        1    1    3    3  502    0 -0.11281345252E+03  0.31320138545E+03 -0.67948082861E+03  0.75664798909E+03  0.50400001928E-02 0.  1.
       -1    1    3    3    0  502  0.11281345252E+03 -0.31320138545E+03  0.19834299974E+04  0.20111729258E+04  0.50400001928E-02 0. -1.
</event>
<event>
 5   0  0.1029922E-05  0.2997040E+04  0.7818609E-02  0.8244577E-01
       -2   -1    0    0    0  501  0.00000000000E+00  0.00000000000E+00  0.13812657931E+04  0.13812657931E+04  0.25500000920E-02 0. -1.
        2   -1    0    0  501    0  0.00000000000E+00  0.00000000000E+00 -0.16257273627E+04  0.16257273627E+04  0.25500000920E-02 0.  1.
    10030    2    1    2    0    0  0.00000000000E+00  0.00000000000E+00 -0.24446156959E+03  0.30069931559E+04  0.29970396028E+04 0.  0.
        1    1    3    3  502    0  0.34757672021E+02  0.71718960427E+03 -0.14418908574E+04  0.16107818812E+04  0.50400001928E-02 0.  1.
       -1    1    3    3    0  502 -0.34757672021E+02 -0.71718960427E+03  0.11974292878E+04  0.13962112747E+04  0.50400001928E-02 0. -1.
</event>
<event>
 5   0  0.3313750E-06  0.3018574E+04  0.7818609E-02  0.8238447E-01
       -3   -1    0    0    0  501  0.00000000000E+00  0.00000000000E+00  0.16346740186E+04  0.16346740217E+04  0.10100000352E+00 0. -1.
        3   -1    0    0  501    0  0.00000000000E+00  0.00000000000E+00 -0.13935179964E+04  0.13935180001E+04  0.10100000352E+00 0.  1.
    10030    2    1    2    0    0  0.00000000000E+00  0.00000000000E+00  0.24115602216E+03  0.30281920217E+04  0.30185742816E+04 0.  0.
        1    1    3    3  502    0  0.90095177630E+03  0.31844431624E+03 -0.10514022908E+04  0.14207630566E+04  0.50400001928E-02 0.  1.
       -1    1    3    3    0  502 -0.90095177630E+03 -0.31844431624E+03  0.12925583129E+04  0.16074289652E+04  0.50400001928E-02 0. -1.
</event>
<event>
 5   0  0.3896630E-06  0.3011051E+04  0.7818609E-02  0.8240582E-01
       -1   -1    0    0    0  501  0.00000000000E+00  0.00000000000E+00  0.11181127026E+04  0.11181127026E+04  0.50400001928E-02 0. -1.
        1   -1    0    0  501    0  0.00000000000E+00  0.00000000000E+00 -0.20271724111E+04  0.20271724111E+04  0.50400001928E-02 0.  1.
    10030    2    1    2    0    0  0.00000000000E+00  0.00000000000E+00 -0.90905970851E+03  0.31452851137E+04  0.30110511276E+04 0.  0.
        5    1    3    3  502    0 -0.81522999637E+03  0.12101069853E+04 -0.84204846103E+03  0.16846443433E+04  0.46999998093E+01 0.  1.
       -5    1    3    3    0  502  0.81522999637E+03 -0.12101069853E+04 -0.67011247479E+02  0.14606407704E+04  0.46999998093E+01 0. -1.
</event>
<event>
 5   0  0.9647945E-06  0.2929630E+04  0.7818609E-02  0.8264116E-01
        2   -1    0    0  501    0  0.00000000000E+00  0.00000000000E+00  0.16372366867E+04  0.16372366867E+04  0.25500000920E-02 0. -1.
       -2   -1    0    0    0  501  0.00000000000E+00  0.00000000000E+00 -0.13105515732E+04  0.13105515732E+04  0.25500000920E-02 0.  1.
    10030    2    1    2    0    0  0.00000000000E+00  0.00000000000E+00  0.32668511346E+03  0.29477882599E+04  0.29296300896E+04 0.  0.
        2    1    3    3  502    0  0.17461808251E+03  0.56581026481E+03  0.15114416573E+04  0.16232956028E+04  0.25500000920E-02 0. -1.
       -2    1    3    3    0  502 -0.17461808251E+03 -0.56581026481E+03 -0.11847565439E+04  0.13244926571E+04  0.25500000920E-02 0.  1.
</event>
<event>
 5   0  0.9647945E-06  0.2740258E+04  0.7818609E-02  0.8322059E-01
        2   -1    0    0  501    0  0.00000000000E+00  0.00000000000E+00  0.13147737459E+04  0.13147737460E+04  0.25500000920E-02 0.  1.
       -2   -1    0    0    0  501  0.00000000000E+00  0.00000000000E+00 -0.14278153034E+04  0.14278153034E+04  0.25500000920E-02 0. -1.
    10030    2    1    2    0    0  0.00000000000E+00  0.00000000000E+00 -0.11304155743E+03  0.27425890493E+04  0.27402584367E+04 0.  0.
        2    1    3    3  502    0  0.14261741724E+02 -0.13524349173E+04  0.16268712554E+03  0.13622594113E+04  0.25500000920E-02 0.  1.
       -2    1    3    3    0  502 -0.14261741724E+02  0.13524349173E+04 -0.27572868297E+03  0.13803296380E+04  0.25500000920E-02 0. -1.
</event>
<event>
 5   0  0.3592331E-06  0.2993267E+04  0.7818609E-02  0.8245656E-01
       -1   -1    0    0    0  501  0.00000000000E+00  0.00000000000E+00  0.13553666266E+04  0.13553666266E+04  0.50400001928E-02 0.  1.
        1   -1    0    0  501    0  0.00000000000E+00  0.00000000000E+00 -0.16526240095E+04  0.16526240095E+04  0.50400001928E-02 0. -1.
    10030    2    1    2    0    0  0.00000000000E+00  0.00000000000E+00 -0.29725738290E+03  0.30079906361E+04  0.29932667297E+04 0.  0.
        3    1    3    3  502    0 -0.49322829189E+03 -0.45720969782E+03 -0.14922157651E+04  0.16367720536E+04  0.10100000352E+00 0. -1.
       -3    1    3    3    0  502  0.49322829189E+03  0.45720969782E+03  0.11949583822E+04  0.13712185825E+04  0.10100000352E+00 0.  1.
</event>
<event>
 5   0  0.1089569E-05  0.3036868E+04  0.7818609E-02  0.8233281E-01
       -2   -1    0    0    0  501  0.00000000000E+00  0.00000000000E+00  0.87870419022E+03  0.87870419022E+03  0.25500000920E-02 0. -1.
        2   -1    0    0  501    0  0.00000000000E+00  0.00000000000E+00 -0.26239116738E+04  0.26239116738E+04  0.25500000920E-02 0.  1.
    10030    2    1    2    0    0  0.00000000000E+00  0.00000000000E+00 -0.17452074835E+04  0.35026158640E+04  0.30368682438E+04 0.  0.
        5    1    3    3  502    0  0.38203309168E+03 -0.14057785150E+04 -0.37859528245E+03  0.15051641087E+04  0.46999998093E+01 0. -1.
       -5    1    3    3    0  502 -0.38203309168E+03  0.14057785150E+04 -0.13666122011E+04  0.19974517552E+04  0.46999998093E+01 0.  1.
</event>
<event>
 5   0  0.3636718E-06  0.1953793E+04  0.7818609E-02  0.8628534E-01
        1   -1    0    0  501    0  0.00000000000E+00  0.00000000000E+00  0.53249718629E+03  0.53249718631E+03  0.50400001928E-02 0.  1.
       -1   -1    0    0    0  501  0.00000000000E+00  0.00000000000E+00 -0.17921718359E+04  0.17921718359E+04  0.50400001928E-02 0. -1.
    10030    2    1    2    0    0  0.00000000000E+00  0.00000000000E+00 -0.12596746497E+04  0.23246690223E+04  0.19537926809E+04 0.  0.
        4    1    3    3  502    0  0.23753065782E+02 -0.13944337218E+03  0.52024674004E+03  0.53913536853E+03  0.12699999809E+01 0.  1.
       -4    1    3    3    0  502 -0.23753065782E+02  0.13944337218E+03 -0.17799213897E+04  0.17855336537E+04  0.12699999809E+01 0. -1.
</event>
<event>
 5   0  0.9647945E-06  0.2999351E+04  0.7818609E-02  0.8243916E-01
        2   -1    0    0  501    0  0.00000000000E+00  0.00000000000E+00  0.26493616404E+04  0.26493616404E+04  0.25500000920E-02 0.  1.
       -2   -1    0    0    0  501  0.00000000000E+00  0.00000000000E+00 -0.84889397231E+03  0.84889397231E+03  0.25500000920E-02 0. -1.
    10030    2    1    2    0    0  0.00000000000E+00  0.00000000000E+00  0.18004676681E+04  0.34982556127E+04  0.29993513479E+04 0.  0.
        2    1    3    3  502    0 -0.12353191780E+04 -0.82944117418E+03  0.68190434114E+03  0.16367588898E+04  0.25500000920E-02 0. -1.
       -2    1    3    3    0  502  0.12353191780E+04  0.82944117418E+03  0.11185633269E+04  0.18614967229E+04  0.25500000920E-02 0.  1.
</event>
<event>
 5   0  0.3896630E-06  0.2966944E+04  0.7818609E-02  0.8253234E-01
        1   -1    0    0  501    0  0.00000000000E+00  0.00000000000E+00  0.21154314806E+04  0.21154314806E+04  0.50400001928E-02 0.  1.
       -1   -1    0    0    0  501  0.00000000000E+00  0.00000000000E+00 -0.10403028165E+04  0.10403028165E+04  0.50400001928E-02 0. -1.
    10030    2    1    2    0    0  0.00000000000E+00  0.00000000000E+00  0.10751286641E+04  0.31557342971E+04  0.29669441028E+04 0.  0.
        5    1    3    3  502    0  0.83448357342E+03  0.33998307597E+03  0.17909876542E+04  0.20048965544E+04  0.46999998093E+01 0.  1.
       -5    1    3    3    0  502 -0.83448357342E+03 -0.33998307597E+03 -0.71585899010E+03  0.11508377427E+04  0.46999998093E+01 0. -1.
</event>
<event>
 5   0  0.3313750E-06  0.3031100E+04  0.7818609E-02  0.8234906E-01
       -3   -1    0    0    0  501  0.00000000000E+00  0.00000000000E+00  0.14470044756E+04  0.14470044791E+04  0.10100000352E+00 0.  1.
        3   -1    0    0  501    0  0.00000000000E+00  0.00000000000E+00 -0.15873421363E+04  0.15873421396E+04  0.10100000352E+00 0. -1.
    10030    2    1    2    0    0  0.00000000000E+00  0.00000000000E+00 -0.14033766073E+03  0.30343466187E+04  0.30310995931E+04 0.  0.
        3    1    3    3  502    0 -0.39281363478E+03  0.12300308817E+04  0.72416252686E+03  0.14804357119E+04  0.10100000352E+00 0.  1.
       -3    1    3    3    0  502  0.39281363478E+03 -0.12300308817E+04 -0.86450018759E+03  0.15539109068E+04  0.10100000352E+00 0. -1.
</event>
<event>
 5   0  0.3725232E-06  0.3004636E+04  0.7818609E-02  0.8242408E-01
        1   -1    0    0  501    0  0.00000000000E+00  0.00000000000E+00  0.10104557894E+04  0.10104557894E+04  0.50400001928E-02 0.  1.
       -1   -1    0    0    0  501  0.00000000000E+00  0.00000000000E+00 -0.22336056052E+04  0.22336056053E+04  0.50400001928E-02 0. -1.
    10030    2    1    2    0    0  0.00000000000E+00  0.00000000000E+00 -0.12231498158E+04  0.32440613947E+04  0.30046362277E+04 0.  0.
        2    1    3    3  502    0 -0.11955829584E+04 -0.59612835815E+03 -0.13534782364E+04  0.19017599654E+04  0.25500000920E-02 0. -1.
       -2    1    3    3    0  502  0.11955829584E+04  0.59612835815E+03  0.13032842057E+03  0.13423014293E+04  0.25500000920E-02 0.  1.
</event>
<event>
 5   0  0.3896630E-06  0.2981041E+04  0.7818609E-02  0.8249166E-01
        1   -1    0    0  501    0  0.00000000000E+00  0.00000000000E+00  0.18577619351E+04  0.18577619351E+04  0.50400001928E-02 0.  1.
       -1   -1    0    0    0  501  0.00000000000E+00  0.00000000000E+00 -0.11958751392E+04  0.11958751392E+04  0.50400001928E-02 0. -1.
    10030    2    1    2    0    0  0.00000000000E+00  0.00000000000E+00  0.66188679585E+03  0.30536370743E+04  0.29810409677E+04 0.  0.
        5    1    3    3  502    0  0.12904248959E+04  0.74521568643E+03  0.29718027119E+03  0.15195002582E+04  0.46999998093E+01 0. -1.
       -5    1    3    3    0  502 -0.12904248959E+04 -0.74521568643E+03  0.36470652466E+03  0.15341368160E+04  0.46999998093E+01 0.  1.
</event>
<event>
 5   0  0.9647945E-06  0.2940873E+04  0.7818609E-02  0.8260820E-01
        2   -1    0    0  501    0  0.00000000000E+00  0.00000000000E+00  0.29698378482E+04  0.29698378482E+04  0.25500000920E-02 0.  1.
       -2   -1    0    0    0  501  0.00000000000E+00  0.00000000000E+00 -0.72804749853E+03  0.72804749853E+03  0.25500000920E-02 0. -1.
    10030    2    1    2    0    0  0.00000000000E+00  0.00000000000E+00  0.22417903496E+04  0.36978853467E+04  0.29408726708E+04 0.  0.
        2    1    3    3  502    0  0.91701441079E+03 -0.11442010918E+04  0.98274325979E+03  0.17651900415E+04  0.25500000920E-02 0.  1.
       -2    1    3    3    0  502 -0.91701441079E+03  0.11442010918E+04  0.12590470898E+04  0.19326953052E+04  0.25500000920E-02 0. -1.
</event>
<event>
 5   0  0.9647945E-06  0.2961969E+04  0.7818609E-02  0.8254675E-01
       -2   -1    0    0    0  501  0.00000000000E+00  0.00000000000E+00  0.10590909143E+04  0.10590909143E+04  0.25500000920E-02 0.  1.
        2   -1    0    0  501    0  0.00000000000E+00  0.00000000000E+00 -0.20709416884E+04  0.20709416884E+04  0.25500000920E-02 0. -1.
    10030    2    1    2    0    0  0.00000000000E+00  0.00000000000E+00 -0.10118507740E+04  0.31300326027E+04  0.29619692951E+04 0.  0.
        2    1    3    3  502    0 -0.12359745160E+04 -0.41502303665E+03  0.23638370766E+03  0.13250488226E+04  0.25500000920E-02 0. -1.
       -2    1    3    3    0  502  0.12359745160E+04  0.41502303665E+03 -0.12482344817E+04  0.18049837801E+04  0.25500000920E-02 0.  1.
</event>
<event>
 5   0  0.3636718E-06  0.3052166E+04  0.7818609E-02  0.8228989E-01
       -1   -1    0    0    0  501  0.00000000000E+00  0.00000000000E+00  0.89504583700E+03  0.89504583701E+03  0.50400001928E-02 0.  1.
        1   -1    0    0  501    0  0.00000000000E+00  0.00000000000E+00 -0.26020224286E+04  0.26020224286E+04  0.50400001928E-02 0. -1.
    10030    2    1    2    0    0  0.00000000000E+00  0.00000000000E+00 -0.17069765916E+04  0.34970682656E+04  0.30521660129E+04 0.  0.
        4    1    3    3  502    0 -0.86015626523E+03 -0.81506607364E+03 -0.19552877306E+04  0.22863405755E+04  0.12699999809E+01 0. -1.
       -4    1    3    3    0  502  0.86015626523E+03  0.81506607364E+03  0.24831113894E+03  0.12107276901E+04  0.12699999809E+01 0.  1.
</event>
<event>
 5   0  0.1057036E-05  0.2868151E+04  0.7818609E-02  0.8282417E-01
       -2   -1    0    0    0  501  0.00000000000E+00  0.00000000000E+00  0.15584086923E+04  0.15584086923E+04  0.25500000920E-02 0.  1.
        2   -1    0    0  501    0  0.00000000000E+00  0.00000000000E+00 -0.13196621611E+04  0.13196621611E+04  0.25500000920E-02 0. -1.
    10030    2    1    2    0    0  0.00000000000E+00  0.00000000000E+00  0.23874653122E+03  0.28780708534E+04  0.28681513089E+04 0.  0.
        4    1    3    3  502    0 -0.86121341332E+03 -0.56816890485E+03  0.11188435980E+04  0.15219451558E+04  0.12699999809E+01 0.  1.
       -4    1    3    3    0  502  0.86121341332E+03  0.56816890485E+03 -0.88009706676E+03  0.13561256975E+04  0.12699999809E+01 0. -1.
</event>
<event>
 5   0  0.3313750E-06  0.3034968E+04  0.7818609E-02  0.8233816E-01
       -3   -1    0    0    0  501  0.00000000000E+00  0.00000000000E+00  0.23029007278E+04  0.23029007300E+04  0.10100000352E+00 0. -1.
        3   -1    0    0  501    0  0.00000000000E+00  0.00000000000E+00 -0.99993768739E+03  0.99993769249E+03  0.10100000352E+00 0.  1.
    10030    2    1    2    0    0  0.00000000000E+00  0.00000000000E+00  0.13029630404E+04  0.33028384225E+04  0.30349677034E+04 0.  0.
        3    1    3    3  502    0 -0.65415180923E+03  0.11066112755E+04 -0.22607442413E+03  0.13052251760E+04  0.10100000352E+00 0.  1.
       -3    1    3    3    0  502  0.65415180923E+03 -0.11066112755E+04  0.15290374646E+04  0.19976132466E+04  0.10100000352E+00 0. -1.
</event>
<event>
 5   0  0.3592331E-06  0.2883301E+04  0.7818609E-02  0.8277863E-01
       -1   -1    0    0    0  501  0.00000000000E+00  0.00000000000E+00  0.78406215532E+03  0.78406215533E+03  0.50400001928E-02 0.  1.
        1   -1    0    0  501    0  0.00000000000E+00  0.00000000000E+00 -0.26507552308E+04  0.26507552308E+04  0.50400001928E-02 0. -1.
    10030    2    1    2    0    0  0.00000000000E+00  0.00000000000E+00 -0.18666930755E+04  0.34348173861E+04  0.28833014823E+04 0.  0.
        3    1    3    3  502    0 -0.92279957135E+03 -0.13349900444E+03  0.37650599454E+03  0.10055534830E+04  0.10100000352E+00 0.  1.
       -3    1    3    3    0  502  0.92279957135E+03  0.13349900444E+03 -0.22431990700E+04  0.24292639031E+04  0.10100000352E+00 0. -1.
</event>
<event>
 5   0  0.9647945E-06  0.2509862E+04  0.7818609E-02  0.8399481E-01
       -2   -1    0    0    0  501  0.00000000000E+00  0.00000000000E+00  0.20105506498E+04  0.20105506498E+04  0.25500000920E-02 0.  1.
        2   -1    0    0  501    0  0.00000000000E+00  0.00000000000E+00 -0.78329386851E+03  0.78329386851E+03  0.25500000920E-02 0. -1.
    10030    2    1    2    0    0  0.00000000000E+00  0.00000000000E+00  0.12272567813E+04  0.27938445184E+04  0.25098621447E+04 0.  0.
        2    1    3    3  502    0 -0.52647433474E+03  0.10738607735E+04  0.19048651810E+03  0.12110480170E+04  0.25500000920E-02 0. -1.
       -2    1    3    3    0  502  0.52647433474E+03 -0.10738607735E+04  0.10367702632E+04  0.15827965013E+04  0.25500000920E-02 0.  1.
</event>
<event>
 5   0  0.3852126E-06  0.2985142E+04  0.7818609E-02  0.8247986E-01
       -1   -1    0    0    0  501  0.00000000000E+00  0.00000000000E+00  0.14360780852E+04  0.14360780852E+04  0.50400001928E-02 0. -1.
        1   -1    0    0  501    0  0.00000000000E+00  0.00000000000E+00 -0.15512864843E+04  0.15512864843E+04  0.50400001928E-02 0.  1.
    10030    2    1    2    0    0  0.00000000000E+00  0.00000000000E+00 -0.11520839910E+03  0.29873645695E+04  0.29851422237E+04 0.  0.
        1    1    3    3  502    0  0.14506135582E+03 -0.70105441923E+03 -0.13682541442E+04  0.15442278001E+04  0.50400001928E-02 0.  1.
       -1    1    3    3    0  502 -0.14506135582E+03  0.70105441923E+03  0.12530457451E+04  0.14431367693E+04  0.50400001928E-02 0. -1.
</event>
<event>
 5   0  0.9647945E-06  0.3011176E+04  0.7818609E-02  0.8240547E-01
        2   -1    0    0  501    0  0.00000000000E+00  0.00000000000E+00  0.85790750658E+03  0.85790750658E+03  0.25500000920E-02 0. -1.
       -2   -1    0    0    0  501  0.00000000000E+00  0.00000000000E+00 -0.26422366922E+04  0.26422366922E+04  0.25500000920E-02 0.  1.
    10030    2    1    2    0    0  0.00000000000E+00  0.00000000000E+00 -0.17843291856E+04  0.35001441988E+04  0.30111756457E+04 0.  0.
        2    1    3    3  502    0 -0.62030041625E+03  0.11944252140E+03  0.69641824984E+03  0.94023268452E+03  0.25500000920E-02 0. -1.
       -2    1    3    3    0  502  0.62030041625E+03 -0.11944252140E+03 -0.24807474354E+04  0.25599115142E+04  0.25500000920E-02 0.  1.
</event>
<event>
 5   0  0.9647945E-06  0.2989422E+04  0.7818609E-02  0.8246758E-01
       -2   -1    0    0    0  501  0.00000000000E+00  0.00000000000E+00  0.79432704740E+03  0.79432704741E+03  0.25500000920E-02 0.  1.
        2   -1    0    0  501    0  0.00000000000E+00  0.00000000000E+00 -0.28126458226E+04  0.28126458226E+04  0.25500000920E-02 0. -1.
    10030    2    1    2    0    0  0.00000000000E+00  0.00000000000E+00 -0.20183187752E+04  0.36069728700E+04  0.29894217847E+04 0.  0.
        2    1    3    3  502    0  0.10790278369E+02 -0.82565195595E+03 -0.25124728070E+04  0.26446809238E+04  0.25500000920E-02 0. -1.
       -2    1    3    3    0  502 -0.10790278369E+02  0.82565195595E+03  0.49415403188E+03  0.96229194619E+03  0.25500000920E-02 0.  1.
</event>
<event>
 5   0  0.3592331E-06  0.2977728E+04  0.7818609E-02  0.8250119E-01
        1   -1    0    0  501    0  0.00000000000E+00  0.00000000000E+00  0.12314858360E+04  0.12314858360E+04  0.50400001928E-02 0. -1.
       -1   -1    0    0    0  501  0.00000000000E+00  0.00000000000E+00 -0.18000339206E+04  0.18000339206E+04  0.50400001928E-02 0.  1.
    10030    2    1    2    0    0  0.00000000000E+00  0.00000000000E+00 -0.56854808455E+03  0.30315197566E+04  0.29777281794E+04 0.  0.
        3    1    3    3  502    0 -0.52018306259E+03 -0.74899754727E+03  0.91390132890E+03  0.12910474018E+04  0.10100000352E+00 0. -1.
       -3    1    3    3    0  502  0.52018306259E+03  0.74899754727E+03 -0.14824494134E+04  0.17404723549E+04  0.10100000352E+00 0.  1.
</event>
<event>
 5   0  0.3852126E-06  0.3022912E+04  0.7818609E-02  0.8237218E-01
        1   -1    0    0  501    0  0.00000000000E+00  0.00000000000E+00  0.16405562098E+04  0.16405562098E+04  0.50400001928E-02 0.  1.
       -1   -1    0    0    0  501  0.00000000000E+00  0.00000000000E+00 -0.13925151816E+04  0.13925151816E+04  0.50400001928E-02 0. -1.
    10030    2    1    2    0    0  0.00000000000E+00  0.00000000000E+00  0.24804102824E+03  0.30330713915E+04  0.30229121247E+04 0.  0.
        1    1    3    3  502    0  0.10008401699E+04 -0.10719341618E+04  0.49100310241E+03  0.15465471022E+04  0.50400001928E-02 0. -1.
       -1    1    3    3    0  502 -0.10008401699E+04  0.10719341618E+04 -0.24296207417E+03  0.14865242892E+04  0.50400001928E-02 0.  1.
</event>
<event>
 5   0  0.3592331E-06  0.3034723E+04  0.7818609E-02  0.8233884E-01
       -1   -1    0    0    0  501  0.00000000000E+00  0.00000000000E+00  0.12011593237E+04  0.12011593237E+04  0.50400001928E-02 0.  1.
        1   -1    0    0  501    0  0.00000000000E+00  0.00000000000E+00 -0.19168031548E+04  0.19168031548E+04  0.50400001928E-02 0. -1.
    10030    2    1    2    0    0  0.00000000000E+00  0.00000000000E+00 -0.71564383116E+03  0.31179624785E+04  0.30347230391E+04 0.  0.
        3    1    3    3  502    0 -0.54561680307E+03 -0.28033142865E+03  0.10680861567E+04  0.12317026646E+04  0.10100000352E+00 0.  1.
       -3    1    3    3    0  502  0.54561680307E+03  0.28033142865E+03 -0.17837299879E+04  0.18862598139E+04  0.10100000352E+00 0. -1.
</event>
<event>
 5   0  0.3636718E-06  0.2518067E+04  0.7818609E-02  0.8396577E-01
        1   -1    0    0  501    0  0.00000000000E+00  0.00000000000E+00  0.12031806522E+04  0.12031806522E+04  0.50400001928E-02 0. -1.
       -1   -1    0    0    0  501  0.00000000000E+00  0.00000000000E+00 -0.13174786763E+04  0.13174786763E+04  0.50400001928E-02 0.  1.
    10030    2    1    2    0    0  0.00000000000E+00  0.00000000000E+00 -0.11429802408E+03  0.25206593286E+04  0.25180666020E+04 0.  0.
        4    1    3    3  502    0  0.94713389625E+03  0.18995639532E+03  0.75115821946E+03  0.12236773811E+04  0.12699999809E+01 0. -1.
       -4    1    3    3    0  502 -0.94713389625E+03 -0.18995639532E+03 -0.86545624354E+03  0.12969819474E+04  0.12699999809E+01 0.  1.
</event>
<event>
 5   0  0.3636718E-06  0.3206411E+04  0.7818609E-02  0.8187126E-01
        1   -1    0    0  501    0  0.00000000000E+00  0.00000000000E+00  0.16182204820E+04  0.16182204820E+04  0.50400001928E-02 0. -1.
       -1   -1    0    0    0  501  0.00000000000E+00  0.00000000000E+00 -0.15883294499E+04  0.15883294499E+04  0.50400001928E-02 0.  1.
    10030    2    1    2    0    0  0.00000000000E+00  0.00000000000E+00  0.29891032142E+02  0.32065499319E+04  0.32064106087E+04 0.  0.
        4    1    3    3  502    0 -0.12993457684E+04  0.19169258980E+03  0.93434402260E+03  0.16118454766E+04  0.12699999809E+01 0. -1.
       -4    1    3    3    0  502  0.12993457684E+04 -0.19169258980E+03 -0.90445299046E+03  0.15947044553E+04  0.12699999809E+01 0.  1.
</event>
<event>
 5   0  0.1029922E-05  0.2636538E+04  0.7818609E-02  0.8355895E-01
       -2   -1    0    0    0  501  0.00000000000E+00  0.00000000000E+00  0.84334771662E+03  0.84334771663E+03  0.25500000920E-02 0. -1.
        2   -1    0    0  501    0  0.00000000000E+00  0.00000000000E+00 -0.20606363367E+04  0.20606363367E+04  0.25500000920E-02 0.  1.
    10030    2    1    2    0    0  0.00000000000E+00  0.00000000000E+00 -0.12172886201E+04  0.29039840534E+04  0.26365378430E+04 0.  0.
        1    1    3    3  502    0 -0.88222846618E+03  0.73301526104E+03 -0.13243204010E+04  0.17519882888E+04  0.50400001928E-02 0.  1.
       -1    1    3    3    0  502  0.88222846618E+03 -0.73301526104E+03  0.10703178091E+03  0.11519957646E+04  0.50400001928E-02 0. -1.
</event>
<event>
 5   0  0.1028450E-05  0.2895987E+04  0.7818609E-02  0.8274073E-01
       -2   -1    0    0    0  501  0.00000000000E+00  0.00000000000E+00  0.96621983585E+03  0.96621983585E+03  0.25500000920E-02 0. -1.
        2   -1    0    0  501    0  0.00000000000E+00  0.00000000000E+00 -0.21699872292E+04  0.21699872292E+04  0.25500000920E-02 0.  1.
    10030    2    1    2    0    0  0.00000000000E+00  0.00000000000E+00 -0.12037673933E+04  0.31362070650E+04  0.28959866742E+04 0.  0.
        3    1    3    3  502    0  0.12912789402E+04  0.34418664701E+03  0.18729300911E+01  0.13363641972E+04  0.10100000352E+00 0. -1.
       -3    1    3    3    0  502 -0.12912789402E+04 -0.34418664701E+03 -0.12056403234E+04  0.17998428679E+04  0.10100000352E+00 0.  1.
</event>
<event>
 5   0  0.3313750E-06  0.2793888E+04  0.7818609E-02  0.8305168E-01
        3   -1    0    0  501    0  0.00000000000E+00  0.00000000000E+00  0.15865615436E+04  0.15865615468E+04  0.10100000352E+00 0. -1.
       -3   -1    0    0    0  501  0.00000000000E+00  0.00000000000E+00 -0.12299885313E+04  0.12299885354E+04  0.10100000352E+00 0.  1.
    10030    2    1    2    0    0  0.00000000000E+00  0.00000000000E+00  0.35657301228E+03  0.28165500822E+04  0.27938879814E+04 0.  0.
        3    1    3    3  502    0 -0.93245231027E+03  0.25027310256E+02 -0.87003236354E+03  0.12755587015E+04  0.10100000352E+00 0.  1.
       -3    1    3    3    0  502  0.93245231027E+03 -0.25027310256E+02  0.12266053758E+04  0.15409913807E+04  0.10100000352E+00 0. -1.
</event>
<event>
 5   0  0.9647945E-06  0.2969995E+04  0.7818609E-02  0.8252351E-01
       -2   -1    0    0    0  501  0.00000000000E+00  0.00000000000E+00  0.88186186961E+03  0.88186186962E+03  0.25500000920E-02 0.  1.
        2   -1    0    0  501    0  0.00000000000E+00  0.00000000000E+00 -0.25006389510E+04  0.25006389510E+04  0.25500000920E-02 0. -1.
    10030    2    1    2    0    0  0.00000000000E+00  0.00000000000E+00 -0.16187770814E+04  0.33825008206E+04  0.29699953809E+04 0.  0.
        2    1    3    3  502    0 -0.62000405174E+03 -0.43597378445E+03 -0.22637571609E+04  0.23872734758E+04  0.25500000920E-02 0. -1.
       -2    1    3    3    0  502  0.62000405174E+03  0.43597378445E+03  0.64498007949E+03  0.99522734481E+03  0.25500000920E-02 0.  1.
</event>
<event>
 5   0  0.1057036E-05  0.3024838E+04  0.7818609E-02  0.8236674E-01
       -2   -1    0    0    0  501  0.00000000000E+00  0.00000000000E+00  0.12134848356E+04  0.12134848356E+04  0.25500000920E-02 0. -1.
        2   -1    0    0  501    0  0.00000000000E+00  0.00000000000E+00 -0.18849932125E+04  0.18849932125E+04  0.25500000920E-02 0.  1.
    10030    2    1    2    0    0  0.00000000000E+00  0.00000000000E+00 -0.67150837686E+03  0.30984780481E+04  0.30248376344E+04 0.  0.
        4    1    3    3  502    0 -0.11533369265E+04  0.86541593666E+03 -0.80323987943E+03  0.16505534606E+04  0.12699999809E+01 0.  1.
       -4    1    3    3    0  502  0.11533369265E+04 -0.86541593666E+03  0.13173150257E+03  0.14479245875E+04  0.12699999809E+01 0. -1.
</event>
<event>
 5   0  0.3636718E-06  0.2943328E+04  0.7818609E-02  0.8260102E-01
        1   -1    0    0  501    0  0.00000000000E+00  0.00000000000E+00  0.25349312646E+04  0.25349312646E+04  0.50400001928E-02 0.  1.
       -1   -1    0    0    0  501  0.00000000000E+00  0.00000000000E+00 -0.85437997257E+03  0.85437997258E+03  0.50400001928E-02 0. -1.
    10030    2    1    2    0    0  0.00000000000E+00  0.00000000000E+00  0.16805512921E+04  0.33893112372E+04  0.29433277115E+04 0.  0.
        4    1    3    3  502    0  0.17663346525E+03 -0.96222378149E+03 -0.42572955394E+03  0.10669213901E+04  0.12699999809E+01 0. -1.
       -4    1    3    3    0  502 -0.17663346525E+03  0.96222378149E+03  0.21062808460E+04  0.23223898471E+04  0.12699999809E+01 0.  1.
</event>
<event>
 5   0  0.1089569E-05  0.3015287E+04  0.7818609E-02  0.8239379E-01
        2   -1    0    0  501    0  0.00000000000E+00  0.00000000000E+00  0.17397657666E+04  0.17397657666E+04  0.25500000920E-02 0.  1.
       -2   -1    0    0    0  501  0.00000000000E+00  0.00000000000E+00 -0.13064916777E+04  0.13064916777E+04  0.25500000920E-02 0. -1.
    10030    2    1    2    0    0  0.00000000000E+00  0.00000000000E+00  0.43327408886E+03  0.30462574443E+04  0.30152873794E+04 0.  0.
        5    1    3    3  502    0 -0.14834149587E+04 -0.20817293773E+03  0.38901040015E+03  0.15476456614E+04  0.46999998093E+01 0. -1.
       -5    1    3    3    0  502  0.14834149587E+04  0.20817293773E+03  0.44263688705E+02  0.14986117829E+04  0.46999998093E+01 0.  1.
</event>
<event>
 5   0  0.1028450E-05  0.3016683E+04  0.7818609E-02  0.8238983E-01
        2   -1    0    0  501    0  0.00000000000E+00  0.00000000000E+00  0.18407476405E+04  0.18407476405E+04  0.25500000920E-02 0.  1.
       -2   -1    0    0    0  501  0.00000000000E+00  0.00000000000E+00 -0.12359618521E+04  0.12359618521E+04  0.25500000920E-02 0. -1.
    10030    2    1    2    0    0  0.00000000000E+00  0.00000000000E+00  0.60478578842E+03  0.30767094925E+04  0.30166828557E+04 0.  0.
        3    1    3    3  502    0 -0.76215644786E+03  0.40091051507E+03  0.15653721005E+04  0.17866173388E+04  0.10100000352E+00 0.  1.
       -3    1    3    3    0  502  0.76215644786E+03 -0.40091051507E+03 -0.96058631204E+03  0.12900921538E+04  0.10100000352E+00 0. -1.
</event>
<event>
 5   0  0.3636718E-06  0.2861622E+04  0.7818609E-02  0.8284388E-01
        1   -1    0    0  501    0  0.00000000000E+00  0.00000000000E+00  0.60067096490E+03  0.60067096492E+03  0.50400001928E-02 0.  1.
       -1   -1    0    0    0  501  0.00000000000E+00  0.00000000000E+00 -0.34082233505E+04  0.34082233505E+04  0.50400001928E-02 0. -1.
    10030    2    1    2    0    0  0.00000000000E+00  0.00000000000E+00 -0.28075523856E+04  0.40088943154E+04  0.28616224828E+04 0.  0.
        4    1    3    3  502    0  0.90935464866E+03  0.10870750057E+04 -0.11286779458E+04  0.18117873670E+04  0.12699999809E+01 0.  1.
       -4    1    3    3    0  502 -0.90935464866E+03 -0.10870750057E+04 -0.16788744398E+04  0.21971069484E+04  0.12699999809E+01 0. -1.
</event>
<event>
 5   0  0.3592331E-06  0.2811070E+04  0.7818609E-02  0.8299840E-01
        1   -1    0    0  501    0  0.00000000000E+00  0.00000000000E+00  0.80139565707E+03  0.80139565708E+03  0.50400001928E-02 0.  1.
       -1   -1    0    0    0  501  0.00000000000E+00  0.00000000000E+00 -0.24651108031E+04  0.24651108031E+04  0.50400001928E-02 0. -1.
    10030    2    1    2    0    0  0.00000000000E+00  0.00000000000E+00 -0.16637151460E+04  0.32665064602E+04  0.28110703242E+04 0.  0.
        3    1    3    3  502    0  0.13871490262E+04 -0.22018179224E+03 -0.89407303340E+03  0.16649411527E+04  0.10100000352E+00 0. -1.
       -3    1    3    3    0  502 -0.13871490262E+04  0.22018179224E+03 -0.76964211263E+03  0.16015653075E+04  0.10100000352E+00 0.  1.
</event>
<event>
 5   0  0.1057036E-05  0.2980421E+04  0.7818609E-02  0.8249344E-01
       -2   -1    0    0    0  501  0.00000000000E+00  0.00000000000E+00  0.10314073813E+04  0.10314073813E+04  0.25500000920E-02 0. -1.
        2   -1    0    0  501    0  0.00000000000E+00  0.00000000000E+00 -0.21531033318E+04  0.21531033318E+04  0.25500000920E-02 0.  1.
    10030    2    1    2    0    0  0.00000000000E+00  0.00000000000E+00 -0.11216959505E+04  0.31845107131E+04  0.29804205536E+04 0.  0.
        4    1    3    3  502    0  0.79518203377E+03  0.11569305344E+04 -0.10950034614E+04  0.17804035839E+04  0.12699999809E+01 0. -1.
       -4    1    3    3    0  502 -0.79518203377E+03 -0.11569305344E+04 -0.26692489166E+02  0.14041071292E+04  0.12699999809E+01 0.  1.
</event>
<event>
 5   0  0.1028450E-05  0.2897407E+04  0.7818609E-02  0.8273650E-01
       -2   -1    0    0    0  501  0.00000000000E+00  0.00000000000E+00  0.17901698635E+04  0.17901698635E+04  0.25500000920E-02 0.  1.
        2   -1    0    0  501    0  0.00000000000E+00  0.00000000000E+00 -0.11723698365E+04  0.11723698365E+04  0.25500000920E-02 0. -1.
    10030    2    1    2    0    0  0.00000000000E+00  0.00000000000E+00  0.61780002704E+03  0.29625397000E+04  0.28974065301E+04 0.  0.
        3    1    3    3  502    0 -0.46686698535E+03  0.13576891091E+04  0.50678787668E+03  0.15225368505E+04  0.10100000352E+00 0.  1.
       -3    1    3    3    0  502  0.46686698535E+03 -0.13576891091E+04  0.11101215036E+03  0.14400028495E+04  0.10100000352E+00 0. -1.
</event>
<event>
 5   0  0.9647945E-06  0.2934699E+04  0.7818609E-02  0.8262628E-01
        2   -1    0    0  501    0  0.00000000000E+00  0.00000000000E+00  0.25718389876E+04  0.25718389876E+04  0.25500000920E-02 0.  1.
       -2   -1    0    0    0  501  0.00000000000E+00  0.00000000000E+00 -0.83718863297E+03  0.83718863298E+03  0.25500000920E-02 0. -1.
    10030    2    1    2    0    0  0.00000000000E+00  0.00000000000E+00  0.17346503547E+04  0.34090276206E+04  0.29346988713E+04 0.  0.
        2    1    3    3  502    0 -0.39866151434E+03 -0.29089064002E+03 -0.73789389644E+03  0.88771378827E+03  0.25500000920E-02 0. -1.
       -2    1    3    3    0  502  0.39866151434E+03  0.29089064002E+03  0.24725442511E+04  0.25213138324E+04  0.25500000920E-02 0.  1.
</event>
<event>
 5   0  0.9647945E-06  0.2961202E+04  0.7818609E-02  0.8254898E-01
       -2   -1    0    0    0  501  0.00000000000E+00  0.00000000000E+00  0.15513369982E+04  0.15513369982E+04  0.25500000920E-02 0.  1.
        2   -1    0    0  501    0  0.00000000000E+00  0.00000000000E+00 -0.14130900770E+04  0.14130900770E+04  0.25500000920E-02 0. -1.
    10030    2    1    2    0    0  0.00000000000E+00  0.00000000000E+00  0.13824692123E+03  0.29644270752E+04  0.29612017278E+04 0.  0.
        2    1    3    3  502    0  0.73114146850E+03  0.31017103626E+03 -0.11817994880E+04  0.14238763810E+04  0.25500000920E-02 0. -1.
       -2    1    3    3    0  502 -0.73114146850E+03 -0.31017103626E+03  0.13200464092E+04  0.15405506941E+04  0.25500000920E-02 0.  1.
</event>
<event>
 5   0  0.1057036E-05  0.2876643E+04  0.7818609E-02  0.8279861E-01
        2   -1    0    0  501    0  0.00000000000E+00  0.00000000000E+00  0.14806928945E+04  0.14806928945E+04  0.25500000920E-02 0.  1.
       -2   -1    0    0    0  501  0.00000000000E+00  0.00000000000E+00 -0.13971627259E+04  0.13971627259E+04  0.25500000920E-02 0. -1.
    10030    2    1    2    0    0  0.00000000000E+00  0.00000000000E+00  0.83530168611E+02  0.28778556204E+04  0.28766431275E+04 0.  0.
        4    1    3    3  502    0 -0.11615822611E+04  0.31949013580E+03  0.82785706449E+03  0.14617442417E+04  0.12699999809E+01 0.  1.
       -4    1    3    3    0  502  0.11615822611E+04 -0.31949013580E+03 -0.74432689588E+03  0.14161113787E+04  0.12699999809E+01 0. -1.
</event>
<event>
 5   0  0.1089569E-05  0.2928024E+04  0.7818609E-02  0.8264588E-01
       -2   -1    0    0    0  501  0.00000000000E+00  0.00000000000E+00  0.13808650637E+04  0.13808650637E+04  0.25500000920E-02 0.  1.
        2   -1    0    0  501    0  0.00000000000E+00  0.00000000000E+00 -0.15521654220E+04  0.15521654220E+04  0.25500000920E-02 0. -1.
    10030    2    1    2    0    0  0.00000000000E+00  0.00000000000E+00 -0.17130035824E+03  0.29330304857E+04  0.29280239100E+04 0.  0.
        5    1    3    3  502    0  0.76930127068E+03  0.41930446430E+03  0.10892441644E+04  0.13978968555E+04  0.46999998093E+01 0.  1.
       -5    1    3    3    0  502 -0.76930127068E+03 -0.41930446430E+03 -0.12605445227E+04  0.15351336302E+04  0.46999998093E+01 0. -1.
</event>
<event>
 5   0  0.3313750E-06  0.2862613E+04  0.7818609E-02  0.8284089E-01
        4   -1    0    0  501    0  0.00000000000E+00  0.00000000000E+00  0.14488049501E+04  0.14488055068E+04  0.12699999809E+01 0.  1.
       -4   -1    0    0    0  501  0.00000000000E+00  0.00000000000E+00 -0.14140178237E+04  0.14140183940E+04  0.12699999809E+01 0. -1.
    10030    2    1    2    0    0  0.00000000000E+00  0.00000000000E+00  0.34787126431E+02  0.28628239008E+04  0.28626125380E+04 0.  0.
        1    1    3    3  502    0 -0.11500000923E+04  0.20035083688E+03  0.84570405538E+03  0.14414770270E+04  0.50400001928E-02 0. -1.
       -1    1    3    3    0  502  0.11500000923E+04 -0.20035083688E+03 -0.81091692895E+03  0.14213468738E+04  0.50400001928E-02 0.  1.
</event>
<event>
 5   0  0.1028450E-05  0.3018196E+04  0.7818609E-02  0.8238554E-01
        2   -1    0    0  501    0  0.00000000000E+00  0.00000000000E+00  0.16061259058E+04  0.16061259059E+04  0.25500000920E-02 0. -1.
       -2   -1    0    0    0  501  0.00000000000E+00  0.00000000000E+00 -0.14179314492E+04  0.14179314492E+04  0.25500000920E-02 0.  1.
    10030    2    1    2    0    0  0.00000000000E+00  0.00000000000E+00  0.18819445665E+03  0.30240573551E+04  0.30181957745E+04 0.  0.
        3    1    3    3  502    0 -0.50867992031E+03 -0.68820222780E+03  0.13394910248E+04  0.15895325676E+04  0.10100000352E+00 0. -1.
       -3    1    3    3    0  502  0.50867992031E+03  0.68820222780E+03 -0.11512965682E+04  0.14345247874E+04  0.10100000352E+00 0.  1.
</event>
<event>
 5   0  0.3852126E-06  0.3046017E+04  0.7818609E-02  0.8230711E-01
        1   -1    0    0  501    0  0.00000000000E+00  0.00000000000E+00  0.11535751880E+04  0.11535751880E+04  0.50400001928E-02 0.  1.
       -1   -1    0    0    0  501  0.00000000000E+00  0.00000000000E+00 -0.20107531688E+04  0.20107531688E+04  0.50400001928E-02 0. -1.
    10030    2    1    2    0    0  0.00000000000E+00  0.00000000000E+00 -0.85717798076E+03  0.31643283568E+04  0.30460170483E+04 0.  0.
        1    1    3    3  502    0  0.80322025638E+03 -0.29155079204E+03  0.88108889795E+03  0.12273884026E+04  0.50400001928E-02 0.  1.
       -1    1    3    3    0  502 -0.80322025638E+03  0.29155079204E+03 -0.17382668787E+04  0.19369399542E+04  0.50400001928E-02 0. -1.
</event>
<event>
 5   0  0.3852126E-06  0.3108837E+04  0.7818609E-02  0.8213317E-01
       -1   -1    0    0    0  501  0.00000000000E+00  0.00000000000E+00  0.11935426363E+04  0.11935426363E+04  0.50400001928E-02 0. -1.
        1   -1    0    0  501    0  0.00000000000E+00  0.00000000000E+00 -0.20244072303E+04  0.20244072303E+04  0.50400001928E-02 0.  1.
    10030    2    1    2    0    0  0.00000000000E+00  0.00000000000E+00 -0.83086459404E+03  0.32179498666E+04  0.31088366586E+04 0.  0.
        1    1    3    3  502    0 -0.40378726097E+03 -0.55344879786E+02  0.11372520000E+04  0.12080767026E+04  0.50400001928E-02 0. -1.
       -1    1    3    3    0  502  0.40378726097E+03  0.55344879786E+02 -0.19681165940E+04  0.20098731640E+04  0.50400001928E-02 0.  1.
</event>
<event>
 5   0  0.9647945E-06  0.2993233E+04  0.7818609E-02  0.8245666E-01
        2   -1    0    0  501    0  0.00000000000E+00  0.00000000000E+00  0.15682301399E+04  0.15682301399E+04  0.25500000920E-02 0. -1.
       -2   -1    0    0    0  501  0.00000000000E+00  0.00000000000E+00 -0.14282728468E+04  0.14282728468E+04  0.25500000920E-02 0.  1.
    10030    2    1    2    0    0  0.00000000000E+00  0.00000000000E+00  0.13995729313E+03  0.29965029867E+04  0.29932327182E+04 0.  0.
        2    1    3    3  502    0 -0.95435754719E+03 -0.98960650155E+03 -0.52205666510E+03  0.14705993735E+04  0.25500000920E-02 0.  1.
       -2    1    3    3    0  502  0.95435754719E+03  0.98960650155E+03  0.66201395822E+03  0.15259036132E+04  0.25500000920E-02 0. -1.
</event>
<event>
 5   0  0.1057036E-05  0.3008399E+04  0.7818609E-02  0.8241337E-01
        2   -1    0    0  501    0  0.00000000000E+00  0.00000000000E+00  0.13448492671E+04  0.13448492671E+04  0.25500000920E-02 0.  1.
       -2   -1    0    0    0  501  0.00000000000E+00  0.00000000000E+00 -0.16824309744E+04  0.16824309744E+04  0.25500000920E-02 0. -1.
    10030    2    1    2    0    0  0.00000000000E+00  0.00000000000E+00 -0.33758170726E+03  0.30272802415E+04  0.30083989515E+04 0.  0.
        4    1    3    3  502    0 -0.14155981403E+04 -0.49326748147E+03 -0.43981987251E+02  0.14997222847E+04  0.12699999809E+01 0. -1.
       -4    1    3    3    0  502  0.14155981403E+04  0.49326748147E+03 -0.29359972001E+03  0.15275579568E+04  0.12699999809E+01 0.  1.
</event>
<event>
 5   0  0.3896630E-06  0.3112639E+04  0.7818609E-02  0.8212278E-01
       -1   -1    0    0    0  501  0.00000000000E+00  0.00000000000E+00  0.87960186578E+03  0.87960186580E+03  0.50400001928E-02 0. -1.
        1   -1    0    0  501    0  0.00000000000E+00  0.00000000000E+00 -0.27536675714E+04  0.27536675714E+04  0.50400001928E-02 0.  1.
    10030    2    1    2    0    0  0.00000000000E+00  0.00000000000E+00 -0.18740657057E+04  0.36332694372E+04  0.31126394803E+04 0.  0.
        5    1    3    3  502    0 -0.37300195557E+03  0.68579914484E+03 -0.25085775375E+04  0.26272484232E+04  0.46999998093E+01 0.  1.
       -5    1    3    3    0  502  0.37300195557E+03 -0.68579914484E+03  0.63451183180E+03  0.10060210140E+04  0.46999998093E+01 0. -1.
</event>
<event>
 5   0  0.1029922E-05  0.2954642E+04  0.7818609E-02  0.8256803E-01
       -2   -1    0    0    0  501  0.00000000000E+00  0.00000000000E+00  0.15794087173E+04  0.15794087173E+04  0.25500000920E-02 0. -1.
        2   -1    0    0  501    0  0.00000000000E+00  0.00000000000E+00 -0.13818321945E+04  0.13818321945E+04  0.25500000920E-02 0.  1.
    10030    2    1    2    0    0  0.00000000000E+00  0.00000000000E+00  0.19757652282E+03  0.29612409117E+04  0.29546423227E+04 0.  0.
        1    1    3    3  502    0 -0.82072116968E+03 -0.10913438543E+04  0.66384092905E+03  0.15183212525E+04  0.50400001928E-02 0. -1.
       -1    1    3    3    0  502  0.82072116968E+03  0.10913438543E+04 -0.46626440623E+03  0.14429196593E+04  0.50400001928E-02 0.  1.
</event>
<event>
 5   0  0.3896630E-06  0.3015681E+04  0.7818609E-02  0.8239267E-01
        1   -1    0    0  501    0  0.00000000000E+00  0.00000000000E+00  0.17115955692E+04  0.17115955693E+04  0.50400001928E-02 0. -1.
       -1   -1    0    0    0  501  0.00000000000E+00  0.00000000000E+00 -0.13283413964E+04  0.13283413964E+04  0.50400001928E-02 0.  1.
    10030    2    1    2    0    0  0.00000000000E+00  0.00000000000E+00  0.38325417289E+03  0.30399369656E+04  0.30156811824E+04 0.  0.
        5    1    3    3  502    0 -0.10433231361E+03  0.14750867941E+04 -0.10535222622E+03  0.14825273904E+04  0.46999998093E+01 0. -1.
       -5    1    3    3    0  502  0.10433231361E+03 -0.14750867941E+04  0.48860639911E+03  0.15574095752E+04  0.46999998093E+01 0.  1.
</event>
<event>
 5   0  0.3636718E-06  0.2950917E+04  0.7818609E-02  0.8257887E-01
       -1   -1    0    0    0  501  0.00000000000E+00  0.00000000000E+00  0.16731860467E+04  0.16731860467E+04  0.50400001928E-02 0.  1.
        1   -1    0    0  501    0  0.00000000000E+00  0.00000000000E+00 -0.13010973031E+04  0.13010973031E+04  0.50400001928E-02 0. -1.
    10030    2    1    2    0    0  0.00000000000E+00  0.00000000000E+00  0.37208874357E+03  0.29742833498E+04  0.29509170459E+04 0.  0.
        4    1    3    3  502    0 -0.14054417995E+04  0.20798904893E+03  0.58725428735E+03  0.15373338307E+04  0.12699999809E+01 0.  1.
       -4    1    3    3    0  502  0.14054417995E+04 -0.20798904893E+03 -0.21516554378E+03  0.14369495191E+04  0.12699999809E+01 0. -1.
</event>
<event>
 5   0  0.3852126E-06  0.3171373E+04  0.7818609E-02  0.8196419E-01
       -1   -1    0    0    0  501  0.00000000000E+00  0.00000000000E+00  0.11317151940E+04  0.11317151941E+04  0.50400001928E-02 0.  1.
        1   -1    0    0  501    0  0.00000000000E+00  0.00000000000E+00 -0.22217621462E+04  0.22217621462E+04  0.50400001928E-02 0. -1.
    10030    2    1    2    0    0  0.00000000000E+00  0.00000000000E+00 -0.10900469522E+04  0.33534773403E+04  0.31713731906E+04 0.  0.
        1    1    3    3  502    0  0.12698642632E+04 -0.73907039769E+03 -0.11756063034E+04  0.18817094570E+04  0.50400001928E-02 0. -1.
       -1    1    3    3    0  502 -0.12698642632E+04  0.73907039769E+03  0.85559351269E+02  0.14717678833E+04  0.50400001928E-02 0.  1.
</event>
<event>
 5   0  0.3852126E-06  0.2908113E+04  0.7818609E-02  0.8270468E-01
       -1   -1    0    0    0  501  0.00000000000E+00  0.00000000000E+00  0.13978011492E+04  0.13978011492E+04  0.50400001928E-02 0.  1.
        1   -1    0    0  501    0  0.00000000000E+00  0.00000000000E+00 -0.15125761958E+04  0.15125761958E+04  0.50400001928E-02 0. -1.
    10030    2    1    2    0    0  0.00000000000E+00  0.00000000000E+00 -0.11477504658E+03  0.29103773450E+04  0.29081133023E+04 0.  0.
        1    1    3    3  502    0  0.24224979096E+03  0.56463835307E+03 -0.13762827516E+04  0.15072012617E+04  0.50400001928E-02 0. -1.
       -1    1    3    3    0  502 -0.24224979096E+03 -0.56463835307E+03  0.12615077050E+04  0.14031760833E+04  0.50400001928E-02 0.  1.
</event>
<event>
 5   0  0.3852126E-06  0.2947238E+04  0.7818609E-02  0.8258960E-01
       -1   -1    0    0    0  501  0.00000000000E+00  0.00000000000E+00  0.12032499684E+04  0.12032499684E+04  0.50400001928E-02 0.  1.
        1   -1    0    0  501    0  0.00000000000E+00  0.00000000000E+00 -0.18047393591E+04  0.18047393591E+04  0.50400001928E-02 0. -1.
    10030    2    1    2    0    0  0.00000000000E+00  0.00000000000E+00 -0.60148939070E+03  0.30079893275E+04  0.29472377419E+04 0.  0.
        1    1    3    3  502    0 -0.14297933879E+04  0.95237329827E+02 -0.65159414102E+03  0.15741519005E+04  0.50400001928E-02 0.  1.
       -1    1    3    3    0  502  0.14297933879E+04 -0.95237329827E+02  0.50104750319E+02  0.14338374271E+04  0.50400001928E-02 0. -1.
</event>
<event>
 5   0  0.3725232E-06  0.2765487E+04  0.7818609E-02  0.8314064E-01
       -1   -1    0    0    0  501  0.00000000000E+00  0.00000000000E+00  0.18397232943E+04  0.18397232943E+04  0.50400001928E-02 0.  1.
        1   -1    0    0  501    0  0.00000000000E+00  0.00000000000E+00 -0.10392757451E+04  0.10392757451E+04  0.50400001928E-02 0. -1.
    10030    2    1    2    0    0  0.00000000000E+00  0.00000000000E+00  0.80044754918E+03  0.28789990394E+04  0.27654871524E+04 0.  0.
        2    1    3    3  502    0  0.10279356017E+04  0.57894148460E+03 -0.35059693688E+03  0.12307489817E+04  0.25500000920E-02 0. -1.
       -2    1    3    3    0  502 -0.10279356017E+04 -0.57894148460E+03  0.11510444861E+04  0.16482500577E+04  0.25500000920E-02 0.  1.
</event>
<event>
 5   0  0.3896630E-06  0.3010726E+04  0.7818609E-02  0.8240675E-01
        1   -1    0    0  501    0  0.00000000000E+00  0.00000000000E+00  0.26700527884E+04  0.26700527884E+04  0.50400001928E-02 0. -1.
       -1   -1    0    0    0  501  0.00000000000E+00  0.00000000000E+00 -0.84871659768E+03  0.84871659770E+03  0.50400001928E-02 0.  1.
    10030    2    1    2    0    0  0.00000000000E+00  0.00000000000E+00  0.18213361907E+04  0.35187693861E+04  0.30107262368E+04 0.  0.
        5    1    3    3  502    0  0.89173894384E+03 -0.50419427964E+02 -0.50556635491E+03  0.10263332265E+04  0.46999998093E+01 0.  1.
       -5    1    3    3    0  502 -0.89173894384E+03  0.50419427964E+02  0.23269025456E+04  0.24924361596E+04  0.46999998093E+01 0. -1.
</event>
<event>
 5   0  0.1028450E-05  0.3005762E+04  0.7818609E-02  0.8242087E-01
        2   -1    0    0  501    0  0.00000000000E+00  0.00000000000E+00  0.18340971530E+04  0.18340971530E+04  0.25500000920E-02 0.  1.
       -2   -1    0    0    0  501  0.00000000000E+00  0.00000000000E+00 -0.12314785944E+04  0.12314785944E+04  0.25500000920E-02 0. -1.
    10030    2    1    2    0    0  0.00000000000E+00  0.00000000000E+00  0.60261855869E+03  0.30655757474E+04  0.30057620558E+04 0.  0.
        3    1    3    3  502    0  0.15452920770E+03 -0.13026650881E+04 -0.44665747302E+03  0.13857555759E+04  0.10100000352E+00 0. -1.
       -3    1    3    3    0  502 -0.15452920770E+03  0.13026650881E+04  0.10492760317E+04  0.16798201715E+04  0.10100000352E+00 0.  1.
</event>
<event>
 5   0  0.3592331E-06  0.2943212E+04  0.7818609E-02  0.8260136E-01
        1   -1    0    0  501    0  0.00000000000E+00  0.00000000000E+00  0.14520791199E+04  0.14520791199E+04  0.50400001928E-02 0. -1.
       -1   -1    0    0    0  501  0.00000000000E+00  0.00000000000E+00 -0.14913953758E+04  0.14913953758E+04  0.50400001928E-02 0.  1.
    10030    2    1    2    0    0  0.00000000000E+00  0.00000000000E+00 -0.39316255906E+02  0.29434744957E+04  0.29432119086E+04 0.  0.
        3    1    3    3  502    0  0.10063108123E+03 -0.14490216875E+04  0.21665431820E+03  0.14685808011E+04  0.10100000352E+00 0. -1.
       -3    1    3    3    0  502 -0.10063108123E+03  0.14490216875E+04 -0.25597057411E+03  0.14748936946E+04  0.10100000352E+00 0.  1.
</event>
<event>
 5   0  0.3725232E-06  0.2987527E+04  0.7818609E-02  0.8247302E-01
       -1   -1    0    0    0  501  0.00000000000E+00  0.00000000000E+00  0.12798062726E+04  0.12798062727E+04  0.50400001928E-02 0. -1.
        1   -1    0    0  501    0  0.00000000000E+00  0.00000000000E+00 -0.17434899324E+04  0.17434899324E+04  0.50400001928E-02 0.  1.
    10030    2    1    2    0    0  0.00000000000E+00  0.00000000000E+00 -0.46368365971E+03  0.30232962050E+04  0.29875269718E+04 0.  0.
        2    1    3    3  502    0  0.95636071347E+03 -0.52337074273E+03  0.80155371671E+03  0.13531559812E+04  0.25500000920E-02 0. -1.
       -2    1    3    3    0  502 -0.95636071347E+03  0.52337074273E+03 -0.12652373764E+04  0.16701402238E+04  0.25500000920E-02 0.  1.
</event>
<event>
 5   0  0.1089569E-05  0.3014480E+04  0.7818609E-02  0.8239608E-01
        2   -1    0    0  501    0  0.00000000000E+00  0.00000000000E+00  0.18268594550E+04  0.18268594550E+04  0.25500000920E-02 0. -1.
       -2   -1    0    0    0  501  0.00000000000E+00  0.00000000000E+00 -0.12435394434E+04  0.12435394434E+04  0.25500000920E-02 0.  1.
    10030    2    1    2    0    0  0.00000000000E+00  0.00000000000E+00  0.58332001161E+03  0.30703988985E+04  0.30144795836E+04 0.  0.
        5    1    3    3  502    0  0.98654672787E+03 -0.53598036397E+03 -0.73257838537E+03  0.13406127620E+04  0.46999998093E+01 0.  1.
       -5    1    3    3    0  502 -0.98654672787E+03  0.53598036397E+03  0.13158983970E+04  0.17297861365E+04  0.46999998093E+01 0. -1.
</event>
<event>
 5   0  0.1028450E-05  0.2965350E+04  0.7818609E-02  0.8253695E-01
       -2   -1    0    0    0  501  0.00000000000E+00  0.00000000000E+00  0.13137698539E+04  0.13137698539E+04  0.25500000920E-02 0.  1.
        2   -1    0    0  501    0  0.00000000000E+00  0.00000000000E+00 -0.16732957479E+04  0.16732957479E+04  0.25500000920E-02 0. -1.
    10030    2    1    2    0    0  0.00000000000E+00  0.00000000000E+00 -0.35952589405E+03  0.29870656018E+04  0.29653502392E+04 0.  0.
        3    1    3    3  502    0 -0.10563041589E+04 -0.40105138414E+03 -0.11468480476E+04  0.16099320307E+04  0.10100000352E+00 0. -1.
       -3    1    3    3    0  502  0.10563041589E+04  0.40105138414E+03  0.78732215357E+03  0.13771335711E+04  0.10100000352E+00 0.  1.
</event>
<event>
 5   0  0.3852126E-06  0.2935697E+04  0.7818609E-02  0.8262335E-01
        1   -1    0    0  501    0  0.00000000000E+00  0.00000000000E+00  0.13857272695E+04  0.13857272695E+04  0.50400001928E-02 0. -1.
       -1   -1    0    0    0  501  0.00000000000E+00  0.00000000000E+00 -0.15548360281E+04  0.15548360281E+04  0.50400001928E-02 0.  1.
    10030    2    1    2    0    0  0.00000000000E+00  0.00000000000E+00 -0.16910875862E+03  0.29405632977E+04  0.29356966354E+04 0.  0.
        1    1    3    3  502    0 -0.71945837158E+03 -0.38771367919E+03 -0.13058526550E+04  0.15405172515E+04  0.50400001928E-02 0.  1.
       -1    1    3    3    0  502  0.71945837158E+03  0.38771367919E+03  0.11367438964E+04  0.14000460462E+04  0.50400001928E-02 0. -1.
</event>
<event>
 5   0  0.1057036E-05  0.3019179E+04  0.7818609E-02  0.8238275E-01
       -2   -1    0    0    0  501  0.00000000000E+00  0.00000000000E+00  0.15166092064E+04  0.15166092065E+04  0.25500000920E-02 0. -1.
        2   -1    0    0  501    0  0.00000000000E+00  0.00000000000E+00 -0.15026024324E+04  0.15026024324E+04  0.25500000920E-02 0.  1.
    10030    2    1    2    0    0  0.00000000000E+00  0.00000000000E+00  0.14006774054E+02  0.30192116388E+04  0.30191791484E+04 0.  0.
        4    1    3    3  502    0  0.81956221130E+03  0.12267645631E+04 -0.31272737230E+03  0.15081225195E+04  0.12699999809E+01 0.  1.
       -4    1    3    3    0  502 -0.81956221130E+03 -0.12267645631E+04  0.32673414635E+03  0.15110891194E+04  0.12699999809E+01 0. -1.
</event>
<event>
 5   0  0.1029922E-05  0.2967943E+04  0.7818609E-02  0.8252945E-01
        2   -1    0    0  501    0  0.00000000000E+00  0.00000000000E+00  0.15785551741E+04  0.15785551741E+04  0.25500000920E-02 0. -1.
       -2   -1    0    0    0  501  0.00000000000E+00  0.00000000000E+00 -0.13950551495E+04  0.13950551495E+04  0.25500000920E-02 0.  1.
    10030    2    1    2    0    0  0.00000000000E+00  0.00000000000E+00  0.18350002459E+03  0.29736103235E+04  0.29679430751E+04 0.  0.
        1    1    3    3  502    0 -0.13794373022E+04 -0.18172225737E+03 -0.42527923560E+03  0.14548995422E+04  0.50400001928E-02 0.  1.
       -1    1    3    3    0  502  0.13794373022E+04  0.18172225737E+03  0.60877926020E+03  0.15187107813E+04  0.50400001928E-02 0. -1.
</event>
<event>
 5   0  0.1028450E-05  0.3038918E+04  0.7818609E-02  0.8232704E-01
       -2   -1    0    0    0  501  0.00000000000E+00  0.00000000000E+00  0.25226079312E+04  0.25226079312E+04  0.25500000920E-02 0.  1.
        2   -1    0    0  501    0  0.00000000000E+00  0.00000000000E+00 -0.91522570386E+03  0.91522570386E+03  0.25500000920E-02 0. -1.
    10030    2    1    2    0    0  0.00000000000E+00  0.00000000000E+00  0.16073822273E+04  0.34378336350E+04  0.30389179781E+04 0.  0.
        3    1    3    3  502    0  0.78576869884E+03 -0.10349707617E+04  0.16945671817E+04  0.21354519122E+04  0.10100000352E+00 0.  1.
       -3    1    3    3    0  502 -0.78576869884E+03  0.10349707617E+04 -0.87184954428E+02  0.13023817229E+04  0.10100000352E+00 0. -1.
</event>
<event>
 5   0  0.3896630E-06  0.3028346E+04  0.7818609E-02  0.8235683E-01
        1   -1    0    0  501    0  0.00000000000E+00  0.00000000000E+00  0.25719733615E+04  0.25719733616E+04  0.50400001928E-02 0.  1.
       -1   -1    0    0    0  501  0.00000000000E+00  0.00000000000E+00 -0.89142439634E+03  0.89142439635E+03  0.50400001928E-02 0. -1.
    10030    2    1    2    0    0  0.00000000000E+00  0.00000000000E+00  0.16805489652E+04  0.34633977579E+04  0.30283459520E+04 0.  0.
        5    1    3    3  502    0  0.17928420080E+03 -0.97659478840E+02  0.25561521499E+04  0.25642964146E+04  0.46999998093E+01 0.  1.
       -5    1    3    3    0  502 -0.17928420080E+03  0.97659478840E+02 -0.87560318470E+03  0.89910134330E+03  0.46999998093E+01 0. -1.
</event>
<event>
 5   0  0.3725232E-06  0.3106333E+04  0.7818609E-02  0.8214002E-01
        1   -1    0    0  501    0  0.00000000000E+00  0.00000000000E+00  0.64173710365E+03  0.64173710367E+03  0.50400001928E-02 0. -1.
       -1   -1    0    0    0  501  0.00000000000E+00  0.00000000000E+00 -0.37590558996E+04  0.37590558996E+04  0.50400001928E-02 0.  1.
    10030    2    1    2    0    0  0.00000000000E+00  0.00000000000E+00 -0.31173187960E+04  0.44007930033E+04  0.31063326580E+04 0.  0.
        2    1    3    3  502    0  0.10436924319E+04  0.37518202465E+03 -0.18231587470E+02  0.11092284863E+04  0.25500000920E-02 0. -1.
       -2    1    3    3    0  502 -0.10436924319E+04 -0.37518202465E+03 -0.30990872085E+04  0.32915645170E+04  0.25500000920E-02 0.  1.
</event>
<event>
 5   0  0.3592331E-06  0.2953765E+04  0.7818609E-02  0.8257058E-01
        1   -1    0    0  501    0  0.00000000000E+00  0.00000000000E+00  0.29300905404E+04  0.29300905404E+04  0.50400001928E-02 0. -1.
       -1   -1    0    0    0  501  0.00000000000E+00  0.00000000000E+00 -0.74440783705E+03  0.74440783706E+03  0.50400001928E-02 0.  1.
    10030    2    1    2    0    0  0.00000000000E+00  0.00000000000E+00  0.21856827033E+04  0.36744983774E+04  0.29537652998E+04 0.  0.
        3    1    3    3  502    0 -0.51523788807E+03  0.74098236213E+03  0.25471343252E+04  0.27022986925E+04  0.10100000352E+00 0. -1.
       -3    1    3    3    0  502  0.51523788807E+03 -0.74098236213E+03 -0.36145162191E+03  0.97219968498E+03  0.10100000352E+00 0.  1.
</event>
<event>
 5   0  0.9647945E-06  0.2980751E+04  0.7818609E-02  0.8249249E-01
       -2   -1    0    0    0  501  0.00000000000E+00  0.00000000000E+00  0.16594201465E+04  0.16594201465E+04  0.25500000920E-02 0. -1.
        2   -1    0    0  501    0  0.00000000000E+00  0.00000000000E+00 -0.13385513382E+04  0.13385513382E+04  0.25500000920E-02 0.  1.
    10030    2    1    2    0    0  0.00000000000E+00  0.00000000000E+00  0.32086880835E+03  0.29979714847E+04  0.29807509508E+04 0.  0.
        2    1    3    3  502    0 -0.30257482002E+03  0.13214981337E+04 -0.46226292808E+03  0.14323392942E+04  0.25500000920E-02 0.  1.
       -2    1    3    3    0  502  0.30257482002E+03 -0.13214981337E+04  0.78313173643E+03  0.15656321905E+04  0.25500000920E-02 0. -1.
</event>
<event>
 5   0  0.1057036E-05  0.2388054E+04  0.7818609E-02  0.8443989E-01
        2   -1    0    0  501    0  0.00000000000E+00  0.00000000000E+00  0.16513960749E+04  0.16513960749E+04  0.25500000920E-02 0.  1.
       -2   -1    0    0    0  501  0.00000000000E+00  0.00000000000E+00 -0.86333051407E+03  0.86333051408E+03  0.25500000920E-02 0. -1.
    10030    2    1    2    0    0  0.00000000000E+00  0.00000000000E+00  0.78806556079E+03  0.25147265889E+04  0.23880541219E+04 0.  0.
        4    1    3    3  502    0 -0.49931995608E+03 -0.40390874894E+03  0.14540233012E+04  0.15895433525E+04  0.12699999809E+01 0.  1.
       -4    1    3    3    0  502  0.49931995608E+03  0.40390874894E+03 -0.66595774046E+03  0.92518323644E+03  0.12699999809E+01 0. -1.
</event>
<event>
 5   0  0.3725232E-06  0.1958556E+04  0.7818609E-02  0.8626246E-01
       -1   -1    0    0    0  501  0.00000000000E+00  0.00000000000E+00  0.84611000525E+03  0.84611000526E+03  0.50400001928E-02 0.  1.
        1   -1    0    0  501    0  0.00000000000E+00  0.00000000000E+00 -0.11334053485E+04  0.11334053485E+04  0.50400001928E-02 0. -1.
    10030    2    1    2    0    0  0.00000000000E+00  0.00000000000E+00 -0.28729534326E+03  0.19795153538E+04  0.19585562084E+04 0.  0.
        2    1    3    3  502    0 -0.13506337691E+03 -0.26053406253E+03 -0.10879183344E+04  0.11268036279E+04  0.25500000920E-02 0. -1.
       -2    1    3    3    0  502  0.13506337691E+03  0.26053406253E+03  0.80062299114E+03  0.85271172589E+03  0.25500000920E-02 0.  1.
</event>
<event>
 5   0  0.3896630E-06  0.3017895E+04  0.7818609E-02  0.8238639E-01
       -1   -1    0    0    0  501  0.00000000000E+00  0.00000000000E+00  0.18070074917E+04  0.18070074917E+04  0.50400001928E-02 0. -1.
        1   -1    0    0  501    0  0.00000000000E+00  0.00000000000E+00 -0.12600512123E+04  0.12600512123E+04  0.50400001928E-02 0.  1.
    10030    2    1    2    0    0  0.00000000000E+00  0.00000000000E+00  0.54695627935E+03  0.30670587040E+04  0.30178946175E+04 0.  0.
        5    1    3    3  502    0  0.54256525923E+03 -0.11057118304E+04  0.11594157711E+04  0.16915208342E+04  0.46999998093E+01 0. -1.
       -5    1    3    3    0  502 -0.54256525923E+03  0.11057118304E+04 -0.61245949174E+03  0.13755378698E+04  0.46999998093E+01 0.  1.
</event>
<event>
 5   0  0.3725232E-06  0.2975361E+04  0.7818609E-02  0.8250802E-01
        1   -1    0    0  501    0  0.00000000000E+00  0.00000000000E+00  0.17710823569E+04  0.17710823569E+04  0.50400001928E-02 0.  1.
       -1   -1    0    0    0  501  0.00000000000E+00  0.00000000000E+00 -0.12496275397E+04  0.12496275397E+04  0.50400001928E-02 0. -1.
    10030    2    1    2    0    0  0.00000000000E+00  0.00000000000E+00  0.52145481725E+03  0.30207098966E+04  0.29753610122E+04 0.  0.
        2    1    3    3  502    0  0.46688840979E+03  0.52547804207E+03 -0.10703936747E+04  0.12805680687E+04  0.25500000920E-02 0. -1.
       -2    1    3    3    0  502 -0.46688840979E+03 -0.52547804207E+03  0.15918484919E+04  0.17401418279E+04  0.25500000920E-02 0.  1.
</event>
<event>
 5   0  0.9647945E-06  0.2943280E+04  0.7818609E-02  0.8260116E-01
        2   -1    0    0  501    0  0.00000000000E+00  0.00000000000E+00  0.20046421443E+04  0.20046421443E+04  0.25500000920E-02 0. -1.
       -2   -1    0    0    0  501  0.00000000000E+00  0.00000000000E+00 -0.10803547608E+04  0.10803547608E+04  0.25500000920E-02 0.  1.
    10030    2    1    2    0    0  0.00000000000E+00  0.00000000000E+00  0.92428738347E+03  0.30849969051E+04  0.29432802682E+04 0.  0.
        2    1    3    3  502    0  0.17509856467E+03 -0.73223959678E+03  0.17874994046E+04  0.19395846091E+04  0.25500000920E-02 0. -1.
       -2    1    3    3    0  502 -0.17509856467E+03  0.73223959678E+03 -0.86321202113E+03  0.11454122960E+04  0.25500000920E-02 0.  1.
</event>
<event>
 5   0  0.1028450E-05  0.3045818E+04  0.7818609E-02  0.8230767E-01
       -2   -1    0    0    0  501  0.00000000000E+00  0.00000000000E+00  0.13143256956E+04  0.13143256956E+04  0.25500000920E-02 0.  1.
        2   -1    0    0  501    0  0.00000000000E+00  0.00000000000E+00 -0.17645945494E+04  0.17645945494E+04  0.25500000920E-02 0. -1.
    10030    2    1    2    0    0  0.00000000000E+00  0.00000000000E+00 -0.45026885376E+03  0.30789202450E+04  0.30458180896E+04 0.  0.
        3    1    3    3  502    0 -0.16656680380E+03 -0.13977090069E+04  0.36248951943E+03  0.14535245543E+04  0.10100000352E+00 0.  1.
       -3    1    3    3    0  502  0.16656680380E+03  0.13977090069E+04 -0.81275837319E+03  0.16253956907E+04  0.10100000352E+00 0. -1.
</event>
<event>
 5   0  0.9647945E-06  0.2890916E+04  0.7818609E-02  0.8275585E-01
        2   -1    0    0  501    0  0.00000000000E+00  0.00000000000E+00  0.21403496797E+04  0.21403496797E+04  0.25500000920E-02 0. -1.
       -2   -1    0    0    0  501  0.00000000000E+00  0.00000000000E+00 -0.97617164027E+03  0.97617164027E+03  0.25500000920E-02 0.  1.
    10030    2    1    2    0    0  0.00000000000E+00  0.00000000000E+00  0.11641780394E+04  0.31165213200E+04  0.28909158809E+04 0.  0.
        2    1    3    3  502    0 -0.10774975417E+03  0.20807486982E+03  0.21197389172E+04  0.21326505195E+04  0.25500000920E-02 0. -1.
       -2    1    3    3    0  502  0.10774975417E+03 -0.20807486982E+03 -0.95556087778E+03  0.98387080052E+03  0.25500000920E-02 0.  1.
</event>
<event>
 5   0  0.3592331E-06  0.2834124E+04  0.7818609E-02  0.8292752E-01
       -1   -1    0    0    0  501  0.00000000000E+00  0.00000000000E+00  0.97879568306E+03  0.97879568307E+03  0.50400001928E-02 0.  1.
        1   -1    0    0  501    0  0.00000000000E+00  0.00000000000E+00 -0.20515674582E+04  0.20515674582E+04  0.50400001928E-02 0. -1.
    10030    2    1    2    0    0  0.00000000000E+00  0.00000000000E+00 -0.10727717751E+04  0.30303631413E+04  0.28341244656E+04 0.  0.
        3    1    3    3  502    0  0.26826429858E+01  0.82710232259E+03  0.69392020209E+03  0.10796437865E+04  0.10100000352E+00 0.  1.
       -3    1    3    3    0  502 -0.26826429858E+01 -0.82710232259E+03 -0.17666919772E+04  0.19507193548E+04  0.10100000352E+00 0. -1.
</event>
<event>
 5   0  0.3896630E-06  0.3054539E+04  0.7818609E-02  0.8228326E-01
       -1   -1    0    0    0  501  0.00000000000E+00  0.00000000000E+00  0.12528801108E+04  0.12528801109E+04  0.50400001928E-02 0. -1.
        1   -1    0    0  501    0  0.00000000000E+00  0.00000000000E+00 -0.18617525111E+04  0.18617525111E+04  0.50400001928E-02 0.  1.
    10030    2    1    2    0    0  0.00000000000E+00  0.00000000000E+00 -0.60887240026E+03  0.31146326220E+04  0.30545393712E+04 0.  0.
        5    1    3    3  502    0 -0.10537910002E+04 -0.10234806745E+04 -0.73043818375E+03  0.16405944634E+04  0.46999998093E+01 0.  1.
       -5    1    3    3    0  502  0.10537910002E+04  0.10234806745E+04  0.12156578349E+03  0.14740381585E+04  0.46999998093E+01 0. -1.
</event>
<event>
 5   0  0.1089569E-05  0.3050293E+04  0.7818609E-02  0.8229514E-01
        2   -1    0    0  501    0  0.00000000000E+00  0.00000000000E+00  0.33092283453E+04  0.33092283453E+04  0.25500000920E-02 0.  1.
       -2   -1    0    0    0  501  0.00000000000E+00  0.00000000000E+00 -0.70290438339E+03  0.70290438340E+03  0.25500000920E-02 0. -1.
    10030    2    1    2    0    0  0.00000000000E+00  0.00000000000E+00  0.26063239619E+04  0.40121327287E+04  0.30502925169E+04 0.  0.
        5    1    3    3  502    0 -0.15049118871E+04  0.13869697135E+03  0.15728918872E+04  0.21812857715E+04  0.46999998093E+01 0. -1.
       -5    1    3    3    0  502  0.15049118871E+04 -0.13869697135E+03  0.10334320747E+04  0.18308469573E+04  0.46999998093E+01 0.  1.
</event>
<event>
 5   0  0.3896630E-06  0.2778019E+04  0.7818609E-02  0.8310125E-01
        1   -1    0    0  501    0  0.00000000000E+00  0.00000000000E+00  0.74285634558E+03  0.74285634560E+03  0.50400001928E-02 0.  1.
       -1   -1    0    0    0  501  0.00000000000E+00  0.00000000000E+00 -0.25972020502E+04  0.25972020502E+04  0.50400001928E-02 0. -1.
    10030    2    1    2    0    0  0.00000000000E+00  0.00000000000E+00 -0.18543457047E+04  0.33400583958E+04  0.27780194555E+04 0.  0.
        5    1    3    3  502    0 -0.12973167614E+04  0.37862099283E+03 -0.54141604614E+03  0.14558633386E+04  0.46999998093E+01 0.  1.
       -5    1    3    3    0  502  0.12973167614E+04 -0.37862099283E+03 -0.13129296585E+04  0.18841950573E+04  0.46999998093E+01 0. -1.
</event>
<event>
 5   0  0.3725232E-06  0.2983108E+04  0.7818609E-02  0.8248571E-01
        1   -1    0    0  501    0  0.00000000000E+00  0.00000000000E+00  0.18597575040E+04  0.18597575040E+04  0.50400001928E-02 0. -1.
       -1   -1    0    0    0  501  0.00000000000E+00  0.00000000000E+00 -0.11962489442E+04  0.11962489442E+04  0.50400001928E-02 0.  1.
    10030    2    1    2    0    0  0.00000000000E+00  0.00000000000E+00  0.66350855984E+03  0.30560064482E+04  0.29831077424E+04 0.  0.
        2    1    3    3  502    0  0.59656472646E+03 -0.57373828896E+03 -0.93940170965E+03  0.12520146442E+04  0.25500000920E-02 0.  1.
       -2    1    3    3    0  502 -0.59656472646E+03  0.57373828896E+03  0.16029102695E+04  0.18039918041E+04  0.25500000920E-02 0. -1.
</event>
<event>
 5   0  0.1089569E-05  0.2970104E+04  0.7818609E-02  0.8252320E-01
       -2   -1    0    0    0  501  0.00000000000E+00  0.00000000000E+00  0.15318489805E+04  0.15318489805E+04  0.25500000920E-02 0. -1.
        2   -1    0    0  501    0  0.00000000000E+00  0.00000000000E+00 -0.14396849012E+04  0.14396849012E+04  0.25500000920E-02 0.  1.
    10030    2    1    2    0    0  0.00000000000E+00  0.00000000000E+00  0.92164079243E+02  0.29715338817E+04  0.29701042730E+04 0.  0.
        5    1    3    3  502    0 -0.49812138824E+03 -0.79765828966E+03  0.11959716239E+04  0.15214315232E+04  0.46999998093E+01 0. -1.
       -5    1    3    3    0  502  0.49812138824E+03  0.79765828966E+03 -0.11038075447E+04  0.14501023585E+04  0.46999998093E+01 0.  1.
</event>
<event>
 5   0  0.3852126E-06  0.2931097E+04  0.7818609E-02  0.8263685E-01
       -1   -1    0    0    0  501  0.00000000000E+00  0.00000000000E+00  0.14182563089E+04  0.14182563089E+04  0.50400001928E-02 0. -1.
        1   -1    0    0  501    0  0.00000000000E+00  0.00000000000E+00 -0.15144177858E+04  0.15144177858E+04  0.50400001928E-02 0.  1.
    10030    2    1    2    0    0  0.00000000000E+00  0.00000000000E+00 -0.96161476935E+02  0.29326740947E+04  0.29310971181E+04 0.  0.
        1    1    3    3  502    0  0.92479949224E+03 -0.95380101179E+03 -0.66715599158E+03  0.14866363335E+04  0.50400001928E-02 0. -1.
       -1    1    3    3    0  502 -0.92479949224E+03  0.95380101179E+03  0.57099451465E+03  0.14460377612E+04  0.50400001928E-02 0.  1.
</event>
<event>
 5   0  0.1028450E-05  0.2615254E+04  0.7818609E-02  0.8363038E-01
       -2   -1    0    0    0  501  0.00000000000E+00  0.00000000000E+00  0.12494352554E+04  0.12494352554E+04  0.25500000920E-02 0.  1.
        2   -1    0    0  501    0  0.00000000000E+00  0.00000000000E+00 -0.13685286501E+04  0.13685286501E+04  0.25500000920E-02 0. -1.
    10030    2    1    2    0    0  0.00000000000E+00  0.00000000000E+00 -0.11909339474E+03  0.26179639055E+04  0.26152536730E+04 0.  0.
        3    1    3    3  502    0 -0.22305647314E+03 -0.43615345657E+03  0.11541056654E+04  0.12537718792E+04  0.10100000352E+00 0.  1.
       -3    1    3    3    0  502  0.22305647314E+03  0.43615345657E+03 -0.12731990601E+04  0.13641920264E+04  0.10100000352E+00 0. -1.
</event>
<event>
 5   0  0.1029922E-05  0.3029923E+04  0.7818609E-02  0.8235237E-01
       -2   -1    0    0    0  501  0.00000000000E+00  0.00000000000E+00  0.94513310866E+03  0.94513310867E+03  0.25500000920E-02 0. -1.
        2   -1    0    0  501    0  0.00000000000E+00  0.00000000000E+00 -0.24283445445E+04  0.24283445445E+04  0.25500000920E-02 0.  1.
    10030    2    1    2    0    0  0.00000000000E+00  0.00000000000E+00 -0.14832114358E+04  0.33734776531E+04  0.30299233180E+04 0.  0.
        1    1    3    3  502    0  0.10688668902E+04  0.76951199562E+02 -0.19338717550E+04  0.22109404970E+04  0.50400001928E-02 0.  1.
       -1    1    3    3    0  502 -0.10688668902E+04 -0.76951199562E+02  0.45066031925E+03  0.11625371562E+04  0.50400001928E-02 0. -1.
</event>
<event>
 5   0  0.1028450E-05  0.3145719E+04  0.7818609E-02  0.8203301E-01
       -2   -1    0    0    0  501  0.00000000000E+00  0.00000000000E+00  0.20345618047E+04  0.20345618047E+04  0.25500000920E-02 0.  1.
        2   -1    0    0  501    0  0.00000000000E+00  0.00000000000E+00 -0.12159314765E+04  0.12159314765E+04  0.25500000920E-02 0. -1.
    10030    2    1    2    0    0  0.00000000000E+00  0.00000000000E+00  0.81863032821E+03  0.32504932813E+04  0.31457194658E+04 0.  0.
        3    1    3    3  502    0  0.91847745918E+03 -0.76407982861E+03  0.14663576572E+04  0.18914607098E+04  0.10100000352E+00 0.  1.
       -3    1    3    3    0  502 -0.91847745918E+03  0.76407982861E+03 -0.64772732900E+03  0.13590325715E+04  0.10100000352E+00 0. -1.
</event>
<event>
 5   0  0.3725232E-06  0.2997802E+04  0.7818609E-02  0.8244359E-01
        1   -1    0    0  501    0  0.00000000000E+00  0.00000000000E+00  0.23681515006E+04  0.23681515006E+04  0.50400001928E-02 0.  1.
       -1   -1    0    0    0  501  0.00000000000E+00  0.00000000000E+00 -0.94871658165E+03  0.94871658166E+03  0.50400001928E-02 0. -1.
    10030    2    1    2    0    0  0.00000000000E+00  0.00000000000E+00  0.14194349190E+04  0.33168680823E+04  0.29978022594E+04 0.  0.
        2    1    3    3  502    0 -0.90297831879E+03 -0.44849703908E+03 -0.51746872721E+03  0.11332666597E+04  0.25500000920E-02 0. -1.
       -2    1    3    3    0  502  0.90297831879E+03  0.44849703908E+03  0.19369036462E+04  0.21836014226E+04  0.25500000920E-02 0.  1.
</event>
<event>
 5   0  0.1057036E-05  0.3007817E+04  0.7818609E-02  0.8241502E-01
        2   -1    0    0  501    0  0.00000000000E+00  0.00000000000E+00  0.23811635679E+04  0.23811635679E+04  0.25500000920E-02 0. -1.
       -2   -1    0    0    0  501  0.00000000000E+00  0.00000000000E+00 -0.94984671304E+03  0.94984671304E+03  0.25500000920E-02 0.  1.
    10030    2    1    2    0    0  0.00000000000E+00  0.00000000000E+00  0.14313168549E+04  0.33310102810E+04  0.30078167419E+04 0.  0.
        4    1    3    3  502    0  0.25002769514E+03 -0.10741771249E+04 -0.41663579465E+03  0.11789645212E+04  0.12699999809E+01 0.  1.
       -4    1    3    3    0  502 -0.25002769514E+03  0.10741771249E+04  0.18479526495E+04  0.21520457597E+04  0.12699999809E+01 0. -1.
</event>
<event>
 5   0  0.3896630E-06  0.2903423E+04  0.7818609E-02  0.8271860E-01
        1   -1    0    0  501    0  0.00000000000E+00  0.00000000000E+00  0.13619994012E+04  0.13619994012E+04  0.50400001928E-02 0.  1.
       -1   -1    0    0    0  501  0.00000000000E+00  0.00000000000E+00 -0.15473327850E+04  0.15473327850E+04  0.50400001928E-02 0. -1.
    10030    2    1    2    0    0  0.00000000000E+00  0.00000000000E+00 -0.18533338376E+03  0.29093321862E+04  0.29034230327E+04 0.  0.
        5    1    3    3  502    0 -0.30605017534E+03  0.36240039514E+03 -0.14674807573E+04  0.15422459659E+04  0.46999998093E+01 0. -1.
       -5    1    3    3    0  502  0.30605017534E+03 -0.36240039514E+03  0.12821473736E+04  0.13670862203E+04  0.46999998093E+01 0.  1.
</event>
<event>
 5   0  0.3725232E-06  0.3045360E+04  0.7818609E-02  0.8230895E-01
       -1   -1    0    0    0  501  0.00000000000E+00  0.00000000000E+00  0.12490669336E+04  0.12490669336E+04  0.50400001928E-02 0. -1.
        1   -1    0    0  501    0  0.00000000000E+00  0.00000000000E+00 -0.18562291481E+04  0.18562291481E+04  0.50400001928E-02 0.  1.
    10030    2    1    2    0    0  0.00000000000E+00  0.00000000000E+00 -0.60716221447E+03  0.31052960818E+04  0.30453600445E+04 0.  0.
        2    1    3    3  502    0  0.35405570988E+03  0.96633784172E+03 -0.14478932889E+04  0.17763893847E+04  0.25500000920E-02 0.  1.
       -2    1    3    3    0  502 -0.35405570988E+03 -0.96633784172E+03  0.84073107441E+03  0.13289066971E+04  0.25500000920E-02 0. -1.
</event>
<event>
 5   0  0.3725232E-06  0.2113784E+04  0.7818609E-02  0.8555195E-01
       -1   -1    0    0    0  501  0.00000000000E+00  0.00000000000E+00  0.82150974522E+03  0.82150974524E+03  0.50400001928E-02 0. -1.
        1   -1    0    0  501    0  0.00000000000E+00  0.00000000000E+00 -0.13597174936E+04  0.13597174936E+04  0.50400001928E-02 0.  1.
    10030    2    1    2    0    0  0.00000000000E+00  0.00000000000E+00 -0.53820774839E+03  0.21812272389E+04  0.21137844467E+04 0.  0.
        2    1    3    3  502    0 -0.38361012992E+03 -0.43291598233E+03 -0.11818878560E+04  0.13158388518E+04  0.25500000920E-02 0.  1.
       -2    1    3    3    0  502  0.38361012992E+03  0.43291598233E+03  0.64368010765E+03  0.86538838710E+03  0.25500000920E-02 0. -1.
</event>
<event>
 5   0  0.3592331E-06  0.3056091E+04  0.7818609E-02  0.8227893E-01
       -1   -1    0    0    0  501  0.00000000000E+00  0.00000000000E+00  0.13427477540E+04  0.13427477540E+04  0.50400001928E-02 0. -1.
        1   -1    0    0  501    0  0.00000000000E+00  0.00000000000E+00 -0.17389144507E+04  0.17389144507E+04  0.50400001928E-02 0.  1.
    10030    2    1    2    0    0  0.00000000000E+00  0.00000000000E+00 -0.39616669670E+03  0.30816622048E+04  0.30560912769E+04 0.  0.
        3    1    3    3  502    0 -0.31541408771E+03  0.11433225612E+04 -0.11696025954E+04  0.16657258979E+04  0.10100000352E+00 0.  1.
       -3    1    3    3    0  502  0.31541408771E+03 -0.11433225612E+04  0.77343589868E+03  0.14159363069E+04  0.10100000352E+00 0. -1.
</event>
<event>
 5   0  0.3896630E-06  0.3025673E+04  0.7818609E-02  0.8236438E-01
       -1   -1    0    0    0  501  0.00000000000E+00  0.00000000000E+00  0.92805214861E+03  0.92805214863E+03  0.50400001928E-02 0.  1.
        1   -1    0    0  501    0  0.00000000000E+00  0.00000000000E+00 -0.24661046216E+04  0.24661046216E+04  0.50400001928E-02 0. -1.
    10030    2    1    2    0    0  0.00000000000E+00  0.00000000000E+00 -0.15380524730E+04  0.33941567703E+04  0.30256726147E+04 0.  0.
        5    1    3    3  502    0 -0.47958482746E+03  0.66288666694E+03  0.65843526241E+03  0.10502282727E+04  0.46999998093E+01 0.  1.
       -5    1    3    3    0  502  0.47958482746E+03 -0.66288666694E+03 -0.21964877354E+04  0.23439284976E+04  0.46999998093E+01 0. -1.
</event>
<event>
 5   0  0.1089569E-05  0.2999165E+04  0.7818609E-02  0.8243969E-01
        2   -1    0    0  501    0  0.00000000000E+00  0.00000000000E+00  0.17807879225E+04  0.17807879225E+04  0.25500000920E-02 0.  1.
       -2   -1    0    0    0  501  0.00000000000E+00  0.00000000000E+00 -0.12627822460E+04  0.12627822460E+04  0.25500000920E-02 0. -1.
    10030    2    1    2    0    0  0.00000000000E+00  0.00000000000E+00  0.51800567648E+03  0.30435701685E+04  0.29991647987E+04 0.  0.
        5    1    3    3  502    0 -0.11790962383E+03 -0.97873914539E+03 -0.88772437943E+03  0.13266158668E+04  0.46999998093E+01 0. -1.
       -5    1    3    3    0  502  0.11790962383E+03  0.97873914539E+03  0.14057300559E+04  0.17169543017E+04  0.46999998093E+01 0.  1.
</event>
<event>
 5   0  0.3592331E-06  0.3032502E+04  0.7818609E-02  0.8234510E-01
       -1   -1    0    0    0  501  0.00000000000E+00  0.00000000000E+00  0.16376537892E+04  0.16376537892E+04  0.50400001928E-02 0. -1.
        1   -1    0    0  501    0  0.00000000000E+00  0.00000000000E+00 -0.14038483951E+04  0.14038483951E+04  0.50400001928E-02 0.  1.
    10030    2    1    2    0    0  0.00000000000E+00  0.00000000000E+00  0.23380539407E+03  0.30415021844E+04  0.30325023619E+04 0.  0.
        3    1    3    3  502    0 -0.59162704782E+02  0.12718361514E+04 -0.70891823227E+03  0.14572688469E+04  0.10100000352E+00 0.  1.
       -3    1    3    3    0  502  0.59162704782E+02 -0.12718361514E+04  0.94272362634E+03  0.15842333375E+04  0.10100000352E+00 0. -1.
</event>
<event>
 5   0  0.3896630E-06  0.3060065E+04  0.7818609E-02  0.8226784E-01
       -1   -1    0    0    0  501  0.00000000000E+00  0.00000000000E+00  0.14027349133E+04  0.14027349133E+04  0.50400001928E-02 0.  1.
        1   -1    0    0  501    0  0.00000000000E+00  0.00000000000E+00 -0.16688818523E+04  0.16688818523E+04  0.50400001928E-02 0. -1.
    10030    2    1    2    0    0  0.00000000000E+00  0.00000000000E+00 -0.26614693908E+03  0.30716167656E+04  0.30600646009E+04 0.  0.
        5    1    3    3  502    0 -0.82414604212E+03 -0.12889405474E+04 -0.15295523670E+03  0.15375310819E+04  0.46999998093E+01 0.  1.
       -5    1    3    3    0  502  0.82414604212E+03  0.12889405474E+04 -0.11319170238E+03  0.15340856837E+04  0.46999998093E+01 0. -1.
</event>
<event>
 5   0  0.3636718E-06  0.2970969E+04  0.7818609E-02  0.8252070E-01
       -1   -1    0    0    0  501  0.00000000000E+00  0.00000000000E+00  0.96434278186E+03  0.96434278188E+03  0.50400001928E-02 0. -1.
        1   -1    0    0  501    0  0.00000000000E+00  0.00000000000E+00 -0.22882577276E+04  0.22882577276E+04  0.50400001928E-02 0.  1.
    10030    2    1    2    0    0  0.00000000000E+00  0.00000000000E+00 -0.13239149458E+04  0.32526005095E+04  0.29709694194E+04 0.  0.
        4    1    3    3  502    0  0.26534791958E+03 -0.12710223479E+04 -0.14519984843E+04  0.19478728241E+04  0.12699999809E+01 0.  1.
       -4    1    3    3    0  502 -0.26534791958E+03  0.12710223479E+04  0.12808353857E+03  0.13047276854E+04  0.12699999809E+01 0. -1.
</event>
<event>
 5   0  0.3725232E-06  0.2974569E+04  0.7818609E-02  0.8251030E-01
        1   -1    0    0  501    0  0.00000000000E+00  0.00000000000E+00  0.12199870621E+04  0.12199870621E+04  0.50400001928E-02 0. -1.
       -1   -1    0    0    0  501  0.00000000000E+00  0.00000000000E+00 -0.18131465637E+04  0.18131465637E+04  0.50400001928E-02 0.  1.
    10030    2    1    2    0    0  0.00000000000E+00  0.00000000000E+00 -0.59315950167E+03  0.30331336258E+04  0.29745691113E+04 0.  0.
        2    1    3    3  502    0  0.73380022153E+03 -0.12881450167E+04 -0.17492019686E+03  0.14927750750E+04  0.25500000920E-02 0. -1.
       -2    1    3    3    0  502 -0.73380022153E+03  0.12881450167E+04 -0.41823930481E+03  0.15403585509E+04  0.25500000920E-02 0.  1.
</event>
<event>
 5   0  0.9647945E-06  0.2990459E+04  0.7818609E-02  0.8246461E-01
       -2   -1    0    0    0  501  0.00000000000E+00  0.00000000000E+00  0.19720032942E+04  0.19720032942E+04  0.25500000920E-02 0.  1.
        2   -1    0    0  501    0  0.00000000000E+00  0.00000000000E+00 -0.11337256339E+04  0.11337256339E+04  0.25500000920E-02 0. -1.
    10030    2    1    2    0    0  0.00000000000E+00  0.00000000000E+00  0.83827766023E+03  0.31057289281E+04  0.29904586169E+04 0.  0.
        2    1    3    3  502    0 -0.79810652247E+03  0.11690941631E+04 -0.81043204720E+02  0.14178586617E+04  0.25500000920E-02 0.  1.
       -2    1    3    3    0  502  0.79810652247E+03 -0.11690941631E+04  0.91932086495E+03  0.16878702664E+04  0.25500000920E-02 0. -1.
</event>
<event>
 5   0  0.1028450E-05  0.2784467E+04  0.7818609E-02  0.8308107E-01
       -2   -1    0    0    0  501  0.00000000000E+00  0.00000000000E+00  0.14381626884E+04  0.14381626884E+04  0.25500000920E-02 0. -1.
        2   -1    0    0  501    0  0.00000000000E+00  0.00000000000E+00 -0.13477709067E+04  0.13477709067E+04  0.25500000920E-02 0.  1.
    10030    2    1    2    0    0  0.00000000000E+00  0.00000000000E+00  0.90391781677E+02  0.27859335951E+04  0.27844667931E+04 0.  0.
        3    1    3    3  502    0  0.25365408194E+03  0.11045467079E+03 -0.13199909828E+04  0.13486722479E+04  0.10100000352E+00 0.  1.
       -3    1    3    3    0  502 -0.25365408194E+03 -0.11045467079E+03  0.14103827644E+04  0.14372613471E+04  0.10100000352E+00 0. -1.
</event>
<event>
 5   0  0.1057036E-05  0.3065958E+04  0.7818609E-02  0.8225143E-01
        2   -1    0    0  501    0  0.00000000000E+00  0.00000000000E+00  0.19635762061E+04  0.19635762061E+04  0.25500000920E-02 0. -1.
       -2   -1    0    0    0  501  0.00000000000E+00  0.00000000000E+00 -0.11968084527E+04  0.11968084527E+04  0.25500000920E-02 0.  1.
    10030    2    1    2    0    0  0.00000000000E+00  0.00000000000E+00  0.76676775348E+03  0.31603846588E+04  0.30659579912E+04 0.  0.
        4    1    3    3  502    0 -0.22753600080E+03 -0.37955094057E+03 -0.11295358753E+04  0.12131300238E+04  0.12699999809E+01 0.  1.
       -4    1    3    3    0  502  0.22753600080E+03  0.37955094057E+03  0.18963036288E+04  0.19472546350E+04  0.12699999809E+01 0. -1.
</event>
<event>
 5   0  0.3896630E-06  0.2395414E+04  0.7818609E-02  0.8441222E-01
        1   -1    0    0  501    0  0.00000000000E+00  0.00000000000E+00  0.13307836800E+04  0.13307836800E+04  0.50400001928E-02 0.  1.
       -1   -1    0    0    0  501  0.00000000000E+00  0.00000000000E+00 -0.10779379738E+04  0.10779379739E+04  0.50400001928E-02 0. -1.
    10030    2    1    2    0    0  0.00000000000E+00  0.00000000000E+00  0.25284570612E+03  0.24087216538E+04  0.23954141718E+04 0.  0.
        5    1    3    3  502    0  0.15526670978E+03  0.83837338662E+03 -0.71938163964E+03  0.11155759589E+04  0.46999998093E+01 0. -1.
       -5    1    3    3    0  502 -0.15526670978E+03 -0.83837338662E+03  0.97222734577E+03  0.12931456950E+04  0.46999998093E+01 0.  1.
</event>
<event>
 5   0  0.1029922E-05  0.2404228E+04  0.7818609E-02  0.8437923E-01
       -2   -1    0    0    0  501  0.00000000000E+00  0.00000000000E+00  0.13404223125E+04  0.13404223125E+04  0.25500000920E-02 0. -1.
        2   -1    0    0  501    0  0.00000000000E+00  0.00000000000E+00 -0.10780763271E+04  0.10780763271E+04  0.25500000920E-02 0.  1.
    10030    2    1    2    0    0  0.00000000000E+00  0.00000000000E+00  0.26234598535E+03  0.24184986396E+04  0.24042275794E+04 0.  0.
        1    1    3    3  502    0 -0.74534468679E+03 -0.33782589413E+03 -0.75462905317E+03  0.11131621826E+04  0.50400001928E-02 0.  1.
       -1    1    3    3    0  502  0.74534468679E+03  0.33782589413E+03  0.10169750385E+04  0.13053364570E+04  0.50400001928E-02 0. -1.
</event>
<event>
 5   0  0.1089569E-05  0.3032752E+04  0.7818609E-02  0.8234440E-01
       -2   -1    0    0    0  501  0.00000000000E+00  0.00000000000E+00  0.10550770212E+04  0.10550770212E+04  0.25500000920E-02 0. -1.
        2   -1    0    0  501    0  0.00000000000E+00  0.00000000000E+00 -0.21793632550E+04  0.21793632550E+04  0.25500000920E-02 0.  1.
    10030    2    1    2    0    0  0.00000000000E+00  0.00000000000E+00 -0.11242862338E+04  0.32344402763E+04  0.30327519459E+04 0.  0.
        5    1    3    3  502    0  0.52987534636E+03 -0.86578439866E+03 -0.17635692585E+04  0.20348339311E+04  0.46999998093E+01 0.  1.
       -5    1    3    3    0  502 -0.52987534636E+03  0.86578439866E+03  0.63928302472E+03  0.11996063452E+04  0.46999998093E+01 0. -1.
</event>
<event>
 5   0  0.3636718E-06  0.2284194E+04  0.7818609E-02  0.8484179E-01
       -1   -1    0    0    0  501  0.00000000000E+00  0.00000000000E+00  0.10585579096E+04  0.10585579096E+04  0.50400001928E-02 0.  1.
        1   -1    0    0  501    0  0.00000000000E+00  0.00000000000E+00 -0.12322289351E+04  0.12322289351E+04  0.50400001928E-02 0. -1.
    10030    2    1    2    0    0  0.00000000000E+00  0.00000000000E+00 -0.17367102553E+03  0.22907868448E+04  0.22841941124E+04 0.  0.
        4    1    3    3  502    0  0.42414499693E+03  0.10283089050E+04  0.17288276840E+03  0.11257034454E+04  0.12699999809E+01 0. -1.
       -4    1    3    3    0  502 -0.42414499693E+03 -0.10283089050E+04 -0.34655379392E+03  0.11650833994E+04  0.12699999809E+01 0.  1.
</event>
<event>
 5   0  0.3725232E-06  0.2996449E+04  0.7818609E-02  0.8244746E-01
        1   -1    0    0  501    0  0.00000000000E+00  0.00000000000E+00  0.88242613763E+03  0.88242613764E+03  0.50400001928E-02 0.  1.
       -1   -1    0    0    0  501  0.00000000000E+00  0.00000000000E+00 -0.25437563171E+04  0.25437563171E+04  0.50400001928E-02 0. -1.
    10030    2    1    2    0    0  0.00000000000E+00  0.00000000000E+00 -0.16613301795E+04  0.34261824547E+04  0.29964492734E+04 0.  0.
        2    1    3    3  502    0  0.16563716956E+03  0.13617273012E+04 -0.15195093789E+04  0.20471066576E+04  0.25500000920E-02 0.  1.
       -2    1    3    3    0  502 -0.16563716956E+03 -0.13617273012E+04 -0.14182080057E+03  0.13790757972E+04  0.25500000920E-02 0. -1.
</event>
<event>
 5   0  0.3725232E-06  0.2988321E+04  0.7818609E-02  0.8247074E-01
       -1   -1    0    0    0  501  0.00000000000E+00  0.00000000000E+00  0.22301103376E+04  0.22301103376E+04  0.50400001928E-02 0. -1.
        1   -1    0    0  501    0  0.00000000000E+00  0.00000000000E+00 -0.10010785090E+04  0.10010785090E+04  0.50400001928E-02 0.  1.
    10030    2    1    2    0    0  0.00000000000E+00  0.00000000000E+00  0.12290318286E+04  0.32311888466E+04  0.29883209545E+04 0.  0.
        2    1    3    3  502    0  0.28737978549E+03 -0.38285686560E+03 -0.91591386940E+03  0.10334721752E+04  0.25500000920E-02 0.  1.
       -2    1    3    3    0  502 -0.28737978549E+03  0.38285686560E+03  0.21449456980E+04  0.21977166715E+04  0.25500000920E-02 0. -1.
</event>
<event>
 5   0  0.3896630E-06  0.2956585E+04  0.7818609E-02  0.8256238E-01
        1   -1    0    0  501    0  0.00000000000E+00  0.00000000000E+00  0.10941479214E+04  0.10941479214E+04  0.50400001928E-02 0. -1.
       -1   -1    0    0    0  501  0.00000000000E+00  0.00000000000E+00 -0.19973064698E+04  0.19973064698E+04  0.50400001928E-02 0.  1.
    10030    2    1    2    0    0  0.00000000000E+00  0.00000000000E+00 -0.90315854834E+03  0.30914543912E+04  0.29565850046E+04 0.  0.
        5    1    3    3  502    0 -0.59591088524E+02  0.14921528816E+03  0.10849828258E+04  0.10968254749E+04  0.46999998093E+01 0. -1.
       -5    1    3    3    0  502  0.59591088524E+02 -0.14921528816E+03 -0.19881413742E+04  0.19946289163E+04  0.46999998093E+01 0.  1.
</event>
<event>
 5   0  0.3636718E-06  0.3000964E+04  0.7818609E-02  0.8243456E-01
        1   -1    0    0  501    0  0.00000000000E+00  0.00000000000E+00  0.16149458591E+04  0.16149458591E+04  0.50400001928E-02 0.  1.
       -1   -1    0    0    0  501  0.00000000000E+00  0.00000000000E+00 -0.13941312793E+04  0.13941312793E+04  0.50400001928E-02 0. -1.
    10030    2    1    2    0    0  0.00000000000E+00  0.00000000000E+00  0.22081457981E+03  0.30090771383E+04  0.30009642027E+04 0.  0.
        4    1    3    3  502    0 -0.13713536064E+04 -0.57244714169E+03  0.31866683941E+03  0.15198212432E+04  0.12699999809E+01 0.  1.
       -4    1    3    3    0  502  0.13713536064E+04  0.57244714169E+03 -0.97852259601E+02  0.14892558952E+04  0.12699999809E+01 0. -1.
</event>
<event>
 5   0  0.9647945E-06  0.2956472E+04  0.7818609E-02  0.8256271E-01
        2   -1    0    0  501    0  0.00000000000E+00  0.00000000000E+00  0.15450522985E+04  0.15450522985E+04  0.25500000920E-02 0. -1.
       -2   -1    0    0    0  501  0.00000000000E+00  0.00000000000E+00 -0.14143090767E+04  0.14143090767E+04  0.25500000920E-02 0.  1.
    10030    2    1    2    0    0  0.00000000000E+00  0.00000000000E+00  0.13074322182E+03  0.29593613751E+04  0.29564718769E+04 0.  0.
        2    1    3    3  502    0  0.20500332384E+03 -0.48548443773E+02 -0.13992050599E+04  0.14149763652E+04  0.25500000920E-02 0.  1.
       -2    1    3    3    0  502 -0.20500332384E+03  0.48548443773E+02  0.15299482818E+04  0.15443850100E+04  0.25500000920E-02 0. -1.
</event>
<event>
 5   0  0.9647945E-06  0.2095348E+04  0.7818609E-02  0.8563295E-01
        2   -1    0    0  501    0  0.00000000000E+00  0.00000000000E+00  0.91580923716E+03  0.91580923717E+03  0.25500000920E-02 0.  1.
       -2   -1    0    0    0  501  0.00000000000E+00  0.00000000000E+00 -0.11985259934E+04  0.11985259934E+04  0.25500000920E-02 0. -1.
    10030    2    1    2    0    0  0.00000000000E+00  0.00000000000E+00 -0.28271675623E+03  0.21143352306E+04  0.20953483488E+04 0.  0.
        2    1    3    3  502    0 -0.66002651809E+03 -0.39463131923E+03  0.57660305184E+03  0.96116593890E+03  0.25500000920E-02 0.  1.
       -2    1    3    3    0  502  0.66002651809E+03  0.39463131923E+03 -0.85931980807E+03  0.11531692917E+04  0.25500000920E-02 0. -1.
</event>
<event>
 5   0  0.1028450E-05  0.3090609E+04  0.7818609E-02  0.8218320E-01
       -2   -1    0    0    0  501  0.00000000000E+00  0.00000000000E+00  0.13273861376E+04  0.13273861376E+04  0.25500000920E-02 0. -1.
        2   -1    0    0  501    0  0.00000000000E+00  0.00000000000E+00 -0.17989984369E+04  0.17989984369E+04  0.25500000920E-02 0.  1.
    10030    2    1    2    0    0  0.00000000000E+00  0.00000000000E+00 -0.47161229924E+03  0.31263845745E+04  0.30906087340E+04 0.  0.
        3    1    3    3  502    0  0.12021278756E+04 -0.11005932705E+03 -0.12117229979E+04  0.17104084655E+04  0.10100000352E+00 0.  1.
       -3    1    3    3    0  502 -0.12021278756E+04  0.11005932705E+03  0.74011069870E+03  0.14159761090E+04  0.10100000352E+00 0. -1.
</event>
<event>
 5   0  0.3852126E-06  0.3001194E+04  0.7818609E-02  0.8243390E-01
        1   -1    0    0  501    0  0.00000000000E+00  0.00000000000E+00  0.16021866607E+04  0.16021866607E+04  0.50400001928E-02 0.  1.
       -1   -1    0    0    0  501  0.00000000000E+00  0.00000000000E+00 -0.14054489148E+04  0.14054489148E+04  0.50400001928E-02 0. -1.
    10030    2    1    2    0    0  0.00000000000E+00  0.00000000000E+00  0.19673774598E+03  0.30076355755E+04  0.30011940981E+04 0.  0.
        1    1    3    3  502    0 -0.53131145466E+03 -0.13658057644E+04  0.42166670062E+03  0.15249655912E+04  0.50400001928E-02 0.  1.
       -1    1    3    3    0  502  0.53131145466E+03  0.13658057644E+04 -0.22492895464E+03  0.14826699843E+04  0.50400001928E-02 0. -1.
</event>
<event>
 5   0  0.3725232E-06  0.2968907E+04  0.7818609E-02  0.8252666E-01
        1   -1    0    0  501    0  0.00000000000E+00  0.00000000000E+00  0.11306213202E+04  0.11306213202E+04  0.50400001928E-02 0. -1.
       -1   -1    0    0    0  501  0.00000000000E+00  0.00000000000E+00 -0.19490194041E+04  0.19490194041E+04  0.50400001928E-02 0.  1.
    10030    2    1    2    0    0  0.00000000000E+00  0.00000000000E+00 -0.81839808390E+03  0.30796407243E+04  0.29689074703E+04 0.  0.
        2    1    3    3  502    0 -0.12791712407E+04 -0.47207527141E+03 -0.10180041908E+04  0.17016070808E+04  0.25500000920E-02 0.  1.
       -2    1    3    3    0  502  0.12791712407E+04  0.47207527141E+03  0.19960610688E+03  0.13780336436E+04  0.25500000920E-02 0. -1.
</event>
<event>
 5   0  0.3725232E-06  0.3019318E+04  0.7818609E-02  0.8238236E-01
       -1   -1    0    0    0  501  0.00000000000E+00  0.00000000000E+00  0.11136327192E+04  0.11136327192E+04  0.50400001928E-02 0.  1.
        1   -1    0    0  501    0  0.00000000000E+00  0.00000000000E+00 -0.20465194773E+04  0.20465194773E+04  0.50400001928E-02 0. -1.
    10030    2    1    2    0    0  0.00000000000E+00  0.00000000000E+00 -0.93288675805E+03  0.31601521965E+04  0.30193184995E+04 0.  0.
        2    1    3    3  502    0 -0.68057256364E+03 -0.12374146235E+04 -0.10249014629E+04  0.17449346617E+04  0.25500000920E-02 0. -1.
       -2    1    3    3    0  502  0.68057256364E+03  0.12374146235E+04  0.92014704831E+02  0.14152175348E+04  0.25500000920E-02 0.  1.
</event>
<event>
 5   0  0.1028450E-05  0.2996005E+04  0.7818609E-02  0.8244873E-01
        2   -1    0    0  501    0  0.00000000000E+00  0.00000000000E+00  0.17116311304E+04  0.17116311304E+04  0.25500000920E-02 0. -1.
       -2   -1    0    0    0  501  0.00000000000E+00  0.00000000000E+00 -0.13110368350E+04  0.13110368350E+04  0.25500000920E-02 0.  1.
    10030    2    1    2    0    0  0.00000000000E+00  0.00000000000E+00  0.40059429546E+03  0.30226679654E+04  0.29960049799E+04 0.  0.
        3    1    3    3  502    0 -0.70945707303E+03 -0.11525325544E+04  0.84815741359E+03  0.15971949273E+04  0.10100000352E+00 0. -1.
       -3    1    3    3    0  502  0.70945707303E+03  0.11525325544E+04 -0.44756311813E+03  0.14254730381E+04  0.10100000352E+00 0.  1.
</event>
<event>
 5   0  0.9647945E-06  0.2977927E+04  0.7818609E-02  0.8250062E-01
        2   -1    0    0  501    0  0.00000000000E+00  0.00000000000E+00  0.81983647086E+03  0.81983647086E+03  0.25500000920E-02 0.  1.
       -2   -1    0    0    0  501  0.00000000000E+00  0.00000000000E+00 -0.27042128972E+04  0.27042128972E+04  0.25500000920E-02 0. -1.
    10030    2    1    2    0    0  0.00000000000E+00  0.00000000000E+00 -0.18843764263E+04  0.35240493681E+04  0.29779270361E+04 0.  0.
        2    1    3    3  502    0 -0.33422154648E+03  0.58381380446E+03 -0.25141248666E+04  0.26025692009E+04  0.25500000920E-02 0. -1.
       -2    1    3    3    0  502  0.33422154648E+03 -0.58381380446E+03  0.62974844030E+03  0.92148016717E+03  0.25500000920E-02 0.  1.
</event>
<event>
 5   0  0.9647945E-06  0.3019909E+04  0.7818609E-02  0.8238069E-01
       -2   -1    0    0    0  501  0.00000000000E+00  0.00000000000E+00  0.18201523371E+04  0.18201523371E+04  0.25500000920E-02 0.  1.
        2   -1    0    0  501    0  0.00000000000E+00  0.00000000000E+00 -0.12526216526E+04  0.12526216526E+04  0.25500000920E-02 0. -1.
    10030    2    1    2    0    0  0.00000000000E+00  0.00000000000E+00  0.56753068454E+03  0.30727739897E+04  0.30199087592E+04 0.  0.
        2    1    3    3  502    0  0.47525973096E+03  0.13539534790E+04 -0.19446270223E+03  0.14480599359E+04  0.25500000920E-02 0. -1.
       -2    1    3    3    0  502 -0.47525973096E+03 -0.13539534790E+04  0.76199338677E+03  0.16247140539E+04  0.25500000920E-02 0.  1.
</event>
<event>
 5   0  0.3636718E-06  0.3040397E+04  0.7818609E-02  0.8232288E-01
        1   -1    0    0  501    0  0.00000000000E+00  0.00000000000E+00  0.15335684176E+04  0.15335684176E+04  0.50400001928E-02 0.  1.
       -1   -1    0    0    0  501  0.00000000000E+00  0.00000000000E+00 -0.15069451585E+04  0.15069451585E+04  0.50400001928E-02 0. -1.
    10030    2    1    2    0    0  0.00000000000E+00  0.00000000000E+00  0.26623259088E+02  0.30405135761E+04  0.30403970150E+04 0.  0.
        4    1    3    3  502    0  0.42177459398E+03  0.24103416038E+03 -0.14272333087E+04  0.15076431292E+04  0.12699999809E+01 0. -1.
       -4    1    3    3    0  502 -0.42177459398E+03 -0.24103416038E+03  0.14538565678E+04  0.15328704470E+04  0.12699999809E+01 0.  1.
</event>
<event>
 5   0  0.1029922E-05  0.2624712E+04  0.7818609E-02  0.8359855E-01
        2   -1    0    0  501    0  0.00000000000E+00  0.00000000000E+00  0.10402484025E+04  0.10402484025E+04  0.25500000920E-02 0.  1.
       -2   -1    0    0    0  501  0.00000000000E+00  0.00000000000E+00 -0.16556414283E+04  0.16556414283E+04  0.25500000920E-02 0. -1.
    10030    2    1    2    0    0  0.00000000000E+00  0.00000000000E+00 -0.61539302584E+03  0.26958898308E+04  0.26247120611E+04 0.  0.
        1    1    3    3  502    0 -0.65866101276E+03  0.60736052911E+03 -0.12926366832E+04  0.15727780316E+04  0.50400001928E-02 0. -1.
       -1    1    3    3    0  502  0.65866101276E+03 -0.60736052911E+03  0.67724365734E+03  0.11231117992E+04  0.50400001928E-02 0.  1.
</event>
<event>
 5   0  0.1028450E-05  0.3031376E+04  0.7818609E-02  0.8234827E-01
       -2   -1    0    0    0  501  0.00000000000E+00  0.00000000000E+00  0.96272943512E+03  0.96272943513E+03  0.25500000920E-02 0.  1.
        2   -1    0    0  501    0  0.00000000000E+00  0.00000000000E+00 -0.23862476534E+04  0.23862476534E+04  0.25500000920E-02 0. -1.
    10030    2    1    2    0    0  0.00000000000E+00  0.00000000000E+00 -0.14235182183E+04  0.33489770885E+04  0.30313764896E+04 0.  0.
        3    1    3    3  502    0 -0.78186266010E+03 -0.49590969293E+03  0.61400080773E+03  0.11109602355E+04  0.10100000352E+00 0.  1.
       -3    1    3    3    0  502  0.78186266010E+03  0.49590969293E+03 -0.20375190260E+04  0.22380168530E+04  0.10100000352E+00 0. -1.
</event>
<event>
 5   0  0.3725232E-06  0.2994490E+04  0.7818609E-02  0.8245306E-01
        1   -1    0    0  501    0  0.00000000000E+00  0.00000000000E+00  0.15947840736E+04  0.15947840736E+04  0.50400001928E-02 0. -1.
       -1   -1    0    0    0  501  0.00000000000E+00  0.00000000000E+00 -0.14056718524E+04  0.14056718524E+04  0.50400001928E-02 0.  1.
    10030    2    1    2    0    0  0.00000000000E+00  0.00000000000E+00  0.18911222119E+03  0.30004559260E+04  0.29944903292E+04 0.  0.
        2    1    3    3  502    0  0.13871777080E+04 -0.53662988034E+03  0.26668151542E+03  0.15110766535E+04  0.25500000920E-02 0. -1.
       -2    1    3    3    0  502 -0.13871777080E+04  0.53662988034E+03 -0.77569294221E+02  0.14893792725E+04  0.25500000920E-02 0.  1.
</event>
<event>
 5   0  0.1028450E-05  0.2341603E+04  0.7818609E-02  0.8461696E-01
       -2   -1    0    0    0  501  0.00000000000E+00  0.00000000000E+00  0.18931423928E+04  0.18931423928E+04  0.25500000920E-02 0. -1.
        2   -1    0    0  501    0  0.00000000000E+00  0.00000000000E+00 -0.72407474941E+03  0.72407474941E+03  0.25500000920E-02 0.  1.
    10030    2    1    2    0    0  0.00000000000E+00  0.00000000000E+00  0.11690676433E+04  0.26172171422E+04  0.23416033854E+04 0.  0.
        3    1    3    3  502    0 -0.36919927991E+03  0.70661317636E+03  0.15428729390E+04  0.17366828166E+04  0.10100000352E+00 0. -1.
       -3    1    3    3    0  502  0.36919927991E+03 -0.70661317636E+03 -0.37380529564E+03  0.88053432559E+03  0.10100000352E+00 0.  1.
</event>
<event>
 5   0  0.9647945E-06  0.3033840E+04  0.7818609E-02  0.8234133E-01
       -2   -1    0    0    0  501  0.00000000000E+00  0.00000000000E+00  0.86622152207E+03  0.86622152208E+03  0.25500000920E-02 0. -1.
        2   -1    0    0  501    0  0.00000000000E+00  0.00000000000E+00 -0.26564181973E+04  0.26564181973E+04  0.25500000920E-02 0.  1.
    10030    2    1    2    0    0  0.00000000000E+00  0.00000000000E+00 -0.17901966753E+04  0.35226397194E+04  0.30338402161E+04 0.  0.
        2    1    3    3  502    0  0.14377786987E+04  0.46658818803E+03 -0.10425851373E+04  0.18362722816E+04  0.25500000920E-02 0.  1.
       -2    1    3    3    0  502 -0.14377786987E+04 -0.46658818803E+03 -0.74761153800E+03  0.16863674378E+04  0.25500000920E-02 0. -1.
</event>
<event>
 5   0  0.1089569E-05  0.2978145E+04  0.7818609E-02  0.8249999E-01
       -2   -1    0    0    0  501  0.00000000000E+00  0.00000000000E+00  0.14564608849E+04  0.14564608849E+04  0.25500000920E-02 0. -1.
        2   -1    0    0  501    0  0.00000000000E+00  0.00000000000E+00 -0.15224139737E+04  0.15224139737E+04  0.25500000920E-02 0.  1.
    10030    2    1    2    0    0  0.00000000000E+00  0.00000000000E+00 -0.65953088763E+02  0.29788748586E+04  0.29781446595E+04 0.  0.
        5    1    3    3  502    0  0.63884216924E+03  0.13324912010E+04 -0.21649413049E+03  0.14935005579E+04  0.46999998093E+01 0.  1.
       -5    1    3    3    0  502 -0.63884216924E+03 -0.13324912010E+04  0.15054104173E+03  0.14853743007E+04  0.46999998093E+01 0. -1.
</event>
<event>
 5   0  0.3896630E-06  0.2846749E+04  0.7818609E-02  0.8288900E-01
        1   -1    0    0  501    0  0.00000000000E+00  0.00000000000E+00  0.12983497158E+04  0.12983497158E+04  0.50400001928E-02 0. -1.
       -1   -1    0    0    0  501  0.00000000000E+00  0.00000000000E+00 -0.15604389401E+04  0.15604389401E+04  0.50400001928E-02 0.  1.
    10030    2    1    2    0    0  0.00000000000E+00  0.00000000000E+00 -0.26208922438E+03  0.28587886559E+04  0.28467493422E+04 0.  0.
        5    1    3    3  502    0  0.19779151166E+03 -0.35327361929E+03 -0.15013849674E+04  0.15550249653E+04  0.46999998093E+01 0.  1.
       -5    1    3    3    0  502 -0.19779151166E+03  0.35327361929E+03  0.12392957431E+04  0.13037636906E+04  0.46999998093E+01 0. -1.
</event>
<event>
 5   0  0.3896630E-06  0.2974608E+04  0.7818609E-02  0.8251019E-01
       -1   -1    0    0    0  501  0.00000000000E+00  0.00000000000E+00  0.12155331152E+04  0.12155331152E+04  0.50400001928E-02 0. -1.
        1   -1    0    0  501    0  0.00000000000E+00  0.00000000000E+00 -0.18198382065E+04  0.18198382065E+04  0.50400001928E-02 0.  1.
    10030    2    1    2    0    0  0.00000000000E+00  0.00000000000E+00 -0.60430509130E+03  0.30353713217E+04  0.29746082796E+04 0.  0.
        5    1    3    3  502    0 -0.62192034940E+03 -0.13294061992E+04 -0.56516079222E+02  0.14687824620E+04  0.46999998093E+01 0. -1.
       -5    1    3    3    0  502  0.62192034940E+03  0.13294061992E+04 -0.54778901208E+03  0.15665888597E+04  0.46999998093E+01 0.  1.
</event>
<event>
 5   0  0.1029922E-05  0.3006462E+04  0.7818609E-02  0.8241888E-01
        2   -1    0    0  501    0  0.00000000000E+00  0.00000000000E+00  0.99739242818E+03  0.99739242819E+03  0.25500000920E-02 0. -1.
       -2   -1    0    0    0  501  0.00000000000E+00  0.00000000000E+00 -0.22656111296E+04  0.22656111296E+04  0.25500000920E-02 0.  1.
    10030    2    1    2    0    0  0.00000000000E+00  0.00000000000E+00 -0.12682187014E+04  0.32630035578E+04  0.30064619644E+04 0.  0.
        1    1    3    3  502    0  0.94671423970E+03 -0.89619220540E+03 -0.14464954449E+04  0.19472486726E+04  0.50400001928E-02 0.  1.
       -1    1    3    3    0  502 -0.94671423970E+03  0.89619220540E+03  0.17827674348E+03  0.13157548852E+04  0.50400001928E-02 0. -1.
</event>
<event>
 5   0  0.3636718E-06  0.2364861E+04  0.7818609E-02  0.8452778E-01
        1   -1    0    0  501    0  0.00000000000E+00  0.00000000000E+00  0.16922415789E+04  0.16922415789E+04  0.50400001928E-02 0. -1.
       -1   -1    0    0    0  501  0.00000000000E+00  0.00000000000E+00 -0.82620668702E+03  0.82620668704E+03  0.50400001928E-02 0.  1.
    10030    2    1    2    0    0  0.00000000000E+00  0.00000000000E+00  0.86603489183E+03  0.25184482659E+04  0.23648605105E+04 0.  0.
        4    1    3    3  502    0  0.84874790243E+03 -0.76884981692E+03  0.74647470891E+03  0.13670146842E+04  0.12699999809E+01 0. -1.
       -4    1    3    3    0  502 -0.84874790243E+03  0.76884981692E+03  0.11956018292E+03  0.11514335817E+04  0.12699999809E+01 0.  1.
</event>
<event>
 5   0  0.9647945E-06  0.3063898E+04  0.7818609E-02  0.8225716E-01
       -2   -1    0    0    0  501  0.00000000000E+00  0.00000000000E+00  0.14491731688E+04  0.14491731688E+04  0.25500000920E-02 0. -1.
        2   -1    0    0  501    0  0.00000000000E+00  0.00000000000E+00 -0.16194528565E+04  0.16194528565E+04  0.25500000920E-02 0.  1.
    10030    2    1    2    0    0  0.00000000000E+00  0.00000000000E+00 -0.17027968769E+03  0.30686260252E+04  0.30638979276E+04 0.  0.
        2    1    3    3  502    0 -0.83602187532E+03 -0.12405354983E+03 -0.13648227063E+04  0.16053232942E+04  0.25500000920E-02 0.  1.
       -2    1    3    3    0  502  0.83602187532E+03  0.12405354983E+03  0.11945430186E+04  0.14633027310E+04  0.25500000920E-02 0. -1.
</event>
<event>
 5   0  0.3852126E-06  0.2545986E+04  0.7818609E-02  0.8386783E-01
       -1   -1    0    0    0  501  0.00000000000E+00  0.00000000000E+00  0.10230596062E+04  0.10230596062E+04  0.50400001928E-02 0.  1.
        1   -1    0    0  501    0  0.00000000000E+00  0.00000000000E+00 -0.15839852259E+04  0.15839852259E+04  0.50400001928E-02 0. -1.
    10030    2    1    2    0    0  0.00000000000E+00  0.00000000000E+00 -0.56092561973E+03  0.26070448321E+04  0.25459860969E+04 0.  0.
        1    1    3    3  502    0 -0.38830465985E+03 -0.60602269763E+03  0.79470270637E+03  0.10721923384E+04  0.50400001928E-02 0.  1.
       -1    1    3    3    0  502  0.38830465985E+03  0.60602269763E+03 -0.13556283261E+04  0.15348524937E+04  0.50400001928E-02 0. -1.
</event>
<event>
 5   0  0.1057036E-05  0.2704009E+04  0.7818609E-02  0.8333706E-01
        2   -1    0    0  501    0  0.00000000000E+00  0.00000000000E+00  0.10268331101E+04  0.10268331101E+04  0.25500000920E-02 0.  1.
       -2   -1    0    0    0  501  0.00000000000E+00  0.00000000000E+00 -0.17801485779E+04  0.17801485779E+04  0.25500000920E-02 0. -1.
    10030    2    1    2    0    0  0.00000000000E+00  0.00000000000E+00 -0.75331546782E+03  0.28069816881E+04  0.27040085065E+04 0.  0.
        4    1    3    3  502    0 -0.12692755849E+04  0.25686834684E+03 -0.77987200291E+03  0.15117022894E+04  0.12699999809E+01 0. -1.
       -4    1    3    3    0  502  0.12692755849E+04 -0.25686834684E+03  0.26556535093E+02  0.12952793986E+04  0.12699999809E+01 0.  1.
</event>
<event>
 5   0  0.3636718E-06  0.3109267E+04  0.7818609E-02  0.8213199E-01
       -1   -1    0    0    0  501  0.00000000000E+00  0.00000000000E+00  0.11301621805E+04  0.11301621805E+04  0.50400001928E-02 0. -1.
        1   -1    0    0  501    0  0.00000000000E+00  0.00000000000E+00 -0.21385295615E+04  0.21385295615E+04  0.50400001928E-02 0.  1.
    10030    2    1    2    0    0  0.00000000000E+00  0.00000000000E+00 -0.10083673810E+04  0.32686917420E+04  0.31092669440E+04 0.  0.
        4    1    3    3  502    0  0.12751914009E+04 -0.13177891517E+03  0.42034287658E+03  0.13491362193E+04  0.12699999809E+01 0. -1.
       -4    1    3    3    0  502 -0.12751914009E+04  0.13177891517E+03 -0.14287102576E+04  0.19195555227E+04  0.12699999809E+01 0.  1.
</event>
<event>
 5   0  0.3725232E-06  0.2995729E+04  0.7818609E-02  0.8244952E-01
       -1   -1    0    0    0  501  0.00000000000E+00  0.00000000000E+00  0.10402400955E+04  0.10402400955E+04  0.50400001928E-02 0. -1.
        1   -1    0    0  501    0  0.00000000000E+00  0.00000000000E+00 -0.21568073493E+04  0.21568073493E+04  0.50400001928E-02 0.  1.
    10030    2    1    2    0    0  0.00000000000E+00  0.00000000000E+00 -0.11165672538E+04  0.31970474448E+04  0.29957286145E+04 0.  0.
        2    1    3    3  502    0 -0.56890917070E+03  0.37574248495E+03  0.86504431879E+03  0.11014271347E+04  0.25500000920E-02 0. -1.
       -2    1    3    3    0  502  0.56890917070E+03 -0.37574248495E+03 -0.19816115726E+04  0.20956203101E+04  0.25500000920E-02 0.  1.
</event>
<event>
 5   0  0.3636718E-06  0.2901341E+04  0.7818609E-02  0.8272479E-01
        1   -1    0    0  501    0  0.00000000000E+00  0.00000000000E+00  0.12474380346E+04  0.12474380346E+04  0.50400001928E-02 0.  1.
       -1   -1    0    0    0  501  0.00000000000E+00  0.00000000000E+00 -0.16870130690E+04  0.16870130690E+04  0.50400001928E-02 0. -1.
    10030    2    1    2    0    0  0.00000000000E+00  0.00000000000E+00 -0.43957503448E+03  0.29344511036E+04  0.29013405640E+04 0.  0.
        4    1    3    3  502    0 -0.69934102503E+03 -0.10997942556E+04  0.42452043092E+03  0.13707094817E+04  0.12699999809E+01 0.  1.
       -4    1    3    3    0  502  0.69934102503E+03  0.10997942556E+04 -0.86409546540E+03  0.15637416219E+04  0.12699999809E+01 0. -1.
</event>
<event>
 5   0  0.3896630E-06  0.2956839E+04  0.7818609E-02  0.8256164E-01
        1   -1    0    0  501    0  0.00000000000E+00  0.00000000000E+00  0.17555867178E+04  0.17555867178E+04  0.50400001928E-02 0.  1.
       -1   -1    0    0    0  501  0.00000000000E+00  0.00000000000E+00 -0.12450108361E+04  0.12450108361E+04  0.50400001928E-02 0. -1.
    10030    2    1    2    0    0  0.00000000000E+00  0.00000000000E+00  0.51057588169E+03  0.30005975539E+04  0.29568391822E+04 0.  0.
        5    1    3    3  502    0 -0.13167289543E+04  0.47308761715E+03  0.73997041435E+03  0.15827714101E+04  0.46999998093E+01 0.  1.
       -5    1    3    3    0  502  0.13167289543E+04 -0.47308761715E+03 -0.22939453266E+03  0.14178261438E+04  0.46999998093E+01 0. -1.
</event>
<event>
 5   0  0.1029922E-05  0.3012006E+04  0.7818609E-02  0.8240311E-01
        2   -1    0    0  501    0  0.00000000000E+00  0.00000000000E+00  0.18900001965E+04  0.18900001965E+04  0.25500000920E-02 0.  1.
       -2   -1    0    0    0  501  0.00000000000E+00  0.00000000000E+00 -0.12000235752E+04  0.12000235752E+04  0.25500000920E-02 0. -1.
    10030    2    1    2    0    0  0.00000000000E+00  0.00000000000E+00  0.68997662127E+03  0.30900237717E+04  0.30120058386E+04 0.  0.
        1    1    3    3  502    0 -0.10015414056E+04 -0.46184426619E+02 -0.80787514424E+03  0.12875870600E+04  0.50400001928E-02 0. -1.
       -1    1    3    3    0  502  0.10015414056E+04  0.46184426619E+02  0.14978517655E+04  0.18024367117E+04  0.50400001928E-02 0.  1.
</event>
<event>
 5   0  0.3896630E-06  0.3010984E+04  0.7818609E-02  0.8240601E-01
        1   -1    0    0  501    0  0.00000000000E+00  0.00000000000E+00  0.19773711030E+04  0.19773711030E+04  0.50400001928E-02 0. -1.
       -1   -1    0    0    0  501  0.00000000000E+00  0.00000000000E+00 -0.11462215986E+04  0.11462215986E+04  0.50400001928E-02 0.  1.
    10030    2    1    2    0    0  0.00000000000E+00  0.00000000000E+00  0.83114950443E+03  0.31235927016E+04  0.30109835382E+04 0.  0.
        5    1    3    3  502    0  0.41824520021E+02  0.69178672205E+03  0.18020331170E+04  0.19307158268E+04  0.46999998093E+01 0. -1.
       -5    1    3    3    0  502 -0.41824520021E+02 -0.69178672205E+03 -0.97088361257E+03  0.11928768748E+04  0.46999998093E+01 0.  1.
</event>
<event>
 5   0  0.1029922E-05  0.3080346E+04  0.7818609E-02  0.8221153E-01
        2   -1    0    0  501    0  0.00000000000E+00  0.00000000000E+00  0.19653448105E+04  0.19653448105E+04  0.25500000920E-02 0.  1.
       -2   -1    0    0    0  501  0.00000000000E+00  0.00000000000E+00 -0.12069802502E+04  0.12069802502E+04  0.25500000920E-02 0. -1.
    10030    2    1    2    0    0  0.00000000000E+00  0.00000000000E+00  0.75836456033E+03  0.31723250607E+04  0.30803456761E+04 0.  0.
        1    1    3    3  502    0 -0.50606368439E+03  0.88939927978E+02  0.18744744398E+04  0.19436216682E+04  0.50400001928E-02 0.  1.
       -1    1    3    3    0  502  0.50606368439E+03 -0.88939927978E+02 -0.11161098795E+04  0.12287033925E+04  0.50400001928E-02 0. -1.
</event>
<event>
 5   0  0.3592331E-06  0.2254287E+04  0.7818609E-02  0.8496166E-01
        1   -1    0    0  501    0  0.00000000000E+00  0.00000000000E+00  0.12021669853E+04  0.12021669853E+04  0.50400001928E-02 0. -1.
       -1   -1    0    0    0  501  0.00000000000E+00  0.00000000000E+00 -0.10568019260E+04  0.10568019260E+04  0.50400001928E-02 0.  1.
    10030    2    1    2    0    0  0.00000000000E+00  0.00000000000E+00  0.14536505928E+03  0.22589689113E+04  0.22542869253E+04 0.  0.
        3    1    3    3  502    0  0.73008693021E+03 -0.56117749877E+03  0.72403658918E+03  0.11713992076E+04  0.10100000352E+00 0. -1.
       -3    1    3    3    0  502 -0.73008693021E+03  0.56117749877E+03 -0.57867152990E+03  0.10875697037E+04  0.10100000352E+00 0.  1.
</event>
<event>
 5   0  0.3896630E-06  0.2937487E+04  0.7818609E-02  0.8261811E-01
       -1   -1    0    0    0  501  0.00000000000E+00  0.00000000000E+00  0.14349265934E+04  0.14349265934E+04  0.50400001928E-02 0. -1.
        1   -1    0    0  501    0  0.00000000000E+00  0.00000000000E+00 -0.15033575079E+04  0.15033575079E+04  0.50400001928E-02 0.  1.
    10030    2    1    2    0    0  0.00000000000E+00  0.00000000000E+00 -0.68430914431E+02  0.29382841013E+04  0.29374871353E+04 0.  0.
        5    1    3    3  502    0 -0.11970354529E+04  0.17146617322E+02 -0.88532684986E+03  0.14889639361E+04  0.46999998093E+01 0.  1.
       -5    1    3    3    0  502  0.11970354529E+04 -0.17146617322E+02  0.81689593543E+03  0.14493201652E+04  0.46999998093E+01 0. -1.
</event>
<event>
 5   0  0.1057036E-05  0.3014210E+04  0.7818609E-02  0.8239685E-01
        2   -1    0    0  501    0  0.00000000000E+00  0.00000000000E+00  0.16957788632E+04  0.16957788632E+04  0.25500000920E-02 0.  1.
       -2   -1    0    0    0  501  0.00000000000E+00  0.00000000000E+00 -0.13394228296E+04  0.13394228296E+04  0.25500000920E-02 0. -1.
    10030    2    1    2    0    0  0.00000000000E+00  0.00000000000E+00  0.35635603353E+03  0.30352016928E+04  0.30142096300E+04 0.  0.
        4    1    3    3  502    0  0.11877685776E+03 -0.12591869237E+04  0.10034611323E+04  0.16144954344E+04  0.12699999809E+01 0.  1.
       -4    1    3    3    0  502 -0.11877685776E+03  0.12591869237E+04 -0.64710509877E+03  0.14207062584E+04  0.12699999809E+01 0. -1.
</event>
<event>
 5   0  0.9647945E-06  0.2898480E+04  0.7818609E-02  0.8273330E-01
       -2   -1    0    0    0  501  0.00000000000E+00  0.00000000000E+00  0.13395617066E+04  0.13395617066E+04  0.25500000920E-02 0. -1.
        2   -1    0    0  501    0  0.00000000000E+00  0.00000000000E+00 -0.15678979766E+04  0.15678979766E+04  0.25500000920E-02 0.  1.
    10030    2    1    2    0    0  0.00000000000E+00  0.00000000000E+00 -0.22833626997E+03  0.29074596833E+04  0.28984796631E+04 0.  0.
        2    1    3    3  502    0 -0.10847369260E+04  0.56284541270E+02  0.84821763472E+03  0.13781492315E+04  0.25500000920E-02 0. -1.
       -2    1    3    3    0  502  0.10847369260E+04 -0.56284541270E+02 -0.10765539047E+04  0.15293104518E+04  0.25500000920E-02 0.  1.
</event>
<event>
 5   0  0.3852126E-06  0.2512362E+04  0.7818609E-02  0.8398595E-01
       -1   -1    0    0    0  501  0.00000000000E+00  0.00000000000E+00  0.10786976793E+04  0.10786976793E+04  0.50400001928E-02 0.  1.
        1   -1    0    0  501    0  0.00000000000E+00  0.00000000000E+00 -0.14628667200E+04  0.14628667200E+04  0.50400001928E-02 0. -1.
    10030    2    1    2    0    0  0.00000000000E+00  0.00000000000E+00 -0.38416904070E+03  0.25415643994E+04  0.25123621841E+04 0.  0.
        1    1    3    3  502    0 -0.10311501383E+04 -0.42922028065E+03 -0.77364945856E+03  0.13586883902E+04  0.50400001928E-02 0. -1.
       -1    1    3    3    0  502  0.10311501383E+04  0.42922028065E+03  0.38948041786E+03  0.11828760091E+04  0.50400001928E-02 0.  1.
</event>
<event>
 5   0  0.1089569E-05  0.3217089E+04  0.7818609E-02  0.8184319E-01
        2   -1    0    0  501    0  0.00000000000E+00  0.00000000000E+00  0.21584510025E+04  0.21584510025E+04  0.25500000920E-02 0. -1.
       -2   -1    0    0    0  501  0.00000000000E+00  0.00000000000E+00 -0.11987367960E+04  0.11987367960E+04  0.25500000920E-02 0.  1.
    10030    2    1    2    0    0  0.00000000000E+00  0.00000000000E+00  0.95971420648E+03  0.33571877984E+04  0.32170885216E+04 0.  0.
        5    1    3    3  502    0 -0.99454201557E+03 -0.63562879127E+03  0.16202673656E+04  0.20046012589E+04  0.46999998093E+01 0. -1.
       -5    1    3    3    0  502  0.99454201557E+03  0.63562879127E+03 -0.66055315911E+03  0.13525865396E+04  0.46999998093E+01 0.  1.
</event>
<event>
 5   0  0.3852126E-06  0.2980883E+04  0.7818609E-02  0.8249211E-01
        1   -1    0    0  501    0  0.00000000000E+00  0.00000000000E+00  0.24300553023E+04  0.24300553023E+04  0.50400001928E-02 0.  1.
       -1   -1    0    0    0  501  0.00000000000E+00  0.00000000000E+00 -0.91414201156E+03  0.91414201158E+03  0.50400001928E-02 0. -1.
    10030    2    1    2    0    0  0.00000000000E+00  0.00000000000E+00  0.15159132907E+04  0.33441973138E+04  0.29808828506E+04 0.  0.
        1    1    3    3  502    0 -0.10906798335E+04  0.54177709851E+03 -0.20602013256E+03  0.12351312557E+04  0.50400001928E-02 0. -1.
       -1    1    3    3    0  502  0.10906798335E+04 -0.54177709851E+03  0.17219334232E+04  0.21090660582E+04  0.50400001928E-02 0.  1.
</event>
<event>
 5   0  0.1057036E-05  0.3071218E+04  0.7818609E-02  0.8223682E-01
        2   -1    0    0  501    0  0.00000000000E+00  0.00000000000E+00  0.15234830974E+04  0.15234830974E+04  0.25500000920E-02 0.  1.
       -2   -1    0    0    0  501  0.00000000000E+00  0.00000000000E+00 -0.15478312099E+04  0.15478312099E+04  0.25500000920E-02 0. -1.
    10030    2    1    2    0    0  0.00000000000E+00  0.00000000000E+00 -0.24348112550E+02  0.30713143073E+04  0.30712177949E+04 0.  0.
        4    1    3    3  502    0 -0.14566019605E+04 -0.42346776984E+03  0.22674525409E+03  0.15337630999E+04  0.12699999809E+01 0.  1.
       -4    1    3    3    0  502  0.14566019605E+04  0.42346776984E+03 -0.25109336664E+03  0.15375512073E+04  0.12699999809E+01 0. -1.
</event>
<event>
 5   0  0.3636718E-06  0.2563998E+04  0.7818609E-02  0.8380534E-01
       -1   -1    0    0    0  501  0.00000000000E+00  0.00000000000E+00  0.59646759302E+03  0.59646759304E+03  0.50400001928E-02 0. -1.
        1   -1    0    0  501    0  0.00000000000E+00  0.00000000000E+00 -0.27554238672E+04  0.27554238673E+04  0.50400001928E-02 0.  1.
    10030    2    1    2    0    0  0.00000000000E+00  0.00000000000E+00 -0.21589562742E+04  0.33518914603E+04  0.25639976926E+04 0.  0.
        4    1    3    3  502    0  0.12291711310E+03  0.11517977470E+04 -0.17976234595E+04  0.21385037718E+04  0.12699999809E+01 0.  1.
       -4    1    3    3    0  502 -0.12291711310E+03 -0.11517977470E+04 -0.36133281471E+03  0.12133876885E+04  0.12699999809E+01 0. -1.
</event>
<event>
 5   0  0.3725232E-06  0.2896072E+04  0.7818609E-02  0.8274047E-01
        1   -1    0    0  501    0  0.00000000000E+00  0.00000000000E+00  0.15504587266E+04  0.15504587266E+04  0.50400001928E-02 0. -1.
       -1   -1    0    0    0  501  0.00000000000E+00  0.00000000000E+00 -0.13523793968E+04  0.13523793968E+04  0.50400001928E-02 0.  1.
    10030    2    1    2    0    0  0.00000000000E+00  0.00000000000E+00  0.19807932980E+03  0.29028381234E+04  0.28960721244E+04 0.  0.
        2    1    3    3  502    0 -0.51313468758E+03 -0.43012977032E+03 -0.11878951561E+04  0.13636032153E+04  0.25500000920E-02 0.  1.
       -2    1    3    3    0  502  0.51313468758E+03  0.43012977032E+03  0.13859744859E+04  0.15392349081E+04  0.25500000920E-02 0. -1.
</event>
<event>
 5   0  0.9647945E-06  0.2844097E+04  0.7818609E-02  0.8289707E-01
       -2   -1    0    0    0  501  0.00000000000E+00  0.00000000000E+00  0.13950357062E+04  0.13950357062E+04  0.25500000920E-02 0.  1.
        2   -1    0    0  501    0  0.00000000000E+00  0.00000000000E+00 -0.14495838744E+04  0.14495838744E+04  0.25500000920E-02 0. -1.
    10030    2    1    2    0    0  0.00000000000E+00  0.00000000000E+00 -0.54548168202E+02  0.28446195807E+04  0.28440965272E+04 0.  0.
        2    1    3    3  502    0 -0.12772432506E+04  0.51244999332E+03  0.33093413733E+03  0.14154408218E+04  0.25500000920E-02 0.  1.
       -2    1    3    3    0  502  0.12772432506E+04 -0.51244999332E+03 -0.38548230553E+03  0.14291787588E+04  0.25500000920E-02 0. -1.
</event>
<event>
 5   0  0.3313750E-06  0.1942717E+04  0.7818609E-02  0.8633881E-01
       -3   -1    0    0    0  501  0.00000000000E+00  0.00000000000E+00  0.74095598131E+03  0.74095598819E+03  0.10100000352E+00 0. -1.
        3   -1    0    0  501    0  0.00000000000E+00  0.00000000000E+00 -0.12734051936E+04  0.12734051976E+04  0.10100000352E+00 0.  1.
    10030    2    1    2    0    0  0.00000000000E+00  0.00000000000E+00 -0.53244921233E+03  0.20143611858E+04  0.19427168665E+04 0.  0.
        2    1    3    3  502    0  0.34760365941E+03 -0.22628897123E+03 -0.11769688167E+04  0.12479144995E+04  0.25500000920E-02 0.  1.
       -2    1    3    3    0  502 -0.34760365941E+03  0.22628897123E+03  0.64451960439E+03  0.76644668633E+03  0.25500000920E-02 0. -1.
</event>
<event>
 5   0  0.3852126E-06  0.1843674E+04  0.7818609E-02  0.8683413E-01
       -1   -1    0    0    0  501  0.00000000000E+00  0.00000000000E+00  0.11908528282E+04  0.11908528282E+04  0.50400001928E-02 0. -1.
        1   -1    0    0  501    0  0.00000000000E+00  0.00000000000E+00 -0.71359195717E+03  0.71359195719E+03  0.50400001928E-02 0.  1.
    10030    2    1    2    0    0  0.00000000000E+00  0.00000000000E+00  0.47726087101E+03  0.19044447854E+04  0.18436735073E+04 0.  0.
        1    1    3    3  502    0  0.53284965216E+03 -0.28915814409E+03 -0.47869594684E+03  0.77245776172E+03  0.50400001928E-02 0.  1.
       -1    1    3    3    0  502 -0.53284965216E+03  0.28915814409E+03  0.95595681785E+03  0.11319870237E+04  0.50400001928E-02 0. -1.
</event>
<event>
 5   0  0.3896630E-06  0.2903274E+04  0.7818609E-02  0.8271904E-01
       -1   -1    0    0    0  501  0.00000000000E+00  0.00000000000E+00  0.82167542922E+03  0.82167542923E+03  0.50400001928E-02 0.  1.
        1   -1    0    0  501    0  0.00000000000E+00  0.00000000000E+00 -0.25645770479E+04  0.25645770479E+04  0.50400001928E-02 0. -1.
    10030    2    1    2    0    0  0.00000000000E+00  0.00000000000E+00 -0.17429016187E+04  0.33862524772E+04  0.29032739772E+04 0.  0.
        5    1    3    3  502    0  0.65087566238E+03  0.10792491041E+04 -0.31342025653E+02  0.12607228756E+04  0.46999998093E+01 0.  1.
       -5    1    3    3    0  502 -0.65087566238E+03 -0.10792491041E+04 -0.17115595931E+04  0.21255296016E+04  0.46999998093E+01 0. -1.
</event>
<event>
 5   0  0.9647945E-06  0.2788981E+04  0.7818609E-02  0.8306697E-01
        2   -1    0    0  501    0  0.00000000000E+00  0.00000000000E+00  0.11551978080E+04  0.11551978080E+04  0.25500000920E-02 0. -1.
       -2   -1    0    0    0  501  0.00000000000E+00  0.00000000000E+00 -0.16833516022E+04  0.16833516022E+04  0.25500000920E-02 0.  1.
    10030    2    1    2    0    0  0.00000000000E+00  0.00000000000E+00 -0.52815379416E+03  0.28385494102E+04  0.27889812341E+04 0.  0.
        2    1    3    3  502    0  0.38322623504E+03  0.88971202533E+03  0.75682297248E+03  0.12293212952E+04  0.25500000920E-02 0. -1.
       -2    1    3    3    0  502 -0.38322623504E+03 -0.88971202533E+03 -0.12849767666E+04  0.16092281150E+04  0.25500000920E-02 0.  1.
</event>
<event>
 5   0  0.9647945E-06  0.2981405E+04  0.7818609E-02  0.8249061E-01
        2   -1    0    0  501    0  0.00000000000E+00  0.00000000000E+00  0.17325072190E+04  0.17325072190E+04  0.25500000920E-02 0. -1.
       -2   -1    0    0    0  501  0.00000000000E+00  0.00000000000E+00 -0.12826462226E+04  0.12826462226E+04  0.25500000920E-02 0.  1.
    10030    2    1    2    0    0  0.00000000000E+00  0.00000000000E+00  0.44986099637E+03  0.30151534417E+04  0.29814049307E+04 0.  0.
        2    1    3    3  502    0 -0.12848888690E+04  0.71018245300E+03  0.48649952374E+03  0.15466028284E+04  0.25500000920E-02 0. -1.
       -2    1    3    3    0  502  0.12848888690E+04 -0.71018245300E+03 -0.36638527373E+02  0.14685506133E+04  0.25500000920E-02 0.  1.
</event>
<event>
 5   0  0.3852126E-06  0.2197816E+04  0.7818609E-02  0.8519338E-01
        1   -1    0    0  501    0  0.00000000000E+00  0.00000000000E+00  0.21172139548E+04  0.21172139548E+04  0.50400001928E-02 0.  1.
       -1   -1    0    0    0  501  0.00000000000E+00  0.00000000000E+00 -0.57037139714E+03  0.57037139717E+03  0.50400001928E-02 0. -1.
    10030    2    1    2    0    0  0.00000000000E+00  0.00000000000E+00  0.15468425577E+04  0.26875853520E+04  0.21978155350E+04 0.  0.
        1    1    3    3  502    0 -0.44977067946E+02 -0.73371545978E+02  0.21130868100E+04  0.21148385723E+04  0.50400001928E-02 0.  1.
       -1    1    3    3    0  502  0.44977067946E+02  0.73371545978E+02 -0.56624425228E+03  0.57274677971E+03  0.50400001928E-02 0. -1.
</event>
<event>
 5   0  0.1028450E-05  0.2214136E+04  0.7818609E-02  0.8512567E-01
       -2   -1    0    0    0  501  0.00000000000E+00  0.00000000000E+00  0.74735975505E+03  0.74735975505E+03  0.25500000920E-02 0.  1.
        2   -1    0    0  501    0  0.00000000000E+00  0.00000000000E+00 -0.16399052270E+04  0.16399052270E+04  0.25500000920E-02 0. -1.
    10030    2    1    2    0    0  0.00000000000E+00  0.00000000000E+00 -0.89254547196E+03  0.23872649821E+04  0.22141356497E+04 0.  0.
        3    1    3    3  502    0 -0.51159463711E+03 -0.67013717408E+03  0.32731553033E+03  0.90440498196E+03  0.10100000352E+00 0.  1.
       -3    1    3    3    0  502  0.51159463711E+03  0.67013717408E+03 -0.12198610023E+04  0.14828600001E+04  0.10100000352E+00 0. -1.
</event>
<event>
 5   0  0.1028450E-05  0.2972016E+04  0.7818609E-02  0.8251767E-01
        2   -1    0    0  501    0  0.00000000000E+00  0.00000000000E+00  0.12706649758E+04  0.12706649758E+04  0.25500000920E-02 0.  1.
       -2   -1    0    0    0  501  0.00000000000E+00  0.00000000000E+00 -0.17378452499E+04  0.17378452499E+04  0.25500000920E-02 0. -1.
    10030    2    1    2    0    0  0.00000000000E+00  0.00000000000E+00 -0.46718027411E+03  0.30085102256E+04  0.29720155399E+04 0.  0.
        3    1    3    3  502    0 -0.28049679968E+03 -0.89932187901E+03 -0.13969457752E+04  0.16849082485E+04  0.10100000352E+00 0. -1.
       -3    1    3    3    0  502  0.28049679968E+03  0.89932187901E+03  0.92976550110E+03  0.13236019772E+04  0.10100000352E+00 0.  1.
</event>
<event>
 5   0  0.1057036E-05  0.2982727E+04  0.7818609E-02  0.8248681E-01
       -2   -1    0    0    0  501  0.00000000000E+00  0.00000000000E+00  0.99692212639E+03  0.99692212639E+03  0.25500000920E-02 0. -1.
        2   -1    0    0  501    0  0.00000000000E+00  0.00000000000E+00 -0.22310313911E+04  0.22310313911E+04  0.25500000920E-02 0.  1.
    10030    2    1    2    0    0  0.00000000000E+00  0.00000000000E+00 -0.12341092647E+04  0.32279535175E+04  0.29827266442E+04 0.  0.
        4    1    3    3  502    0  0.97863365626E+03 -0.62202157107E+03 -0.16319907836E+04  0.20020065431E+04  0.12699999809E+01 0. -1.
       -4    1    3    3    0  502 -0.97863365626E+03  0.62202157107E+03  0.39788151888E+03  0.12259469744E+04  0.12699999809E+01 0.  1.
</event>
<event>
 5   0  0.3636718E-06  0.2303349E+04  0.7818609E-02  0.8476602E-01
       -1   -1    0    0    0  501  0.00000000000E+00  0.00000000000E+00  0.11892120275E+04  0.11892120276E+04  0.50400001928E-02 0.  1.
        1   -1    0    0  501    0  0.00000000000E+00  0.00000000000E+00 -0.11153219255E+04  0.11153219255E+04  0.50400001928E-02 0. -1.
    10030    2    1    2    0    0  0.00000000000E+00  0.00000000000E+00  0.73890102025E+02  0.23045339531E+04  0.23033490821E+04 0.  0.
        4    1    3    3  502    0 -0.96451228832E+03 -0.53561091199E+03 -0.29366347587E+03  0.11416666998E+04  0.12699999809E+01 0. -1.
       -4    1    3    3    0  502  0.96451228832E+03  0.53561091199E+03  0.36755357790E+03  0.11628672533E+04  0.12699999809E+01 0.  1.
</event>
<event>
 5   0  0.3636718E-06  0.3052348E+04  0.7818609E-02  0.8228938E-01
        1   -1    0    0  501    0  0.00000000000E+00  0.00000000000E+00  0.12004861462E+04  0.12004861462E+04  0.50400001928E-02 0.  1.
       -1   -1    0    0    0  501  0.00000000000E+00  0.00000000000E+00 -0.19402204352E+04  0.19402204352E+04  0.50400001928E-02 0. -1.
    10030    2    1    2    0    0  0.00000000000E+00  0.00000000000E+00 -0.73973428903E+03  0.31407065814E+04  0.30523484422E+04 0.  0.
        4    1    3    3  502    0 -0.11913953504E+04  0.85358561390E+01  0.61153010134E+03  0.13392036513E+04  0.12699999809E+01 0.  1.
       -4    1    3    3    0  502  0.11913953504E+04 -0.85358561390E+01 -0.13512643904E+04  0.18015029302E+04  0.12699999809E+01 0. -1.
</event>
<event>
 5   0  0.1089569E-05  0.3000011E+04  0.7818609E-02  0.8243728E-01
       -2   -1    0    0    0  501  0.00000000000E+00  0.00000000000E+00  0.13433999379E+04  0.13433999379E+04  0.25500000920E-02 0.  1.
        2   -1    0    0  501    0  0.00000000000E+00  0.00000000000E+00 -0.16748669551E+04  0.16748669551E+04  0.25500000920E-02 0. -1.
    10030    2    1    2    0    0  0.00000000000E+00  0.00000000000E+00 -0.33146701724E+03  0.30182668930E+04  0.30000107756E+04 0.  0.
        5    1    3    3  502    0 -0.28385780454E+03 -0.29825507710E+03  0.12854248087E+04  0.13497667847E+04  0.46999998093E+01 0.  1.
       -5    1    3    3    0  502  0.28385780454E+03  0.29825507710E+03 -0.16168918260E+04  0.16685001082E+04  0.46999998093E+01 0. -1.
</event>
<event>
 5   0  0.3636718E-06  0.3025141E+04  0.7818609E-02  0.8236588E-01
        1   -1    0    0  501    0  0.00000000000E+00  0.00000000000E+00  0.89140529846E+03  0.89140529847E+03  0.50400001928E-02 0.  1.
       -1   -1    0    0    0  501  0.00000000000E+00  0.00000000000E+00 -0.25665879828E+04  0.25665879828E+04  0.50400001928E-02 0. -1.
    10030    2    1    2    0    0  0.00000000000E+00  0.00000000000E+00 -0.16751826843E+04  0.34579932813E+04  0.30251414029E+04 0.  0.
        4    1    3    3  502    0 -0.11217291287E+04 -0.73936545310E+03 -0.16319580033E+04  0.21138178845E+04  0.12699999809E+01 0. -1.
       -4    1    3    3    0  502  0.11217291287E+04  0.73936545310E+03 -0.43224680996E+02  0.13441753968E+04  0.12699999809E+01 0.  1.
</event>
<event>
 5   0  0.1028450E-05  0.2990151E+04  0.7818609E-02  0.8246549E-01
        2   -1    0    0  501    0  0.00000000000E+00  0.00000000000E+00  0.27228807310E+04  0.27228807310E+04  0.25500000920E-02 0. -1.
       -2   -1    0    0    0  501  0.00000000000E+00  0.00000000000E+00 -0.82091413377E+03  0.82091413377E+03  0.25500000920E-02 0.  1.
    10030    2    1    2    0    0  0.00000000000E+00  0.00000000000E+00  0.19019665972E+04  0.35437948648E+04  0.29901513518E+04 0.  0.
        3    1    3    3  502    0  0.11616525425E+04  0.14649963133E+03  0.20528291682E+04  0.23632618085E+04  0.10100000352E+00 0. -1.
       -3    1    3    3    0  502 -0.11616525425E+04 -0.14649963133E+03 -0.15086257094E+03  0.11805330563E+04  0.10100000352E+00 0.  1.
</event>
<event>
 5   0  0.1089569E-05  0.2861974E+04  0.7818609E-02  0.8284282E-01
        2   -1    0    0  501    0  0.00000000000E+00  0.00000000000E+00  0.24196710412E+04  0.24196710412E+04  0.25500000920E-02 0.  1.
       -2   -1    0    0    0  501  0.00000000000E+00  0.00000000000E+00 -0.84628204027E+03  0.84628204027E+03  0.25500000920E-02 0. -1.
    10030    2    1    2    0    0  0.00000000000E+00  0.00000000000E+00  0.15733890010E+04  0.32659530815E+04  0.28619742455E+04 0.  0.
        5    1    3    3  502    0  0.51636922325E+03  0.65426568294E+03  0.21140685614E+04  0.22724455397E+04  0.46999998093E+01 0.  1.
       -5    1    3    3    0  502 -0.51636922325E+03 -0.65426568294E+03 -0.54067956042E+03  0.99350754182E+03  0.46999998093E+01 0. -1.
</event>
<event>
 5   0  0.3636718E-06  0.2966768E+04  0.7818609E-02  0.8253285E-01
        1   -1    0    0  501    0  0.00000000000E+00  0.00000000000E+00  0.26406984432E+04  0.26406984432E+04  0.50400001928E-02 0. -1.
       -1   -1    0    0    0  501  0.00000000000E+00  0.00000000000E+00 -0.83327509648E+03  0.83327509650E+03  0.50400001928E-02 0.  1.
    10030    2    1    2    0    0  0.00000000000E+00  0.00000000000E+00  0.18074233467E+04  0.34739735397E+04  0.29667681069E+04 0.  0.
        4    1    3    3  502    0  0.37468853504E+03 -0.12662131768E+04  0.11234617938E+03  0.13252586858E+04  0.12699999809E+01 0.  1.
       -4    1    3    3    0  502 -0.37468853504E+03  0.12662131768E+04  0.16950771674E+04  0.21487148539E+04  0.12699999809E+01 0. -1.
</event>
<event>
 5   0  0.3592331E-06  0.2959799E+04  0.7818609E-02  0.8255304E-01
        1   -1    0    0  501    0  0.00000000000E+00  0.00000000000E+00  0.11756993284E+04  0.11756993285E+04  0.50400001928E-02 0.  1.
       -1   -1    0    0    0  501  0.00000000000E+00  0.00000000000E+00 -0.18628088173E+04  0.18628088173E+04  0.50400001928E-02 0. -1.
    10030    2    1    2    0    0  0.00000000000E+00  0.00000000000E+00 -0.68710948888E+03  0.30385081458E+04  0.29597993686E+04 0.  0.
        3    1    3    3  502    0 -0.74240411733E+03  0.12678077217E+04 -0.16105564487E+03  0.14779848523E+04  0.10100000352E+00 0. -1.
       -3    1    3    3    0  502  0.74240411733E+03 -0.12678077217E+04 -0.52605384401E+03  0.15605232935E+04  0.10100000352E+00 0.  1.
</event>
<event>
 5   0  0.3636718E-06  0.3013811E+04  0.7818609E-02  0.8239798E-01
       -1   -1    0    0    0  501  0.00000000000E+00  0.00000000000E+00  0.11801989728E+04  0.11801989728E+04  0.50400001928E-02 0. -1.
        1   -1    0    0  501    0  0.00000000000E+00  0.00000000000E+00 -0.19240514445E+04  0.19240514446E+04  0.50400001928E-02 0.  1.
    10030    2    1    2    0    0  0.00000000000E+00  0.00000000000E+00 -0.74385247179E+03  0.31042504173E+04  0.30138105703E+04 0.  0.
        4    1    3    3  502    0 -0.13345818322E+04 -0.39119090039E+03  0.22567659971E+03  0.14089253096E+04  0.12699999809E+01 0. -1.
       -4    1    3    3    0  502  0.13345818322E+04  0.39119090039E+03 -0.96952907150E+03  0.16953251077E+04  0.12699999809E+01 0.  1.
</event>
<event>
 5   0  0.1089569E-05  0.2907583E+04  0.7818609E-02  0.8270625E-01
        2   -1    0    0  501    0  0.00000000000E+00  0.00000000000E+00  0.12086940025E+04  0.12086940025E+04  0.25500000920E-02 0.  1.
       -2   -1    0    0    0  501  0.00000000000E+00  0.00000000000E+00 -0.17485892970E+04  0.17485892970E+04  0.25500000920E-02 0. -1.
    10030    2    1    2    0    0  0.00000000000E+00  0.00000000000E+00 -0.53989529451E+03  0.29572832995E+04  0.29075827735E+04 0.  0.
        5    1    3    3  502    0 -0.13717442163E+04 -0.19389864390E+03  0.17827611764E+03  0.13968118496E+04  0.46999998093E+01 0. -1.
       -5    1    3    3    0  502  0.13717442163E+04  0.19389864390E+03 -0.71817141215E+03  0.15604714500E+04  0.46999998093E+01 0.  1.
</event>
<event>
 5   0  0.3636718E-06  0.3020291E+04  0.7818609E-02  0.8237960E-01
        1   -1    0    0  501    0  0.00000000000E+00  0.00000000000E+00  0.22226582958E+04  0.22226582958E+04  0.50400001928E-02 0.  1.
       -1   -1    0    0    0  501  0.00000000000E+00  0.00000000000E+00 -0.10260414960E+04  0.10260414960E+04  0.50400001928E-02 0. -1.
    10030    2    1    2    0    0  0.00000000000E+00  0.00000000000E+00  0.11966167998E+04  0.32486997918E+04  0.30202911402E+04 0.  0.
        4    1    3    3  502    0  0.42748528928E+03 -0.14467686438E+04  0.67169445783E+03  0.16513807068E+04  0.12699999809E+01 0. -1.
       -4    1    3    3    0  502 -0.42748528928E+03  0.14467686438E+04  0.52492234192E+03  0.15973190850E+04  0.12699999809E+01 0.  1.
</event>
<event>
 5   0  0.3725232E-06  0.1943609E+04  0.7818609E-02  0.8633449E-01
        1   -1    0    0  501    0  0.00000000000E+00  0.00000000000E+00  0.10707985504E+04  0.10707985504E+04  0.50400001928E-02 0.  1.
       -1   -1    0    0    0  501  0.00000000000E+00  0.00000000000E+00 -0.88196250228E+03  0.88196250230E+03  0.50400001928E-02 0. -1.
    10030    2    1    2    0    0  0.00000000000E+00  0.00000000000E+00  0.18883604811E+03  0.19527610527E+04  0.19436091881E+04 0.  0.
        2    1    3    3  502    0  0.63238910698E+03  0.10039753512E+03  0.82889273739E+03  0.10474057560E+04  0.25500000920E-02 0.  1.
       -2    1    3    3    0  502 -0.63238910698E+03 -0.10039753512E+03 -0.64005668928E+03  0.90535529666E+03  0.25500000920E-02 0. -1.
</event>
<event>
 5   0  0.3313750E-06  0.2658171E+04  0.7818609E-02  0.8348706E-01
       -3   -1    0    0    0  501  0.00000000000E+00  0.00000000000E+00  0.12721039096E+04  0.12721039136E+04  0.10100000352E+00 0. -1.
        3   -1    0    0  501    0  0.00000000000E+00  0.00000000000E+00 -0.13886192831E+04  0.13886192868E+04  0.10100000352E+00 0.  1.
    10030    2    1    2    0    0  0.00000000000E+00  0.00000000000E+00 -0.11651537350E+03  0.26607232004E+04  0.26581708216E+04 0.  0.
        2    1    3    3  502    0  0.15554765819E+03 -0.23852526581E+02  0.12627458676E+04  0.12725137104E+04  0.25500000920E-02 0. -1.
       -2    1    3    3    0  502 -0.15554765819E+03  0.23852526581E+02 -0.13792612411E+04  0.13882094900E+04  0.25500000920E-02 0.  1.
</event>
<event>
 5   0  0.9647945E-06  0.3014938E+04  0.7818609E-02  0.8239478E-01
       -2   -1    0    0    0  501  0.00000000000E+00  0.00000000000E+00  0.14364716763E+04  0.14364716763E+04  0.25500000920E-02 0.  1.
        2   -1    0    0  501    0  0.00000000000E+00  0.00000000000E+00 -0.15819748311E+04  0.15819748311E+04  0.25500000920E-02 0. -1.
    10030    2    1    2    0    0  0.00000000000E+00  0.00000000000E+00 -0.14550315483E+03  0.30184465074E+04  0.30149375035E+04 0.  0.
        2    1    3    3  502    0 -0.13390840363E+04 -0.16654970303E+03  0.60002546300E+03  0.14767922725E+04  0.25500000920E-02 0.  1.
       -2    1    3    3    0  502  0.13390840363E+04  0.16654970303E+03 -0.74552861783E+03  0.15416542349E+04  0.25500000920E-02 0. -1.
</event>
<event>
 5   0  0.1057036E-05  0.2007691E+04  0.7818609E-02  0.8603033E-01
       -2   -1    0    0    0  501  0.00000000000E+00  0.00000000000E+00  0.64232521370E+03  0.64232521370E+03  0.25500000920E-02 0.  1.
        2   -1    0    0  501    0  0.00000000000E+00  0.00000000000E+00 -0.15688401798E+04  0.15688401798E+04  0.25500000920E-02 0. -1.
    10030    2    1    2    0    0  0.00000000000E+00  0.00000000000E+00 -0.92651496610E+03  0.22111653935E+04  0.20076908166E+04 0.  0.
        4    1    3    3  502    0  0.17102419511E+03  0.10041852467E+03  0.62053278479E+03  0.65145660279E+03  0.12699999809E+01 0.  1.
       -4    1    3    3    0  502 -0.17102419511E+03 -0.10041852467E+03 -0.15470477509E+04  0.15597087907E+04  0.12699999809E+01 0. -1.
</event>
<event>
 5   0  0.1028450E-05  0.2978899E+04  0.7818609E-02  0.8249782E-01
        2   -1    0    0  501    0  0.00000000000E+00  0.00000000000E+00  0.17930599201E+04  0.17930599201E+04  0.25500000920E-02 0.  1.
       -2   -1    0    0    0  501  0.00000000000E+00  0.00000000000E+00 -0.12372482964E+04  0.12372482964E+04  0.25500000920E-02 0. -1.
    10030    2    1    2    0    0  0.00000000000E+00  0.00000000000E+00  0.55581162373E+03  0.30303082165E+04  0.29788993481E+04 0.  0.
        3    1    3    3  502    0  0.14452980732E+03 -0.81526793497E+02 -0.12278159023E+04  0.12389783627E+04  0.10100000352E+00 0. -1.
       -3    1    3    3    0  502 -0.14452980732E+03  0.81526793497E+02  0.17836275260E+04  0.17913298538E+04  0.10100000352E+00 0.  1.
</event>
<event>
 5   0  0.3852126E-06  0.2257840E+04  0.7818609E-02  0.8494732E-01
       -1   -1    0    0    0  501  0.00000000000E+00  0.00000000000E+00  0.59874998386E+03  0.59874998388E+03  0.50400001928E-02 0. -1.
        1   -1    0    0  501    0  0.00000000000E+00  0.00000000000E+00 -0.21285356176E+04  0.21285356176E+04  0.50400001928E-02 0.  1.
    10030    2    1    2    0    0  0.00000000000E+00  0.00000000000E+00 -0.15297856338E+04  0.27272856015E+04  0.22578402660E+04 0.  0.
        1    1    3    3  502    0 -0.47052833634E+02 -0.91160766575E+03 -0.15672432584E+04  0.18136962085E+04  0.50400001928E-02 0.  1.
       -1    1    3    3    0  502  0.47052833634E+02  0.91160766575E+03  0.37457624691E+02  0.91358939305E+03  0.50400001928E-02 0. -1.
</event>
<event>
 5   0  0.3592331E-06  0.2850515E+04  0.7818609E-02  0.8287755E-01
        1   -1    0    0  501    0  0.00000000000E+00  0.00000000000E+00  0.12021593806E+04  0.12021593806E+04  0.50400001928E-02 0. -1.
       -1   -1    0    0    0  501  0.00000000000E+00  0.00000000000E+00 -0.16897588719E+04  0.16897588719E+04  0.50400001928E-02 0.  1.
    10030    2    1    2    0    0  0.00000000000E+00  0.00000000000E+00 -0.48759949132E+03  0.28919182524E+04  0.28505153771E+04 0.  0.
        3    1    3    3  502    0  0.40055845820E+03  0.18891330142E+03  0.11305813804E+04  0.12142279777E+04  0.10100000352E+00 0. -1.
       -3    1    3    3    0  502 -0.40055845820E+03 -0.18891330142E+03 -0.16181808718E+04  0.16776902747E+04  0.10100000352E+00 0.  1.
</event>
<event>
 5   0  0.3896630E-06  0.3028029E+04  0.7818609E-02  0.8235772E-01
       -1   -1    0    0    0  501  0.00000000000E+00  0.00000000000E+00  0.99487960828E+03  0.99487960829E+03  0.50400001928E-02 0.  1.
        1   -1    0    0  501    0  0.00000000000E+00  0.00000000000E+00 -0.23040369109E+04  0.23040369109E+04  0.50400001928E-02 0. -1.
    10030    2    1    2    0    0  0.00000000000E+00  0.00000000000E+00 -0.13091573026E+04  0.32989165192E+04  0.30280286256E+04 0.  0.
        5    1    3    3  502    0 -0.12587405891E+04 -0.13644257640E+03 -0.15590095980E+04  0.20083768232E+04  0.46999998093E+01 0. -1.
       -5    1    3    3    0  502  0.12587405891E+04  0.13644257640E+03  0.24985229543E+03  0.12905396960E+04  0.46999998093E+01 0.  1.
</event>
<event>
 5   0  0.3896630E-06  0.2997773E+04  0.7818609E-02  0.8244367E-01
        1   -1    0    0  501    0  0.00000000000E+00  0.00000000000E+00  0.10539827728E+04  0.10539827728E+04  0.50400001928E-02 0. -1.
       -1   -1    0    0    0  501  0.00000000000E+00  0.00000000000E+00 -0.21315918332E+04  0.21315918332E+04  0.50400001928E-02 0.  1.
    10030    2    1    2    0    0  0.00000000000E+00  0.00000000000E+00 -0.10776090604E+04  0.31855746059E+04  0.29977732207E+04 0.  0.
        5    1    3    3  502    0 -0.98234467003E+03  0.41479950204E+03  0.58055133343E+03  0.12141341023E+04  0.46999998093E+01 0. -1.
       -5    1    3    3    0  502  0.98234467003E+03 -0.41479950204E+03 -0.16581603939E+04  0.19714405036E+04  0.46999998093E+01 0.  1.
</event>
<event>
 5   0  0.9647945E-06  0.2981688E+04  0.7818609E-02  0.8248979E-01
        2   -1    0    0  501    0  0.00000000000E+00  0.00000000000E+00  0.15815431329E+04  0.15815431329E+04  0.25500000920E-02 0. -1.
       -2   -1    0    0    0  501  0.00000000000E+00  0.00000000000E+00 -0.14053459760E+04  0.14053459760E+04  0.25500000920E-02 0.  1.
    10030    2    1    2    0    0  0.00000000000E+00  0.00000000000E+00  0.17619715684E+03  0.29868891089E+04  0.29816876279E+04 0.  0.
        2    1    3    3  502    0 -0.79871222426E+03 -0.30555985800E+03 -0.11352226671E+04  0.14212806014E+04  0.25500000920E-02 0.  1.
       -2    1    3    3    0  502  0.79871222426E+03  0.30555985800E+03  0.13114198239E+04  0.15656085075E+04  0.25500000920E-02 0. -1.
</event>
<event>
 5   0  0.9647945E-06  0.3007616E+04  0.7818609E-02  0.8241560E-01
        2   -1    0    0  501    0  0.00000000000E+00  0.00000000000E+00  0.19008409027E+04  0.19008409027E+04  0.25500000920E-02 0.  1.
       -2   -1    0    0    0  501  0.00000000000E+00  0.00000000000E+00 -0.11897039942E+04  0.11897039942E+04  0.25500000920E-02 0. -1.
    10030    2    1    2    0    0  0.00000000000E+00  0.00000000000E+00  0.71113690848E+03  0.30905448969E+04  0.30076156764E+04 0.  0.
        2    1    3    3  502    0 -0.72421813909E+03  0.12998489436E+04  0.13199437293E+03  0.14938278695E+04  0.25500000920E-02 0. -1.
       -2    1    3    3    0  502  0.72421813909E+03 -0.12998489436E+04  0.57914253555E+03  0.15967170274E+04  0.25500000920E-02 0.  1.
</event>
<event>
 5   0  0.3592331E-06  0.2939868E+04  0.7818609E-02  0.8261113E-01
        1   -1    0    0  501    0  0.00000000000E+00  0.00000000000E+00  0.17613324323E+04  0.17613324323E+04  0.50400001928E-02 0. -1.
       -1   -1    0    0    0  501  0.00000000000E+00  0.00000000000E+00 -0.12267454427E+04  0.12267454427E+04  0.50400001928E-02 0.  1.
    10030    2    1    2    0    0  0.00000000000E+00  0.00000000000E+00  0.53458698957E+03  0.29880778750E+04  0.29398683878E+04 0.  0.
        3    1    3    3  502    0  0.10910496102E+03  0.77772501034E+03  0.15302259927E+04  0.17199859544E+04  0.10100000352E+00 0. -1.
       -3    1    3    3    0  502 -0.10910496102E+03 -0.77772501034E+03 -0.99563900315E+03  0.12680919206E+04  0.10100000352E+00 0.  1.
</event>
<event>
 5   0  0.3852126E-06  0.2699282E+04  0.7818609E-02  0.8335238E-01
       -1   -1    0    0    0  501  0.00000000000E+00  0.00000000000E+00  0.69428885597E+03  0.69428885599E+03  0.50400001928E-02 0. -1.
        1   -1    0    0  501    0  0.00000000000E+00  0.00000000000E+00 -0.26235917641E+04  0.26235917641E+04  0.50400001928E-02 0.  1.
    10030    2    1    2    0    0  0.00000000000E+00  0.00000000000E+00 -0.19293029082E+04  0.33178806201E+04  0.26992817745E+04 0.  0.
        1    1    3    3  502    0 -0.11393678887E+04 -0.48174035126E+03 -0.30124305409E+03  0.12731772577E+04  0.50400001928E-02 0. -1.
       -1    1    3    3    0  502  0.11393678887E+04  0.48174035126E+03 -0.16280598541E+04  0.20447033624E+04  0.50400001928E-02 0.  1.
</event>
<event>
 5   0  0.1028450E-05  0.3040288E+04  0.7818609E-02  0.8232319E-01
        2   -1    0    0  501    0  0.00000000000E+00  0.00000000000E+00  0.95171992015E+03  0.95171992015E+03  0.25500000920E-02 0. -1.
       -2   -1    0    0    0  501  0.00000000000E+00  0.00000000000E+00 -0.24280649320E+04  0.24280649320E+04  0.25500000920E-02 0.  1.
    10030    2    1    2    0    0  0.00000000000E+00  0.00000000000E+00 -0.14763450119E+04  0.33797848522E+04  0.30402879885E+04 0.  0.
        3    1    3    3  502    0 -0.84439343747E+03 -0.12298909013E+04 -0.41367674341E+03  0.15481473975E+04  0.10100000352E+00 0. -1.
       -3    1    3    3    0  502  0.84439343747E+03  0.12298909013E+04 -0.10626682685E+04  0.18316374546E+04  0.10100000352E+00 0.  1.
</event>
<event>
 5   0  0.1089569E-05  0.2003104E+04  0.7818609E-02  0.8605171E-01
        2   -1    0    0  501    0  0.00000000000E+00  0.00000000000E+00  0.30345043634E+04  0.30345043634E+04  0.25500000920E-02 0. -1.
       -2   -1    0    0    0  501  0.00000000000E+00  0.00000000000E+00 -0.33056680143E+03  0.33056680144E+03  0.25500000920E-02 0.  1.
    10030    2    1    2    0    0  0.00000000000E+00  0.00000000000E+00  0.27039375619E+04  0.33650711648E+04  0.20031039926E+04 0.  0.
        5    1    3    3  502    0  0.17425807206E+03  0.63752597095E+03  0.87797230862E+02  0.66673509211E+03  0.46999998093E+01 0.  1.
       -5    1    3    3    0  502 -0.17425807206E+03 -0.63752597095E+03  0.26161403311E+04  0.26983360727E+04  0.46999998093E+01 0. -1.
</event>
<event>
 5   0  0.3725232E-06  0.3211800E+04  0.7818609E-02  0.8185708E-01
        1   -1    0    0  501    0  0.00000000000E+00  0.00000000000E+00  0.17573253042E+04  0.17573253042E+04  0.50400001928E-02 0.  1.
       -1   -1    0    0    0  501  0.00000000000E+00  0.00000000000E+00 -0.14675231500E+04  0.14675231500E+04  0.50400001928E-02 0. -1.
    10030    2    1    2    0    0  0.00000000000E+00  0.00000000000E+00  0.28980215428E+03  0.32248484542E+04  0.32118004708E+04 0.  0.
        2    1    3    3  502    0  0.10367520392E+04  0.12262433030E+04  0.12511984440E+03  0.16106465796E+04  0.25500000920E-02 0.  1.
       -2    1    3    3    0  502 -0.10367520392E+04 -0.12262433030E+04  0.16468230988E+03  0.16142018746E+04  0.25500000920E-02 0. -1.
</event>
<event>
 5   0  0.3725232E-06  0.3023314E+04  0.7818609E-02  0.8237105E-01
        1   -1    0    0  501    0  0.00000000000E+00  0.00000000000E+00  0.12616303798E+04  0.12616303798E+04  0.50400001928E-02 0.  1.
       -1   -1    0    0    0  501  0.00000000000E+00  0.00000000000E+00 -0.18112326695E+04  0.18112326695E+04  0.50400001928E-02 0. -1.
    10030    2    1    2    0    0  0.00000000000E+00  0.00000000000E+00 -0.54960228972E+03  0.30728630494E+04  0.30233135205E+04 0.  0.
        2    1    3    3  502    0 -0.17542706081E+03 -0.35467587557E+03 -0.17576625879E+04  0.18016512990E+04  0.25500000920E-02 0. -1.
       -2    1    3    3    0  502  0.17542706081E+03  0.35467587557E+03  0.12080602981E+04  0.12712117504E+04  0.25500000920E-02 0.  1.
</event>
<event>
 5   0  0.3592331E-06  0.2954769E+04  0.7818609E-02  0.8256766E-01
        1   -1    0    0  501    0  0.00000000000E+00  0.00000000000E+00  0.24927228666E+04  0.24927228667E+04  0.50400001928E-02 0.  1.
       -1   -1    0    0    0  501  0.00000000000E+00  0.00000000000E+00 -0.87561496376E+03  0.87561496378E+03  0.50400001928E-02 0. -1.
    10030    2    1    2    0    0  0.00000000000E+00  0.00000000000E+00  0.16171079029E+04  0.33683378304E+04  0.29547693261E+04 0.  0.
        3    1    3    3  502    0 -0.71310834256E+03 -0.24426297957E+03 -0.63991123782E+03  0.98877414707E+03  0.10100000352E+00 0. -1.
       -3    1    3    3    0  502  0.71310834256E+03  0.24426297957E+03  0.22570191407E+04  0.23795636834E+04  0.10100000352E+00 0.  1.
</event>
<event>
 5   0  0.1028450E-05  0.1970813E+04  0.7818609E-02  0.8620389E-01
       -2   -1    0    0    0  501  0.00000000000E+00  0.00000000000E+00  0.55843244676E+03  0.55843244676E+03  0.25500000920E-02 0.  1.
        2   -1    0    0  501    0  0.00000000000E+00  0.00000000000E+00 -0.17388430392E+04  0.17388430392E+04  0.25500000920E-02 0. -1.
    10030    2    1    2    0    0  0.00000000000E+00  0.00000000000E+00 -0.11804105925E+04  0.22972754860E+04  0.19708134087E+04 0.  0.
        3    1    3    3  502    0  0.23561172825E+03  0.22103076319E+03 -0.16753600194E+04  0.17062235169E+04  0.10100000352E+00 0. -1.
       -3    1    3    3    0  502 -0.23561172825E+03 -0.22103076319E+03  0.49494942693E+03  0.59105196911E+03  0.10100000352E+00 0.  1.
</event>
<event>
 5   0  0.3896630E-06  0.1919739E+04  0.7818609E-02  0.8645093E-01
       -1   -1    0    0    0  501  0.00000000000E+00  0.00000000000E+00  0.38779526070E+03  0.38779526074E+03  0.50400001928E-02 0. -1.
        1   -1    0    0  501    0  0.00000000000E+00  0.00000000000E+00 -0.23758666148E+04  0.23758666148E+04  0.50400001928E-02 0.  1.
    10030    2    1    2    0    0  0.00000000000E+00  0.00000000000E+00 -0.19880713541E+04  0.27636618756E+04  0.19197393712E+04 0.  0.
        5    1    3    3  502    0  0.41592617183E+02 -0.27455837679E+03  0.32868849536E+03  0.43031437932E+03  0.46999998093E+01 0. -1.
       -5    1    3    3    0  502 -0.41592617183E+02  0.27455837679E+03 -0.23167598495E+04  0.23333474963E+04  0.46999998093E+01 0.  1.
</event>
<event>
 5   0  0.3636718E-06  0.2960362E+04  0.7818609E-02  0.8255141E-01
        1   -1    0    0  501    0  0.00000000000E+00  0.00000000000E+00  0.26395766395E+04  0.26395766395E+04  0.50400001928E-02 0. -1.
       -1   -1    0    0    0  501  0.00000000000E+00  0.00000000000E+00 -0.83003297098E+03  0.83003297100E+03  0.50400001928E-02 0.  1.
    10030    2    1    2    0    0  0.00000000000E+00  0.00000000000E+00  0.18095436685E+04  0.34696096105E+04  0.29603618969E+04 0.  0.
        4    1    3    3  502    0  0.13601833444E+04  0.16106673824E+03  0.24708799029E+03  0.13917957151E+04  0.12699999809E+01 0.  1.
       -4    1    3    3    0  502 -0.13601833444E+04 -0.16106673824E+03  0.15624556782E+04  0.20778138954E+04  0.12699999809E+01 0. -1.
</event>
<event>
 5   0  0.1028450E-05  0.3088159E+04  0.7818609E-02  0.8218995E-01
        2   -1    0    0  501    0  0.00000000000E+00  0.00000000000E+00  0.25807444744E+04  0.25807444744E+04  0.25500000920E-02 0.  1.
       -2   -1    0    0    0  501  0.00000000000E+00  0.00000000000E+00 -0.92383507729E+03  0.92383507730E+03  0.25500000920E-02 0. -1.
    10030    2    1    2    0    0  0.00000000000E+00  0.00000000000E+00  0.16569093971E+04  0.35045795517E+04  0.30881594978E+04 0.  0.
        3    1    3    3  502    0  0.49809552925E+03  0.93480780800E+03 -0.44652506793E+03  0.11494996480E+04  0.10100000352E+00 0. -1.
       -3    1    3    3    0  502 -0.49809552925E+03 -0.93480780800E+03  0.21034344651E+04  0.23550799038E+04  0.10100000352E+00 0.  1.
</event>
<event>
 5   0  0.1089569E-05  0.2917973E+04  0.7818609E-02  0.8267550E-01
       -2   -1    0    0    0  501  0.00000000000E+00  0.00000000000E+00  0.17159155432E+04  0.17159155432E+04  0.25500000920E-02 0.  1.
        2   -1    0    0  501    0  0.00000000000E+00  0.00000000000E+00 -0.12405281460E+04  0.12405281460E+04  0.25500000920E-02 0. -1.
    10030    2    1    2    0    0  0.00000000000E+00  0.00000000000E+00  0.47538739714E+03  0.29564436892E+04  0.29179729454E+04 0.  0.
        5    1    3    3  502    0 -0.10821384072E+02 -0.13731211140E+04 -0.26179755904E+03  0.13979051284E+04  0.46999998093E+01 0. -1.
       -5    1    3    3    0  502  0.10821384072E+02  0.13731211140E+04  0.73718495618E+03  0.15585385608E+04  0.46999998093E+01 0.  1.
</event>
<event>
 5   0  0.1089569E-05  0.2972505E+04  0.7818609E-02  0.8251626E-01
        2   -1    0    0  501    0  0.00000000000E+00  0.00000000000E+00  0.68864942753E+03  0.68864942753E+03  0.25500000920E-02 0. -1.
       -2   -1    0    0    0  501  0.00000000000E+00  0.00000000000E+00 -0.32076499813E+04  0.32076499813E+04  0.25500000920E-02 0.  1.
    10030    2    1    2    0    0  0.00000000000E+00  0.00000000000E+00 -0.25190005538E+04  0.38962994089E+04  0.29725048854E+04 0.  0.
        5    1    3    3  502    0 -0.15766609788E+03 -0.12907313877E+03  0.67024442438E+03  0.70054846512E+03  0.46999998093E+01 0. -1.
       -5    1    3    3    0  502  0.15766609788E+03  0.12907313877E+03 -0.31892449782E+04  0.31957509437E+04  0.46999998093E+01 0.  1.
</event>
<event>
 5   0  0.1089569E-05  0.3013349E+04  0.7818609E-02  0.8239929E-01
       -2   -1    0    0    0  501  0.00000000000E+00  0.00000000000E+00  0.12056666710E+04  0.12056666710E+04  0.25500000920E-02 0.  1.
        2   -1    0    0  501    0  0.00000000000E+00  0.00000000000E+00 -0.18828319607E+04  0.18828319607E+04  0.25500000920E-02 0. -1.
    10030    2    1    2    0    0  0.00000000000E+00  0.00000000000E+00 -0.67716528963E+03  0.30884986317E+04  0.30133487964E+04 0.  0.
        5    1    3    3  502    0  0.62204539574E+03 -0.13640777490E+04 -0.49197144060E+03  0.15778804036E+04  0.46999998093E+01 0. -1.
       -5    1    3    3    0  502 -0.62204539574E+03  0.13640777490E+04 -0.18519384903E+03  0.15106182282E+04  0.46999998093E+01 0.  1.
</event>
<event>
 5   0  0.9647945E-06  0.3017726E+04  0.7818609E-02  0.8238687E-01
        2   -1    0    0  501    0  0.00000000000E+00  0.00000000000E+00  0.25234666910E+04  0.25234666910E+04  0.25500000920E-02 0. -1.
       -2   -1    0    0    0  501  0.00000000000E+00  0.00000000000E+00 -0.90219816973E+03  0.90219816973E+03  0.25500000920E-02 0.  1.
    10030    2    1    2    0    0  0.00000000000E+00  0.00000000000E+00  0.16212685213E+04  0.34256648608E+04  0.30177256536E+04 0.  0.
        2    1    3    3  502    0  0.49696189276E+03  0.88915418434E+02 -0.80347576619E+03  0.94892064017E+03  0.25500000920E-02 0.  1.
       -2    1    3    3    0  502 -0.49696189276E+03 -0.88915418434E+02  0.24247442875E+04  0.24767442206E+04  0.25500000920E-02 0. -1.
</event>
<event>
 5   0  0.1057036E-05  0.2961836E+04  0.7818609E-02  0.8254713E-01
        2   -1    0    0  501    0  0.00000000000E+00  0.00000000000E+00  0.63632501086E+03  0.63632501087E+03  0.25500000920E-02 0. -1.
       -2   -1    0    0    0  501  0.00000000000E+00  0.00000000000E+00 -0.34465384119E+04  0.34465384119E+04  0.25500000920E-02 0.  1.
    10030    2    1    2    0    0  0.00000000000E+00  0.00000000000E+00 -0.28102134010E+04  0.40828634228E+04  0.29618363172E+04 0.  0.
        4    1    3    3  502    0 -0.37195407499E+03 -0.90982007890E+03  0.12184436285E+03  0.99043933259E+03  0.12699999809E+01 0. -1.
       -4    1    3    3    0  502  0.37195407499E+03  0.90982007890E+03 -0.29320577639E+04  0.30924240902E+04  0.12699999809E+01 0.  1.
</event>
<event>
 5   0  0.1089569E-05  0.2978692E+04  0.7818609E-02  0.8249842E-01
        2   -1    0    0  501    0  0.00000000000E+00  0.00000000000E+00  0.23351167563E+04  0.23351167563E+04  0.25500000920E-02 0. -1.
       -2   -1    0    0    0  501  0.00000000000E+00  0.00000000000E+00 -0.94991030367E+03  0.94991030367E+03  0.25500000920E-02 0.  1.
    10030    2    1    2    0    0  0.00000000000E+00  0.00000000000E+00  0.13852064527E+04  0.32850270600E+04  0.29786919727E+04 0.  0.
        5    1    3    3  502    0 -0.68426014163E+03 -0.23094633227E+02  0.21512694964E+04  0.22575933734E+04  0.46999998093E+01 0. -1.
       -5    1    3    3    0  502  0.68426014163E+03  0.23094633227E+02 -0.76606304370E+03  0.10274336866E+04  0.46999998093E+01 0.  1.
</event>
<event>
 5   0  0.1089569E-05  0.2421552E+04  0.7818609E-02  0.8431479E-01
        2   -1    0    0  501    0  0.00000000000E+00  0.00000000000E+00  0.13434870330E+04  0.13434870330E+04  0.25500000920E-02 0. -1.
       -2   -1    0    0    0  501  0.00000000000E+00  0.00000000000E+00 -0.10911739945E+04  0.10911739945E+04  0.25500000920E-02 0.  1.
    10030    2    1    2    0    0  0.00000000000E+00  0.00000000000E+00  0.25231303848E+03  0.24346610275E+04  0.24215516615E+04 0.  0.
        5    1    3    3  502    0  0.10504470991E+03 -0.19155888227E+02  0.13387348184E+04  0.13429945432E+04  0.46999998093E+01 0. -1.
       -5    1    3    3    0  502 -0.10504470991E+03  0.19155888227E+02 -0.10864217799E+04  0.10916664843E+04  0.46999998093E+01 0.  1.
</event>
<event>
 5   0  0.1029922E-05  0.2950009E+04  0.7818609E-02  0.8258152E-01
       -2   -1    0    0    0  501  0.00000000000E+00  0.00000000000E+00  0.18900975924E+04  0.18900975924E+04  0.25500000920E-02 0.  1.
        2   -1    0    0  501    0  0.00000000000E+00  0.00000000000E+00 -0.11510720559E+04  0.11510720559E+04  0.25500000920E-02 0. -1.
    10030    2    1    2    0    0  0.00000000000E+00  0.00000000000E+00  0.73902553645E+03  0.30411696483E+04  0.29500091671E+04 0.  0.
        1    1    3    3  502    0  0.49904548788E+03  0.13779609262E+04  0.19757823074E+03  0.14788035266E+04  0.50400001928E-02 0.  1.
       -1    1    3    3    0  502 -0.49904548788E+03 -0.13779609262E+04  0.54144730571E+03  0.15623661216E+04  0.50400001928E-02 0. -1.
</event>
<event>
 5   0  0.1029922E-05  0.3001155E+04  0.7818609E-02  0.8243401E-01
       -2   -1    0    0    0  501  0.00000000000E+00  0.00000000000E+00  0.23749294060E+04  0.23749294060E+04  0.25500000920E-02 0.  1.
        2   -1    0    0  501    0  0.00000000000E+00  0.00000000000E+00 -0.94812627548E+03  0.94812627548E+03  0.25500000920E-02 0. -1.
    10030    2    1    2    0    0  0.00000000000E+00  0.00000000000E+00  0.14268031306E+04  0.33230556815E+04  0.30011550925E+04 0.  0.
        1    1    3    3  502    0 -0.21564131044E+03  0.17516640682E+03  0.23462043450E+04  0.23625958760E+04  0.50400001928E-02 0.  1.
       -1    1    3    3    0  502  0.21564131044E+03 -0.17516640682E+03 -0.91940121444E+03  0.96045980551E+03  0.50400001928E-02 0. -1.
</event>
<event>
 5   0  0.3725232E-06  0.2954924E+04  0.7818609E-02  0.8256721E-01
       -1   -1    0    0    0  501  0.00000000000E+00  0.00000000000E+00  0.88262333744E+03  0.88262333746E+03  0.50400001928E-02 0.  1.
        1   -1    0    0  501    0  0.00000000000E+00  0.00000000000E+00 -0.24731884365E+04  0.24731884365E+04  0.50400001928E-02 0. -1.
    10030    2    1    2    0    0  0.00000000000E+00  0.00000000000E+00 -0.15905650990E+04  0.33558117739E+04  0.29549239124E+04 0.  0.
        2    1    3    3  502    0 -0.63575469325E+03  0.62088844658E+03  0.54519383607E+03  0.10425559035E+04  0.25500000920E-02 0.  1.
       -2    1    3    3    0  502  0.63575469325E+03 -0.62088844658E+03 -0.21357589351E+04  0.23132558704E+04  0.25500000920E-02 0. -1.
</event>
<event>
 5   0  0.1028450E-05  0.1946437E+04  0.7818609E-02  0.8632081E-01
       -2   -1    0    0    0  501  0.00000000000E+00  0.00000000000E+00  0.74954558057E+03  0.74954558057E+03  0.25500000920E-02 0.  1.
        2   -1    0    0  501    0  0.00000000000E+00  0.00000000000E+00 -0.12636380024E+04  0.12636380024E+04  0.25500000920E-02 0. -1.
    10030    2    1    2    0    0  0.00000000000E+00  0.00000000000E+00 -0.51409242185E+03  0.20131835830E+04  0.19464370323E+04 0.  0.
        3    1    3    3  502    0 -0.59081366227E+03 -0.56778998230E+03 -0.80013110499E+03  0.11452755314E+04  0.10100000352E+00 0. -1.
       -3    1    3    3    0  502  0.59081366227E+03  0.56778998230E+03  0.28603868313E+03  0.86790805157E+03  0.10100000352E+00 0.  1.
</event>
<event>
 5   0  0.3636718E-06  0.2763752E+04  0.7818609E-02  0.8314611E-01
        1   -1    0    0  501    0  0.00000000000E+00  0.00000000000E+00  0.17279952793E+04  0.17279952793E+04  0.50400001928E-02 0.  1.
       -1   -1    0    0    0  501  0.00000000000E+00  0.00000000000E+00 -0.11050851179E+04  0.11050851179E+04  0.50400001928E-02 0. -1.
    10030    2    1    2    0    0  0.00000000000E+00  0.00000000000E+00  0.62291016137E+03  0.28330803972E+04  0.27637524252E+04 0.  0.
        4    1    3    3  502    0 -0.10469731748E+04  0.59825831297E+03 -0.38039313549E+03  0.12644233422E+04  0.12699999809E+01 0. -1.
       -4    1    3    3    0  502  0.10469731748E+04 -0.59825831297E+03  0.10033032969E+04  0.15686570550E+04  0.12699999809E+01 0.  1.
</event>
<event>
 5   0  0.3852126E-06  0.2909276E+04  0.7818609E-02  0.8270123E-01
       -1   -1    0    0    0  501  0.00000000000E+00  0.00000000000E+00  0.13554630712E+04  0.13554630712E+04  0.50400001928E-02 0.  1.
        1   -1    0    0  501    0  0.00000000000E+00  0.00000000000E+00 -0.15610694740E+04  0.15610694740E+04  0.50400001928E-02 0. -1.
    10030    2    1    2    0    0  0.00000000000E+00  0.00000000000E+00 -0.20560640286E+03  0.29165325452E+04  0.29092762149E+04 0.  0.
        1    1    3    3  502    0  0.11177869587E+04 -0.55189215553E+03  0.64869268463E+03  0.14052881681E+04  0.50400001928E-02 0.  1.
       -1    1    3    3    0  502 -0.11177869587E+04  0.55189215553E+03 -0.85429908749E+03  0.15112443771E+04  0.50400001928E-02 0. -1.
</event>
<event>
 5   0  0.3896630E-06  0.2779671E+04  0.7818609E-02  0.8309608E-01
       -1   -1    0    0    0  501  0.00000000000E+00  0.00000000000E+00  0.84859627051E+03  0.84859627052E+03  0.50400001928E-02 0. -1.
        1   -1    0    0  501    0  0.00000000000E+00  0.00000000000E+00 -0.22762795171E+04  0.22762795171E+04  0.50400001928E-02 0.  1.
    10030    2    1    2    0    0  0.00000000000E+00  0.00000000000E+00 -0.14276832466E+04  0.31248757877E+04  0.27796707063E+04 0.  0.
        5    1    3    3  502    0  0.32610522846E+03 -0.13439928285E+04 -0.86863262129E+03  0.16331583095E+04  0.46999998093E+01 0. -1.
       -5    1    3    3    0  502 -0.32610522846E+03  0.13439928285E+04 -0.55905062533E+03  0.14917174782E+04  0.46999998093E+01 0.  1.
</event>
<event>
 5   0  0.1057036E-05  0.3008256E+04  0.7818609E-02  0.8241377E-01
        2   -1    0    0  501    0  0.00000000000E+00  0.00000000000E+00  0.18751894584E+04  0.18751894584E+04  0.25500000920E-02 0.  1.
       -2   -1    0    0    0  501  0.00000000000E+00  0.00000000000E+00 -0.12064922343E+04  0.12064922343E+04  0.25500000920E-02 0. -1.
    10030    2    1    2    0    0  0.00000000000E+00  0.00000000000E+00  0.66869722407E+03  0.30816816927E+04  0.30082563185E+04 0.  0.
        4    1    3    3  502    0 -0.12315110392E+04  0.52620889128E+03 -0.36711630884E+03  0.13886292644E+04  0.12699999809E+01 0. -1.
       -4    1    3    3    0  502  0.12315110392E+04 -0.52620889128E+03  0.10358135329E+04  0.16930524282E+04  0.12699999809E+01 0.  1.
</event>
<event>
 5   0  0.3636718E-06  0.2799685E+04  0.7818609E-02  0.8303366E-01
        1   -1    0    0  501    0  0.00000000000E+00  0.00000000000E+00  0.15170805884E+04  0.15170805884E+04  0.50400001928E-02 0. -1.
       -1   -1    0    0    0  501  0.00000000000E+00  0.00000000000E+00 -0.12916641542E+04  0.12916641542E+04  0.50400001928E-02 0.  1.
    10030    2    1    2    0    0  0.00000000000E+00  0.00000000000E+00  0.22541643422E+03  0.28087447425E+04  0.27996847072E+04 0.  0.
        4    1    3    3  502    0  0.13573251106E+04  0.21143534209E+03 -0.15745982072E+03  0.13826899753E+04  0.12699999809E+01 0.  1.
       -4    1    3    3    0  502 -0.13573251106E+04 -0.21143534209E+03  0.38287625494E+03  0.14260547673E+04  0.12699999809E+01 0. -1.
</event>
<event>
 5   0  0.9647945E-06  0.2629642E+04  0.7818609E-02  0.8358201E-01
        2   -1    0    0  501    0  0.00000000000E+00  0.00000000000E+00  0.14916290812E+04  0.14916290812E+04  0.25500000920E-02 0.  1.
       -2   -1    0    0    0  501  0.00000000000E+00  0.00000000000E+00 -0.11589710347E+04  0.11589710347E+04  0.25500000920E-02 0. -1.
    10030    2    1    2    0    0  0.00000000000E+00  0.00000000000E+00  0.33265804657E+03  0.26506001159E+04  0.26296424849E+04 0.  0.
        2    1    3    3  502    0 -0.46730472468E+03  0.23910736778E+03  0.13814276319E+04  0.14777984779E+04  0.25500000920E-02 0.  1.
       -2    1    3    3    0  502  0.46730472468E+03 -0.23910736778E+03 -0.10487695853E+04  0.11728016380E+04  0.25500000920E-02 0. -1.
</event>
<event>
 5   0  0.1029922E-05  0.3021650E+04  0.7818609E-02  0.8237576E-01
        2   -1    0    0  501    0  0.00000000000E+00  0.00000000000E+00  0.19828413888E+04  0.19828413888E+04  0.25500000920E-02 0.  1.
       -2   -1    0    0    0  501  0.00000000000E+00  0.00000000000E+00 -0.11511722385E+04  0.11511722385E+04  0.25500000920E-02 0. -1.
    10030    2    1    2    0    0  0.00000000000E+00  0.00000000000E+00  0.83166915027E+03  0.31340136273E+04  0.30216498540E+04 0.  0.
        1    1    3    3  502    0  0.10676199090E+04  0.74715886730E+02  0.15218842670E+04  0.18605177924E+04  0.50400001928E-02 0.  1.
       -1    1    3    3    0  502 -0.10676199090E+04 -0.74715886730E+02 -0.69021511672E+03  0.12734958348E+04  0.50400001928E-02 0. -1.
</event>
<event>
 5   0  0.3313750E-06  0.2995770E+04  0.7818609E-02  0.8244940E-01
        4   -1    0    0  501    0  0.00000000000E+00  0.00000000000E+00  0.13473947569E+04  0.13473953554E+04  0.12699999809E+01 0.  1.
       -4   -1    0    0    0  501  0.00000000000E+00  0.00000000000E+00 -0.16651821895E+04  0.16651826738E+04  0.12699999809E+01 0. -1.
    10030    2    1    2    0    0  0.00000000000E+00  0.00000000000E+00 -0.31778743259E+03  0.30125780292E+04  0.29957699394E+04 0.  0.
        4    1    3    3  502    0  0.70378471091E+03 -0.49684570101E+03 -0.13911213732E+04  0.16362728556E+04  0.12699999809E+01 0. -1.
       -4    1    3    3    0  502 -0.70378471091E+03  0.49684570101E+03  0.10733339406E+04  0.13763051736E+04  0.12699999809E+01 0.  1.
</event>
<event>
 5   0  0.3725232E-06  0.3014580E+04  0.7818609E-02  0.8239580E-01
        1   -1    0    0  501    0  0.00000000000E+00  0.00000000000E+00  0.19823540566E+04  0.19823540566E+04  0.50400001928E-02 0.  1.
       -1   -1    0    0    0  501  0.00000000000E+00  0.00000000000E+00 -0.11460733951E+04  0.11460733952E+04  0.50400001928E-02 0. -1.
    10030    2    1    2    0    0  0.00000000000E+00  0.00000000000E+00  0.83628066148E+03  0.31284274518E+04  0.30145800663E+04 0.  0.
        2    1    3    3  502    0  0.19297198424E+03  0.64915716996E+03 -0.97929495096E+03  0.11906560456E+04  0.25500000920E-02 0. -1.
       -2    1    3    3    0  502 -0.19297198424E+03 -0.64915716996E+03  0.18155756124E+04  0.19377714062E+04  0.25500000920E-02 0.  1.
</event>
<event>
 5   0  0.3636718E-06  0.2764454E+04  0.7818609E-02  0.8314390E-01
       -1   -1    0    0    0  501  0.00000000000E+00  0.00000000000E+00  0.11717641851E+04  0.11717641851E+04  0.50400001928E-02 0. -1.
        1   -1    0    0  501    0  0.00000000000E+00  0.00000000000E+00 -0.16304911705E+04  0.16304911705E+04  0.50400001928E-02 0.  1.
    10030    2    1    2    0    0  0.00000000000E+00  0.00000000000E+00 -0.45872698538E+03  0.28022553556E+04  0.27644537671E+04 0.  0.
        4    1    3    3  502    0 -0.43513434428E+03  0.13119371642E+04 -0.23477733950E+03  0.14020139202E+04  0.12699999809E+01 0. -1.
       -4    1    3    3    0  502  0.43513434428E+03 -0.13119371642E+04 -0.22394964589E+03  0.14002414353E+04  0.12699999809E+01 0.  1.
</event>
<event>
 5   0  0.1057036E-05  0.3081940E+04  0.7818609E-02  0.8220712E-01
        2   -1    0    0  501    0  0.00000000000E+00  0.00000000000E+00  0.15068459563E+04  0.15068459563E+04  0.25500000920E-02 0.  1.
       -2   -1    0    0    0  501  0.00000000000E+00  0.00000000000E+00 -0.15758670766E+04  0.15758670766E+04  0.25500000920E-02 0. -1.
    10030    2    1    2    0    0  0.00000000000E+00  0.00000000000E+00 -0.69021120219E+02  0.30827130329E+04  0.30819402538E+04 0.  0.
        4    1    3    3  502    0 -0.10169655028E+04 -0.79567329760E+01 -0.11925163493E+04  0.15672839563E+04  0.12699999809E+01 0. -1.
       -4    1    3    3    0  502  0.10169655028E+04  0.79567329760E+01  0.11234952291E+04  0.15154290766E+04  0.12699999809E+01 0.  1.
</event>
<event>
 5   0  0.1028450E-05  0.2950692E+04  0.7818609E-02  0.8257953E-01
       -2   -1    0    0    0  501  0.00000000000E+00  0.00000000000E+00  0.12460715876E+04  0.12460715876E+04  0.25500000920E-02 0.  1.
        2   -1    0    0  501    0  0.00000000000E+00  0.00000000000E+00 -0.17468058733E+04  0.17468058733E+04  0.25500000920E-02 0. -1.
    10030    2    1    2    0    0  0.00000000000E+00  0.00000000000E+00 -0.50073428578E+03  0.29928774609E+04  0.29506915581E+04 0.  0.
        3    1    3    3  502    0 -0.13516168687E+04  0.57244951527E+03 -0.99654252543E+02  0.14712231603E+04  0.10100000352E+00 0. -1.
       -3    1    3    3    0  502  0.13516168687E+04 -0.57244951527E+03 -0.40108003324E+03  0.15216543006E+04  0.10100000352E+00 0.  1.
</event>
<event>
 5   0  0.3852126E-06  0.2883574E+04  0.7818609E-02  0.8277782E-01
       -1   -1    0    0    0  501  0.00000000000E+00  0.00000000000E+00  0.93637801065E+03  0.93637801066E+03  0.50400001928E-02 0. -1.
        1   -1    0    0  501    0  0.00000000000E+00  0.00000000000E+00 -0.22199892357E+04  0.22199892357E+04  0.50400001928E-02 0.  1.
    10030    2    1    2    0    0  0.00000000000E+00  0.00000000000E+00 -0.12836112250E+04  0.31563672463E+04  0.28835735497E+04 0.  0.
        1    1    3    3  502    0  0.64516176127E+03  0.10998945515E+04 -0.13783254835E+04  0.18777068092E+04  0.50400001928E-02 0.  1.
       -1    1    3    3    0  502 -0.64516176127E+03 -0.10998945515E+04  0.94714258504E+02  0.12786604371E+04  0.50400001928E-02 0. -1.
</event>
<event>
 5   0  0.3592331E-06  0.2992072E+04  0.7818609E-02  0.8245998E-01
       -1   -1    0    0    0  501  0.00000000000E+00  0.00000000000E+00  0.11091110671E+04  0.11091110671E+04  0.50400001928E-02 0.  1.
        1   -1    0    0  501    0  0.00000000000E+00  0.00000000000E+00 -0.20179438682E+04  0.20179438682E+04  0.50400001928E-02 0. -1.
    10030    2    1    2    0    0  0.00000000000E+00  0.00000000000E+00 -0.90883280113E+03  0.31270549353E+04  0.29920721094E+04 0.  0.
        3    1    3    3  502    0 -0.63910533219E+03  0.97089547987E+03 -0.14387281295E+04  0.18496032816E+04  0.10100000352E+00 0. -1.
       -3    1    3    3    0  502  0.63910533219E+03 -0.97089547987E+03  0.52989532834E+03  0.12774516537E+04  0.10100000352E+00 0.  1.
</event>
<event>
 5   0  0.3725232E-06  0.2969913E+04  0.7818609E-02  0.8252375E-01
       -1   -1    0    0    0  501  0.00000000000E+00  0.00000000000E+00  0.16763620805E+04  0.16763620805E+04  0.50400001928E-02 0. -1.
        1   -1    0    0  501    0  0.00000000000E+00  0.00000000000E+00 -0.13154054191E+04  0.13154054191E+04  0.50400001928E-02 0.  1.
    10030    2    1    2    0    0  0.00000000000E+00  0.00000000000E+00  0.36095666137E+03  0.29917674996E+04  0.29699129719E+04 0.  0.
        2    1    3    3  502    0  0.68500521415E+03  0.22533747458E+03 -0.11271828607E+04  0.13381144653E+04  0.25500000920E-02 0.  1.
       -2    1    3    3    0  502 -0.68500521415E+03 -0.22533747458E+03  0.14881395220E+04  0.16536530343E+04  0.25500000920E-02 0. -1.
</event>
<event>
 5   0  0.3725232E-06  0.2907912E+04  0.7818609E-02  0.8270527E-01
       -1   -1    0    0    0  501  0.00000000000E+00  0.00000000000E+00  0.14274045662E+04  0.14274045662E+04  0.50400001928E-02 0. -1.
        1   -1    0    0  501    0  0.00000000000E+00  0.00000000000E+00 -0.14810016488E+04  0.14810016488E+04  0.50400001928E-02 0.  1.
    10030    2    1    2    0    0  0.00000000000E+00  0.00000000000E+00 -0.53597082570E+02  0.29084062149E+04  0.29079123205E+04 0.  0.
        2    1    3    3  502    0  0.57790194493E+03 -0.13338796241E+04  0.11884623098E+01  0.14536873536E+04  0.25500000920E-02 0. -1.
       -2    1    3    3    0  502 -0.57790194493E+03  0.13338796241E+04 -0.54785544880E+02  0.14547188613E+04  0.25500000920E-02 0.  1.
</event>
<event>
 5   0  0.1089569E-05  0.2395160E+04  0.7818609E-02  0.8441318E-01
        2   -1    0    0  501    0  0.00000000000E+00  0.00000000000E+00  0.22530086556E+04  0.22530086556E+04  0.25500000920E-02 0.  1.
       -2   -1    0    0    0  501  0.00000000000E+00  0.00000000000E+00 -0.63656998345E+03  0.63656998345E+03  0.25500000920E-02 0. -1.
    10030    2    1    2    0    0  0.00000000000E+00  0.00000000000E+00  0.16164386721E+04  0.28895786390E+04  0.23951598549E+04 0.  0.
        5    1    3    3  502    0  0.41794451736E+03 -0.49817296145E+03 -0.40501494052E+03  0.76610254611E+03  0.46999998093E+01 0. -1.
       -5    1    3    3    0  502 -0.41794451736E+03  0.49817296145E+03  0.20214536126E+04  0.21234760929E+04  0.46999998093E+01 0.  1.
</event>
<event>
 5   0  0.3896630E-06  0.3006615E+04  0.7818609E-02  0.8241844E-01
        1   -1    0    0  501    0  0.00000000000E+00  0.00000000000E+00  0.68427677600E+03  0.68427677602E+03  0.50400001928E-02 0.  1.
       -1   -1    0    0    0  501  0.00000000000E+00  0.00000000000E+00 -0.33026600485E+04  0.33026600485E+04  0.50400001928E-02 0. -1.
    10030    2    1    2    0    0  0.00000000000E+00  0.00000000000E+00 -0.26183832725E+04  0.39869368245E+04  0.30066150869E+04 0.  0.
        5    1    3    3  502    0 -0.83964220956E+03  0.12433010874E+04 -0.11825909107E+04  0.19103245761E+04  0.46999998093E+01 0.  1.
       -5    1    3    3    0  502  0.83964220956E+03 -0.12433010874E+04 -0.14357923618E+04  0.20766122484E+04  0.46999998093E+01 0. -1.
</event>
<event>
 5   0  0.3592331E-06  0.3085380E+04  0.7818609E-02  0.8219762E-01
        1   -1    0    0  501    0  0.00000000000E+00  0.00000000000E+00  0.22282749207E+04  0.22282749207E+04  0.50400001928E-02 0. -1.
       -1   -1    0    0    0  501  0.00000000000E+00  0.00000000000E+00 -0.10680426920E+04  0.10680426921E+04  0.50400001928E-02 0.  1.
    10030    2    1    2    0    0  0.00000000000E+00  0.00000000000E+00  0.11602322286E+04  0.32963176127E+04  0.30853802002E+04 0.  0.
        3    1    3    3  502    0 -0.83243588453E+03  0.12930201536E+04  0.71114734458E+03  0.16942789544E+04  0.10100000352E+00 0.  1.
       -3    1    3    3    0  502  0.83243588453E+03 -0.12930201536E+04  0.44908488406E+03  0.16020386583E+04  0.10100000352E+00 0. -1.
</event>
<event>
 5   0  0.3896630E-06  0.2921304E+04  0.7818609E-02  0.8266567E-01
       -1   -1    0    0    0  501  0.00000000000E+00  0.00000000000E+00  0.10099836896E+04  0.10099836896E+04  0.50400001928E-02 0.  1.
        1   -1    0    0  501    0  0.00000000000E+00  0.00000000000E+00 -0.21124151960E+04  0.21124151960E+04  0.50400001928E-02 0. -1.
    10030    2    1    2    0    0  0.00000000000E+00  0.00000000000E+00 -0.11024315064E+04  0.31223988856E+04  0.29213044303E+04 0.  0.
        5    1    3    3  502    0  0.10555819678E+04  0.57099909325E+03 -0.14411082990E+04  0.18753955516E+04  0.46999998093E+01 0. -1.
       -5    1    3    3    0  502 -0.10555819678E+04 -0.57099909325E+03  0.33867679262E+03  0.12470033340E+04  0.46999998093E+01 0.  1.
</event>
<event>
 5   0  0.3852126E-06  0.3042509E+04  0.7818609E-02  0.8231695E-01
       -1   -1    0    0    0  501  0.00000000000E+00  0.00000000000E+00  0.14210474838E+04  0.14210474838E+04  0.50400001928E-02 0.  1.
        1   -1    0    0  501    0  0.00000000000E+00  0.00000000000E+00 -0.16285275400E+04  0.16285275401E+04  0.50400001928E-02 0. -1.
    10030    2    1    2    0    0  0.00000000000E+00  0.00000000000E+00 -0.20748005625E+03  0.30495750239E+04  0.30425088089E+04 0.  0.
        1    1    3    3  502    0 -0.86298776391E+03 -0.55338504549E+03 -0.12302863392E+04  0.16014329101E+04  0.50400001928E-02 0. -1.
       -1    1    3    3    0  502  0.86298776391E+03  0.55338504549E+03  0.10228062829E+04  0.14481421138E+04  0.50400001928E-02 0.  1.
</event>
<event>
 5   0  0.9647945E-06  0.2888680E+04  0.7818609E-02  0.8276253E-01
       -2   -1    0    0    0  501  0.00000000000E+00  0.00000000000E+00  0.90934457877E+03  0.90934457877E+03  0.25500000920E-02 0.  1.
        2   -1    0    0  501    0  0.00000000000E+00  0.00000000000E+00 -0.22940901914E+04  0.22940901914E+04  0.25500000920E-02 0. -1.
    10030    2    1    2    0    0  0.00000000000E+00  0.00000000000E+00 -0.13847456127E+04  0.32034347702E+04  0.28886803068E+04 0.  0.
        2    1    3    3  502    0  0.13889910022E+04 -0.35580432192E+03 -0.88517191136E+03  0.16850584655E+04  0.25500000920E-02 0. -1.
       -2    1    3    3    0  502 -0.13889910022E+04  0.35580432192E+03 -0.49957370131E+03  0.15183763047E+04  0.25500000920E-02 0.  1.
</event>
<event>
 5   0  0.1029922E-05  0.3050327E+04  0.7818609E-02  0.8229504E-01
       -2   -1    0    0    0  501  0.00000000000E+00  0.00000000000E+00  0.11408171832E+04  0.11408171832E+04  0.25500000920E-02 0. -1.
        2   -1    0    0  501    0  0.00000000000E+00  0.00000000000E+00 -0.20389971224E+04  0.20389971224E+04  0.25500000920E-02 0.  1.
    10030    2    1    2    0    0  0.00000000000E+00  0.00000000000E+00 -0.89817993924E+03  0.31798143056E+04  0.30503265095E+04 0.  0.
        1    1    3    3  502    0 -0.57977433922E+03  0.13471783662E+04 -0.88529678782E+03  0.17131194463E+04  0.50400001928E-02 0.  1.
       -1    1    3    3    0  502  0.57977433922E+03 -0.13471783662E+04 -0.12883151417E+02  0.14666948593E+04  0.50400001928E-02 0. -1.
</event>
<event>
 5   0  0.3313750E-06  0.3545724E+04  0.7818609E-02  0.8103039E-01
       -3   -1    0    0    0  501  0.00000000000E+00  0.00000000000E+00  0.11231529698E+04  0.11231529743E+04  0.10100000352E+00 0. -1.
        3   -1    0    0  501    0  0.00000000000E+00  0.00000000000E+00 -0.27984077768E+04  0.27984077786E+04  0.10100000352E+00 0.  1.
    10030    2    1    2    0    0  0.00000000000E+00  0.00000000000E+00 -0.16752548070E+04  0.39215607529E+04  0.35457241955E+04 0.  0.
        1    1    3    3  502    0 -0.17342538696E+04 -0.21380161493E+03 -0.11688590523E+04  0.21022795006E+04  0.50400001928E-02 0.  1.
       -1    1    3    3    0  502  0.17342538696E+04  0.21380161493E+03 -0.50639575468E+03  0.18192812523E+04  0.50400001928E-02 0. -1.
</event>
<event>
 5   0  0.3725232E-06  0.2008959E+04  0.7818609E-02  0.8602443E-01
        1   -1    0    0  501    0  0.00000000000E+00  0.00000000000E+00  0.11246016309E+04  0.11246016309E+04  0.50400001928E-02 0. -1.
       -1   -1    0    0    0  501  0.00000000000E+00  0.00000000000E+00 -0.89718838514E+03  0.89718838516E+03  0.50400001928E-02 0.  1.
    10030    2    1    2    0    0  0.00000000000E+00  0.00000000000E+00  0.22741324576E+03  0.20217900161E+04  0.20089594532E+04 0.  0.
        2    1    3    3  502    0 -0.14047903121E+03 -0.14283506331E+03  0.11042913962E+04  0.11223171126E+04  0.25500000920E-02 0. -1.
       -2    1    3    3    0  502  0.14047903121E+03  0.14283506331E+03 -0.87687815039E+03  0.89947290352E+03  0.25500000920E-02 0.  1.
</event>
<event>
 5   0  0.3592331E-06  0.3005985E+04  0.7818609E-02  0.8242024E-01
        1   -1    0    0  501    0  0.00000000000E+00  0.00000000000E+00  0.13615754707E+04  0.13615754707E+04  0.50400001928E-02 0. -1.
       -1   -1    0    0    0  501  0.00000000000E+00  0.00000000000E+00 -0.16590975381E+04  0.16590975381E+04  0.50400001928E-02 0.  1.
    10030    2    1    2    0    0  0.00000000000E+00  0.00000000000E+00 -0.29752206742E+03  0.30206730088E+04  0.30059850375E+04 0.  0.
        3    1    3    3  502    0  0.41537411784E+03 -0.37548063024E+03 -0.15503756800E+04  0.16483889470E+04  0.10100000352E+00 0.  1.
       -3    1    3    3    0  502 -0.41537411784E+03  0.37548063024E+03  0.12528536125E+04  0.13722840618E+04  0.10100000352E+00 0. -1.
</event>
<event>
 5   0  0.9647945E-06  0.2970047E+04  0.7818609E-02  0.8252336E-01
        2   -1    0    0  501    0  0.00000000000E+00  0.00000000000E+00  0.14294383958E+04  0.14294383958E+04  0.25500000920E-02 0. -1.
       -2   -1    0    0    0  501  0.00000000000E+00  0.00000000000E+00 -0.15427696352E+04  0.15427696352E+04  0.25500000920E-02 0.  1.
    10030    2    1    2    0    0  0.00000000000E+00  0.00000000000E+00 -0.11333123936E+03  0.29722080310E+04  0.29700465669E+04 0.  0.
        2    1    3    3  502    0  0.55993101270E+03  0.94610625931E+03  0.94238669442E+03  0.14480098324E+04  0.25500000920E-02 0. -1.
       -2    1    3    3    0  502 -0.55993101270E+03 -0.94610625931E+03 -0.10557179338E+04  0.15241981986E+04  0.25500000920E-02 0.  1.
</event>
<event>
 5   0  0.1028450E-05  0.2505595E+04  0.7818609E-02  0.8400995E-01
        2   -1    0    0  501    0  0.00000000000E+00  0.00000000000E+00  0.96216252900E+03  0.96216252901E+03  0.25500000920E-02 0. -1.
       -2   -1    0    0    0  501  0.00000000000E+00  0.00000000000E+00 -0.16312232512E+04  0.16312232512E+04  0.25500000920E-02 0.  1.
    10030    2    1    2    0    0  0.00000000000E+00  0.00000000000E+00 -0.66906072218E+03  0.25933857802E+04  0.25055952496E+04 0.  0.
        3    1    3    3  502    0 -0.10301964122E+04 -0.61542823337E+03  0.37860818283E+02  0.12006206770E+04  0.10100000352E+00 0. -1.
       -3    1    3    3    0  502  0.10301964122E+04  0.61542823337E+03 -0.70692154046E+03  0.13927651032E+04  0.10100000352E+00 0.  1.
</event>
<event>
 5   0  0.3852126E-06  0.2277935E+04  0.7818609E-02  0.8486672E-01
       -1   -1    0    0    0  501  0.00000000000E+00  0.00000000000E+00  0.17031538641E+04  0.17031538641E+04  0.50400001928E-02 0.  1.
        1   -1    0    0  501    0  0.00000000000E+00  0.00000000000E+00 -0.76167369586E+03  0.76167369587E+03  0.50400001928E-02 0. -1.
    10030    2    1    2    0    0  0.00000000000E+00  0.00000000000E+00  0.94148016826E+03  0.24648275600E+04  0.22779354673E+04 0.  0.
        1    1    3    3  502    0  0.89985898640E+03 -0.44998409183E+03  0.10484096074E+04  0.14530638607E+04  0.50400001928E-02 0. -1.
       -1    1    3    3    0  502 -0.89985898640E+03  0.44998409183E+03 -0.10692943912E+03  0.10117636993E+04  0.50400001928E-02 0.  1.
</event>
<event>
 5   0  0.9647945E-06  0.2183869E+04  0.7818609E-02  0.8525172E-01
        2   -1    0    0  501    0  0.00000000000E+00  0.00000000000E+00  0.13542505023E+04  0.13542505023E+04  0.25500000920E-02 0.  1.
       -2   -1    0    0    0  501  0.00000000000E+00  0.00000000000E+00 -0.88042849019E+03  0.88042849020E+03  0.25500000920E-02 0. -1.
    10030    2    1    2    0    0  0.00000000000E+00  0.00000000000E+00  0.47382201213E+03  0.22346789925E+04  0.21838687919E+04 0.  0.
        2    1    3    3  502    0  0.48862802506E+03 -0.47313236005E+02 -0.76114065465E+03  0.90572125146E+03  0.25500000920E-02 0. -1.
       -2    1    3    3    0  502 -0.48862802506E+03  0.47313236005E+02  0.12349626668E+04  0.13289577411E+04  0.25500000920E-02 0.  1.
</event>
<event>
 5   0  0.3636718E-06  0.3146579E+04  0.7818609E-02  0.8203070E-01
       -1   -1    0    0    0  501  0.00000000000E+00  0.00000000000E+00  0.13831884647E+04  0.13831884647E+04  0.50400001928E-02 0.  1.
        1   -1    0    0  501    0  0.00000000000E+00  0.00000000000E+00 -0.17895177659E+04  0.17895177659E+04  0.50400001928E-02 0. -1.
    10030    2    1    2    0    0  0.00000000000E+00  0.00000000000E+00 -0.40632930122E+03  0.31727062306E+04  0.31465793053E+04 0.  0.
        4    1    3    3  502    0 -0.39909270683E+03  0.73834656709E+03  0.11386017934E+04  0.14145127425E+04  0.12699999809E+01 0.  1.
       -4    1    3    3    0  502  0.39909270683E+03 -0.73834656709E+03 -0.15449310946E+04  0.17581934881E+04  0.12699999809E+01 0. -1.
</event>
<event>
 5   0  0.3592331E-06  0.2990013E+04  0.7818609E-02  0.8246588E-01
        1   -1    0    0  501    0  0.00000000000E+00  0.00000000000E+00  0.15938989016E+04  0.15938989016E+04  0.50400001928E-02 0. -1.
       -1   -1    0    0    0  501  0.00000000000E+00  0.00000000000E+00 -0.14022500128E+04  0.14022500129E+04  0.50400001928E-02 0.  1.
    10030    2    1    2    0    0  0.00000000000E+00  0.00000000000E+00  0.19164888877E+03  0.29961489145E+04  0.29900132142E+04 0.  0.
        3    1    3    3  502    0  0.11162101047E+04 -0.35553730098E+03 -0.83490499707E+03  0.14385402791E+04  0.10100000352E+00 0.  1.
       -3    1    3    3    0  502 -0.11162101047E+04  0.35553730098E+03  0.10265538858E+04  0.15576086354E+04  0.10100000352E+00 0. -1.
</event>
<event>
 5   0  0.1089569E-05  0.3068524E+04  0.7818609E-02  0.8224430E-01
        2   -1    0    0  501    0  0.00000000000E+00  0.00000000000E+00  0.24770719074E+04  0.24770719074E+04  0.25500000920E-02 0. -1.
       -2   -1    0    0    0  501  0.00000000000E+00  0.00000000000E+00 -0.95029915664E+03  0.95029915665E+03  0.25500000920E-02 0.  1.
    10030    2    1    2    0    0  0.00000000000E+00  0.00000000000E+00  0.15267727507E+04  0.34273710640E+04  0.30685236480E+04 0.  0.
        5    1    3    3  502    0 -0.14204145376E+04  0.28675809146E+03  0.20032041727E+03  0.14628595357E+04  0.46999998093E+01 0.  1.
       -5    1    3    3    0  502  0.14204145376E+04 -0.28675809146E+03  0.13264523334E+04  0.19645115283E+04  0.46999998093E+01 0. -1.
</event>
<event>
 5   0  0.9647945E-06  0.2992041E+04  0.7818609E-02  0.8246007E-01
       -2   -1    0    0    0  501  0.00000000000E+00  0.00000000000E+00  0.10730716500E+04  0.10730716500E+04  0.25500000920E-02 0. -1.
        2   -1    0    0  501    0  0.00000000000E+00  0.00000000000E+00 -0.20856737868E+04  0.20856737868E+04  0.25500000920E-02 0.  1.
    10030    2    1    2    0    0  0.00000000000E+00  0.00000000000E+00 -0.10126021368E+04  0.31587454368E+04  0.29920410504E+04 0.  0.
        2    1    3    3  502    0  0.88611914295E+03 -0.67619733845E+03 -0.15597063892E+04  0.19170639000E+04  0.25500000920E-02 0.  1.
       -2    1    3    3    0  502 -0.88611914295E+03  0.67619733845E+03  0.54710425233E+03  0.12416815369E+04  0.25500000920E-02 0. -1.
</event>
<event>
 5   0  0.3313750E-06  0.2911620E+04  0.7818609E-02  0.8269429E-01
        3   -1    0    0  501    0  0.00000000000E+00  0.00000000000E+00  0.17008242519E+04  0.17008242549E+04  0.10100000352E+00 0. -1.
       -3   -1    0    0    0  501  0.00000000000E+00  0.00000000000E+00 -0.12460913982E+04  0.12460914023E+04  0.10100000352E+00 0.  1.
    10030    2    1    2    0    0  0.00000000000E+00  0.00000000000E+00  0.45473285368E+03  0.29469156572E+04  0.29116198107E+04 0.  0.
        4    1    3    3  502    0 -0.73158138014E+03 -0.94218941966E+03  0.10720179913E+04  0.16037943774E+04  0.12699999809E+01 0.  1.
       -4    1    3    3    0  502  0.73158138014E+03  0.94218941966E+03 -0.61728513761E+03  0.13431212798E+04  0.12699999809E+01 0. -1.
</event>
<event>
 5   0  0.3725232E-06  0.2996626E+04  0.7818609E-02  0.8244695E-01
       -1   -1    0    0    0  501  0.00000000000E+00  0.00000000000E+00  0.17054920964E+04  0.17054920964E+04  0.50400001928E-02 0. -1.
        1   -1    0    0  501    0  0.00000000000E+00  0.00000000000E+00 -0.13163011028E+04  0.13163011028E+04  0.50400001928E-02 0.  1.
    10030    2    1    2    0    0  0.00000000000E+00  0.00000000000E+00  0.38919099359E+03  0.30217931991E+04  0.29966255203E+04 0.  0.
        2    1    3    3  502    0 -0.91542934414E+03  0.11799308985E+04  0.72361446731E+02  0.14951534999E+04  0.25500000920E-02 0.  1.
       -2    1    3    3    0  502  0.91542934414E+03 -0.11799308985E+04  0.31682954686E+03  0.15266396992E+04  0.25500000920E-02 0. -1.
</event>
<event>
 5   0  0.3852126E-06  0.2976299E+04  0.7818609E-02  0.8250531E-01
       -1   -1    0    0    0  501  0.00000000000E+00  0.00000000000E+00  0.14775388908E+04  0.14775388908E+04  0.50400001928E-02 0. -1.
        1   -1    0    0  501    0  0.00000000000E+00  0.00000000000E+00 -0.14988366761E+04  0.14988366761E+04  0.50400001928E-02 0.  1.
    10030    2    1    2    0    0  0.00000000000E+00  0.00000000000E+00 -0.21297785291E+02  0.29763755669E+04  0.29762993666E+04 0.  0.
        1    1    3    3  502    0 -0.10959081855E+04 -0.22984219593E+03 -0.99085116215E+03  0.14952017294E+04  0.50400001928E-02 0.  1.
       -1    1    3    3    0  502  0.10959081855E+04  0.22984219593E+03  0.96955337686E+03  0.14811738374E+04  0.50400001928E-02 0. -1.
</event>
<event>
 5   0  0.9647945E-06  0.3041276E+04  0.7818609E-02  0.8232041E-01
       -2   -1    0    0    0  501  0.00000000000E+00  0.00000000000E+00  0.11821949839E+04  0.11821949839E+04  0.25500000920E-02 0. -1.
        2   -1    0    0  501    0  0.00000000000E+00  0.00000000000E+00 -0.19559720144E+04  0.19559720144E+04  0.25500000920E-02 0.  1.
    10030    2    1    2    0    0  0.00000000000E+00  0.00000000000E+00 -0.77377703052E+03  0.31381669983E+04  0.30412762479E+04 0.  0.
        2    1    3    3  502    0 -0.40250666240E+02 -0.13586199330E+04 -0.10904254558E+04  0.17425544218E+04  0.25500000920E-02 0.  1.
       -2    1    3    3    0  502  0.40250666240E+02  0.13586199330E+04  0.31664842525E+03  0.13956125765E+04  0.25500000920E-02 0. -1.
</event>
<event>
 5   0  0.3852126E-06  0.2982377E+04  0.7818609E-02  0.8248781E-01
        1   -1    0    0  501    0  0.00000000000E+00  0.00000000000E+00  0.18605325954E+04  0.18605325954E+04  0.50400001928E-02 0. -1.
       -1   -1    0    0    0  501  0.00000000000E+00  0.00000000000E+00 -0.11951650718E+04  0.11951650718E+04  0.50400001928E-02 0.  1.
    10030    2    1    2    0    0  0.00000000000E+00  0.00000000000E+00  0.66536752361E+03  0.30556976672E+04  0.29823772887E+04 0.  0.
        1    1    3    3  502    0 -0.13507650922E+04 -0.58096949734E+03  0.58687920501E+03  0.15831990060E+04  0.50400001928E-02 0. -1.
       -1    1    3    3    0  502  0.13507650922E+04  0.58096949734E+03  0.78488318602E+02  0.14724986612E+04  0.50400001928E-02 0.  1.
</event>
<event>
 5   0  0.3725232E-06  0.2973671E+04  0.7818609E-02  0.8251289E-01
        1   -1    0    0  501    0  0.00000000000E+00  0.00000000000E+00  0.13121707182E+04  0.13121707182E+04  0.50400001928E-02 0. -1.
       -1   -1    0    0    0  501  0.00000000000E+00  0.00000000000E+00 -0.16847503583E+04  0.16847503583E+04  0.50400001928E-02 0.  1.
    10030    2    1    2    0    0  0.00000000000E+00  0.00000000000E+00 -0.37257964003E+03  0.29969210765E+04  0.29736711907E+04 0.  0.
        2    1    3    3  502    0 -0.91506795591E+03  0.32061996235E+03 -0.13222822354E+04  0.16396880295E+04  0.25500000920E-02 0.  1.
       -2    1    3    3    0  502  0.91506795591E+03 -0.32061996235E+03  0.94970259535E+03  0.13572330470E+04  0.25500000920E-02 0. -1.
</event>
<event>
 5   0  0.3592331E-06  0.3083473E+04  0.7818609E-02  0.8220288E-01
        1   -1    0    0  501    0  0.00000000000E+00  0.00000000000E+00  0.16786595570E+04  0.16786595570E+04  0.50400001928E-02 0.  1.
       -1   -1    0    0    0  501  0.00000000000E+00  0.00000000000E+00 -0.14159820157E+04  0.14159820157E+04  0.50400001928E-02 0. -1.
    10030    2    1    2    0    0  0.00000000000E+00  0.00000000000E+00  0.26267754124E+03  0.30946415727E+04  0.30834731996E+04 0.  0.
        3    1    3    3  502    0  0.45505323871E+02 -0.93108451333E+03  0.13637778661E+04  0.16519319550E+04  0.10100000352E+00 0.  1.
       -3    1    3    3    0  502 -0.45505323871E+02  0.93108451333E+03 -0.11011003249E+04  0.14427096177E+04  0.10100000352E+00 0. -1.
</event>
<event>
 5   0  0.3896630E-06  0.1837174E+04  0.7818609E-02  0.8686777E-01
       -1   -1    0    0    0  501  0.00000000000E+00  0.00000000000E+00  0.46251754858E+03  0.46251754861E+03  0.50400001928E-02 0. -1.
        1   -1    0    0  501    0  0.00000000000E+00  0.00000000000E+00 -0.18243672480E+04  0.18243672481E+04  0.50400001928E-02 0.  1.
    10030    2    1    2    0    0  0.00000000000E+00  0.00000000000E+00 -0.13618496995E+04  0.22868847967E+04  0.18371737722E+04 0.  0.
        5    1    3    3  502    0  0.59494645411E+02 -0.38087967273E+03 -0.17187873578E+04  0.17614939708E+04  0.46999998093E+01 0.  1.
       -5    1    3    3    0  502 -0.59494645411E+02  0.38087967273E+03  0.35693765834E+03  0.52539082583E+03  0.46999998093E+01 0. -1.
</event>
<event>
 5   0  0.9647945E-06  0.3144004E+04  0.7818609E-02  0.8203764E-01
        2   -1    0    0  501    0  0.00000000000E+00  0.00000000000E+00  0.16013092782E+04  0.16013092782E+04  0.25500000920E-02 0.  1.
       -2   -1    0    0    0  501  0.00000000000E+00  0.00000000000E+00 -0.15432310428E+04  0.15432310428E+04  0.25500000920E-02 0. -1.
    10030    2    1    2    0    0  0.00000000000E+00  0.00000000000E+00  0.58078235349E+02  0.31445403210E+04  0.31440039359E+04 0.  0.
        2    1    3    3  502    0  0.21152284049E+03 -0.10378128447E+04 -0.11327927299E+04  0.15508116525E+04  0.25500000920E-02 0. -1.
       -2    1    3    3    0  502 -0.21152284049E+03  0.10378128447E+04  0.11908709653E+04  0.15937286684E+04  0.25500000920E-02 0.  1.
</event>
<event>
 5   0  0.3852126E-06  0.3045605E+04  0.7818609E-02  0.8230827E-01
       -1   -1    0    0    0  501  0.00000000000E+00  0.00000000000E+00  0.16730188488E+04  0.16730188488E+04  0.50400001928E-02 0.  1.
        1   -1    0    0  501    0  0.00000000000E+00  0.00000000000E+00 -0.13860735991E+04  0.13860735991E+04  0.50400001928E-02 0. -1.
    10030    2    1    2    0    0  0.00000000000E+00  0.00000000000E+00  0.28694524975E+03  0.30590924479E+04  0.30456048707E+04 0.  0.
        1    1    3    3  502    0  0.10270198214E+04 -0.64236842683E+03 -0.78339253701E+03  0.14426055512E+04  0.50400001928E-02 0. -1.
       -1    1    3    3    0  502 -0.10270198214E+04  0.64236842683E+03  0.10703377868E+04  0.16164868967E+04  0.50400001928E-02 0.  1.
</event>
<event>
 5   0  0.9647945E-06  0.3015703E+04  0.7818609E-02  0.8239261E-01
        2   -1    0    0  501    0  0.00000000000E+00  0.00000000000E+00  0.14307813566E+04  0.14307813566E+04  0.25500000920E-02 0.  1.
       -2   -1    0    0    0  501  0.00000000000E+00  0.00000000000E+00 -0.15890730346E+04  0.15890730346E+04  0.25500000920E-02 0. -1.
    10030    2    1    2    0    0  0.00000000000E+00  0.00000000000E+00 -0.15829167796E+03  0.30198543912E+04  0.30157029510E+04 0.  0.
        2    1    3    3  502    0  0.61399925260E+03  0.10698469139E+04  0.78925530557E+03  0.14644082213E+04  0.25500000920E-02 0. -1.
       -2    1    3    3    0  502 -0.61399925260E+03 -0.10698469139E+04 -0.94754698353E+03  0.15554461699E+04  0.25500000920E-02 0.  1.
</event>
<event>
 5   0  0.3725232E-06  0.2855434E+04  0.7818609E-02  0.8286262E-01
        1   -1    0    0  501    0  0.00000000000E+00  0.00000000000E+00  0.11088092153E+04  0.11088092154E+04  0.50400001928E-02 0. -1.
       -1   -1    0    0    0  501  0.00000000000E+00  0.00000000000E+00 -0.18383469166E+04  0.18383469166E+04  0.50400001928E-02 0.  1.
    10030    2    1    2    0    0  0.00000000000E+00  0.00000000000E+00 -0.72953770126E+03  0.29471561320E+04  0.28554341191E+04 0.  0.
        2    1    3    3  502    0  0.11263413659E+04  0.57674141109E+03 -0.10471415429E+04  0.16424922948E+04  0.25500000920E-02 0.  1.
       -2    1    3    3    0  502 -0.11263413659E+04 -0.57674141109E+03  0.31760384165E+03  0.13046638371E+04  0.25500000920E-02 0. -1.
</event>
<event>
 5   0  0.3725232E-06  0.2975349E+04  0.7818609E-02  0.8250805E-01
       -1   -1    0    0    0  501  0.00000000000E+00  0.00000000000E+00  0.14441229825E+04  0.14441229826E+04  0.50400001928E-02 0.  1.
        1   -1    0    0  501    0  0.00000000000E+00  0.00000000000E+00 -0.15325396078E+04  0.15325396078E+04  0.50400001928E-02 0. -1.
    10030    2    1    2    0    0  0.00000000000E+00  0.00000000000E+00 -0.88416625272E+02  0.29766625904E+04  0.29753491690E+04 0.  0.
        2    1    3    3  502    0 -0.48526231051E+02 -0.13067820348E+04 -0.75384617361E+03  0.15094098632E+04  0.25500000920E-02 0. -1.
       -2    1    3    3    0  502  0.48526231051E+02  0.13067820348E+04  0.66542954834E+03  0.14672527272E+04  0.25500000920E-02 0.  1.
</event>
<event>
 5   0  0.3636718E-06  0.3037602E+04  0.7818609E-02  0.8233074E-01
        1   -1    0    0  501    0  0.00000000000E+00  0.00000000000E+00  0.29905647312E+04  0.29905647312E+04  0.50400001928E-02 0.  1.
       -1   -1    0    0    0  501  0.00000000000E+00  0.00000000000E+00 -0.77134472290E+03  0.77134472291E+03  0.50400001928E-02 0. -1.
    10030    2    1    2    0    0  0.00000000000E+00  0.00000000000E+00  0.22192200083E+04  0.37619094541E+04  0.30376018988E+04 0.  0.
        4    1    3    3  502    0  0.11149089852E+04 -0.52451796765E+03  0.22093995949E+04  0.25297409604E+04  0.12699999809E+01 0.  1.
       -4    1    3    3    0  502 -0.11149089852E+04  0.52451796765E+03  0.98204133632E+01  0.12321684937E+04  0.12699999809E+01 0. -1.
</event>
<event>
 5   0  0.3636718E-06  0.2931914E+04  0.7818609E-02  0.8263445E-01
       -1   -1    0    0    0  501  0.00000000000E+00  0.00000000000E+00  0.13646292800E+04  0.13646292800E+04  0.50400001928E-02 0.  1.
        1   -1    0    0  501    0  0.00000000000E+00  0.00000000000E+00 -0.15748087331E+04  0.15748087331E+04  0.50400001928E-02 0. -1.
    10030    2    1    2    0    0  0.00000000000E+00  0.00000000000E+00 -0.21017945311E+03  0.29394380131E+04  0.29319141240E+04 0.  0.
        4    1    3    3  502    0  0.88791131582E+03  0.11594578584E+04  0.22907255804E+02  0.14605668028E+04  0.12699999809E+01 0. -1.
       -4    1    3    3    0  502 -0.88791131582E+03 -0.11594578584E+04 -0.23308670891E+03  0.14788712104E+04  0.12699999809E+01 0.  1.
</event>
<event>
 5   0  0.3896630E-06  0.2372913E+04  0.7818609E-02  0.8449715E-01
       -1   -1    0    0    0  501  0.00000000000E+00  0.00000000000E+00  0.11308311560E+04  0.11308311560E+04  0.50400001928E-02 0. -1.
        1   -1    0    0  501    0  0.00000000000E+00  0.00000000000E+00 -0.12448180444E+04  0.12448180444E+04  0.50400001928E-02 0.  1.
    10030    2    1    2    0    0  0.00000000000E+00  0.00000000000E+00 -0.11398688840E+03  0.23756492005E+04  0.23729130016E+04 0.  0.
        5    1    3    3  502    0 -0.76919629744E+03  0.38724232933E+03  0.76005873875E+03  0.11486213223E+04  0.46999998093E+01 0. -1.
       -5    1    3    3    0  502  0.76919629744E+03 -0.38724232933E+03 -0.87404562715E+03  0.12270278782E+04  0.46999998093E+01 0.  1.
</event>
<event>
 5   0  0.3592331E-06  0.3036941E+04  0.7818609E-02  0.8233260E-01
       -1   -1    0    0    0  501  0.00000000000E+00  0.00000000000E+00  0.12455081331E+04  0.12455081331E+04  0.50400001928E-02 0.  1.
        1   -1    0    0  501    0  0.00000000000E+00  0.00000000000E+00 -0.18512543911E+04  0.18512543911E+04  0.50400001928E-02 0. -1.
    10030    2    1    2    0    0  0.00000000000E+00  0.00000000000E+00 -0.60574625806E+03  0.30967625242E+04  0.30369408296E+04 0.  0.
        3    1    3    3  502    0 -0.14161227159E+03  0.98813296107E+03  0.86390898780E+03  0.13201513298E+04  0.10100000352E+00 0.  1.
       -3    1    3    3    0  502  0.14161227159E+03 -0.98813296107E+03 -0.14696552459E+04  0.17766111944E+04  0.10100000352E+00 0. -1.
</event>
<event>
 5   0  0.1089569E-05  0.2973025E+04  0.7818609E-02  0.8251476E-01
        2   -1    0    0  501    0  0.00000000000E+00  0.00000000000E+00  0.25007534576E+04  0.25007534576E+04  0.25500000920E-02 0. -1.
       -2   -1    0    0    0  501  0.00000000000E+00  0.00000000000E+00 -0.88362153806E+03  0.88362153806E+03  0.25500000920E-02 0.  1.
    10030    2    1    2    0    0  0.00000000000E+00  0.00000000000E+00  0.16171319196E+04  0.33843749957E+04  0.29730251372E+04 0.  0.
        5    1    3    3  502    0  0.66505890724E+03  0.12338033637E+04  0.24496423356E+03  0.14228856792E+04  0.46999998093E+01 0.  1.
       -5    1    3    3    0  502 -0.66505890724E+03 -0.12338033637E+04  0.13721676860E+04  0.19614893165E+04  0.46999998093E+01 0. -1.
</event>
<event>
 5   0  0.3896630E-06  0.2712562E+04  0.7818609E-02  0.8330941E-01
       -1   -1    0    0    0  501  0.00000000000E+00  0.00000000000E+00  0.15268174549E+04  0.15268174549E+04  0.50400001928E-02 0.  1.
        1   -1    0    0  501    0  0.00000000000E+00  0.00000000000E+00 -0.12047921622E+04  0.12047921622E+04  0.50400001928E-02 0. -1.
    10030    2    1    2    0    0  0.00000000000E+00  0.00000000000E+00  0.32202529266E+03  0.27316096171E+04  0.27125616695E+04 0.  0.
        5    1    3    3  502    0 -0.46982576407E+03 -0.14422892964E+03  0.14339847620E+04  0.15158735502E+04  0.46999998093E+01 0.  1.
       -5    1    3    3    0  502  0.46982576407E+03  0.14422892964E+03 -0.11119594693E+04  0.12157360668E+04  0.46999998093E+01 0. -1.
</event>
<event>
 5   0  0.1029922E-05  0.3039908E+04  0.7818609E-02  0.8232426E-01
       -2   -1    0    0    0  501  0.00000000000E+00  0.00000000000E+00  0.16825575109E+04  0.16825575109E+04  0.25500000920E-02 0. -1.
        2   -1    0    0  501    0  0.00000000000E+00  0.00000000000E+00 -0.13730642070E+04  0.13730642071E+04  0.25500000920E-02 0.  1.
    10030    2    1    2    0    0  0.00000000000E+00  0.00000000000E+00  0.30949330385E+03  0.30556217179E+04  0.30399075608E+04 0.  0.
        1    1    3    3  502    0  0.56444136358E+03  0.93867816903E+03  0.12140199426E+04  0.16351009690E+04  0.50400001928E-02 0. -1.
       -1    1    3    3    0  502 -0.56444136358E+03 -0.93867816903E+03 -0.90452663872E+03  0.14205207489E+04  0.50400001928E-02 0.  1.
</event>
<event>
 5   0  0.3592331E-06  0.3026674E+04  0.7818609E-02  0.8236155E-01
        1   -1    0    0  501    0  0.00000000000E+00  0.00000000000E+00  0.24577741580E+04  0.24577741580E+04  0.50400001928E-02 0. -1.
       -1   -1    0    0    0  501  0.00000000000E+00  0.00000000000E+00 -0.93181447520E+03  0.93181447521E+03  0.50400001928E-02 0.  1.
    10030    2    1    2    0    0  0.00000000000E+00  0.00000000000E+00  0.15259596828E+04  0.33895886332E+04  0.30266744372E+04 0.  0.
        3    1    3    3  502    0 -0.11246593203E+04  0.17828245523E+03 -0.35330580999E+03  0.11922534236E+04  0.10100000352E+00 0.  1.
       -3    1    3    3    0  502  0.11246593203E+04 -0.17828245523E+03  0.18792654928E+04  0.21973352096E+04  0.10100000352E+00 0. -1.
</event>
<event>
 5   0  0.3636718E-06  0.2923209E+04  0.7818609E-02  0.8266005E-01
       -1   -1    0    0    0  501  0.00000000000E+00  0.00000000000E+00  0.16390332675E+04  0.16390332676E+04  0.50400001928E-02 0. -1.
        1   -1    0    0  501    0  0.00000000000E+00  0.00000000000E+00 -0.13033830019E+04  0.13033830019E+04  0.50400001928E-02 0.  1.
    10030    2    1    2    0    0  0.00000000000E+00  0.00000000000E+00  0.33565026562E+03  0.29424162695E+04  0.29232092642E+04 0.  0.
        4    1    3    3  502    0 -0.91504336826E+02  0.51507306871E+03  0.15415682911E+04  0.16279151448E+04  0.12699999809E+01 0. -1.
       -4    1    3    3    0  502  0.91504336826E+02 -0.51507306871E+03 -0.12059180254E+04  0.13145011247E+04  0.12699999809E+01 0.  1.
</event>
<event>
 5   0  0.1029922E-05  0.2993269E+04  0.7818609E-02  0.8245656E-01
       -2   -1    0    0    0  501  0.00000000000E+00  0.00000000000E+00  0.31119069521E+04  0.31119069521E+04  0.25500000920E-02 0. -1.
        2   -1    0    0  501    0  0.00000000000E+00  0.00000000000E+00 -0.71978857169E+03  0.71978857169E+03  0.25500000920E-02 0.  1.
    10030    2    1    2    0    0  0.00000000000E+00  0.00000000000E+00  0.23921183805E+04  0.38316955238E+04  0.29932691562E+04 0.  0.
        1    1    3    3  502    0  0.55023036338E+03  0.20055742541E+03 -0.56702002960E+03  0.81516160831E+03  0.50400001928E-02 0.  1.
       -1    1    3    3    0  502 -0.55023036338E+03 -0.20055742541E+03  0.29591384101E+04  0.30165339155E+04  0.50400001928E-02 0. -1.
</event>
<event>
 5   0  0.1028450E-05  0.3034326E+04  0.7818609E-02  0.8233996E-01
        2   -1    0    0  501    0  0.00000000000E+00  0.00000000000E+00  0.24549234006E+04  0.24549234006E+04  0.25500000920E-02 0.  1.
       -2   -1    0    0    0  501  0.00000000000E+00  0.00000000000E+00 -0.93761900303E+03  0.93761900304E+03  0.25500000920E-02 0. -1.
    10030    2    1    2    0    0  0.00000000000E+00  0.00000000000E+00  0.15173043975E+04  0.33925424036E+04  0.30343255141E+04 0.  0.
        3    1    3    3  502    0  0.10096634137E+04 -0.88968669421E+03  0.15419453496E+04  0.20465967102E+04  0.10100000352E+00 0.  1.
       -3    1    3    3    0  502 -0.10096634137E+04  0.88968669421E+03 -0.24640952067E+02  0.13459456934E+04  0.10100000352E+00 0. -1.
</event>
<event>
 5   0  0.1029922E-05  0.2880652E+04  0.7818609E-02  0.8278657E-01
        2   -1    0    0  501    0  0.00000000000E+00  0.00000000000E+00  0.10249406375E+04  0.10249406375E+04  0.25500000920E-02 0.  1.
       -2   -1    0    0    0  501  0.00000000000E+00  0.00000000000E+00 -0.20240575157E+04  0.20240575157E+04  0.25500000920E-02 0. -1.
    10030    2    1    2    0    0  0.00000000000E+00  0.00000000000E+00 -0.99911687816E+03  0.30489981532E+04  0.28806518711E+04 0.  0.
        1    1    3    3  502    0 -0.13446817059E+04  0.30976504811E+02  0.45728788920E+02  0.13458155729E+04  0.50400001928E-02 0.  1.
       -1    1    3    3    0  502  0.13446817059E+04 -0.30976504811E+02 -0.10448456671E+04  0.17031825804E+04  0.50400001928E-02 0. -1.
</event>
<event>
 5   0  0.1028450E-05  0.2888360E+04  0.7818609E-02  0.8276349E-01
       -2   -1    0    0    0  501  0.00000000000E+00  0.00000000000E+00  0.98484423529E+03  0.98484423530E+03  0.25500000920E-02 0.  1.
        2   -1    0    0  501    0  0.00000000000E+00  0.00000000000E+00 -0.21177525660E+04  0.21177525660E+04  0.25500000920E-02 0. -1.
    10030    2    1    2    0    0  0.00000000000E+00  0.00000000000E+00 -0.11329083307E+04  0.31025968013E+04  0.28883603698E+04 0.  0.
        3    1    3    3  502    0  0.59814465280E+03  0.47880207812E+03  0.74853106678E+03  0.10711336162E+04  0.10100000352E+00 0.  1.
       -3    1    3    3    0  502 -0.59814465280E+03 -0.47880207812E+03 -0.18814393975E+04  0.20314631851E+04  0.10100000352E+00 0. -1.
</event>
<event>
 5   0  0.9647945E-06  0.2939569E+04  0.7818609E-02  0.8261201E-01
       -2   -1    0    0    0  501  0.00000000000E+00  0.00000000000E+00  0.15526935670E+04  0.15526935670E+04  0.25500000920E-02 0.  1.
        2   -1    0    0  501    0  0.00000000000E+00  0.00000000000E+00 -0.13913025459E+04  0.13913025459E+04  0.25500000920E-02 0. -1.
    10030    2    1    2    0    0  0.00000000000E+00  0.00000000000E+00  0.16139102107E+03  0.29439961129E+04  0.29395690247E+04 0.  0.
        2    1    3    3  502    0  0.13389344208E+04  0.50296247506E+03  0.41965741100E+03  0.14905800807E+04  0.25500000920E-02 0.  1.
       -2    1    3    3    0  502 -0.13389344208E+04 -0.50296247506E+03 -0.25826638992E+03  0.14534160322E+04  0.25500000920E-02 0. -1.
</event>
<event>
 5   0  0.1029922E-05  0.3056502E+04  0.7818609E-02  0.8227778E-01
        2   -1    0    0  501    0  0.00000000000E+00  0.00000000000E+00  0.18730411781E+04  0.18730411781E+04  0.25500000920E-02 0.  1.
       -2   -1    0    0    0  501  0.00000000000E+00  0.00000000000E+00 -0.12469297061E+04  0.12469297061E+04  0.25500000920E-02 0. -1.
    10030    2    1    2    0    0  0.00000000000E+00  0.00000000000E+00  0.62611147203E+03  0.31199708842E+04  0.30565017165E+04 0.  0.
        1    1    3    3  502    0  0.18738023621E+03  0.95953461366E+03 -0.88595582101E+03  0.13193694496E+04  0.50400001928E-02 0.  1.
       -1    1    3    3    0  502 -0.18738023621E+03 -0.95953461366E+03  0.15120672930E+04  0.18006014346E+04  0.50400001928E-02 0. -1.
</event>
<event>
 5   0  0.3896630E-06  0.2518083E+04  0.7818609E-02  0.8396572E-01
       -1   -1    0    0    0  501  0.00000000000E+00  0.00000000000E+00  0.87681046802E+03  0.87681046803E+03  0.50400001928E-02 0. -1.
        1   -1    0    0  501    0  0.00000000000E+00  0.00000000000E+00 -0.18078992533E+04  0.18078992533E+04  0.50400001928E-02 0.  1.
    10030    2    1    2    0    0  0.00000000000E+00  0.00000000000E+00 -0.93108878531E+03  0.26847097214E+04  0.25180825963E+04 0.  0.
        5    1    3    3  502    0  0.82796847863E+03  0.90784414742E+03 -0.75840252071E+03  0.14439214906E+04  0.46999998093E+01 0. -1.
       -5    1    3    3    0  502 -0.82796847863E+03 -0.90784414742E+03 -0.17268626460E+03  0.12407882308E+04  0.46999998093E+01 0.  1.
</event>
<event>
 5   0  0.3896630E-06  0.2971347E+04  0.7818609E-02  0.8251961E-01
        1   -1    0    0  501    0  0.00000000000E+00  0.00000000000E+00  0.18569240440E+04  0.18569240440E+04  0.50400001928E-02 0. -1.
       -1   -1    0    0    0  501  0.00000000000E+00  0.00000000000E+00 -0.11886458857E+04  0.11886458857E+04  0.50400001928E-02 0.  1.
    10030    2    1    2    0    0  0.00000000000E+00  0.00000000000E+00  0.66827815832E+03  0.30455699297E+04  0.29713465803E+04 0.  0.
        5    1    3    3  502    0  0.98722574704E+03 -0.10775908310E+04  0.60282685485E+02  0.14626936681E+04  0.46999998093E+01 0.  1.
       -5    1    3    3    0  502 -0.98722574704E+03  0.10775908310E+04  0.60799547283E+03  0.15828762616E+04  0.46999998093E+01 0. -1.
</event>
<event>
 5   0  0.9647945E-06  0.2972617E+04  0.7818609E-02  0.8251594E-01
       -2   -1    0    0    0  501  0.00000000000E+00  0.00000000000E+00  0.10952252040E+04  0.10952252040E+04  0.25500000920E-02 0.  1.
        2   -1    0    0  501    0  0.00000000000E+00  0.00000000000E+00 -0.20170393672E+04  0.20170393672E+04  0.25500000920E-02 0. -1.
    10030    2    1    2    0    0  0.00000000000E+00  0.00000000000E+00 -0.92181416317E+03  0.31122645712E+04  0.29726165931E+04 0.  0.
        2    1    3    3  502    0  0.61570965197E+03 -0.10067120787E+04 -0.14069865362E+04  0.18363492854E+04  0.25500000920E-02 0. -1.
       -2    1    3    3    0  502 -0.61570965197E+03  0.10067120787E+04  0.48517237307E+03  0.12759152858E+04  0.25500000920E-02 0.  1.
</event>
<event>
 5   0  0.3592331E-06  0.2833336E+04  0.7818609E-02  0.8292993E-01
       -1   -1    0    0    0  501  0.00000000000E+00  0.00000000000E+00  0.85764755005E+03  0.85764755007E+03  0.50400001928E-02 0. -1.
        1   -1    0    0  501    0  0.00000000000E+00  0.00000000000E+00 -0.23400624947E+04  0.23400624947E+04  0.50400001928E-02 0.  1.
    10030    2    1    2    0    0  0.00000000000E+00  0.00000000000E+00 -0.14824149447E+04  0.31977100448E+04  0.28333364542E+04 0.  0.
        3    1    3    3  502    0 -0.13415196192E+02 -0.13237911611E+04 -0.17202271738E+03  0.13349887008E+04  0.10100000352E+00 0.  1.
       -3    1    3    3    0  502  0.13415196192E+02  0.13237911611E+04 -0.13103922273E+04  0.18627213440E+04  0.10100000352E+00 0. -1.
</event>
<event>
 5   0  0.3896630E-06  0.3014974E+04  0.7818609E-02  0.8239468E-01
       -1   -1    0    0    0  501  0.00000000000E+00  0.00000000000E+00  0.30145621274E+04  0.30145621274E+04  0.50400001928E-02 0.  1.
        1   -1    0    0  501    0  0.00000000000E+00  0.00000000000E+00 -0.75384641301E+03  0.75384641303E+03  0.50400001928E-02 0. -1.
    10030    2    1    2    0    0  0.00000000000E+00  0.00000000000E+00  0.22607157144E+04  0.37684085404E+04  0.30149738616E+04 0.  0.
        5    1    3    3  502    0  0.47962693813E+03  0.96877140417E+03 -0.18288825858E+03  0.10963713962E+04  0.46999998093E+01 0. -1.
       -5    1    3    3    0  502 -0.47962693813E+03 -0.96877140417E+03  0.24436039729E+04  0.26720371442E+04  0.46999998093E+01 0.  1.
</event>
<event>
 5   0  0.3725232E-06  0.1893803E+04  0.7818609E-02  0.8657947E-01
       -1   -1    0    0    0  501  0.00000000000E+00  0.00000000000E+00  0.46903304042E+03  0.46903304044E+03  0.50400001928E-02 0. -1.
        1   -1    0    0  501    0  0.00000000000E+00  0.00000000000E+00 -0.19116407969E+04  0.19116407969E+04  0.50400001928E-02 0.  1.
    10030    2    1    2    0    0  0.00000000000E+00  0.00000000000E+00 -0.14426077564E+04  0.23806738373E+04  0.18938032582E+04 0.  0.
        2    1    3    3  502    0  0.92014196572E+03 -0.15435959845E+03 -0.51808093369E+03  0.10671906936E+04  0.25500000920E-02 0.  1.
       -2    1    3    3    0  502 -0.92014196572E+03  0.15435959845E+03 -0.92452682275E+03  0.13134831437E+04  0.25500000920E-02 0. -1.
</event>
<event>
 5   0  0.1028450E-05  0.2979459E+04  0.7818609E-02  0.8249621E-01
       -2   -1    0    0    0  501  0.00000000000E+00  0.00000000000E+00  0.16620653593E+04  0.16620653593E+04  0.25500000920E-02 0.  1.
        2   -1    0    0  501    0  0.00000000000E+00  0.00000000000E+00 -0.13352627334E+04  0.13352627334E+04  0.25500000920E-02 0. -1.
    10030    2    1    2    0    0  0.00000000000E+00  0.00000000000E+00  0.32680262589E+03  0.29973280927E+04  0.29794589675E+04 0.  0.
        3    1    3    3  502    0 -0.24102946867E+03 -0.15322819036E+03  0.16342644694E+04  0.16590341917E+04  0.10100000352E+00 0.  1.
       -3    1    3    3    0  502  0.24102946867E+03  0.15322819036E+03 -0.13074618435E+04  0.13382939010E+04  0.10100000352E+00 0. -1.
</event>
<event>
 5   0  0.3313750E-06  0.2924264E+04  0.7818609E-02  0.8265695E-01
       -3   -1    0    0    0  501  0.00000000000E+00  0.00000000000E+00  0.13974642136E+04  0.13974642172E+04  0.10100000352E+00 0. -1.
        3   -1    0    0  501    0  0.00000000000E+00  0.00000000000E+00 -0.15297927146E+04  0.15297927179E+04  0.10100000352E+00 0.  1.
    10030    2    1    2    0    0  0.00000000000E+00  0.00000000000E+00 -0.13232850106E+03  0.29272569351E+04  0.29242644087E+04 0.  0.
        4    1    3    3  502    0  0.34454336582E+03  0.11762823657E+04 -0.86414916671E+03  0.14997018804E+04  0.12699999809E+01 0.  1.
       -4    1    3    3    0  502 -0.34454336582E+03 -0.11762823657E+04  0.73182066565E+03  0.14275550548E+04  0.12699999809E+01 0. -1.
</event>
<event>
 5   0  0.9647945E-06  0.2426510E+04  0.7818609E-02  0.8429645E-01
        2   -1    0    0  501    0  0.00000000000E+00  0.00000000000E+00  0.13779588185E+04  0.13779588185E+04  0.25500000920E-02 0. -1.
       -2   -1    0    0    0  501  0.00000000000E+00  0.00000000000E+00 -0.10682381326E+04  0.10682381326E+04  0.25500000920E-02 0.  1.
    10030    2    1    2    0    0  0.00000000000E+00  0.00000000000E+00  0.30972068591E+03  0.24461969512E+04  0.24265103793E+04 0.  0.
        2    1    3    3  502    0  0.44031715683E+03  0.24188403133E+02 -0.98458574134E+03  0.10788296249E+04  0.25500000920E-02 0.  1.
       -2    1    3    3    0  502 -0.44031715683E+03 -0.24188403133E+02  0.12943064272E+04  0.13673673263E+04  0.25500000920E-02 0. -1.
</event>
<event>
 5   0  0.3592331E-06  0.3011472E+04  0.7818609E-02  0.8240463E-01
       -1   -1    0    0    0  501  0.00000000000E+00  0.00000000000E+00  0.11134529553E+04  0.11134529553E+04  0.50400001928E-02 0.  1.
        1   -1    0    0  501    0  0.00000000000E+00  0.00000000000E+00 -0.20362245133E+04  0.20362245133E+04  0.50400001928E-02 0. -1.
    10030    2    1    2    0    0  0.00000000000E+00  0.00000000000E+00 -0.92277155799E+03  0.31496774687E+04  0.30114715354E+04 0.  0.
        3    1    3    3  502    0  0.21666005091E+03 -0.78504464801E+03  0.86323016733E+03  0.11867615637E+04  0.10100000352E+00 0.  1.
       -3    1    3    3    0  502 -0.21666005091E+03  0.78504464801E+03 -0.17860017253E+04  0.19629159050E+04  0.10100000352E+00 0. -1.
</event>
<event>
 5   0  0.1028450E-05  0.2689325E+04  0.7818609E-02  0.8338477E-01
        2   -1    0    0  501    0  0.00000000000E+00  0.00000000000E+00  0.12425016225E+04  0.12425016225E+04  0.25500000920E-02 0.  1.
       -2   -1    0    0    0  501  0.00000000000E+00  0.00000000000E+00 -0.14552232578E+04  0.14552232578E+04  0.25500000920E-02 0. -1.
    10030    2    1    2    0    0  0.00000000000E+00  0.00000000000E+00 -0.21272163531E+03  0.26977248803E+04  0.26893250148E+04 0.  0.
        3    1    3    3  502    0 -0.35393020220E+02  0.65476457675E+03  0.10712513509E+04  0.12560050891E+04  0.10100000352E+00 0.  1.
       -3    1    3    3    0  502  0.35393020220E+02 -0.65476457675E+03 -0.12839729862E+04  0.14417197912E+04  0.10100000352E+00 0. -1.
</event>
<event>
 5   0  0.3725232E-06  0.2997390E+04  0.7818609E-02  0.8244477E-01
       -1   -1    0    0    0  501  0.00000000000E+00  0.00000000000E+00  0.18858353572E+04  0.18858353572E+04  0.50400001928E-02 0. -1.
        1   -1    0    0  501    0  0.00000000000E+00  0.00000000000E+00 -0.11910300144E+04  0.11910300144E+04  0.50400001928E-02 0.  1.
    10030    2    1    2    0    0  0.00000000000E+00  0.00000000000E+00  0.69480534277E+03  0.30768653716E+04  0.29973898729E+04 0.  0.
        2    1    3    3  502    0 -0.79711843079E+03  0.22825800161E+03  0.16289385924E+04  0.18278239647E+04  0.25500000920E-02 0. -1.
       -2    1    3    3    0  502  0.79711843079E+03 -0.22825800161E+03 -0.93413324964E+03  0.12490414069E+04  0.25500000920E-02 0.  1.
</event>
<event>
 5   0  0.3592331E-06  0.3060029E+04  0.7818609E-02  0.8226794E-01
       -1   -1    0    0    0  501  0.00000000000E+00  0.00000000000E+00  0.12734171999E+04  0.12734171999E+04  0.50400001928E-02 0.  1.
        1   -1    0    0  501    0  0.00000000000E+00  0.00000000000E+00 -0.18383174525E+04  0.18383174526E+04  0.50400001928E-02 0. -1.
    10030    2    1    2    0    0  0.00000000000E+00  0.00000000000E+00 -0.56490025267E+03  0.31117346524E+04  0.30600294528E+04 0.  0.
        3    1    3    3  502    0 -0.42754105053E+03  0.34917783162E+03  0.11686260444E+04  0.12924408497E+04  0.10100000352E+00 0.  1.
       -3    1    3    3    0  502  0.42754105053E+03 -0.34917783162E+03 -0.17335262971E+04  0.18192938028E+04  0.10100000352E+00 0. -1.
</event>
<event>
 5   0  0.3896630E-06  0.1928972E+04  0.7818609E-02  0.8640568E-01
       -1   -1    0    0    0  501  0.00000000000E+00  0.00000000000E+00  0.13700087869E+04  0.13700087869E+04  0.50400001928E-02 0.  1.
        1   -1    0    0  501    0  0.00000000000E+00  0.00000000000E+00 -0.67899806944E+03  0.67899806946E+03  0.50400001928E-02 0. -1.
    10030    2    1    2    0    0  0.00000000000E+00  0.00000000000E+00  0.69101071743E+03  0.20490068563E+04  0.19289720801E+04 0.  0.
        5    1    3    3  502    0 -0.67411603594E+03  0.63074102330E+03  0.64206386347E+03  0.11245153459E+04  0.46999998093E+01 0. -1.
       -5    1    3    3    0  502  0.67411603594E+03 -0.63074102330E+03  0.48946853963E+02  0.92449151045E+03  0.46999998093E+01 0.  1.
</event>
<event>
 5   0  0.3725232E-06  0.3014715E+04  0.7818609E-02  0.8239541E-01
        1   -1    0    0  501    0  0.00000000000E+00  0.00000000000E+00  0.18172432007E+04  0.18172432007E+04  0.50400001928E-02 0. -1.
       -1   -1    0    0    0  501  0.00000000000E+00  0.00000000000E+00 -0.12503150047E+04  0.12503150047E+04  0.50400001928E-02 0.  1.
    10030    2    1    2    0    0  0.00000000000E+00  0.00000000000E+00  0.56692819601E+03  0.30675582055E+04  0.30147148729E+04 0.  0.
        2    1    3    3  502    0 -0.89485152455E+03  0.45724340186E+03  0.14266769899E+04  0.17450610342E+04  0.25500000920E-02 0. -1.
       -2    1    3    3    0  502  0.89485152455E+03 -0.45724340186E+03 -0.85974879388E+03  0.13224971713E+04  0.25500000920E-02 0.  1.
</event>
<event>
 5   0  0.1057036E-05  0.3022253E+04  0.7818609E-02  0.8237405E-01
       -2   -1    0    0    0  501  0.00000000000E+00  0.00000000000E+00  0.11403619042E+04  0.11403619042E+04  0.25500000920E-02 0. -1.
        2   -1    0    0  501    0  0.00000000000E+00  0.00000000000E+00 -0.20024376843E+04  0.20024376843E+04  0.25500000920E-02 0.  1.
    10030    2    1    2    0    0  0.00000000000E+00  0.00000000000E+00 -0.86207578015E+03  0.31427995885E+04  0.30222532327E+04 0.  0.
        4    1    3    3  502    0 -0.50111476217E+03  0.64119422821E+03 -0.17551099894E+04  0.19345952370E+04  0.12699999809E+01 0.  1.
       -4    1    3    3    0  502  0.50111476217E+03 -0.64119422821E+03  0.89303420924E+03  0.12082043515E+04  0.12699999809E+01 0. -1.
</event>
<event>
 5   0  0.3636718E-06  0.2898070E+04  0.7818609E-02  0.8273452E-01
        1   -1    0    0  501    0  0.00000000000E+00  0.00000000000E+00  0.15818269511E+04  0.15818269511E+04  0.50400001928E-02 0.  1.
       -1   -1    0    0    0  501  0.00000000000E+00  0.00000000000E+00 -0.13273904058E+04  0.13273904058E+04  0.50400001928E-02 0. -1.
    10030    2    1    2    0    0  0.00000000000E+00  0.00000000000E+00  0.25443654532E+03  0.29092173569E+04  0.28980696462E+04 0.  0.
        4    1    3    3  502    0  0.45298694747E+03  0.63917073043E+03 -0.10964719286E+04  0.13475862497E+04  0.12699999809E+01 0. -1.
       -4    1    3    3    0  502 -0.45298694747E+03 -0.63917073043E+03  0.13509084739E+04  0.15616311072E+04  0.12699999809E+01 0.  1.
</event>
<event>
 5   0  0.3896630E-06  0.2982941E+04  0.7818609E-02  0.8248619E-01
       -1   -1    0    0    0  501  0.00000000000E+00  0.00000000000E+00  0.88422689658E+03  0.88422689659E+03  0.50400001928E-02 0.  1.
        1   -1    0    0  501    0  0.00000000000E+00  0.00000000000E+00 -0.25157395115E+04  0.25157395116E+04  0.50400001928E-02 0. -1.
    10030    2    1    2    0    0  0.00000000000E+00  0.00000000000E+00 -0.16315126150E+04  0.33999664081E+04  0.29829411935E+04 0.  0.
        5    1    3    3  502    0 -0.52015928239E+03  0.13120700598E+04 -0.13651946503E+04  0.19636374524E+04  0.46999998093E+01 0. -1.
       -5    1    3    3    0  502  0.52015928239E+03 -0.13120700598E+04 -0.26631796462E+03  0.14363289558E+04  0.46999998093E+01 0.  1.
</event>
<event>
 5   0  0.3725232E-06  0.2851993E+04  0.7818609E-02  0.8287306E-01
       -1   -1    0    0    0  501  0.00000000000E+00  0.00000000000E+00  0.11237931031E+04  0.11237931031E+04  0.50400001928E-02 0.  1.
        1   -1    0    0  501    0  0.00000000000E+00  0.00000000000E+00 -0.18094667855E+04  0.18094667855E+04  0.50400001928E-02 0. -1.
    10030    2    1    2    0    0  0.00000000000E+00  0.00000000000E+00 -0.68567368245E+03  0.29332598886E+04  0.28519931934E+04 0.  0.
        2    1    3    3  502    0 -0.22302235323E+03 -0.12713161613E+04  0.28064012648E+03  0.13208870628E+04  0.25500000920E-02 0. -1.
       -2    1    3    3    0  502  0.22302235323E+03  0.12713161613E+04 -0.96631380893E+03  0.16123728258E+04  0.25500000920E-02 0.  1.
</event>
<event>
 5   0  0.1029922E-05  0.2998691E+04  0.7818609E-02  0.8244105E-01
        2   -1    0    0  501    0  0.00000000000E+00  0.00000000000E+00  0.14743331906E+04  0.14743331906E+04  0.25500000920E-02 0.  1.
       -2   -1    0    0    0  501  0.00000000000E+00  0.00000000000E+00 -0.15247821025E+04  0.15247821025E+04  0.25500000920E-02 0. -1.
    10030    2    1    2    0    0  0.00000000000E+00  0.00000000000E+00 -0.50448911827E+02  0.29991152931E+04  0.29986909558E+04 0.  0.
        1    1    3    3  502    0  0.13864234795E+02 -0.83276758735E+03  0.12216848126E+04  0.14785830558E+04  0.50400001928E-02 0.  1.
       -1    1    3    3    0  502 -0.13864234795E+02  0.83276758735E+03 -0.12721337245E+04  0.15205322373E+04  0.50400001928E-02 0. -1.
</event>
<event>
 5   0  0.1028450E-05  0.3094668E+04  0.7818609E-02  0.8217203E-01
        2   -1    0    0  501    0  0.00000000000E+00  0.00000000000E+00  0.18192299021E+04  0.18192299021E+04  0.25500000920E-02 0.  1.
       -2   -1    0    0    0  501  0.00000000000E+00  0.00000000000E+00 -0.13160751433E+04  0.13160751433E+04  0.25500000920E-02 0. -1.
    10030    2    1    2    0    0  0.00000000000E+00  0.00000000000E+00  0.50315475880E+03  0.31353050454E+04  0.30946684825E+04 0.  0.
        3    1    3    3  502    0 -0.14734153657E+04  0.46403590336E+03  0.34197391482E+03  0.15821593877E+04  0.10100000352E+00 0. -1.
       -3    1    3    3    0  502  0.14734153657E+04 -0.46403590336E+03  0.16118084398E+03  0.15531456577E+04  0.10100000352E+00 0.  1.
</event>
<event>
 5   0  0.1028450E-05  0.3081966E+04  0.7818609E-02  0.8220705E-01
        2   -1    0    0  501    0  0.00000000000E+00  0.00000000000E+00  0.17636159615E+04  0.17636159615E+04  0.25500000920E-02 0.  1.
       -2   -1    0    0    0  501  0.00000000000E+00  0.00000000000E+00 -0.13464541476E+04  0.13464541476E+04  0.25500000920E-02 0. -1.
    10030    2    1    2    0    0  0.00000000000E+00  0.00000000000E+00  0.41716181385E+03  0.31100701091E+04  0.30819656235E+04 0.  0.
        3    1    3    3  502    0 -0.74538459253E+02 -0.15177958839E+04  0.46658343058E+03  0.15896416058E+04  0.10100000352E+00 0.  1.
       -3    1    3    3    0  502  0.74538459253E+02  0.15177958839E+04 -0.49421616734E+02  0.15204285033E+04  0.10100000352E+00 0. -1.
</event>
<event>
 5   0  0.3636718E-06  0.2907108E+04  0.7818609E-02  0.8270766E-01
       -1   -1    0    0    0  501  0.00000000000E+00  0.00000000000E+00  0.12366622426E+04  0.12366622426E+04  0.50400001928E-02 0.  1.
        1   -1    0    0  501    0  0.00000000000E+00  0.00000000000E+00 -0.17084853064E+04  0.17084853065E+04  0.50400001928E-02 0. -1.
    10030    2    1    2    0    0  0.00000000000E+00  0.00000000000E+00 -0.47182306385E+03  0.29451475491E+04  0.29071080273E+04 0.  0.
        4    1    3    3  502    0  0.13058823064E+04  0.54535903163E+03 -0.57202465707E+03  0.15264202871E+04  0.12699999809E+01 0. -1.
       -4    1    3    3    0  502 -0.13058823064E+04 -0.54535903163E+03  0.10020159322E+03  0.14187272620E+04  0.12699999809E+01 0.  1.
</event>
<event>
 5   0  0.1029922E-05  0.2115720E+04  0.7818609E-02  0.8554350E-01
       -2   -1    0    0    0  501  0.00000000000E+00  0.00000000000E+00  0.77990833397E+03  0.77990833397E+03  0.25500000920E-02 0.  1.
        2   -1    0    0  501    0  0.00000000000E+00  0.00000000000E+00 -0.14348708942E+04  0.14348708942E+04  0.25500000920E-02 0. -1.
    10030    2    1    2    0    0  0.00000000000E+00  0.00000000000E+00 -0.65496256020E+03  0.22147792281E+04  0.21157199895E+04 0.  0.
        1    1    3    3  502    0  0.22713248708E+03  0.30874332538E+03 -0.13596252242E+04  0.14126189713E+04  0.50400001928E-02 0. -1.
       -1    1    3    3    0  502 -0.22713248708E+03 -0.30874332538E+03  0.70466266400E+03  0.80216025688E+03  0.50400001928E-02 0.  1.
</event>
<event>
 5   0  0.3725232E-06  0.2860524E+04  0.7818609E-02  0.8284721E-01
       -1   -1    0    0    0  501  0.00000000000E+00  0.00000000000E+00  0.13493451607E+04  0.13493451607E+04  0.50400001928E-02 0. -1.
        1   -1    0    0  501    0  0.00000000000E+00  0.00000000000E+00 -0.15160307410E+04  0.15160307411E+04  0.50400001928E-02 0.  1.
    10030    2    1    2    0    0  0.00000000000E+00  0.00000000000E+00 -0.16668558033E+03  0.28653759018E+04  0.28605235492E+04 0.  0.
        2    1    3    3  502    0 -0.11182643996E+03  0.94073704935E+03  0.98999591458E+03  0.13702493421E+04  0.25500000920E-02 0. -1.
       -2    1    3    3    0  502  0.11182643996E+03 -0.94073704935E+03 -0.11566814949E+04  0.14951265596E+04  0.25500000920E-02 0.  1.
</event>
<event>
 5   0  0.3592331E-06  0.2988631E+04  0.7818609E-02  0.8246985E-01
       -1   -1    0    0    0  501  0.00000000000E+00  0.00000000000E+00  0.19258899769E+04  0.19258899769E+04  0.50400001928E-02 0.  1.
        1   -1    0    0  501    0  0.00000000000E+00  0.00000000000E+00 -0.11594528926E+04  0.11594528926E+04  0.50400001928E-02 0. -1.
    10030    2    1    2    0    0  0.00000000000E+00  0.00000000000E+00  0.76643708429E+03  0.30853428694E+04  0.29886309270E+04 0.  0.
        3    1    3    3  502    0  0.13486105398E+04 -0.34817354600E+03 -0.17559579822E+03  0.14038550853E+04  0.10100000352E+00 0.  1.
       -3    1    3    3    0  502 -0.13486105398E+04  0.34817354600E+03  0.94203288251E+03  0.16814877841E+04  0.10100000352E+00 0. -1.
</event>
<event>
 5   0  0.3896630E-06  0.2990089E+04  0.7818609E-02  0.8246567E-01
       -1   -1    0    0    0  501  0.00000000000E+00  0.00000000000E+00  0.11525909919E+04  0.11525909919E+04  0.50400001928E-02 0.  1.
        1   -1    0    0  501    0  0.00000000000E+00  0.00000000000E+00 -0.19392463718E+04  0.19392463718E+04  0.50400001928E-02 0. -1.
    10030    2    1    2    0    0  0.00000000000E+00  0.00000000000E+00 -0.78665537987E+03  0.30918373637E+04  0.29900888944E+04 0.  0.
        5    1    3    3  502    0  0.53969614303E+03 -0.13732506774E+04 -0.64245446625E+03  0.16093039430E+04  0.46999998093E+01 0.  1.
       -5    1    3    3    0  502 -0.53969614303E+03  0.13732506774E+04 -0.14420091362E+03  0.14825334206E+04  0.46999998093E+01 0. -1.
</event>
<event>
 5   0  0.9647945E-06  0.2999991E+04  0.7818609E-02  0.8243734E-01
        2   -1    0    0  501    0  0.00000000000E+00  0.00000000000E+00  0.89670963636E+03  0.89670963637E+03  0.25500000920E-02 0.  1.
       -2   -1    0    0    0  501  0.00000000000E+00  0.00000000000E+00 -0.25091578656E+04  0.25091578656E+04  0.25500000920E-02 0. -1.
    10030    2    1    2    0    0  0.00000000000E+00  0.00000000000E+00 -0.16124482292E+04  0.34058675019E+04  0.29999906915E+04 0.  0.
        2    1    3    3  502    0 -0.48650154423E+02  0.40585100622E+03  0.83226094328E+03  0.92722173966E+03  0.25500000920E-02 0.  1.
       -2    1    3    3    0  502  0.48650154423E+02 -0.40585100622E+03 -0.24447091725E+04  0.24786457623E+04  0.25500000920E-02 0. -1.
</event>
<event>
 5   0  0.1029922E-05  0.2883164E+04  0.7818609E-02  0.8277904E-01
       -2   -1    0    0    0  501  0.00000000000E+00  0.00000000000E+00  0.12121483913E+04  0.12121483913E+04  0.25500000920E-02 0.  1.
        2   -1    0    0  501    0  0.00000000000E+00  0.00000000000E+00 -0.17144422432E+04  0.17144422432E+04  0.25500000920E-02 0. -1.
    10030    2    1    2    0    0  0.00000000000E+00  0.00000000000E+00 -0.50229385187E+03  0.29265906345E+04  0.28831638226E+04 0.  0.
        1    1    3    3  502    0  0.12823294252E+04  0.36534153261E+03  0.30511755214E+03  0.13678230554E+04  0.50400001928E-02 0.  1.
       -1    1    3    3    0  502 -0.12823294252E+04 -0.36534153261E+03 -0.80741140401E+03  0.15587675791E+04  0.50400001928E-02 0. -1.
</event>
<event>
 5   0  0.1089569E-05  0.2885266E+04  0.7818609E-02  0.8277275E-01
        2   -1    0    0  501    0  0.00000000000E+00  0.00000000000E+00  0.16192625822E+04  0.16192625822E+04  0.25500000920E-02 0.  1.
       -2   -1    0    0    0  501  0.00000000000E+00  0.00000000000E+00 -0.12852698621E+04  0.12852698621E+04  0.25500000920E-02 0. -1.
    10030    2    1    2    0    0  0.00000000000E+00  0.00000000000E+00  0.33399272012E+03  0.29045324443E+04  0.28852656000E+04 0.  0.
        5    1    3    3  502    0  0.95281047856E+03 -0.10778337554E+04  0.27539032062E+03  0.14647304636E+04  0.46999998093E+01 0. -1.
       -5    1    3    3    0  502 -0.95281047856E+03  0.10778337554E+04  0.58602399502E+02  0.14398019807E+04  0.46999998093E+01 0.  1.
</event>
<event>
 5   0  0.3725232E-06  0.3028901E+04  0.7818609E-02  0.8235526E-01
       -1   -1    0    0    0  501  0.00000000000E+00  0.00000000000E+00  0.10967892681E+04  0.10967892682E+04  0.50400001928E-02 0. -1.
        1   -1    0    0  501    0  0.00000000000E+00  0.00000000000E+00 -0.20911590599E+04  0.20911590599E+04  0.50400001928E-02 0.  1.
    10030    2    1    2    0    0  0.00000000000E+00  0.00000000000E+00 -0.99436979177E+03  0.31879483281E+04  0.30289013288E+04 0.  0.
        2    1    3    3  502    0  0.82400965591E+03 -0.97803217858E+03  0.35659582011E+03  0.13276669139E+04  0.25500000920E-02 0. -1.
       -2    1    3    3    0  502 -0.82400965591E+03  0.97803217858E+03 -0.13509656119E+04  0.18602814142E+04  0.25500000920E-02 0.  1.
</event>
<event>
 5   0  0.1057036E-05  0.2951768E+04  0.7818609E-02  0.8257640E-01
        2   -1    0    0  501    0  0.00000000000E+00  0.00000000000E+00  0.22395149741E+04  0.22395149741E+04  0.25500000920E-02 0.  1.
       -2   -1    0    0    0  501  0.00000000000E+00  0.00000000000E+00 -0.97263625405E+03  0.97263625405E+03  0.25500000920E-02 0. -1.
    10030    2    1    2    0    0  0.00000000000E+00  0.00000000000E+00  0.12668787200E+04  0.32121512281E+04  0.29517679145E+04 0.  0.
        4    1    3    3  502    0  0.63243762858E+03 -0.99104808407E+03 -0.33749894963E+03  0.12231356478E+04  0.12699999809E+01 0. -1.
       -4    1    3    3    0  502 -0.63243762858E+03  0.99104808407E+03  0.16043776697E+04  0.19890155803E+04  0.12699999809E+01 0.  1.
</event>
<event>
 5   0  0.1029922E-05  0.3094569E+04  0.7818609E-02  0.8217230E-01
        2   -1    0    0  501    0  0.00000000000E+00  0.00000000000E+00  0.30701472940E+04  0.30701472940E+04  0.25500000920E-02 0.  1.
       -2   -1    0    0    0  501  0.00000000000E+00  0.00000000000E+00 -0.77979604978E+03  0.77979604978E+03  0.25500000920E-02 0. -1.
    10030    2    1    2    0    0  0.00000000000E+00  0.00000000000E+00  0.22903512442E+04  0.38499433438E+04  0.30945686175E+04 0.  0.
        1    1    3    3  502    0  0.68990228684E+03  0.61485884775E+02 -0.57615424648E+03  0.90094361376E+03  0.50400001928E-02 0. -1.
       -1    1    3    3    0  502 -0.68990228684E+03 -0.61485884775E+02  0.28665054907E+04  0.29489997300E+04  0.50400001928E-02 0.  1.
</event>
<event>
 5   0  0.3852126E-06  0.2964824E+04  0.7818609E-02  0.8253848E-01
        1   -1    0    0  501    0  0.00000000000E+00  0.00000000000E+00  0.11807615691E+04  0.11807615691E+04  0.50400001928E-02 0. -1.
       -1   -1    0    0    0  501  0.00000000000E+00  0.00000000000E+00 -0.18611250833E+04  0.18611250833E+04  0.50400001928E-02 0.  1.
    10030    2    1    2    0    0  0.00000000000E+00  0.00000000000E+00 -0.68036351424E+03  0.30418866524E+04  0.29648237544E+04 0.  0.
        1    1    3    3  502    0  0.89012754700E+03 -0.10195922474E+04  0.28022523079E+03  0.13821800103E+04  0.50400001928E-02 0. -1.
       -1    1    3    3    0  502 -0.89012754700E+03  0.10195922474E+04 -0.96058874503E+03  0.16597066421E+04  0.50400001928E-02 0.  1.
</event>
<event>
 5   0  0.3896630E-06  0.2881375E+04  0.7818609E-02  0.8278440E-01
        1   -1    0    0  501    0  0.00000000000E+00  0.00000000000E+00  0.96196052081E+03  0.96196052082E+03  0.50400001928E-02 0.  1.
       -1   -1    0    0    0  501  0.00000000000E+00  0.00000000000E+00 -0.21576571054E+04  0.21576571054E+04  0.50400001928E-02 0. -1.
    10030    2    1    2    0    0  0.00000000000E+00  0.00000000000E+00 -0.11956965846E+04  0.31196176262E+04  0.28813753333E+04 0.  0.
        5    1    3    3  502    0  0.57761923576E+03  0.86092855383E+03 -0.16809198474E+04  0.19749317911E+04  0.46999998093E+01 0. -1.
       -5    1    3    3    0  502 -0.57761923576E+03 -0.86092855383E+03  0.48522326279E+03  0.11446858351E+04  0.46999998093E+01 0.  1.
</event>
<event>
 5   0  0.1089569E-05  0.2827189E+04  0.7818609E-02  0.8294877E-01
        2   -1    0    0  501    0  0.00000000000E+00  0.00000000000E+00  0.95200058795E+03  0.95200058795E+03  0.25500000920E-02 0. -1.
       -2   -1    0    0    0  501  0.00000000000E+00  0.00000000000E+00 -0.20990001931E+04  0.20990001931E+04  0.25500000920E-02 0.  1.
    10030    2    1    2    0    0  0.00000000000E+00  0.00000000000E+00 -0.11469996051E+04  0.30510007810E+04  0.28271890053E+04 0.  0.
        5    1    3    3  502    0  0.78092522476E+03  0.11529946763E+04 -0.83559762504E+03  0.16240339932E+04  0.46999998093E+01 0.  1.
       -5    1    3    3    0  502 -0.78092522476E+03 -0.11529946763E+04 -0.31140198011E+03  0.14269667878E+04  0.46999998093E+01 0. -1.
</event>
<event>
 5   0  0.1089569E-05  0.2955298E+04  0.7818609E-02  0.8256612E-01
       -2   -1    0    0    0  501  0.00000000000E+00  0.00000000000E+00  0.16677081460E+04  0.16677081460E+04  0.25500000920E-02 0. -1.
        2   -1    0    0  501    0  0.00000000000E+00  0.00000000000E+00 -0.13092494534E+04  0.13092494534E+04  0.25500000920E-02 0.  1.
    10030    2    1    2    0    0  0.00000000000E+00  0.00000000000E+00  0.35845869263E+03  0.29769575994E+04  0.29552976016E+04 0.  0.
        5    1    3    3  502    0  0.80656136774E+03 -0.12075815787E+04  0.45441535089E+03  0.15216142449E+04  0.46999998093E+01 0.  1.
       -5    1    3    3    0  502 -0.80656136774E+03  0.12075815787E+04 -0.95956658263E+02  0.14553433545E+04  0.46999998093E+01 0. -1.
</event>
<event>
 5   0  0.1089569E-05  0.2852754E+04  0.7818609E-02  0.8287075E-01
        2   -1    0    0  501    0  0.00000000000E+00  0.00000000000E+00  0.19839470084E+04  0.19839470085E+04  0.25500000920E-02 0. -1.
       -2   -1    0    0    0  501  0.00000000000E+00  0.00000000000E+00 -0.10255072148E+04  0.10255072148E+04  0.25500000920E-02 0.  1.
    10030    2    1    2    0    0  0.00000000000E+00  0.00000000000E+00  0.95843979364E+03  0.30094542233E+04  0.28527544381E+04 0.  0.
        5    1    3    3  502    0  0.39279541730E+03  0.12519416541E+04 -0.11086547168E+03  0.13167989171E+04  0.46999998093E+01 0.  1.
       -5    1    3    3    0  502 -0.39279541730E+03 -0.12519416541E+04  0.10693052653E+04  0.16926553062E+04  0.46999998093E+01 0. -1.
</event>
<event>
 5   0  0.1057036E-05  0.2988374E+04  0.7818609E-02  0.8247058E-01
       -2   -1    0    0    0  501  0.00000000000E+00  0.00000000000E+00  0.10905574537E+04  0.10905574537E+04  0.25500000920E-02 0. -1.
        2   -1    0    0  501    0  0.00000000000E+00  0.00000000000E+00 -0.20472057470E+04  0.20472057470E+04  0.25500000920E-02 0.  1.
    10030    2    1    2    0    0  0.00000000000E+00  0.00000000000E+00 -0.95664829333E+03  0.31377632007E+04  0.29883744656E+04 0.  0.
        4    1    3    3  502    0  0.11533186102E+04 -0.94870478438E+03 -0.52986238937E+03  0.15845946956E+04  0.12699999809E+01 0. -1.
       -4    1    3    3    0  502 -0.11533186102E+04  0.94870478438E+03 -0.42678590396E+03  0.15531685051E+04  0.12699999809E+01 0.  1.
</event>
<event>
 5   0  0.1057036E-05  0.2999953E+04  0.7818609E-02  0.8243744E-01
       -2   -1    0    0    0  501  0.00000000000E+00  0.00000000000E+00  0.86678978277E+03  0.86678978277E+03  0.25500000920E-02 0. -1.
        2   -1    0    0  501    0  0.00000000000E+00  0.00000000000E+00 -0.25957029962E+04  0.25957029962E+04  0.25500000920E-02 0.  1.
    10030    2    1    2    0    0  0.00000000000E+00  0.00000000000E+00 -0.17289132134E+04  0.34624927790E+04  0.29999525571E+04 0.  0.
        4    1    3    3  502    0 -0.40269619901E+02  0.11200044469E+04  0.28619772856E+03  0.11566945821E+04  0.12699999809E+01 0. -1.
       -4    1    3    3    0  502  0.40269619901E+02 -0.11200044469E+04 -0.20151109420E+04  0.23057981969E+04  0.12699999809E+01 0.  1.
</event>
<event>
 5   0  0.3896630E-06  0.3052086E+04  0.7818609E-02  0.8229012E-01
        1   -1    0    0  501    0  0.00000000000E+00  0.00000000000E+00  0.14672193178E+04  0.14672193178E+04  0.50400001928E-02 0. -1.
       -1   -1    0    0    0  501  0.00000000000E+00  0.00000000000E+00 -0.15872246375E+04  0.15872246375E+04  0.50400001928E-02 0.  1.
    10030    2    1    2    0    0  0.00000000000E+00  0.00000000000E+00 -0.12000531971E+03  0.30544439553E+04  0.30520856147E+04 0.  0.
        5    1    3    3  502    0  0.30364525609E+03  0.10603270506E+04  0.99546418369E+03  0.14857539927E+04  0.46999998093E+01 0. -1.
       -5    1    3    3    0  502 -0.30364525609E+03 -0.10603270506E+04 -0.11154695034E+04  0.15686899626E+04  0.46999998093E+01 0.  1.
</event>
<event>
 5   0  0.1028450E-05  0.3071875E+04  0.7818609E-02  0.8223499E-01
       -2   -1    0    0    0  501  0.00000000000E+00  0.00000000000E+00  0.14799653207E+04  0.14799653207E+04  0.25500000920E-02 0. -1.
        2   -1    0    0  501    0  0.00000000000E+00  0.00000000000E+00 -0.15940270455E+04  0.15940270455E+04  0.25500000920E-02 0.  1.
    10030    2    1    2    0    0  0.00000000000E+00  0.00000000000E+00 -0.11406172478E+03  0.30739923661E+04  0.30718754841E+04 0.  0.
        3    1    3    3  502    0  0.42352101164E+03  0.12741828685E+04  0.68926635420E+03  0.15093045243E+04  0.10100000352E+00 0. -1.
       -3    1    3    3    0  502 -0.42352101164E+03 -0.12741828685E+04 -0.80332807898E+03  0.15646878419E+04  0.10100000352E+00 0.  1.
</event>
<event>
 5   0  0.9647945E-06  0.3095426E+04  0.7818609E-02  0.8216994E-01
        2   -1    0    0  501    0  0.00000000000E+00  0.00000000000E+00  0.14854454009E+04  0.14854454009E+04  0.25500000920E-02 0. -1.
       -2   -1    0    0    0  501  0.00000000000E+00  0.00000000000E+00 -0.16125909871E+04  0.16125909871E+04  0.25500000920E-02 0.  1.
    10030    2    1    2    0    0  0.00000000000E+00  0.00000000000E+00 -0.12714558621E+03  0.30980363880E+04  0.30954262164E+04 0.  0.
        2    1    3    3  502    0  0.80174361596E+03  0.47136429902E+03  0.11745794044E+04  0.14982035594E+04  0.25500000920E-02 0. -1.
       -2    1    3    3    0  502 -0.80174361596E+03 -0.47136429902E+03 -0.13017249906E+04  0.15998328286E+04  0.25500000920E-02 0.  1.
</event>
<event>
 5   0  0.3592331E-06  0.2800902E+04  0.7818609E-02  0.8302988E-01
       -1   -1    0    0    0  501  0.00000000000E+00  0.00000000000E+00  0.13769458705E+04  0.13769458705E+04  0.50400001928E-02 0.  1.
        1   -1    0    0  501    0  0.00000000000E+00  0.00000000000E+00 -0.14243578154E+04  0.14243578154E+04  0.50400001928E-02 0. -1.
    10030    2    1    2    0    0  0.00000000000E+00  0.00000000000E+00 -0.47411944888E+02  0.28013036859E+04  0.28009024346E+04 0.  0.
        3    1    3    3  502    0 -0.32306408053E+03 -0.12494160141E+04 -0.56770744117E+03  0.14098590445E+04  0.10100000352E+00 0. -1.
       -3    1    3    3    0  502  0.32306408053E+03  0.12494160141E+04  0.52029549629E+03  0.13914446414E+04  0.10100000352E+00 0.  1.
</event>
<event>
 5   0  0.1089569E-05  0.3031819E+04  0.7818609E-02  0.8234703E-01
       -2   -1    0    0    0  501  0.00000000000E+00  0.00000000000E+00  0.10418820652E+04  0.10418820652E+04  0.25500000920E-02 0. -1.
        2   -1    0    0  501    0  0.00000000000E+00  0.00000000000E+00 -0.22056057654E+04  0.22056057654E+04  0.25500000920E-02 0.  1.
    10030    2    1    2    0    0  0.00000000000E+00  0.00000000000E+00 -0.11637237003E+04  0.32474878306E+04  0.30318186554E+04 0.  0.
        5    1    3    3  502    0 -0.13709452950E+04  0.57094981196E+03 -0.90760728782E+03  0.17404734323E+04  0.46999998093E+01 0. -1.
       -5    1    3    3    0  502  0.13709452950E+04 -0.57094981196E+03 -0.25611641244E+03  0.15070143982E+04  0.46999998093E+01 0.  1.
</event>
<event>
 5   0  0.9647945E-06  0.1936335E+04  0.7818609E-02  0.8636979E-01
        2   -1    0    0  501    0  0.00000000000E+00  0.00000000000E+00  0.85064109145E+03  0.85064109145E+03  0.25500000920E-02 0.  1.
       -2   -1    0    0    0  501  0.00000000000E+00  0.00000000000E+00 -0.11019312019E+04  0.11019312019E+04  0.25500000920E-02 0. -1.
    10030    2    1    2    0    0  0.00000000000E+00  0.00000000000E+00 -0.25129011044E+03  0.19525722933E+04  0.19363346408E+04 0.  0.
        2    1    3    3  502    0 -0.10332492818E+03 -0.36548860875E+03 -0.10236690551E+04  0.10918591018E+04  0.25500000920E-02 0. -1.
       -2    1    3    3    0  502  0.10332492818E+03  0.36548860875E+03  0.77237894464E+03  0.86071319151E+03  0.25500000920E-02 0.  1.
</event>
<event>
 5   0  0.3852126E-06  0.3054664E+04  0.7818609E-02  0.8228291E-01
        1   -1    0    0  501    0  0.00000000000E+00  0.00000000000E+00  0.16095035996E+04  0.16095035996E+04  0.50400001928E-02 0.  1.
       -1   -1    0    0    0  501  0.00000000000E+00  0.00000000000E+00 -0.14493555824E+04  0.14493555824E+04  0.50400001928E-02 0. -1.
    10030    2    1    2    0    0  0.00000000000E+00  0.00000000000E+00  0.16014801720E+03  0.30588591821E+04  0.30546639927E+04 0.  0.
        1    1    3    3  502    0 -0.71813880992E+02  0.27192576451E+03 -0.14232012822E+04  0.14507249032E+04  0.50400001928E-02 0. -1.
       -1    1    3    3    0  502  0.71813880992E+02 -0.27192576451E+03  0.15833492994E+04  0.16081342789E+04  0.50400001928E-02 0.  1.
</event>
<event>
 5   0  0.1089569E-05  0.2375122E+04  0.7818609E-02  0.8448877E-01
       -2   -1    0    0    0  501  0.00000000000E+00  0.00000000000E+00  0.12080455343E+04  0.12080455343E+04  0.25500000920E-02 0.  1.
        2   -1    0    0  501    0  0.00000000000E+00  0.00000000000E+00 -0.11674233368E+04  0.11674233368E+04  0.25500000920E-02 0. -1.
    10030    2    1    2    0    0  0.00000000000E+00  0.00000000000E+00  0.40622197511E+02  0.23754688711E+04  0.23751215116E+04 0.  0.
        5    1    3    3  502    0 -0.19727474907E+02 -0.67678726674E+03  0.99608090532E+03  0.12044207893E+04  0.46999998093E+01 0.  1.
       -5    1    3    3    0  502  0.19727474907E+02  0.67678726674E+03 -0.95545870781E+03  0.11710480819E+04  0.46999998093E+01 0. -1.
</event>
<event>
 5   0  0.3725232E-06  0.2920843E+04  0.7818609E-02  0.8266703E-01
       -1   -1    0    0    0  501  0.00000000000E+00  0.00000000000E+00  0.12309026541E+04  0.12309026541E+04  0.50400001928E-02 0.  1.
        1   -1    0    0  501    0  0.00000000000E+00  0.00000000000E+00 -0.17327369659E+04  0.17327369659E+04  0.50400001928E-02 0. -1.
    10030    2    1    2    0    0  0.00000000000E+00  0.00000000000E+00 -0.50183431181E+03  0.29636396200E+04  0.29208427073E+04 0.  0.
        2    1    3    3  502    0 -0.92975888819E+03 -0.77939987526E+03 -0.10757955954E+04  0.16214968143E+04  0.25500000920E-02 0. -1.
       -2    1    3    3    0  502  0.92975888819E+03  0.77939987526E+03  0.57396128362E+03  0.13421428057E+04  0.25500000920E-02 0.  1.
</event>
<event>
 5   0  0.1028450E-05  0.3030443E+04  0.7818609E-02  0.8235091E-01
       -2   -1    0    0    0  501  0.00000000000E+00  0.00000000000E+00  0.11918587398E+04  0.11918587398E+04  0.25500000920E-02 0.  1.
        2   -1    0    0  501    0  0.00000000000E+00  0.00000000000E+00 -0.19263156320E+04  0.19263156320E+04  0.25500000920E-02 0. -1.
    10030    2    1    2    0    0  0.00000000000E+00  0.00000000000E+00 -0.73445689219E+03  0.31181743718E+04  0.30304429522E+04 0.  0.
        3    1    3    3  502    0 -0.13191104956E+03 -0.10911275661E+04  0.70600945913E+03  0.13062960067E+04  0.10100000352E+00 0.  1.
       -3    1    3    3    0  502  0.13191104956E+03  0.10911275661E+04 -0.14404663513E+04  0.18118783651E+04  0.10100000352E+00 0. -1.
</event>
<event>
 5   0  0.3725232E-06  0.3053644E+04  0.7818609E-02  0.8228576E-01
        1   -1    0    0  501    0  0.00000000000E+00  0.00000000000E+00  0.21199443319E+04  0.21199443320E+04  0.50400001928E-02 0. -1.
       -1   -1    0    0    0  501  0.00000000000E+00  0.00000000000E+00 -0.10996446517E+04  0.10996446517E+04  0.50400001928E-02 0.  1.
    10030    2    1    2    0    0  0.00000000000E+00  0.00000000000E+00  0.10202996803E+04  0.32195889836E+04  0.30536440176E+04 0.  0.
        2    1    3    3  502    0  0.67159861619E+03 -0.10141250831E+03  0.19518871433E+04  0.20666863861E+04  0.25500000920E-02 0. -1.
       -2    1    3    3    0  502 -0.67159861619E+03  0.10141250831E+03 -0.93158746305E+03  0.11529025975E+04  0.25500000920E-02 0.  1.
</event>
<event>
 5   0  0.3896630E-06  0.2944516E+04  0.7818609E-02  0.8259755E-01
       -1   -1    0    0    0  501  0.00000000000E+00  0.00000000000E+00  0.15044711885E+04  0.15044711885E+04  0.50400001928E-02 0.  1.
        1   -1    0    0  501    0  0.00000000000E+00  0.00000000000E+00 -0.14407344454E+04  0.14407344454E+04  0.50400001928E-02 0. -1.
    10030    2    1    2    0    0  0.00000000000E+00  0.00000000000E+00  0.63736743087E+02  0.29452056339E+04  0.29445158946E+04 0.  0.
        5    1    3    3  502    0 -0.63110560486E+03 -0.78529268883E+03  0.11056851625E+04  0.14958411213E+04  0.46999998093E+01 0.  1.
       -5    1    3    3    0  502  0.63110560486E+03  0.78529268883E+03 -0.10419484194E+04  0.14493645126E+04  0.46999998093E+01 0. -1.
</event>
<event>
 5   0  0.9647945E-06  0.2510373E+04  0.7818609E-02  0.8399299E-01
       -2   -1    0    0    0  501  0.00000000000E+00  0.00000000000E+00  0.80563937620E+03  0.80563937620E+03  0.25500000920E-02 0.  1.
        2   -1    0    0  501    0  0.00000000000E+00  0.00000000000E+00 -0.19555813744E+04  0.19555813744E+04  0.25500000920E-02 0. -1.
    10030    2    1    2    0    0  0.00000000000E+00  0.00000000000E+00 -0.11499419982E+04  0.27612207506E+04  0.25103731664E+04 0.  0.
        2    1    3    3  502    0  0.77087391081E+03 -0.38218740072E+03  0.43022968077E+03  0.96198304239E+03  0.25500000920E-02 0.  1.
       -2    1    3    3    0  502 -0.77087391081E+03  0.38218740072E+03 -0.15801716790E+04  0.17992377082E+04  0.25500000920E-02 0. -1.
</event>
<event>
 5   0  0.1029922E-05  0.2964939E+04  0.7818609E-02  0.8253814E-01
       -2   -1    0    0    0  501  0.00000000000E+00  0.00000000000E+00  0.14487149748E+04  0.14487149748E+04  0.25500000920E-02 0.  1.
        2   -1    0    0  501    0  0.00000000000E+00  0.00000000000E+00 -0.15170105966E+04  0.15170105966E+04  0.25500000920E-02 0. -1.
    10030    2    1    2    0    0  0.00000000000E+00  0.00000000000E+00 -0.68295621768E+02  0.29657255714E+04  0.29649391010E+04 0.  0.
        1    1    3    3  502    0  0.34337836363E+03 -0.43319888747E+03 -0.14100656623E+04  0.15145478364E+04  0.50400001928E-02 0. -1.
       -1    1    3    3    0  502 -0.34337836363E+03  0.43319888747E+03  0.13417700406E+04  0.14511777350E+04  0.50400001928E-02 0.  1.
</event>
<event>
 5   0  0.3636718E-06  0.2992789E+04  0.7818609E-02  0.8245793E-01
        1   -1    0    0  501    0  0.00000000000E+00  0.00000000000E+00  0.27448608681E+04  0.27448608681E+04  0.50400001928E-02 0. -1.
       -1   -1    0    0    0  501  0.00000000000E+00  0.00000000000E+00 -0.81577764243E+03  0.81577764244E+03  0.50400001928E-02 0.  1.
    10030    2    1    2    0    0  0.00000000000E+00  0.00000000000E+00  0.19290832256E+04  0.35606385105E+04  0.29927887515E+04 0.  0.
        4    1    3    3  502    0  0.11677908884E+04 -0.29332063466E+03  0.20216181267E+04  0.23530223154E+04  0.12699999809E+01 0. -1.
       -4    1    3    3    0  502 -0.11677908884E+04  0.29332063466E+03 -0.92534901084E+02  0.12076161951E+04  0.12699999809E+01 0.  1.
</event>
<event>
 5   0  0.3592331E-06  0.1936449E+04  0.7818609E-02  0.8636923E-01
        1   -1    0    0  501    0  0.00000000000E+00  0.00000000000E+00  0.11312616906E+04  0.11312616907E+04  0.50400001928E-02 0.  1.
       -1   -1    0    0    0  501  0.00000000000E+00  0.00000000000E+00 -0.82868457682E+03  0.82868457684E+03  0.50400001928E-02 0. -1.
    10030    2    1    2    0    0  0.00000000000E+00  0.00000000000E+00  0.30257711383E+03  0.19599462675E+04  0.19364494472E+04 0.  0.
        3    1    3    3  502    0 -0.12891466400E+02 -0.40567155407E+03  0.10410018166E+04  0.11173273432E+04  0.10100000352E+00 0.  1.
       -3    1    3    3    0  502  0.12891466400E+02  0.40567155407E+03 -0.73842470274E+03  0.84261892425E+03  0.10100000352E+00 0. -1.
</event>
<event>
 5   0  0.9647945E-06  0.2960061E+04  0.7818609E-02  0.8255229E-01
       -2   -1    0    0    0  501  0.00000000000E+00  0.00000000000E+00  0.11687043645E+04  0.11687043645E+04  0.25500000920E-02 0.  1.
        2   -1    0    0  501    0  0.00000000000E+00  0.00000000000E+00 -0.18742893140E+04  0.18742893140E+04  0.25500000920E-02 0. -1.
    10030    2    1    2    0    0  0.00000000000E+00  0.00000000000E+00 -0.70558494952E+03  0.30429936784E+04  0.29600608788E+04 0.  0.
        2    1    3    3  502    0  0.61501671101E+03 -0.11064412001E+04  0.43552479604E+03  0.13387081579E+04  0.25500000920E-02 0.  1.
       -2    1    3    3    0  502 -0.61501671101E+03  0.11064412001E+04 -0.11411097456E+04  0.17042855205E+04  0.25500000920E-02 0. -1.
</event>
<event>
 5   0  0.3592331E-06  0.3016132E+04  0.7818609E-02  0.8239139E-01
        1   -1    0    0  501    0  0.00000000000E+00  0.00000000000E+00  0.17537090738E+04  0.17537090738E+04  0.50400001928E-02 0. -1.
       -1   -1    0    0    0  501  0.00000000000E+00  0.00000000000E+00 -0.12968304360E+04  0.12968304360E+04  0.50400001928E-02 0.  1.
    10030    2    1    2    0    0  0.00000000000E+00  0.00000000000E+00  0.45687863775E+03  0.30505395098E+04  0.30161321607E+04 0.  0.
        3    1    3    3  502    0 -0.85874193431E+03  0.12264498035E+04  0.41118383391E+03  0.15526393611E+04  0.10100000352E+00 0.  1.
       -3    1    3    3    0  502  0.85874193431E+03 -0.12264498035E+04  0.45694803846E+02  0.14979001487E+04  0.10100000352E+00 0. -1.
</event>
<event>
 5   0  0.3852126E-06  0.2931780E+04  0.7818609E-02  0.8263484E-01
       -1   -1    0    0    0  501  0.00000000000E+00  0.00000000000E+00  0.11948758763E+04  0.11948758763E+04  0.50400001928E-02 0. -1.
        1   -1    0    0  501    0  0.00000000000E+00  0.00000000000E+00 -0.17983741808E+04  0.17983741808E+04  0.50400001928E-02 0.  1.
    10030    2    1    2    0    0  0.00000000000E+00  0.00000000000E+00 -0.60349830444E+03  0.29932500571E+04  0.29317802955E+04 0.  0.
        1    1    3    3  502    0 -0.49613810187E+03 -0.10826863543E+04  0.57084664530E+03  0.13206924889E+04  0.50400001928E-02 0. -1.
       -1    1    3    3    0  502  0.49613810187E+03  0.10826863543E+04 -0.11743449497E+04  0.16725575682E+04  0.50400001928E-02 0.  1.
</event>
<event>
 5   0  0.3636718E-06  0.2953642E+04  0.7818609E-02  0.8257094E-01
        1   -1    0    0  501    0  0.00000000000E+00  0.00000000000E+00  0.22048098420E+04  0.22048098420E+04  0.50400001928E-02 0. -1.
       -1   -1    0    0    0  501  0.00000000000E+00  0.00000000000E+00 -0.98920132606E+03  0.98920132607E+03  0.50400001928E-02 0.  1.
    10030    2    1    2    0    0  0.00000000000E+00  0.00000000000E+00  0.12156085160E+04  0.31940111681E+04  0.29536423747E+04 0.  0.
        4    1    3    3  502    0  0.10505360483E+04 -0.54877319967E+03  0.15605373899E+04  0.19596062287E+04  0.12699999809E+01 0. -1.
       -4    1    3    3    0  502 -0.10505360483E+04  0.54877319967E+03 -0.34492887395E+03  0.12344049394E+04  0.12699999809E+01 0.  1.
</event>
<event>
 5   0  0.1057036E-05  0.2617617E+04  0.7818609E-02  0.8362242E-01
        2   -1    0    0  501    0  0.00000000000E+00  0.00000000000E+00  0.19327239661E+04  0.19327239661E+04  0.25500000920E-02 0. -1.
       -2   -1    0    0    0  501  0.00000000000E+00  0.00000000000E+00 -0.88630337660E+03  0.88630337660E+03  0.25500000920E-02 0.  1.
    10030    2    1    2    0    0  0.00000000000E+00  0.00000000000E+00  0.10464205895E+04  0.28190273427E+04  0.26176170669E+04 0.  0.
        4    1    3    3  502    0  0.42091716088E+03  0.54527841292E+03 -0.67528790493E+03  0.96463214303E+03  0.12699999809E+01 0.  1.
       -4    1    3    3    0  502 -0.42091716088E+03 -0.54527841292E+03  0.17217084945E+04  0.18543951997E+04  0.12699999809E+01 0. -1.
</event>
<event>
 5   0  0.3725232E-06  0.2991699E+04  0.7818609E-02  0.8246105E-01
        1   -1    0    0  501    0  0.00000000000E+00  0.00000000000E+00  0.15569569767E+04  0.15569569767E+04  0.50400001928E-02 0.  1.
       -1   -1    0    0    0  501  0.00000000000E+00  0.00000000000E+00 -0.14371404857E+04  0.14371404857E+04  0.50400001928E-02 0. -1.
    10030    2    1    2    0    0  0.00000000000E+00  0.00000000000E+00  0.11981649105E+03  0.29940974624E+04  0.29916991197E+04 0.  0.
        2    1    3    3  502    0 -0.82484160501E+02 -0.63086073298E+03  0.14147944885E+04  0.15512679800E+04  0.25500000920E-02 0.  1.
       -2    1    3    3    0  502  0.82484160501E+02  0.63086073298E+03 -0.12949779975E+04  0.14428294823E+04  0.25500000920E-02 0. -1.
</event>
<event>
 5   0  0.1057036E-05  0.3223361E+04  0.7818609E-02  0.8182675E-01
       -2   -1    0    0    0  501  0.00000000000E+00  0.00000000000E+00  0.12551143454E+04  0.12551143454E+04  0.25500000920E-02 0. -1.
        2   -1    0    0  501    0  0.00000000000E+00  0.00000000000E+00 -0.20695438942E+04  0.20695438942E+04  0.25500000920E-02 0.  1.
    10030    2    1    2    0    0  0.00000000000E+00  0.00000000000E+00 -0.81442954882E+03  0.33246582396E+04  0.32233611216E+04 0.  0.
        4    1    3    3  502    0 -0.85070976690E+03  0.43882374676E+03  0.93015899980E+03  0.13347174855E+04  0.12699999809E+01 0. -1.
       -4    1    3    3    0  502  0.85070976690E+03 -0.43882374676E+03 -0.17445885486E+04  0.19899407542E+04  0.12699999809E+01 0.  1.
</event>
<event>
 5   0  0.1029922E-05  0.3000249E+04  0.7818609E-02  0.8243660E-01
        2   -1    0    0  501    0  0.00000000000E+00  0.00000000000E+00  0.32654078398E+04  0.32654078398E+04  0.25500000920E-02 0. -1.
       -2   -1    0    0    0  501  0.00000000000E+00  0.00000000000E+00 -0.68915527576E+03  0.68915527577E+03  0.25500000920E-02 0.  1.
    10030    2    1    2    0    0  0.00000000000E+00  0.00000000000E+00  0.25762525640E+04  0.39545631156E+04  0.30002486832E+04 0.  0.
        1    1    3    3  502    0  0.10291174711E+04  0.23081640605E+03 -0.11797003582E+03  0.10612614721E+04  0.50400001928E-02 0.  1.
       -1    1    3    3    0  502 -0.10291174711E+04 -0.23081640605E+03  0.26942225999E+04  0.28933016435E+04  0.50400001928E-02 0. -1.
</event>
<event>
 5   0  0.3725232E-06  0.2985347E+04  0.7818609E-02  0.8247928E-01
       -1   -1    0    0    0  501  0.00000000000E+00  0.00000000000E+00  0.11228221877E+04  0.11228221877E+04  0.50400001928E-02 0. -1.
        1   -1    0    0  501    0  0.00000000000E+00  0.00000000000E+00 -0.19843516041E+04  0.19843516041E+04  0.50400001928E-02 0.  1.
    10030    2    1    2    0    0  0.00000000000E+00  0.00000000000E+00 -0.86152941641E+03  0.31071737919E+04  0.29853468873E+04 0.  0.
        2    1    3    3  502    0 -0.66322445738E+03  0.29236176842E+03  0.92737323489E+03  0.11770145289E+04  0.25500000920E-02 0. -1.
       -2    1    3    3    0  502  0.66322445738E+03 -0.29236176842E+03 -0.17889026513E+04  0.19301592629E+04  0.25500000920E-02 0.  1.
</event>
<event>
 5   0  0.1028450E-05  0.2742750E+04  0.7818609E-02  0.8321266E-01
       -2   -1    0    0    0  501  0.00000000000E+00  0.00000000000E+00  0.80168383377E+03  0.80168383378E+03  0.25500000920E-02 0. -1.
        2   -1    0    0  501    0  0.00000000000E+00  0.00000000000E+00 -0.23458991354E+04  0.23458991354E+04  0.25500000920E-02 0.  1.
    10030    2    1    2    0    0  0.00000000000E+00  0.00000000000E+00 -0.15442153016E+04  0.31475829692E+04  0.27427500160E+04 0.  0.
        3    1    3    3  502    0  0.31511683348E+03 -0.76743768527E+03  0.48104448484E+03  0.95899062879E+03  0.10100000352E+00 0. -1.
       -3    1    3    3    0  502 -0.31511683348E+03  0.76743768527E+03 -0.20252597865E+04  0.21885923404E+04  0.10100000352E+00 0.  1.
</event>
<event>
 5   0  0.1057036E-05  0.3031672E+04  0.7818609E-02  0.8234744E-01
       -2   -1    0    0    0  501  0.00000000000E+00  0.00000000000E+00  0.16735580889E+04  0.16735580889E+04  0.25500000920E-02 0. -1.
        2   -1    0    0  501    0  0.00000000000E+00  0.00000000000E+00 -0.13729786347E+04  0.13729786347E+04  0.25500000920E-02 0.  1.
    10030    2    1    2    0    0  0.00000000000E+00  0.00000000000E+00  0.30057945422E+03  0.30465367236E+04  0.30316724757E+04 0.  0.
        4    1    3    3  502    0  0.55316953622E+03 -0.11623862875E+04 -0.65402163460E+03  0.14439128535E+04  0.12699999809E+01 0.  1.
       -4    1    3    3    0  502 -0.55316953622E+03  0.11623862875E+04  0.95460108882E+03  0.16026238700E+04  0.12699999809E+01 0. -1.
</event>
<event>
 5   0  0.3592331E-06  0.2351746E+04  0.7818609E-02  0.8457793E-01
       -1   -1    0    0    0  501  0.00000000000E+00  0.00000000000E+00  0.12064400797E+04  0.12064400797E+04  0.50400001928E-02 0.  1.
        1   -1    0    0  501    0  0.00000000000E+00  0.00000000000E+00 -0.11460803814E+04  0.11460803814E+04  0.50400001928E-02 0. -1.
    10030    2    1    2    0    0  0.00000000000E+00  0.00000000000E+00  0.60359698379E+02  0.23525204611E+04  0.23517459954E+04 0.  0.
        3    1    3    3  502    0 -0.10898653930E+04  0.26748747935E+03 -0.32110693743E+03  0.11672471041E+04  0.10100000352E+00 0. -1.
       -3    1    3    3    0  502  0.10898653930E+04 -0.26748747935E+03  0.38146663581E+03  0.11852733570E+04  0.10100000352E+00 0.  1.
</event>
<event>
 5   0  0.3725232E-06  0.2989449E+04  0.7818609E-02  0.8246750E-01
       -1   -1    0    0    0  501  0.00000000000E+00  0.00000000000E+00  0.15213205856E+04  0.15213205856E+04  0.50400001928E-02 0. -1.
        1   -1    0    0  501    0  0.00000000000E+00  0.00000000000E+00 -0.14685934828E+04  0.14685934828E+04  0.50400001928E-02 0.  1.
    10030    2    1    2    0    0  0.00000000000E+00  0.00000000000E+00  0.52727102807E+02  0.29899140685E+04  0.29894491114E+04 0.  0.
        2    1    3    3  502    0 -0.10415958604E+04  0.10370044322E+04  0.29825389438E+03  0.14997518176E+04  0.25500000920E-02 0.  1.
       -2    1    3    3    0  502  0.10415958604E+04 -0.10370044322E+04 -0.24552679157E+03  0.14901622509E+04  0.25500000920E-02 0. -1.
</event>
<event>
 5   0  0.3896630E-06  0.3010243E+04  0.7818609E-02  0.8240812E-01
       -1   -1    0    0    0  501  0.00000000000E+00  0.00000000000E+00  0.13681314325E+04  0.13681314325E+04  0.50400001928E-02 0. -1.
        1   -1    0    0  501    0  0.00000000000E+00  0.00000000000E+00 -0.16558284995E+04  0.16558284996E+04  0.50400001928E-02 0.  1.
    10030    2    1    2    0    0  0.00000000000E+00  0.00000000000E+00 -0.28769706706E+03  0.30239599321E+04  0.30102431909E+04 0.  0.
        5    1    3    3  502    0  0.42854449928E+03 -0.14275791416E+04 -0.35393381952E+03  0.15319673078E+04  0.46999998093E+01 0.  1.
       -5    1    3    3    0  502 -0.42854449928E+03  0.14275791416E+04  0.66236752460E+02  0.14919926243E+04  0.46999998093E+01 0. -1.
</event>
<event>
 5   0  0.1057036E-05  0.3018537E+04  0.7818609E-02  0.8238457E-01
       -2   -1    0    0    0  501  0.00000000000E+00  0.00000000000E+00  0.80257165013E+03  0.80257165013E+03  0.25500000920E-02 0.  1.
        2   -1    0    0  501    0  0.00000000000E+00  0.00000000000E+00 -0.28382403044E+04  0.28382403044E+04  0.25500000920E-02 0. -1.
    10030    2    1    2    0    0  0.00000000000E+00  0.00000000000E+00 -0.20356686543E+04  0.36408119546E+04  0.30185368672E+04 0.  0.
        4    1    3    3  502    0  0.13923711839E+04 -0.34599079684E+03 -0.45276509567E+03  0.15044616944E+04  0.12699999809E+01 0.  1.
       -4    1    3    3    0  502 -0.13923711839E+04  0.34599079684E+03 -0.15829035586E+04  0.21363502602E+04  0.12699999809E+01 0. -1.
</event>
<event>
 5   0  0.3852126E-06  0.3002787E+04  0.7818609E-02  0.8242935E-01
        1   -1    0    0  501    0  0.00000000000E+00  0.00000000000E+00  0.89939752211E+03  0.89939752213E+03  0.50400001928E-02 0. -1.
       -1   -1    0    0    0  501  0.00000000000E+00  0.00000000000E+00 -0.25063249131E+04  0.25063249131E+04  0.50400001928E-02 0.  1.
    10030    2    1    2    0    0  0.00000000000E+00  0.00000000000E+00 -0.16069273910E+04  0.34057224352E+04  0.30027869831E+04 0.  0.
        1    1    3    3  502    0 -0.24425532137E+03  0.57588051886E+03  0.74455984293E+03  0.97245482864E+03  0.50400001928E-02 0. -1.
       -1    1    3    3    0  502  0.24425532137E+03 -0.57588051886E+03 -0.23514872339E+04  0.24332676066E+04  0.50400001928E-02 0.  1.
</event>
<event>
 5   0  0.3896630E-06  0.2995764E+04  0.7818609E-02  0.8244942E-01
        1   -1    0    0  501    0  0.00000000000E+00  0.00000000000E+00  0.20814495608E+04  0.20814495608E+04  0.50400001928E-02 0. -1.
       -1   -1    0    0    0  501  0.00000000000E+00  0.00000000000E+00 -0.10779266399E+04  0.10779266399E+04  0.50400001928E-02 0.  1.
    10030    2    1    2    0    0  0.00000000000E+00  0.00000000000E+00  0.10035229209E+04  0.31593762007E+04  0.29957636296E+04 0.  0.
        5    1    3    3  502    0  0.42297753616E+03 -0.13312756612E+04  0.10720564187E+04  0.17608327396E+04  0.46999998093E+01 0. -1.
       -5    1    3    3    0  502 -0.42297753616E+03  0.13312756612E+04 -0.68533497802E+02  0.13985434610E+04  0.46999998093E+01 0.  1.
</event>
<event>
 5   0  0.3852126E-06  0.2757911E+04  0.7818609E-02  0.8316456E-01
       -1   -1    0    0    0  501  0.00000000000E+00  0.00000000000E+00  0.13060864691E+04  0.13060864691E+04  0.50400001928E-02 0.  1.
        1   -1    0    0  501    0  0.00000000000E+00  0.00000000000E+00 -0.14558895809E+04  0.14558895809E+04  0.50400001928E-02 0. -1.
    10030    2    1    2    0    0  0.00000000000E+00  0.00000000000E+00 -0.14980311175E+03  0.27619760500E+04  0.27579105730E+04 0.  0.
        1    1    3    3  502    0 -0.46432718843E+03  0.11750445619E+04  0.47835123443E+03  0.13509808895E+04  0.50400001928E-02 0. -1.
       -1    1    3    3    0  502  0.46432718843E+03 -0.11750445619E+04 -0.62815434618E+03  0.14109951605E+04  0.50400001928E-02 0.  1.
</event>
<event>
 5   0  0.3725232E-06  0.1938959E+04  0.7818609E-02  0.8635703E-01
        1   -1    0    0  501    0  0.00000000000E+00  0.00000000000E+00  0.14428840786E+04  0.14428840786E+04  0.50400001928E-02 0.  1.
       -1   -1    0    0    0  501  0.00000000000E+00  0.00000000000E+00 -0.65139697374E+03  0.65139697376E+03  0.50400001928E-02 0. -1.
    10030    2    1    2    0    0  0.00000000000E+00  0.00000000000E+00  0.79148710482E+03  0.20942810523E+04  0.19389588157E+04 0.  0.
        2    1    3    3  502    0  0.74979632943E+03  0.55409756270E+03  0.68288050006E+03  0.11556575712E+04  0.25500000920E-02 0.  1.
       -2    1    3    3    0  502 -0.74979632943E+03 -0.55409756270E+03  0.10860660476E+03  0.93862348107E+03  0.25500000920E-02 0. -1.
</event>
<event>
 5   0  0.1089569E-05  0.2953714E+04  0.7818609E-02  0.8257073E-01
       -2   -1    0    0    0  501  0.00000000000E+00  0.00000000000E+00  0.14249842572E+04  0.14249842572E+04  0.25500000920E-02 0. -1.
        2   -1    0    0  501    0  0.00000000000E+00  0.00000000000E+00 -0.15306182152E+04  0.15306182152E+04  0.25500000920E-02 0.  1.
    10030    2    1    2    0    0  0.00000000000E+00  0.00000000000E+00 -0.10563395797E+03  0.29556024724E+04  0.29537141774E+04 0.  0.
        5    1    3    3  502    0  0.79996370841E+03 -0.95376608447E+03  0.74234385077E+03  0.14493819929E+04  0.46999998093E+01 0. -1.
       -5    1    3    3    0  502 -0.79996370841E+03  0.95376608447E+03 -0.84797780873E+03  0.15062204795E+04  0.46999998093E+01 0.  1.
</event>
<event>
 5   0  0.1057036E-05  0.2899729E+04  0.7818609E-02  0.8272958E-01
        2   -1    0    0  501    0  0.00000000000E+00  0.00000000000E+00  0.19815610633E+04  0.19815610633E+04  0.25500000920E-02 0.  1.
       -2   -1    0    0    0  501  0.00000000000E+00  0.00000000000E+00 -0.10608341044E+04  0.10608341044E+04  0.25500000920E-02 0. -1.
    10030    2    1    2    0    0  0.00000000000E+00  0.00000000000E+00  0.92072695896E+03  0.30423951677E+04  0.28997293363E+04 0.  0.
        4    1    3    3  502    0  0.78126254316E+03  0.11183548794E+04 -0.54725347495E+02  0.13653150824E+04  0.12699999809E+01 0. -1.
       -4    1    3    3    0  502 -0.78126254316E+03 -0.11183548794E+04  0.97545230646E+03  0.16770800854E+04  0.12699999809E+01 0.  1.
</event>
<event>
 5   0  0.3592331E-06  0.3079100E+04  0.7818609E-02  0.8221497E-01
        1   -1    0    0  501    0  0.00000000000E+00  0.00000000000E+00  0.19576792865E+04  0.19576792865E+04  0.50400001928E-02 0. -1.
       -1   -1    0    0    0  501  0.00000000000E+00  0.00000000000E+00 -0.12107266425E+04  0.12107266425E+04  0.50400001928E-02 0.  1.
    10030    2    1    2    0    0  0.00000000000E+00  0.00000000000E+00  0.74695264398E+03  0.31684059290E+04  0.30791001735E+04 0.  0.
        3    1    3    3  502    0  0.11442111929E+04 -0.10170069219E+04  0.20536050129E+03  0.15445696096E+04  0.10100000352E+00 0.  1.
       -3    1    3    3    0  502 -0.11442111929E+04  0.10170069219E+04  0.54159214269E+03  0.16238363194E+04  0.10100000352E+00 0. -1.
</event>
<event>
 5   0  0.3725232E-06  0.3025576E+04  0.7818609E-02  0.8236465E-01
       -1   -1    0    0    0  501  0.00000000000E+00  0.00000000000E+00  0.15368187397E+04  0.15368187398E+04  0.50400001928E-02 0. -1.
        1   -1    0    0  501    0  0.00000000000E+00  0.00000000000E+00 -0.14891329997E+04  0.14891329997E+04  0.50400001928E-02 0.  1.
    10030    2    1    2    0    0  0.00000000000E+00  0.00000000000E+00  0.47685740036E+02  0.30259517395E+04  0.30255759782E+04 0.  0.
        2    1    3    3  502    0  0.56854958335E+03 -0.75572864129E+03 -0.11570463742E+04  0.14943663272E+04  0.25500000920E-02 0. -1.
       -2    1    3    3    0  502 -0.56854958335E+03  0.75572864129E+03  0.12047321142E+04  0.15315854122E+04  0.25500000920E-02 0.  1.
</event>
<event>
 5   0  0.1057036E-05  0.2853475E+04  0.7818609E-02  0.8286856E-01
        2   -1    0    0  501    0  0.00000000000E+00  0.00000000000E+00  0.21650783490E+04  0.21650783490E+04  0.25500000920E-02 0.  1.
       -2   -1    0    0    0  501  0.00000000000E+00  0.00000000000E+00 -0.94018794423E+03  0.94018794423E+03  0.25500000920E-02 0. -1.
    10030    2    1    2    0    0  0.00000000000E+00  0.00000000000E+00  0.12248904047E+04  0.31052662932E+04  0.28534754683E+04 0.  0.
        4    1    3    3  502    0 -0.68268679089E+03  0.27585209593E+03 -0.71744617342E+03  0.10280497352E+04  0.12699999809E+01 0. -1.
       -4    1    3    3    0  502  0.68268679089E+03 -0.27585209593E+03  0.19423365782E+04  0.20772165581E+04  0.12699999809E+01 0.  1.
</event>
<event>
 5   0  0.3852126E-06  0.3037925E+04  0.7818609E-02  0.8232983E-01
       -1   -1    0    0    0  501  0.00000000000E+00  0.00000000000E+00  0.10568231258E+04  0.10568231258E+04  0.50400001928E-02 0. -1.
        1   -1    0    0  501    0  0.00000000000E+00  0.00000000000E+00 -0.21831913333E+04  0.21831913333E+04  0.50400001928E-02 0.  1.
    10030    2    1    2    0    0  0.00000000000E+00  0.00000000000E+00 -0.11263682075E+04  0.32400144591E+04  0.30379250084E+04 0.  0.
        1    1    3    3  502    0  0.81614867332E+03 -0.42601893390E+03  0.72534787800E+03  0.11720581612E+04  0.50400001928E-02 0. -1.
       -1    1    3    3    0  502 -0.81614867332E+03  0.42601893390E+03 -0.18517160855E+04  0.20679562980E+04  0.50400001928E-02 0.  1.
</event>
<event>
 5   0  0.1029922E-05  0.2985455E+04  0.7818609E-02  0.8247897E-01
       -2   -1    0    0    0  501  0.00000000000E+00  0.00000000000E+00  0.17999287724E+04  0.17999287724E+04  0.25500000920E-02 0.  1.
        2   -1    0    0  501    0  0.00000000000E+00  0.00000000000E+00 -0.12379573033E+04  0.12379573033E+04  0.25500000920E-02 0. -1.
    10030    2    1    2    0    0  0.00000000000E+00  0.00000000000E+00  0.56197146907E+03  0.30378860757E+04  0.29854547187E+04 0.  0.
        1    1    3    3  502    0 -0.14453115145E+04 -0.14644369692E+03 -0.68356654409E+02  0.14543190031E+04  0.50400001928E-02 0. -1.
       -1    1    3    3    0  502  0.14453115145E+04  0.14644369692E+03  0.63032812348E+03  0.15835670727E+04  0.50400001928E-02 0.  1.
</event>
<event>
 5   0  0.3852126E-06  0.2797962E+04  0.7818609E-02  0.8303901E-01
        1   -1    0    0  501    0  0.00000000000E+00  0.00000000000E+00  0.26002963407E+04  0.26002963407E+04  0.50400001928E-02 0. -1.
       -1   -1    0    0    0  501  0.00000000000E+00  0.00000000000E+00 -0.75266320593E+03  0.75266320595E+03  0.50400001928E-02 0.  1.
    10030    2    1    2    0    0  0.00000000000E+00  0.00000000000E+00  0.18476331347E+04  0.33529595466E+04  0.27979616725E+04 0.  0.
        1    1    3    3  502    0  0.87818389472E+03 -0.45007003561E+03  0.21121728376E+04  0.23313181005E+04  0.50400001928E-02 0. -1.
       -1    1    3    3    0  502 -0.87818389472E+03  0.45007003561E+03 -0.26453970289E+03  0.10216414461E+04  0.50400001928E-02 0.  1.
</event>
<event>
 5   0  0.3852126E-06  0.2941258E+04  0.7818609E-02  0.8260707E-01
       -1   -1    0    0    0  501  0.00000000000E+00  0.00000000000E+00  0.94307208102E+03  0.94307208104E+03  0.50400001928E-02 0.  1.
        1   -1    0    0  501    0  0.00000000000E+00  0.00000000000E+00 -0.22933033461E+04  0.22933033461E+04  0.50400001928E-02 0. -1.
    10030    2    1    2    0    0  0.00000000000E+00  0.00000000000E+00 -0.13502312650E+04  0.32363754271E+04  0.29412584783E+04 0.  0.
        1    1    3    3  502    0  0.89698483271E+03 -0.12991295954E+03 -0.19494612780E+04  0.21498507952E+04  0.50400001928E-02 0. -1.
       -1    1    3    3    0  502 -0.89698483271E+03  0.12991295954E+03  0.59923001300E+03  0.10865246319E+04  0.50400001928E-02 0.  1.
</event>
<event>
 5   0  0.1089569E-05  0.3022476E+04  0.7818609E-02  0.8237342E-01
       -2   -1    0    0    0  501  0.00000000000E+00  0.00000000000E+00  0.10959368520E+04  0.10959368520E+04  0.25500000920E-02 0.  1.
        2   -1    0    0  501    0  0.00000000000E+00  0.00000000000E+00 -0.20839165316E+04  0.20839165316E+04  0.25500000920E-02 0. -1.
    10030    2    1    2    0    0  0.00000000000E+00  0.00000000000E+00 -0.98797967956E+03  0.31798533836E+04  0.30224764174E+04 0.  0.
        5    1    3    3  502    0  0.64535180405E+03  0.12373887971E+04 -0.11040163993E+04  0.17794617967E+04  0.46999998093E+01 0. -1.
       -5    1    3    3    0  502 -0.64535180405E+03 -0.12373887971E+04  0.11603671975E+03  0.14003915868E+04  0.46999998093E+01 0.  1.
</event>
<event>
 5   0  0.3313750E-06  0.3009667E+04  0.7818609E-02  0.8240976E-01
        3   -1    0    0  501    0  0.00000000000E+00  0.00000000000E+00  0.20540091994E+04  0.20540092018E+04  0.10100000352E+00 0.  1.
       -3   -1    0    0    0  501  0.00000000000E+00  0.00000000000E+00 -0.11024894654E+04  0.11024894700E+04  0.10100000352E+00 0. -1.
    10030    2    1    2    0    0  0.00000000000E+00  0.00000000000E+00  0.95151973396E+03  0.31564986718E+04  0.30096667691E+04 0.  0.
        4    1    3    3  502    0 -0.11443158676E+04  0.62260585083E+03  0.12657859882E+04  0.18164010106E+04  0.12699999809E+01 0.  1.
       -4    1    3    3    0  502  0.11443158676E+04 -0.62260585083E+03 -0.31426625425E+03  0.13400976613E+04  0.12699999809E+01 0. -1.
</event>
<event>
 5   0  0.1028450E-05  0.3007779E+04  0.7818609E-02  0.8241513E-01
       -2   -1    0    0    0  501  0.00000000000E+00  0.00000000000E+00  0.19693397244E+04  0.19693397244E+04  0.25500000920E-02 0.  1.
        2   -1    0    0  501    0  0.00000000000E+00  0.00000000000E+00 -0.11484480545E+04  0.11484480545E+04  0.25500000920E-02 0. -1.
    10030    2    1    2    0    0  0.00000000000E+00  0.00000000000E+00  0.82089166997E+03  0.31177877789E+04  0.30077794966E+04 0.  0.
        3    1    3    3  502    0 -0.10160193555E+04  0.10588284455E+04  0.75152669232E+03  0.16486980886E+04  0.10100000352E+00 0.  1.
       -3    1    3    3    0  502  0.10160193555E+04 -0.10588284455E+04  0.69364977649E+02  0.14690896903E+04  0.10100000352E+00 0. -1.
</event>
<event>
 5   0  0.1057036E-05  0.2895138E+04  0.7818609E-02  0.8274325E-01
        2   -1    0    0  501    0  0.00000000000E+00  0.00000000000E+00  0.10755827891E+04  0.10755827891E+04  0.25500000920E-02 0.  1.
       -2   -1    0    0    0  501  0.00000000000E+00  0.00000000000E+00 -0.19482058778E+04  0.19482058778E+04  0.25500000920E-02 0. -1.
    10030    2    1    2    0    0  0.00000000000E+00  0.00000000000E+00 -0.87262308873E+03  0.30237886670E+04  0.28951384850E+04 0.  0.
        4    1    3    3  502    0 -0.38903189778E+03  0.12797857569E+04  0.14168547580E+03  0.13450924830E+04  0.12699999809E+01 0.  1.
       -4    1    3    3    0  502  0.38903189778E+03 -0.12797857569E+04 -0.10143085645E+04  0.16786961839E+04  0.12699999809E+01 0. -1.
</event>
<event>
 5   0  0.1028450E-05  0.2984813E+04  0.7818609E-02  0.8248081E-01
       -2   -1    0    0    0  501  0.00000000000E+00  0.00000000000E+00  0.18825213252E+04  0.18825213252E+04  0.25500000920E-02 0. -1.
        2   -1    0    0  501    0  0.00000000000E+00  0.00000000000E+00 -0.11831352339E+04  0.11831352339E+04  0.25500000920E-02 0.  1.
    10030    2    1    2    0    0  0.00000000000E+00  0.00000000000E+00  0.69938609135E+03  0.30656565591E+04  0.29848130986E+04 0.  0.
        3    1    3    3  502    0  0.45480177746E+02 -0.46247141034E+03  0.18063185865E+04  0.18651367505E+04  0.10100000352E+00 0. -1.
       -3    1    3    3    0  502 -0.45480177746E+02  0.46247141034E+03 -0.11069324951E+04  0.12005198086E+04  0.10100000352E+00 0.  1.
</event>
<event>
 5   0  0.1029922E-05  0.2452655E+04  0.7818609E-02  0.8420049E-01
       -2   -1    0    0    0  501  0.00000000000E+00  0.00000000000E+00  0.94676320316E+03  0.94676320316E+03  0.25500000920E-02 0.  1.
        2   -1    0    0  501    0  0.00000000000E+00  0.00000000000E+00 -0.15884426343E+04  0.15884426343E+04  0.25500000920E-02 0. -1.
    10030    2    1    2    0    0  0.00000000000E+00  0.00000000000E+00 -0.64167943112E+03  0.25352058374E+04  0.24526549178E+04 0.  0.
        1    1    3    3  502    0  0.49026616851E+03 -0.41912972568E+03 -0.13989444796E+04  0.15404792436E+04  0.50400001928E-02 0. -1.
       -1    1    3    3    0  502 -0.49026616851E+03  0.41912972568E+03  0.75726504844E+03  0.99472659387E+03  0.50400001928E-02 0.  1.
</event>
<event>
 5   0  0.3725232E-06  0.3066453E+04  0.7818609E-02  0.8225005E-01
        1   -1    0    0  501    0  0.00000000000E+00  0.00000000000E+00  0.17953795213E+04  0.17953795213E+04  0.50400001928E-02 0.  1.
       -1   -1    0    0    0  501  0.00000000000E+00  0.00000000000E+00 -0.13093514650E+04  0.13093514650E+04  0.50400001928E-02 0. -1.
    10030    2    1    2    0    0  0.00000000000E+00  0.00000000000E+00  0.48602805624E+03  0.31047309863E+04  0.30664525474E+04 0.  0.
        2    1    3    3  502    0 -0.13983582141E+04 -0.40999924643E+03  0.72570165739E+03  0.16279275084E+04  0.25500000920E-02 0.  1.
       -2    1    3    3    0  502  0.13983582141E+04  0.40999924643E+03 -0.23967360114E+03  0.14768034779E+04  0.25500000920E-02 0. -1.
</event>
<event>
 5   0  0.3636718E-06  0.2810824E+04  0.7818609E-02  0.8299916E-01
        1   -1    0    0  501    0  0.00000000000E+00  0.00000000000E+00  0.20178399192E+04  0.20178399192E+04  0.50400001928E-02 0.  1.
       -1   -1    0    0    0  501  0.00000000000E+00  0.00000000000E+00 -0.97886014472E+03  0.97886014473E+03  0.50400001928E-02 0. -1.
    10030    2    1    2    0    0  0.00000000000E+00  0.00000000000E+00  0.10389797745E+04  0.29967000639E+04  0.28108241321E+04 0.  0.
        4    1    3    3  502    0  0.11217579455E+03  0.13438287383E+04  0.94155077361E+03  0.16446819021E+04  0.12699999809E+01 0. -1.
       -4    1    3    3    0  502 -0.11217579455E+03 -0.13438287383E+04  0.97429000843E+02  0.13520181618E+04  0.12699999809E+01 0.  1.
</event>
<event>
 5   0  0.1089569E-05  0.2339194E+04  0.7818609E-02  0.8462626E-01
        2   -1    0    0  501    0  0.00000000000E+00  0.00000000000E+00  0.98217218922E+03  0.98217218922E+03  0.25500000920E-02 0. -1.
       -2   -1    0    0    0  501  0.00000000000E+00  0.00000000000E+00 -0.13927873495E+04  0.13927873495E+04  0.25500000920E-02 0.  1.
    10030    2    1    2    0    0  0.00000000000E+00  0.00000000000E+00 -0.41061516031E+03  0.23749595387E+04  0.23391938784E+04 0.  0.
        5    1    3    3  502    0  0.16972388572E+02 -0.29809075703E+03 -0.13534331776E+04  0.13859832675E+04  0.46999998093E+01 0.  1.
       -5    1    3    3    0  502 -0.16972388572E+02  0.29809075703E+03  0.94281801731E+03  0.98897627129E+03  0.46999998093E+01 0. -1.
</event>
<event>
 5   0  0.3852126E-06  0.3005169E+04  0.7818609E-02  0.8242256E-01
       -1   -1    0    0    0  501  0.00000000000E+00  0.00000000000E+00  0.17235302793E+04  0.17235302793E+04  0.50400001928E-02 0. -1.
        1   -1    0    0  501    0  0.00000000000E+00  0.00000000000E+00 -0.13099626150E+04  0.13099626150E+04  0.50400001928E-02 0.  1.
    10030    2    1    2    0    0  0.00000000000E+00  0.00000000000E+00  0.41356766426E+03  0.30334928943E+04  0.30051690347E+04 0.  0.
        1    1    3    3  502    0  0.12182147854E+04  0.14105922733E+03 -0.66962458516E+03  0.13972623426E+04  0.50400001928E-02 0.  1.
       -1    1    3    3    0  502 -0.12182147854E+04 -0.14105922733E+03  0.10831922494E+04  0.16362305517E+04  0.50400001928E-02 0. -1.
</event>
<event>
 5   0  0.3636718E-06  0.3047337E+04  0.7818609E-02  0.8230341E-01
        1   -1    0    0  501    0  0.00000000000E+00  0.00000000000E+00  0.26577860209E+04  0.26577860209E+04  0.50400001928E-02 0.  1.
       -1   -1    0    0    0  501  0.00000000000E+00  0.00000000000E+00 -0.87349622478E+03  0.87349622479E+03  0.50400001928E-02 0. -1.
    10030    2    1    2    0    0  0.00000000000E+00  0.00000000000E+00  0.17842897961E+04  0.35312822457E+04  0.30473372347E+04 0.  0.
        4    1    3    3  502    0 -0.50954325136E+03 -0.19547261115E+01  0.25561263515E+04  0.26064193223E+04  0.12699999809E+01 0.  1.
       -4    1    3    3    0  502  0.50954325136E+03  0.19547261115E+01 -0.77183655537E+03  0.92486292339E+03  0.12699999809E+01 0. -1.
</event>
<event>
 5   0  0.3896630E-06  0.2997218E+04  0.7818609E-02  0.8244526E-01
       -1   -1    0    0    0  501  0.00000000000E+00  0.00000000000E+00  0.11791184005E+04  0.11791184005E+04  0.50400001928E-02 0.  1.
        1   -1    0    0  501    0  0.00000000000E+00  0.00000000000E+00 -0.19046674078E+04  0.19046674078E+04  0.50400001928E-02 0. -1.
    10030    2    1    2    0    0  0.00000000000E+00  0.00000000000E+00 -0.72554900729E+03  0.30837858083E+04  0.29972176346E+04 0.  0.
        5    1    3    3  502    0  0.72705781213E+03 -0.14877094807E+03 -0.17023232443E+04  0.18570601432E+04  0.46999998093E+01 0. -1.
       -5    1    3    3    0  502 -0.72705781213E+03  0.14877094807E+03  0.97677423706E+03  0.12267256651E+04  0.46999998093E+01 0.  1.
</event>
<event>
 5   0  0.1057036E-05  0.2957367E+04  0.7818609E-02  0.8256011E-01
        2   -1    0    0  501    0  0.00000000000E+00  0.00000000000E+00  0.26145704967E+04  0.26145704967E+04  0.25500000920E-02 0. -1.
       -2   -1    0    0    0  501  0.00000000000E+00  0.00000000000E+00 -0.83627668546E+03  0.83627668547E+03  0.25500000920E-02 0.  1.
    10030    2    1    2    0    0  0.00000000000E+00  0.00000000000E+00  0.17782938113E+04  0.34508471822E+04  0.29573666319E+04 0.  0.
        4    1    3    3  502    0 -0.38518929643E+03  0.12426153565E+04  0.68981996918E+02  0.13027754400E+04  0.12699999809E+01 0.  1.
       -4    1    3    3    0  502  0.38518929643E+03 -0.12426153565E+04  0.17093118144E+04  0.21480717422E+04  0.12699999809E+01 0. -1.
</event>
<event>
 5   0  0.3852126E-06  0.2947894E+04  0.7818609E-02  0.8258769E-01
        1   -1    0    0  501    0  0.00000000000E+00  0.00000000000E+00  0.18886331446E+04  0.18886331446E+04  0.50400001928E-02 0. -1.
       -1   -1    0    0    0  501  0.00000000000E+00  0.00000000000E+00 -0.11503133991E+04  0.11503133991E+04  0.50400001928E-02 0.  1.
    10030    2    1    2    0    0  0.00000000000E+00  0.00000000000E+00  0.73831974546E+03  0.30389465437E+04  0.29478941719E+04 0.  0.
        1    1    3    3  502    0 -0.37417337706E+03 -0.48587769297E+03  0.17508707856E+04  0.18551634312E+04  0.50400001928E-02 0. -1.
       -1    1    3    3    0  502  0.37417337706E+03  0.48587769297E+03 -0.10125510401E+04  0.11837831125E+04  0.50400001928E-02 0.  1.
</event>
<event>
 5   0  0.9647945E-06  0.3013026E+04  0.7818609E-02  0.8240021E-01
        2   -1    0    0  501    0  0.00000000000E+00  0.00000000000E+00  0.24787262652E+04  0.24787262652E+04  0.25500000920E-02 0. -1.
       -2   -1    0    0    0  501  0.00000000000E+00  0.00000000000E+00 -0.91562403928E+03  0.91562403928E+03  0.25500000920E-02 0.  1.
    10030    2    1    2    0    0  0.00000000000E+00  0.00000000000E+00  0.15631022259E+04  0.33943503045E+04  0.30130259575E+04 0.  0.
        2    1    3    3  502    0 -0.99120323451E+03  0.27576557035E+03 -0.45820134291E+03  0.11262677180E+04  0.25500000920E-02 0.  1.
       -2    1    3    3    0  502  0.99120323451E+03 -0.27576557035E+03  0.20213035688E+04  0.22680825865E+04  0.25500000920E-02 0. -1.
</event>
<event>
 5   0  0.1089569E-05  0.3052862E+04  0.7818609E-02  0.8228795E-01
       -2   -1    0    0    0  501  0.00000000000E+00  0.00000000000E+00  0.11457709362E+04  0.11457709362E+04  0.25500000920E-02 0. -1.
        2   -1    0    0  501    0  0.00000000000E+00  0.00000000000E+00 -0.20335574458E+04  0.20335574458E+04  0.25500000920E-02 0.  1.
    10030    2    1    2    0    0  0.00000000000E+00  0.00000000000E+00 -0.88778650965E+03  0.31793283820E+04  0.30528616205E+04 0.  0.
        5    1    3    3  502    0 -0.28103084495E+03 -0.11466723088E+04 -0.14515139851E+04  0.18710293045E+04  0.46999998093E+01 0.  1.
       -5    1    3    3    0  502  0.28103084495E+03  0.11466723088E+04  0.56372747542E+03  0.13082990775E+04  0.46999998093E+01 0. -1.
</event>
<event>
 5   0  0.3592331E-06  0.3050993E+04  0.7818609E-02  0.8229318E-01
        1   -1    0    0  501    0  0.00000000000E+00  0.00000000000E+00  0.10805883889E+04  0.10805883889E+04  0.50400001928E-02 0. -1.
       -1   -1    0    0    0  501  0.00000000000E+00  0.00000000000E+00 -0.21535853084E+04  0.21535853085E+04  0.50400001928E-02 0.  1.
    10030    2    1    2    0    0  0.00000000000E+00  0.00000000000E+00 -0.10729969195E+04  0.32341736974E+04  0.30509928082E+04 0.  0.
        3    1    3    3  502    0 -0.10969711179E+04  0.10293083045E+04 -0.26766173873E+03  0.15278952961E+04  0.10100000352E+00 0. -1.
       -3    1    3    3    0  502  0.10969711179E+04 -0.10293083045E+04 -0.80533518078E+03  0.17062784013E+04  0.10100000352E+00 0.  1.
</event>
<event>
 5   0  0.3896630E-06  0.2711741E+04  0.7818609E-02  0.8331206E-01
       -1   -1    0    0    0  501  0.00000000000E+00  0.00000000000E+00  0.10682515578E+04  0.10682515578E+04  0.50400001928E-02 0. -1.
        1   -1    0    0  501    0  0.00000000000E+00  0.00000000000E+00 -0.17209285005E+04  0.17209285005E+04  0.50400001928E-02 0.  1.
    10030    2    1    2    0    0  0.00000000000E+00  0.00000000000E+00 -0.65267694271E+03  0.27891800583E+04  0.27117408073E+04 0.  0.
        5    1    3    3  502    0  0.99556416335E+01  0.86442352206E+02  0.10653683861E+04  0.10689262291E+04  0.46999998093E+01 0. -1.
       -5    1    3    3    0  502 -0.99556416335E+01 -0.86442352206E+02 -0.17180453288E+04  0.17202538292E+04  0.46999998093E+01 0.  1.
</event>
<event>
 5   0  0.9647945E-06  0.1920572E+04  0.7818609E-02  0.8644684E-01
        2   -1    0    0  501    0  0.00000000000E+00  0.00000000000E+00  0.11364734986E+04  0.11364734987E+04  0.25500000920E-02 0.  1.
       -2   -1    0    0    0  501  0.00000000000E+00  0.00000000000E+00 -0.81141282034E+03  0.81141282035E+03  0.25500000920E-02 0. -1.
    10030    2    1    2    0    0  0.00000000000E+00  0.00000000000E+00  0.32506067830E+03  0.19478863190E+04  0.19205719635E+04 0.  0.
        2    1    3    3  502    0 -0.21235941785E+03  0.92830772848E+03  0.28797203445E+03  0.99487670278E+03  0.25500000920E-02 0. -1.
       -2    1    3    3    0  502  0.21235941785E+03 -0.92830772848E+03  0.37088643859E+02  0.95300961622E+03  0.25500000920E-02 0.  1.
</event>
<event>
 5   0  0.3636718E-06  0.2707736E+04  0.7818609E-02  0.8332499E-01
       -1   -1    0    0    0  501  0.00000000000E+00  0.00000000000E+00  0.99631003504E+03  0.99631003505E+03  0.50400001928E-02 0.  1.
        1   -1    0    0  501    0  0.00000000000E+00  0.00000000000E+00 -0.18397474524E+04  0.18397474524E+04  0.50400001928E-02 0. -1.
    10030    2    1    2    0    0  0.00000000000E+00  0.00000000000E+00 -0.84343741741E+03  0.28360574875E+04  0.27077362123E+04 0.  0.
        4    1    3    3  502    0 -0.55051326086E+03  0.11434427894E+04 -0.91569523013E+03  0.15649363023E+04  0.12699999809E+01 0. -1.
       -4    1    3    3    0  502  0.55051326086E+03 -0.11434427894E+04  0.72257812719E+02  0.12711211852E+04  0.12699999809E+01 0.  1.
</event>
<event>
 5   0  0.1028450E-05  0.2882754E+04  0.7818609E-02  0.8278027E-01
        2   -1    0    0  501    0  0.00000000000E+00  0.00000000000E+00  0.15954563862E+04  0.15954563862E+04  0.25500000920E-02 0.  1.
       -2   -1    0    0    0  501  0.00000000000E+00  0.00000000000E+00 -0.13021778152E+04  0.13021778152E+04  0.25500000920E-02 0. -1.
    10030    2    1    2    0    0  0.00000000000E+00  0.00000000000E+00  0.29327857101E+03  0.28976342014E+04  0.28827541770E+04 0.  0.
        3    1    3    3  502    0  0.54838213397E+03  0.13318633509E+04  0.91722573024E+02  0.14432588094E+04  0.10100000352E+00 0.  1.
       -3    1    3    3    0  502 -0.54838213397E+03 -0.13318633509E+04  0.20155599799E+03  0.14543753920E+04  0.10100000352E+00 0. -1.
</event>
<event>
 5   0  0.1089569E-05  0.2954613E+04  0.7818609E-02  0.8256811E-01
        2   -1    0    0  501    0  0.00000000000E+00  0.00000000000E+00  0.18045443477E+04  0.18045443477E+04  0.25500000920E-02 0. -1.
       -2   -1    0    0    0  501  0.00000000000E+00  0.00000000000E+00 -0.12094104144E+04  0.12094104144E+04  0.25500000920E-02 0.  1.
    10030    2    1    2    0    0  0.00000000000E+00  0.00000000000E+00  0.59513393337E+03  0.30139547621E+04  0.29546131573E+04 0.  0.
        5    1    3    3  502    0  0.11295635932E+04  0.49755608936E+03 -0.53048565884E+03  0.13434705420E+04  0.46999998093E+01 0.  1.
       -5    1    3    3    0  502 -0.11295635932E+04 -0.49755608936E+03  0.11256195922E+04  0.16704842201E+04  0.46999998093E+01 0. -1.
</event>
<event>
 5   0  0.1029922E-05  0.2400303E+04  0.7818609E-02  0.8439390E-01
       -2   -1    0    0    0  501  0.00000000000E+00  0.00000000000E+00  0.14039719540E+04  0.14039719541E+04  0.25500000920E-02 0.  1.
        2   -1    0    0  501    0  0.00000000000E+00  0.00000000000E+00 -0.10259208783E+04  0.10259208783E+04  0.25500000920E-02 0. -1.
    10030    2    1    2    0    0  0.00000000000E+00  0.00000000000E+00  0.37805107578E+03  0.24298928323E+04  0.24003034310E+04 0.  0.
        1    1    3    3  502    0 -0.61582639846E+03 -0.76796269640E+03  0.88404211631E+03  0.13230794835E+04  0.50400001928E-02 0.  1.
       -1    1    3    3    0  502  0.61582639846E+03  0.76796269640E+03 -0.50599104052E+03  0.11068133489E+04  0.50400001928E-02 0. -1.
</event>
<event>
 5   0  0.3852126E-06  0.2912091E+04  0.7818609E-02  0.8269289E-01
        1   -1    0    0  501    0  0.00000000000E+00  0.00000000000E+00  0.18901041655E+04  0.18901041656E+04  0.50400001928E-02 0.  1.
       -1   -1    0    0    0  501  0.00000000000E+00  0.00000000000E+00 -0.11216672389E+04  0.11216672389E+04  0.50400001928E-02 0. -1.
    10030    2    1    2    0    0  0.00000000000E+00  0.00000000000E+00  0.76843692662E+03  0.30117714045E+04  0.29120906035E+04 0.  0.
        1    1    3    3  502    0 -0.11870028233E+04  0.55493684792E+03  0.10408830879E+04  0.16734300734E+04  0.50400001928E-02 0.  1.
       -1    1    3    3    0  502  0.11870028233E+04 -0.55493684792E+03 -0.27244616125E+03  0.13383413311E+04  0.50400001928E-02 0. -1.
</event>
<event>
 5   0  0.1029922E-05  0.2854814E+04  0.7818609E-02  0.8286450E-01
       -2   -1    0    0    0  501  0.00000000000E+00  0.00000000000E+00  0.15191696658E+04  0.15191696658E+04  0.25500000920E-02 0. -1.
        2   -1    0    0  501    0  0.00000000000E+00  0.00000000000E+00 -0.13411869434E+04  0.13411869434E+04  0.25500000920E-02 0.  1.
    10030    2    1    2    0    0  0.00000000000E+00  0.00000000000E+00  0.17798272234E+03  0.28603566092E+04  0.28548138437E+04 0.  0.
        1    1    3    3  502    0 -0.26993244004E+03  0.90078176937E+03 -0.98697407338E+03  0.13632274718E+04  0.50400001928E-02 0.  1.
       -1    1    3    3    0  502  0.26993244004E+03 -0.90078176937E+03  0.11649567957E+04  0.14971291374E+04  0.50400001928E-02 0. -1.
</event>
<event>
 5   0  0.3852126E-06  0.3023654E+04  0.7818609E-02  0.8237009E-01
       -1   -1    0    0    0  501  0.00000000000E+00  0.00000000000E+00  0.15224560971E+04  0.15224560971E+04  0.50400001928E-02 0. -1.
        1   -1    0    0  501    0  0.00000000000E+00  0.00000000000E+00 -0.15012716146E+04  0.15012716146E+04  0.50400001928E-02 0.  1.
    10030    2    1    2    0    0  0.00000000000E+00  0.00000000000E+00  0.21184482457E+02  0.30237277117E+04  0.30236535006E+04 0.  0.
        1    1    3    3  502    0  0.51037802401E+03  0.44992713224E+03 -0.13395149557E+04  0.15024048949E+04  0.50400001928E-02 0.  1.
       -1    1    3    3    0  502 -0.51037802401E+03 -0.44992713224E+03  0.13606994382E+04  0.15213228167E+04  0.50400001928E-02 0. -1.
</event>
<event>
 5   0  0.1057036E-05  0.2973044E+04  0.7818609E-02  0.8251470E-01
        2   -1    0    0  501    0  0.00000000000E+00  0.00000000000E+00  0.16435815024E+04  0.16435815024E+04  0.25500000920E-02 0.  1.
       -2   -1    0    0    0  501  0.00000000000E+00  0.00000000000E+00 -0.13444710821E+04  0.13444710821E+04  0.25500000920E-02 0. -1.
    10030    2    1    2    0    0  0.00000000000E+00  0.00000000000E+00  0.29911042032E+03  0.29880525845E+04  0.29730440972E+04 0.  0.
        4    1    3    3  502    0  0.12360471710E+04 -0.48832937468E+03  0.81885090162E+03  0.15610242148E+04  0.12699999809E+01 0.  1.
       -4    1    3    3    0  502 -0.12360471710E+04  0.48832937468E+03 -0.51974048129E+03  0.14270283697E+04  0.12699999809E+01 0. -1.
</event>
<event>
 5   0  0.3852126E-06  0.2578710E+04  0.7818609E-02  0.8375469E-01
       -1   -1    0    0    0  501  0.00000000000E+00  0.00000000000E+00  0.10046313933E+04  0.10046313933E+04  0.50400001928E-02 0.  1.
        1   -1    0    0  501    0  0.00000000000E+00  0.00000000000E+00 -0.16547721382E+04  0.16547721382E+04  0.50400001928E-02 0. -1.
    10030    2    1    2    0    0  0.00000000000E+00  0.00000000000E+00 -0.65014074488E+03  0.26594035315E+04  0.25787097850E+04 0.  0.
        1    1    3    3  502    0 -0.10042745521E+04  0.32358048635E+02 -0.11583274999E+04  0.15334069963E+04  0.50400001928E-02 0. -1.
       -1    1    3    3    0  502  0.10042745521E+04 -0.32358048635E+02  0.50818675502E+03  0.11259965352E+04  0.50400001928E-02 0.  1.
</event>
<event>
 5   0  0.1089569E-05  0.3083565E+04  0.7818609E-02  0.8220263E-01
       -2   -1    0    0    0  501  0.00000000000E+00  0.00000000000E+00  0.25197935780E+04  0.25197935780E+04  0.25500000920E-02 0.  1.
        2   -1    0    0  501    0  0.00000000000E+00  0.00000000000E+00 -0.94336820519E+03  0.94336820520E+03  0.25500000920E-02 0. -1.
    10030    2    1    2    0    0  0.00000000000E+00  0.00000000000E+00  0.15764253728E+04  0.34631617832E+04  0.30835649143E+04 0.  0.
        5    1    3    3  502    0  0.13980881787E+04  0.60242114253E+03  0.51423702466E+03  0.16068676348E+04  0.46999998093E+01 0. -1.
       -5    1    3    3    0  502 -0.13980881787E+04 -0.60242114253E+03  0.10621883482E+04  0.18562941484E+04  0.46999998093E+01 0.  1.
</event>
<event>
 5   0  0.3313750E-06  0.2850666E+04  0.7818609E-02  0.8287709E-01
       -4   -1    0    0    0  501  0.00000000000E+00  0.00000000000E+00  0.22887796281E+04  0.22887799805E+04  0.12699999809E+01 0.  1.
        4   -1    0    0  501    0  0.00000000000E+00  0.00000000000E+00 -0.88762241915E+03  0.88762332770E+03  0.12699999809E+01 0. -1.
    10030    2    1    2    0    0  0.00000000000E+00  0.00000000000E+00  0.14011572090E+04  0.31764033082E+04  0.28506659664E+04 0.  0.
        1    1    3    3  502    0  0.41229722776E+03  0.44949372974E+03  0.21360126286E+04  0.22213922586E+04  0.50400001928E-02 0.  1.
       -1    1    3    3    0  502 -0.41229722776E+03 -0.44949372974E+03 -0.73485541960E+03  0.95501104959E+03  0.50400001928E-02 0. -1.
</event>
<event>
 5   0  0.9647945E-06  0.2956607E+04  0.7818609E-02  0.8256232E-01
       -2   -1    0    0    0  501  0.00000000000E+00  0.00000000000E+00  0.30514423666E+04  0.30514423666E+04  0.25500000920E-02 0. -1.
        2   -1    0    0  501    0  0.00000000000E+00  0.00000000000E+00 -0.71617994119E+03  0.71617994119E+03  0.25500000920E-02 0.  1.
    10030    2    1    2    0    0  0.00000000000E+00  0.00000000000E+00  0.23352624254E+04  0.37676223078E+04  0.29566073900E+04 0.  0.
        2    1    3    3  502    0 -0.35492914312E+03  0.13489691241E+04  0.17915070043E+04  0.22705042922E+04  0.25500000920E-02 0. -1.
       -2    1    3    3    0  502  0.35492914312E+03 -0.13489691241E+04  0.54375542108E+03  0.14971180156E+04  0.25500000920E-02 0.  1.
</event>
<event>
 5   0  0.9647945E-06  0.3035962E+04  0.7818609E-02  0.8233536E-01
        2   -1    0    0  501    0  0.00000000000E+00  0.00000000000E+00  0.18841353367E+04  0.18841353367E+04  0.25500000920E-02 0. -1.
       -2   -1    0    0    0  501  0.00000000000E+00  0.00000000000E+00 -0.12229833529E+04  0.12229833529E+04  0.25500000920E-02 0.  1.
    10030    2    1    2    0    0  0.00000000000E+00  0.00000000000E+00  0.66115198377E+03  0.31071186895E+04  0.30359618913E+04 0.  0.
        2    1    3    3  502    0  0.13945176394E+04  0.52305514559E+03  0.63070695497E+03  0.16174230724E+04  0.25500000920E-02 0.  1.
       -2    1    3    3    0  502 -0.13945176394E+04 -0.52305514559E+03  0.30445028798E+02  0.14896956172E+04  0.25500000920E-02 0. -1.
</event>
<event>
 5   0  0.1029922E-05  0.2987034E+04  0.7818609E-02  0.8247443E-01
        2   -1    0    0  501    0  0.00000000000E+00  0.00000000000E+00  0.28140247648E+04  0.28140247648E+04  0.25500000920E-02 0. -1.
       -2   -1    0    0    0  501  0.00000000000E+00  0.00000000000E+00 -0.79267013493E+03  0.79267013493E+03  0.25500000920E-02 0.  1.
    10030    2    1    2    0    0  0.00000000000E+00  0.00000000000E+00  0.20213546299E+04  0.36066948997E+04  0.29870342415E+04 0.  0.
        1    1    3    3  502    0  0.86626609465E+03  0.97506215560E+03  0.18892416611E+04  0.22957345683E+04  0.50400001928E-02 0. -1.
       -1    1    3    3    0  502 -0.86626609465E+03 -0.97506215560E+03  0.13211296876E+03  0.13109603314E+04  0.50400001928E-02 0.  1.
</event>
<event>
 5   0  0.3896630E-06  0.2974325E+04  0.7818609E-02  0.8251101E-01
       -1   -1    0    0    0  501  0.00000000000E+00  0.00000000000E+00  0.92106875862E+03  0.92106875863E+03  0.50400001928E-02 0.  1.
        1   -1    0    0  501    0  0.00000000000E+00  0.00000000000E+00 -0.24011799933E+04  0.24011799933E+04  0.50400001928E-02 0. -1.
    10030    2    1    2    0    0  0.00000000000E+00  0.00000000000E+00 -0.14801112347E+04  0.33222487519E+04  0.29743247137E+04 0.  0.
        5    1    3    3  502    0  0.84086576373E+03 -0.10017105845E+04  0.50673685275E+02  0.13088427102E+04  0.46999998093E+01 0.  1.
       -5    1    3    3    0  502 -0.84086576373E+03  0.10017105845E+04 -0.15307849200E+04  0.20134060417E+04  0.46999998093E+01 0. -1.
</event>
<event>
 5   0  0.3592331E-06  0.2804795E+04  0.7818609E-02  0.8301781E-01
        1   -1    0    0  501    0  0.00000000000E+00  0.00000000000E+00  0.18012688403E+04  0.18012688403E+04  0.50400001928E-02 0. -1.
       -1   -1    0    0    0  501  0.00000000000E+00  0.00000000000E+00 -0.10918520422E+04  0.10918520422E+04  0.50400001928E-02 0.  1.
    10030    2    1    2    0    0  0.00000000000E+00  0.00000000000E+00  0.70941679812E+03  0.28931208825E+04  0.28047952238E+04 0.  0.
        3    1    3    3  502    0  0.77555040947E+03 -0.75951724473E+03  0.12705737181E+04  0.16711380751E+04  0.10100000352E+00 0. -1.
       -3    1    3    3    0  502 -0.77555040947E+03  0.75951724473E+03 -0.56115691994E+03  0.12219828074E+04  0.10100000352E+00 0.  1.
</event>
<event>
 5   0  0.1028450E-05  0.2966859E+04  0.7818609E-02  0.8253258E-01
       -2   -1    0    0    0  501  0.00000000000E+00  0.00000000000E+00  0.79484551109E+03  0.79484551109E+03  0.25500000920E-02 0. -1.
        2   -1    0    0  501    0  0.00000000000E+00  0.00000000000E+00 -0.27685422789E+04  0.27685422789E+04  0.25500000920E-02 0.  1.
    10030    2    1    2    0    0  0.00000000000E+00  0.00000000000E+00 -0.19736967678E+04  0.35633877899E+04  0.29668592165E+04 0.  0.
        3    1    3    3  502    0 -0.19134392997E+03 -0.14589022665E+04 -0.12133216358E+04  0.19071333789E+04  0.10100000352E+00 0.  1.
       -3    1    3    3    0  502  0.19134392997E+03  0.14589022665E+04 -0.76037513198E+03  0.16562544111E+04  0.10100000352E+00 0. -1.
</event>
<event>
 5   0  0.3852126E-06  0.2993701E+04  0.7818609E-02  0.8245532E-01
        1   -1    0    0  501    0  0.00000000000E+00  0.00000000000E+00  0.17561968525E+04  0.17561968525E+04  0.50400001928E-02 0.  1.
       -1   -1    0    0    0  501  0.00000000000E+00  0.00000000000E+00 -0.12758030548E+04  0.12758030548E+04  0.50400001928E-02 0. -1.
    10030    2    1    2    0    0  0.00000000000E+00  0.00000000000E+00  0.48039379778E+03  0.30319999073E+04  0.29937009264E+04 0.  0.
        1    1    3    3  502    0 -0.83459915505E+03 -0.72379969960E+03 -0.78273402591E+03  0.13539255187E+04  0.50400001928E-02 0. -1.
       -1    1    3    3    0  502  0.83459915505E+03  0.72379969960E+03  0.12631278237E+04  0.16780743886E+04  0.50400001928E-02 0.  1.
</event>
<event>
 5   0  0.9647945E-06  0.3036805E+04  0.7818609E-02  0.8233298E-01
        2   -1    0    0  501    0  0.00000000000E+00  0.00000000000E+00  0.15985559718E+04  0.15985559718E+04  0.25500000920E-02 0.  1.
       -2   -1    0    0    0  501  0.00000000000E+00  0.00000000000E+00 -0.14422684458E+04  0.14422684458E+04  0.25500000920E-02 0. -1.
    10030    2    1    2    0    0  0.00000000000E+00  0.00000000000E+00  0.15628752601E+03  0.30408244175E+04  0.30368054510E+04 0.  0.
        2    1    3    3  502    0 -0.44709731043E+03 -0.11729741208E+03  0.15263953686E+04  0.15948471742E+04  0.25500000920E-02 0.  1.
       -2    1    3    3    0  502  0.44709731043E+03  0.11729741208E+03 -0.13701078426E+04  0.14459772433E+04  0.25500000920E-02 0. -1.
</event>
<event>
 5   0  0.3636718E-06  0.3057294E+04  0.7818609E-02  0.8227557E-01
       -1   -1    0    0    0  501  0.00000000000E+00  0.00000000000E+00  0.12985512082E+04  0.12985512082E+04  0.50400001928E-02 0. -1.
        1   -1    0    0  501    0  0.00000000000E+00  0.00000000000E+00 -0.17995141780E+04  0.17995141781E+04  0.50400001928E-02 0.  1.
    10030    2    1    2    0    0  0.00000000000E+00  0.00000000000E+00 -0.50096296984E+03  0.30980653863E+04  0.30572937773E+04 0.  0.
        4    1    3    3  502    0  0.67632647218E+03  0.11864802666E+04 -0.94637602000E+03  0.16615601416E+04  0.12699999809E+01 0.  1.
       -4    1    3    3    0  502 -0.67632647218E+03 -0.11864802666E+04  0.44541305016E+03  0.14365052447E+04  0.12699999809E+01 0. -1.
</event>
<event>
 5   0  0.3852126E-06  0.2824495E+04  0.7818609E-02  0.8295704E-01
       -1   -1    0    0    0  501  0.00000000000E+00  0.00000000000E+00  0.12598316738E+04  0.12598316738E+04  0.50400001928E-02 0. -1.
        1   -1    0    0  501    0  0.00000000000E+00  0.00000000000E+00 -0.15831027106E+04  0.15831027106E+04  0.50400001928E-02 0.  1.
    10030    2    1    2    0    0  0.00000000000E+00  0.00000000000E+00 -0.32327103677E+03  0.28429343844E+04  0.28244949550E+04 0.  0.
        1    1    3    3  502    0 -0.14082708018E+04 -0.10302331133E+03 -0.13692973025E+03  0.14186578886E+04  0.50400001928E-02 0.  1.
       -1    1    3    3    0  502  0.14082708018E+04  0.10302331133E+03 -0.18634130652E+03  0.14242764958E+04  0.50400001928E-02 0. -1.
</event>
<event>
 5   0  0.3725232E-06  0.3199652E+04  0.7818609E-02  0.8188909E-01
       -1   -1    0    0    0  501  0.00000000000E+00  0.00000000000E+00  0.17799313679E+04  0.17799313679E+04  0.50400001928E-02 0. -1.
        1   -1    0    0  501    0  0.00000000000E+00  0.00000000000E+00 -0.14379445101E+04  0.14379445101E+04  0.50400001928E-02 0.  1.
    10030    2    1    2    0    0  0.00000000000E+00  0.00000000000E+00  0.34198685779E+03  0.32178758779E+04  0.31996515677E+04 0.  0.
        2    1    3    3  502    0 -0.81408368526E+03 -0.35047473588E+03  0.15104494043E+04  0.17512915777E+04  0.25500000920E-02 0. -1.
       -2    1    3    3    0  502  0.81408368526E+03  0.35047473588E+03 -0.11684625465E+04  0.14665843002E+04  0.25500000920E-02 0.  1.
</event>
<event>
 5   0  0.3896630E-06  0.2139246E+04  0.7818609E-02  0.8544150E-01
       -1   -1    0    0    0  501  0.00000000000E+00  0.00000000000E+00  0.94761007263E+03  0.94761007265E+03  0.50400001928E-02 0. -1.
        1   -1    0    0  501    0  0.00000000000E+00  0.00000000000E+00 -0.12073457301E+04  0.12073457301E+04  0.50400001928E-02 0.  1.
    10030    2    1    2    0    0  0.00000000000E+00  0.00000000000E+00 -0.25973565742E+03  0.21549558027E+04  0.21392456380E+04 0.  0.
        5    1    3    3  502    0 -0.48827231073E+03  0.29150333496E+03  0.78270271699E+03  0.96748626703E+03  0.46999998093E+01 0. -1.
       -5    1    3    3    0  502  0.48827231073E+03 -0.29150333496E+03 -0.10424383744E+04  0.11874695357E+04  0.46999998093E+01 0.  1.
</event>
<event>
 5   0  0.1057036E-05  0.3204349E+04  0.7818609E-02  0.8187670E-01
        2   -1    0    0  501    0  0.00000000000E+00  0.00000000000E+00  0.75038207773E+03  0.75038207774E+03  0.25500000920E-02 0. -1.
       -2   -1    0    0    0  501  0.00000000000E+00  0.00000000000E+00 -0.34208744186E+04  0.34208744186E+04  0.25500000920E-02 0.  1.
    10030    2    1    2    0    0  0.00000000000E+00  0.00000000000E+00 -0.26704923409E+04  0.41712564964E+04  0.32043488287E+04 0.  0.
        4    1    3    3  502    0  0.56213979450E+03 -0.10861946706E+04 -0.26825032565E+04  0.29481596540E+04  0.12699999809E+01 0.  1.
       -4    1    3    3    0  502 -0.56213979450E+03  0.10861946706E+04  0.12010915629E+02  0.12230968424E+04  0.12699999809E+01 0. -1.
</event>
<event>
 5   0  0.1057036E-05  0.3029566E+04  0.7818609E-02  0.8235338E-01
       -2   -1    0    0    0  501  0.00000000000E+00  0.00000000000E+00  0.13046069249E+04  0.13046069249E+04  0.25500000920E-02 0.  1.
        2   -1    0    0  501    0  0.00000000000E+00  0.00000000000E+00 -0.17588188268E+04  0.17588188268E+04  0.25500000920E-02 0. -1.
    10030    2    1    2    0    0  0.00000000000E+00  0.00000000000E+00 -0.45421190194E+03  0.30634257517E+04  0.30295657914E+04 0.  0.
        4    1    3    3  502    0 -0.32098540947E+03 -0.42340313223E+03  0.12072912323E+04  0.13190358517E+04  0.12699999809E+01 0.  1.
       -4    1    3    3    0  502  0.32098540947E+03  0.42340313223E+03 -0.16615031342E+04  0.17443899001E+04  0.12699999809E+01 0. -1.
</event>
<event>
 5   0  0.3725232E-06  0.3008292E+04  0.7818609E-02  0.8241367E-01
        1   -1    0    0  501    0  0.00000000000E+00  0.00000000000E+00  0.15792611311E+04  0.15792611311E+04  0.50400001928E-02 0. -1.
       -1   -1    0    0    0  501  0.00000000000E+00  0.00000000000E+00 -0.14326037159E+04  0.14326037159E+04  0.50400001928E-02 0.  1.
    10030    2    1    2    0    0  0.00000000000E+00  0.00000000000E+00  0.14665741521E+03  0.30118648470E+04  0.30082921166E+04 0.  0.
        2    1    3    3  502    0 -0.14656860744E+04  0.23843016734E+03  0.31313509276E+03  0.15176093700E+04  0.25500000920E-02 0. -1.
       -2    1    3    3    0  502  0.14656860744E+04 -0.23843016734E+03 -0.16647767755E+03  0.14942554770E+04  0.25500000920E-02 0.  1.
</event>
<event>
 5   0  0.1057036E-05  0.2980952E+04  0.7818609E-02  0.8249191E-01
        2   -1    0    0  501    0  0.00000000000E+00  0.00000000000E+00  0.21326542965E+04  0.21326542965E+04  0.25500000920E-02 0. -1.
       -2   -1    0    0    0  501  0.00000000000E+00  0.00000000000E+00 -0.10416683374E+04  0.10416683374E+04  0.25500000920E-02 0.  1.
    10030    2    1    2    0    0  0.00000000000E+00  0.00000000000E+00  0.10909859592E+04  0.31743226339E+04  0.29809518314E+04 0.  0.
        4    1    3    3  502    0  0.11056336371E+04 -0.78462261199E+03  0.12049025849E+04  0.18137944301E+04  0.12699999809E+01 0. -1.
       -4    1    3    3    0  502 -0.11056336371E+04  0.78462261199E+03 -0.11391662575E+03  0.13605282038E+04  0.12699999809E+01 0.  1.
</event>
<event>
 5   0  0.1029922E-05  0.3106138E+04  0.7818609E-02  0.8214055E-01
        2   -1    0    0  501    0  0.00000000000E+00  0.00000000000E+00  0.21459026813E+04  0.21459026813E+04  0.25500000920E-02 0. -1.
       -2   -1    0    0    0  501  0.00000000000E+00  0.00000000000E+00 -0.11240136567E+04  0.11240136567E+04  0.25500000920E-02 0.  1.
    10030    2    1    2    0    0  0.00000000000E+00  0.00000000000E+00  0.10218890246E+04  0.32699163379E+04  0.31061383869E+04 0.  0.
        1    1    3    3  502    0 -0.99882966319E+03  0.57062248824E+03  0.16093951935E+04  0.19782375007E+04  0.50400001928E-02 0. -1.
       -1    1    3    3    0  502  0.99882966319E+03 -0.57062248824E+03 -0.58750616889E+03  0.12916788373E+04  0.50400001928E-02 0.  1.
</event>
<event>
 5   0  0.1057036E-05  0.3012413E+04  0.7818609E-02  0.8240195E-01
       -2   -1    0    0    0  501  0.00000000000E+00  0.00000000000E+00  0.10255674565E+04  0.10255674565E+04  0.25500000920E-02 0.  1.
        2   -1    0    0  501    0  0.00000000000E+00  0.00000000000E+00 -0.22121001521E+04  0.22121001521E+04  0.25500000920E-02 0. -1.
    10030    2    1    2    0    0  0.00000000000E+00  0.00000000000E+00 -0.11865326956E+04  0.32376676087E+04  0.30124129376E+04 0.  0.
        4    1    3    3  502    0 -0.61093036132E+03 -0.54450407912E+03 -0.19523095354E+04  0.21168927071E+04  0.12699999809E+01 0. -1.
       -4    1    3    3    0  502  0.61093036132E+03  0.54450407912E+03  0.76577683983E+03  0.11207749015E+04  0.12699999809E+01 0.  1.
</event>
<event>
 5   0  0.3896630E-06  0.2896265E+04  0.7818609E-02  0.8273990E-01
        1   -1    0    0  501    0  0.00000000000E+00  0.00000000000E+00  0.20805924382E+04  0.20805924382E+04  0.50400001928E-02 0.  1.
       -1   -1    0    0    0  501  0.00000000000E+00  0.00000000000E+00 -0.10079280783E+04  0.10079280783E+04  0.50400001928E-02 0. -1.
    10030    2    1    2    0    0  0.00000000000E+00  0.00000000000E+00  0.10726643600E+04  0.30885205165E+04  0.28962648622E+04 0.  0.
        5    1    3    3  502    0  0.42994493002E+03 -0.13242261490E+04  0.11159947147E+03  0.13967476753E+04  0.46999998093E+01 0. -1.
       -5    1    3    3    0  502 -0.42994493002E+03  0.13242261490E+04  0.96106488849E+03  0.16917728412E+04  0.46999998093E+01 0.  1.
</event>
<event>
 5   0  0.1089569E-05  0.3041011E+04  0.7818609E-02  0.8232116E-01
        2   -1    0    0  501    0  0.00000000000E+00  0.00000000000E+00  0.15484895910E+04  0.15484895910E+04  0.25500000920E-02 0.  1.
       -2   -1    0    0    0  501  0.00000000000E+00  0.00000000000E+00 -0.14930274813E+04  0.14930274813E+04  0.25500000920E-02 0. -1.
    10030    2    1    2    0    0  0.00000000000E+00  0.00000000000E+00  0.55462109632E+02  0.30415170723E+04  0.30410113541E+04 0.  0.
        5    1    3    3  502    0  0.20409788447E+02 -0.80910494553E+02 -0.14907283764E+04  0.14930694056E+04  0.46999998093E+01 0. -1.
       -5    1    3    3    0  502 -0.20409788447E+02  0.80910494553E+02  0.15461904860E+04  0.15484476668E+04  0.46999998093E+01 0.  1.
</event>
<event>
 5   0  0.3896630E-06  0.2905640E+04  0.7818609E-02  0.8271201E-01
       -1   -1    0    0    0  501  0.00000000000E+00  0.00000000000E+00  0.10192452010E+04  0.10192452010E+04  0.50400001928E-02 0. -1.
        1   -1    0    0  501    0  0.00000000000E+00  0.00000000000E+00 -0.20708326630E+04  0.20708326630E+04  0.50400001928E-02 0.  1.
    10030    2    1    2    0    0  0.00000000000E+00  0.00000000000E+00 -0.10515874620E+04  0.30900778640E+04  0.29056402074E+04 0.  0.
        5    1    3    3  502    0 -0.29579054524E+03  0.13624151601E+04 -0.91201474060E+02  0.13971424101E+04  0.46999998093E+01 0. -1.
       -5    1    3    3    0  502  0.29579054524E+03 -0.13624151601E+04 -0.96038598798E+03  0.16929354539E+04  0.46999998093E+01 0.  1.
</event>
<event>
 5   0  0.3592331E-06  0.2912683E+04  0.7818609E-02  0.8269114E-01
       -1   -1    0    0    0  501  0.00000000000E+00  0.00000000000E+00  0.13519807478E+04  0.13519807479E+04  0.50400001928E-02 0. -1.
        1   -1    0    0  501    0  0.00000000000E+00  0.00000000000E+00 -0.15687583387E+04  0.15687583387E+04  0.50400001928E-02 0.  1.
    10030    2    1    2    0    0  0.00000000000E+00  0.00000000000E+00 -0.21677759089E+03  0.29207390866E+04  0.29126833484E+04 0.  0.
        3    1    3    3  502    0  0.10337948125E+04  0.92229642807E+03  0.34181689407E+03  0.14269552253E+04  0.10100000352E+00 0. -1.
       -3    1    3    3    0  502 -0.10337948125E+04 -0.92229642807E+03 -0.55859448496E+03  0.14937838614E+04  0.10100000352E+00 0.  1.
</event>
<event>
 5   0  0.1089569E-05  0.3699150E+04  0.7818609E-02  0.8068150E-01
        2   -1    0    0  501    0  0.00000000000E+00  0.00000000000E+00  0.23864638602E+04  0.23864638602E+04  0.25500000920E-02 0. -1.
       -2   -1    0    0    0  501  0.00000000000E+00  0.00000000000E+00 -0.14334713961E+04  0.14334713961E+04  0.25500000920E-02 0.  1.
    10030    2    1    2    0    0  0.00000000000E+00  0.00000000000E+00  0.95299246418E+03  0.38199352563E+04  0.36991500004E+04 0.  0.
        5    1    3    3  502    0  0.79108246742E+03 -0.83910047717E+03  0.19697428668E+04  0.22825008505E+04  0.46999998093E+01 0. -1.
       -5    1    3    3    0  502 -0.79108246742E+03  0.83910047717E+03 -0.10167504026E+04  0.15374344059E+04  0.46999998093E+01 0.  1.
</event>
<event>
 5   0  0.3852126E-06  0.2968053E+04  0.7818609E-02  0.8252913E-01
       -1   -1    0    0    0  501  0.00000000000E+00  0.00000000000E+00  0.14469152874E+04  0.14469152875E+04  0.50400001928E-02 0. -1.
        1   -1    0    0  501    0  0.00000000000E+00  0.00000000000E+00 -0.15220899904E+04  0.15220899904E+04  0.50400001928E-02 0.  1.
    10030    2    1    2    0    0  0.00000000000E+00  0.00000000000E+00 -0.75174702931E+02  0.29690052778E+04  0.29680534200E+04 0.  0.
        1    1    3    3  502    0 -0.49959380098E+03 -0.61061076748E+03  0.12197548102E+04  0.14526669517E+04  0.50400001928E-02 0. -1.
       -1    1    3    3    0  502  0.49959380098E+03  0.61061076748E+03 -0.12949295132E+04  0.15163383262E+04  0.50400001928E-02 0.  1.
</event>
<event>
 5   0  0.3636718E-06  0.1942886E+04  0.7818609E-02  0.8633799E-01
       -1   -1    0    0    0  501  0.00000000000E+00  0.00000000000E+00  0.31780169100E+03  0.31780169104E+03  0.50400001928E-02 0. -1.
        1   -1    0    0  501    0  0.00000000000E+00  0.00000000000E+00 -0.29694661628E+04  0.29694661628E+04  0.50400001928E-02 0.  1.
    10030    2    1    2    0    0  0.00000000000E+00  0.00000000000E+00 -0.26516644718E+04  0.32872678538E+04  0.19428858618E+04 0.  0.
        4    1    3    3  502    0  0.79276996774E+03 -0.46977120819E+03 -0.18460364743E+04  0.20632550708E+04  0.12699999809E+01 0.  1.
       -4    1    3    3    0  502 -0.79276996774E+03  0.46977120819E+03 -0.80562799750E+03  0.12240127830E+04  0.12699999809E+01 0. -1.
</event>
<event>
 5   0  0.3896630E-06  0.2959843E+04  0.7818609E-02  0.8255292E-01
       -1   -1    0    0    0  501  0.00000000000E+00  0.00000000000E+00  0.13949951699E+04  0.13949951699E+04  0.50400001928E-02 0. -1.
        1   -1    0    0  501    0  0.00000000000E+00  0.00000000000E+00 -0.15700177869E+04  0.15700177869E+04  0.50400001928E-02 0.  1.
    10030    2    1    2    0    0  0.00000000000E+00  0.00000000000E+00 -0.17502261706E+03  0.29650129568E+04  0.29598427184E+04 0.  0.
        5    1    3    3  502    0  0.11625430140E+02  0.68712447688E+03  0.12254535489E+04  0.14050030918E+04  0.46999998093E+01 0. -1.
       -5    1    3    3    0  502 -0.11625430140E+02 -0.68712447688E+03 -0.14004761660E+04  0.15600098650E+04  0.46999998093E+01 0.  1.
</event>
<event>
 5   0  0.3852126E-06  0.1966475E+04  0.7818609E-02  0.8622457E-01
       -1   -1    0    0    0  501  0.00000000000E+00  0.00000000000E+00  0.62814469957E+03  0.62814469959E+03  0.50400001928E-02 0. -1.
        1   -1    0    0  501    0  0.00000000000E+00  0.00000000000E+00 -0.15390664902E+04  0.15390664902E+04  0.50400001928E-02 0.  1.
    10030    2    1    2    0    0  0.00000000000E+00  0.00000000000E+00 -0.91092179062E+03  0.21672111898E+04  0.19664754849E+04 0.  0.
        1    1    3    3  502    0  0.14924382888E+02  0.18281995974E+03  0.60912143933E+03  0.63614055268E+03  0.50400001928E-02 0. -1.
       -1    1    3    3    0  502 -0.14924382888E+02 -0.18281995974E+03 -0.15200432300E+04  0.15310706371E+04  0.50400001928E-02 0.  1.
</event>
<event>
 5   0  0.3852126E-06  0.3009175E+04  0.7818609E-02  0.8241116E-01
       -1   -1    0    0    0  501  0.00000000000E+00  0.00000000000E+00  0.14444021220E+04  0.14444021220E+04  0.50400001928E-02 0.  1.
        1   -1    0    0  501    0  0.00000000000E+00  0.00000000000E+00 -0.15672803116E+04  0.15672803117E+04  0.50400001928E-02 0. -1.
    10030    2    1    2    0    0  0.00000000000E+00  0.00000000000E+00 -0.12287818967E+03  0.30116824336E+04  0.30091746429E+04 0.  0.
        1    1    3    3  502    0 -0.49354006041E+03 -0.40760992812E+03 -0.14242108740E+04  0.15614430051E+04  0.50400001928E-02 0. -1.
       -1    1    3    3    0  502  0.49354006041E+03  0.40760992812E+03  0.13013326843E+04  0.14502394285E+04  0.50400001928E-02 0.  1.
</event>
<event>
 5   0  0.1057036E-05  0.2936874E+04  0.7818609E-02  0.8261990E-01
       -2   -1    0    0    0  501  0.00000000000E+00  0.00000000000E+00  0.14453626469E+04  0.14453626469E+04  0.25500000920E-02 0.  1.
        2   -1    0    0  501    0  0.00000000000E+00  0.00000000000E+00 -0.14918799585E+04  0.14918799585E+04  0.25500000920E-02 0. -1.
    10030    2    1    2    0    0  0.00000000000E+00  0.00000000000E+00 -0.46517311529E+02  0.29372426054E+04  0.29368742334E+04 0.  0.
        4    1    3    3  502    0 -0.95193110434E+03 -0.11177374147E+04 -0.51479159531E+02  0.14690682327E+04  0.12699999809E+01 0.  1.
       -4    1    3    3    0  502  0.95193110434E+03  0.11177374147E+04  0.49618480022E+01  0.14681743727E+04  0.12699999809E+01 0. -1.
</event>
<event>
 5   0  0.3636718E-06  0.2472135E+04  0.7818609E-02  0.8412980E-01
        1   -1    0    0  501    0  0.00000000000E+00  0.00000000000E+00  0.19871171790E+04  0.19871171790E+04  0.50400001928E-02 0. -1.
       -1   -1    0    0    0  501  0.00000000000E+00  0.00000000000E+00 -0.76888393168E+03  0.76888393170E+03  0.50400001928E-02 0.  1.
    10030    2    1    2    0    0  0.00000000000E+00  0.00000000000E+00  0.12182332473E+04  0.27560011107E+04  0.24721346803E+04 0.  0.
        4    1    3    3  502    0 -0.26933211557E+03  0.11609305729E+04  0.97474107167E+03  0.15396172749E+04  0.12699999809E+01 0.  1.
       -4    1    3    3    0  502  0.26933211557E+03 -0.11609305729E+04  0.24349217566E+03  0.12163838358E+04  0.12699999809E+01 0. -1.
</event>
<event>
 5   0  0.3852126E-06  0.3042402E+04  0.7818609E-02  0.8231725E-01
        1   -1    0    0  501    0  0.00000000000E+00  0.00000000000E+00  0.20670057051E+04  0.20670057051E+04  0.50400001928E-02 0. -1.
       -1   -1    0    0    0  501  0.00000000000E+00  0.00000000000E+00 -0.11195189490E+04  0.11195189490E+04  0.50400001928E-02 0.  1.
    10030    2    1    2    0    0  0.00000000000E+00  0.00000000000E+00  0.94748675607E+03  0.31865246541E+04  0.30424017187E+04 0.  0.
        1    1    3    3  502    0  0.70489901498E+03 -0.47440331938E+03  0.17953049026E+04  0.19862177182E+04  0.50400001928E-02 0. -1.
       -1    1    3    3    0  502 -0.70489901498E+03  0.47440331938E+03 -0.84781814651E+03  0.12003069359E+04  0.50400001928E-02 0.  1.
</event>
<event>
 5   0  0.3592331E-06  0.2931516E+04  0.7818609E-02  0.8263562E-01
       -1   -1    0    0    0  501  0.00000000000E+00  0.00000000000E+00  0.18596521078E+04  0.18596521078E+04  0.50400001928E-02 0. -1.
        1   -1    0    0  501    0  0.00000000000E+00  0.00000000000E+00 -0.11552951449E+04  0.11552951449E+04  0.50400001928E-02 0.  1.
    10030    2    1    2    0    0  0.00000000000E+00  0.00000000000E+00  0.70435696297E+03  0.30149472527E+04  0.29315163662E+04 0.  0.
        3    1    3    3  502    0  0.11353846213E+04 -0.86794363702E+02  0.13013838264E+04  0.17292285487E+04  0.10100000352E+00 0. -1.
       -3    1    3    3    0  502 -0.11353846213E+04  0.86794363702E+02 -0.59702686347E+03  0.12857187040E+04  0.10100000352E+00 0.  1.
</event>
<event>
 5   0  0.3896630E-06  0.2838411E+04  0.7818609E-02  0.8291442E-01
        1   -1    0    0  501    0  0.00000000000E+00  0.00000000000E+00  0.28978851868E+04  0.28978851868E+04  0.50400001928E-02 0. -1.
       -1   -1    0    0    0  501  0.00000000000E+00  0.00000000000E+00 -0.69503931475E+03  0.69503931477E+03  0.50400001928E-02 0.  1.
    10030    2    1    2    0    0  0.00000000000E+00  0.00000000000E+00  0.22028458720E+04  0.35929245015E+04  0.28384109177E+04 0.  0.
        5    1    3    3  502    0  0.77043634976E+03 -0.40137332995E+02 -0.40641500025E+03  0.87199679871E+03  0.46999998093E+01 0.  1.
       -5    1    3    3    0  502 -0.77043634976E+03  0.40137332995E+02  0.26092608723E+04  0.27209277028E+04  0.46999998093E+01 0. -1.
</event>
<event>
 5   0  0.1057036E-05  0.2753284E+04  0.7818609E-02  0.8317920E-01
        2   -1    0    0  501    0  0.00000000000E+00  0.00000000000E+00  0.26259461162E+04  0.26259461162E+04  0.25500000920E-02 0.  1.
       -2   -1    0    0    0  501  0.00000000000E+00  0.00000000000E+00 -0.72169904318E+03  0.72169904318E+03  0.25500000920E-02 0. -1.
    10030    2    1    2    0    0  0.00000000000E+00  0.00000000000E+00  0.19042470730E+04  0.33476451594E+04  0.27532837119E+04 0.  0.
        4    1    3    3  502    0  0.13435261035E+04 -0.97714067530E+02  0.60708361801E+03  0.14775528965E+04  0.12699999809E+01 0.  1.
       -4    1    3    3    0  502 -0.13435261035E+04  0.97714067530E+02  0.12971634550E+04  0.18700922629E+04  0.12699999809E+01 0. -1.
</event>
<event>
 5   0  0.3725232E-06  0.2987102E+04  0.7818609E-02  0.8247424E-01
       -1   -1    0    0    0  501  0.00000000000E+00  0.00000000000E+00  0.19252345937E+04  0.19252345937E+04  0.50400001928E-02 0. -1.
        1   -1    0    0  501    0  0.00000000000E+00  0.00000000000E+00 -0.11586609103E+04  0.11586609103E+04  0.50400001928E-02 0.  1.
    10030    2    1    2    0    0  0.00000000000E+00  0.00000000000E+00  0.76657368340E+03  0.30838955039E+04  0.29871016500E+04 0.  0.
        2    1    3    3  502    0 -0.54709334083E+03  0.11188047235E+04 -0.46784172486E+03  0.13303800255E+04  0.25500000920E-02 0.  1.
       -2    1    3    3    0  502  0.54709334083E+03 -0.11188047235E+04  0.12344154083E+04  0.17535154784E+04  0.25500000920E-02 0. -1.
</event>
<event>
 5   0  0.3636718E-06  0.3097371E+04  0.7818609E-02  0.8216460E-01
       -1   -1    0    0    0  501  0.00000000000E+00  0.00000000000E+00  0.25599827232E+04  0.25599827232E+04  0.50400001928E-02 0. -1.
        1   -1    0    0  501    0  0.00000000000E+00  0.00000000000E+00 -0.93689197809E+03  0.93689197810E+03  0.50400001928E-02 0.  1.
    10030    2    1    2    0    0  0.00000000000E+00  0.00000000000E+00  0.16230907451E+04  0.34968747013E+04  0.30973713225E+04 0.  0.
        4    1    3    3  502    0 -0.12888094529E+04  0.66003349957E+02 -0.15506279825E+03  0.12997816480E+04  0.12699999809E+01 0.  1.
       -4    1    3    3    0  502  0.12888094529E+04 -0.66003349957E+02  0.17781535433E+04  0.21970930533E+04  0.12699999809E+01 0. -1.
</event>
<event>
 5   0  0.1057036E-05  0.2937887E+04  0.7818609E-02  0.8261694E-01
       -2   -1    0    0    0  501  0.00000000000E+00  0.00000000000E+00  0.10467011215E+04  0.10467011215E+04  0.25500000920E-02 0.  1.
        2   -1    0    0  501    0  0.00000000000E+00  0.00000000000E+00 -0.20615192750E+04  0.20615192750E+04  0.25500000920E-02 0. -1.
    10030    2    1    2    0    0  0.00000000000E+00  0.00000000000E+00 -0.10148181536E+04  0.31082203965E+04  0.29378866807E+04 0.  0.
        4    1    3    3  502    0 -0.12875809570E+04 -0.66167951551E+03 -0.24374436191E+03  0.14680250096E+04  0.12699999809E+01 0. -1.
       -4    1    3    3    0  502  0.12875809570E+04  0.66167951551E+03 -0.77107379165E+03  0.16401953869E+04  0.12699999809E+01 0.  1.
</event>
<event>
 5   0  0.1089569E-05  0.3029869E+04  0.7818609E-02  0.8235253E-01
        2   -1    0    0  501    0  0.00000000000E+00  0.00000000000E+00  0.24317192863E+04  0.24317192863E+04  0.25500000920E-02 0.  1.
       -2   -1    0    0    0  501  0.00000000000E+00  0.00000000000E+00 -0.94378741579E+03  0.94378741579E+03  0.25500000920E-02 0. -1.
    10030    2    1    2    0    0  0.00000000000E+00  0.00000000000E+00  0.14879318705E+04  0.33755067021E+04  0.30298686844E+04 0.  0.
        5    1    3    3  502    0  0.11925989406E+04  0.69094321657E+03  0.14444264103E+04  0.19965180957E+04  0.46999998093E+01 0.  1.
       -5    1    3    3    0  502 -0.11925989406E+04 -0.69094321657E+03  0.43505460202E+02  0.13789886064E+04  0.46999998093E+01 0. -1.
</event>
<event>
 5   0  0.3636718E-06  0.2442640E+04  0.7818609E-02  0.8423710E-01
        1   -1    0    0  501    0  0.00000000000E+00  0.00000000000E+00  0.19268004325E+04  0.19268004325E+04  0.50400001928E-02 0. -1.
       -1   -1    0    0    0  501  0.00000000000E+00  0.00000000000E+00 -0.77414493007E+03  0.77414493008E+03  0.50400001928E-02 0.  1.
    10030    2    1    2    0    0  0.00000000000E+00  0.00000000000E+00  0.11526555024E+04  0.27009453626E+04  0.24426401995E+04 0.  0.
        4    1    3    3  502    0  0.81624635019E+03  0.72798130277E+03  0.11773162616E+04  0.16069505512E+04  0.12699999809E+01 0. -1.
       -4    1    3    3    0  502 -0.81624635019E+03 -0.72798130277E+03 -0.24660759126E+02  0.10939948114E+04  0.12699999809E+01 0.  1.
</event>
<event>
 5   0  0.1057036E-05  0.3013295E+04  0.7818609E-02  0.8239945E-01
        2   -1    0    0  501    0  0.00000000000E+00  0.00000000000E+00  0.20052321332E+04  0.20052321332E+04  0.25500000920E-02 0. -1.
       -2   -1    0    0    0  501  0.00000000000E+00  0.00000000000E+00 -0.11320318234E+04  0.11320318234E+04  0.25500000920E-02 0.  1.
    10030    2    1    2    0    0  0.00000000000E+00  0.00000000000E+00  0.87320030985E+03  0.31372639566E+04  0.30132949329E+04 0.  0.
        4    1    3    3  502    0  0.54144219683E+03  0.12908394774E+04 -0.14360464198E+03  0.14071425355E+04  0.12699999809E+01 0.  1.
       -4    1    3    3    0  502 -0.54144219683E+03 -0.12908394774E+04  0.10168049518E+04  0.17301214212E+04  0.12699999809E+01 0. -1.
</event>
<event>
 5   0  0.1028450E-05  0.2976864E+04  0.7818609E-02  0.8250369E-01
       -2   -1    0    0    0  501  0.00000000000E+00  0.00000000000E+00  0.90513103125E+03  0.90513103125E+03  0.25500000920E-02 0.  1.
        2   -1    0    0  501    0  0.00000000000E+00  0.00000000000E+00 -0.24476340665E+04  0.24476340665E+04  0.25500000920E-02 0. -1.
    10030    2    1    2    0    0  0.00000000000E+00  0.00000000000E+00 -0.15425030353E+04  0.33527650978E+04  0.29768638173E+04 0.  0.
        3    1    3    3  502    0  0.93929868537E+03  0.50831169264E+03  0.39636779151E+03  0.11391971882E+04  0.10100000352E+00 0.  1.
       -3    1    3    3    0  502 -0.93929868537E+03 -0.50831169264E+03 -0.19388708268E+04  0.22135679096E+04  0.10100000352E+00 0. -1.
</event>
<event>
 5   0  0.3896630E-06  0.3016893E+04  0.7818609E-02  0.8238923E-01
        1   -1    0    0  501    0  0.00000000000E+00  0.00000000000E+00  0.20384987573E+04  0.20384987573E+04  0.50400001928E-02 0. -1.
       -1   -1    0    0    0  501  0.00000000000E+00  0.00000000000E+00 -0.11162189956E+04  0.11162189956E+04  0.50400001928E-02 0.  1.
    10030    2    1    2    0    0  0.00000000000E+00  0.00000000000E+00  0.92227976177E+03  0.31547177529E+04  0.30168931273E+04 0.  0.
        5    1    3    3  502    0  0.72242587372E+03 -0.28097474016E+03 -0.89201882443E+03  0.11817637754E+04  0.46999998093E+01 0.  1.
       -5    1    3    3    0  502 -0.72242587372E+03  0.28097474016E+03  0.18142985862E+04  0.19729539775E+04  0.46999998093E+01 0. -1.
</event>
<event>
 5   0  0.9647945E-06  0.2796042E+04  0.7818609E-02  0.8304498E-01
        2   -1    0    0  501    0  0.00000000000E+00  0.00000000000E+00  0.15015340114E+04  0.15015340114E+04  0.25500000920E-02 0. -1.
       -2   -1    0    0    0  501  0.00000000000E+00  0.00000000000E+00 -0.13016443908E+04  0.13016443908E+04  0.25500000920E-02 0.  1.
    10030    2    1    2    0    0  0.00000000000E+00  0.00000000000E+00  0.19988962065E+03  0.28031784022E+04  0.27960424343E+04 0.  0.
        2    1    3    3  502    0 -0.44486864130E+03  0.87008341527E+03  0.11022513553E+04  0.14730618819E+04  0.25500000920E-02 0. -1.
       -2    1    3    3    0  502  0.44486864130E+03 -0.87008341527E+03 -0.90236173465E+03  0.13301165203E+04  0.25500000920E-02 0.  1.
</event>
<event>
 5   0  0.3313750E-06  0.2733316E+04  0.7818609E-02  0.8324275E-01
        3   -1    0    0  501    0  0.00000000000E+00  0.00000000000E+00  0.25309201728E+04  0.25309201748E+04  0.10100000352E+00 0.  1.
       -3   -1    0    0    0  501  0.00000000000E+00  0.00000000000E+00 -0.73797410943E+03  0.73797411634E+03  0.10100000352E+00 0. -1.
    10030    2    1    2    0    0  0.00000000000E+00  0.00000000000E+00  0.17929460634E+04  0.32688942912E+04  0.27333156240E+04 0.  0.
        5    1    3    3  502    0 -0.12709009894E+04  0.47681659482E+03  0.10862785154E+04  0.17385529883E+04  0.46999998093E+01 0.  1.
       -5    1    3    3    0  502  0.12709009894E+04 -0.47681659482E+03  0.70666754799E+03  0.15303413029E+04  0.46999998093E+01 0. -1.
</event>
<event>
 5   0  0.9647945E-06  0.3011373E+04  0.7818609E-02  0.8240491E-01
        2   -1    0    0  501    0  0.00000000000E+00  0.00000000000E+00  0.17856105139E+04  0.17856105139E+04  0.25500000920E-02 0. -1.
       -2   -1    0    0    0  501  0.00000000000E+00  0.00000000000E+00 -0.12696453221E+04  0.12696453221E+04  0.25500000920E-02 0.  1.
    10030    2    1    2    0    0  0.00000000000E+00  0.00000000000E+00  0.51596519182E+03  0.30552558359E+04  0.30113731326E+04 0.  0.
        2    1    3    3  502    0  0.14279609578E+04 -0.47119949409E+03  0.17945590631E+03  0.15143664955E+04  0.25500000920E-02 0. -1.
       -2    1    3    3    0  502 -0.14279609578E+04  0.47119949409E+03  0.33650928551E+03  0.15408893405E+04  0.25500000920E-02 0.  1.
</event>
<event>
 5   0  0.3592331E-06  0.3038797E+04  0.7818609E-02  0.8232738E-01
        1   -1    0    0  501    0  0.00000000000E+00  0.00000000000E+00  0.18516990295E+04  0.18516990295E+04  0.50400001928E-02 0. -1.
       -1   -1    0    0    0  501  0.00000000000E+00  0.00000000000E+00 -0.12467315435E+04  0.12467315435E+04  0.50400001928E-02 0.  1.
    10030    2    1    2    0    0  0.00000000000E+00  0.00000000000E+00  0.60496748597E+03  0.30984305730E+04  0.30387968600E+04 0.  0.
        3    1    3    3  502    0  0.11264281130E+04  0.92548645744E+03 -0.13394170658E+03  0.14640033701E+04  0.10100000352E+00 0.  1.
       -3    1    3    3    0  502 -0.11264281130E+04 -0.92548645744E+03  0.73890919255E+03  0.16344272029E+04  0.10100000352E+00 0. -1.
</event>
<event>
 5   0  0.1028450E-05  0.3005788E+04  0.7818609E-02  0.8242080E-01
       -2   -1    0    0    0  501  0.00000000000E+00  0.00000000000E+00  0.14981579145E+04  0.14981579145E+04  0.25500000920E-02 0.  1.
        2   -1    0    0  501    0  0.00000000000E+00  0.00000000000E+00 -0.15076448064E+04  0.15076448064E+04  0.25500000920E-02 0. -1.
    10030    2    1    2    0    0  0.00000000000E+00  0.00000000000E+00 -0.94868918631E+01  0.30058027209E+04  0.30057877497E+04 0.  0.
        3    1    3    3  502    0 -0.39037437195E+03 -0.48049780924E+03 -0.13742099027E+04  0.15072236602E+04  0.10100000352E+00 0. -1.
       -3    1    3    3    0  502  0.39037437195E+03  0.48049780924E+03  0.13647230108E+04  0.14985790608E+04  0.10100000352E+00 0.  1.
</event>
<event>
 5   0  0.3636718E-06  0.2949578E+04  0.7818609E-02  0.8258278E-01
        1   -1    0    0  501    0  0.00000000000E+00  0.00000000000E+00  0.12367321445E+04  0.12367321445E+04  0.50400001928E-02 0. -1.
       -1   -1    0    0    0  501  0.00000000000E+00  0.00000000000E+00 -0.17586686872E+04  0.17586686872E+04  0.50400001928E-02 0.  1.
    10030    2    1    2    0    0  0.00000000000E+00  0.00000000000E+00 -0.52193654277E+03  0.29954008317E+04  0.29495776626E+04 0.  0.
        4    1    3    3  502    0  0.13606888851E+04 -0.45345169032E+03 -0.60967986817E+03  0.15584620085E+04  0.12699999809E+01 0.  1.
       -4    1    3    3    0  502 -0.13606888851E+04  0.45345169032E+03  0.87743325401E+02  0.14369388232E+04  0.12699999809E+01 0. -1.
</event>
<event>
 5   0  0.3592331E-06  0.3018577E+04  0.7818609E-02  0.8238446E-01
        1   -1    0    0  501    0  0.00000000000E+00  0.00000000000E+00  0.11895574286E+04  0.11895574286E+04  0.50400001928E-02 0.  1.
       -1   -1    0    0    0  501  0.00000000000E+00  0.00000000000E+00 -0.19149575812E+04  0.19149575812E+04  0.50400001928E-02 0. -1.
    10030    2    1    2    0    0  0.00000000000E+00  0.00000000000E+00 -0.72540015259E+03  0.31045150097E+04  0.30185771589E+04 0.  0.
        3    1    3    3  502    0  0.27567633964E+03 -0.43554455276E+02  0.11627869034E+04  0.11958126224E+04  0.10100000352E+00 0.  1.
       -3    1    3    3    0  502 -0.27567633964E+03  0.43554455276E+02 -0.18881870560E+04  0.19087023874E+04  0.10100000352E+00 0. -1.
</event>
<event>
 5   0  0.9647945E-06  0.2982087E+04  0.7818609E-02  0.8248865E-01
       -2   -1    0    0    0  501  0.00000000000E+00  0.00000000000E+00  0.19510544914E+04  0.19510544914E+04  0.25500000920E-02 0.  1.
        2   -1    0    0  501    0  0.00000000000E+00  0.00000000000E+00 -0.11394918682E+04  0.11394918682E+04  0.25500000920E-02 0. -1.
    10030    2    1    2    0    0  0.00000000000E+00  0.00000000000E+00  0.81156262316E+03  0.30905463597E+04  0.29820870058E+04 0.  0.
        2    1    3    3  502    0  0.22202492017E+03 -0.10532184907E+03  0.19299233399E+04  0.19455055526E+04  0.25500000920E-02 0.  1.
       -2    1    3    3    0  502 -0.22202492017E+03  0.10532184907E+03 -0.11183607168E+04  0.11450408071E+04  0.25500000920E-02 0. -1.
</event>
<event>
 5   0  0.3896630E-06  0.3014802E+04  0.7818609E-02  0.8239517E-01
       -1   -1    0    0    0  501  0.00000000000E+00  0.00000000000E+00  0.17883879150E+04  0.17883879150E+04  0.50400001928E-02 0.  1.
        1   -1    0    0  501    0  0.00000000000E+00  0.00000000000E+00 -0.12705619088E+04  0.12705619088E+04  0.50400001928E-02 0. -1.
    10030    2    1    2    0    0  0.00000000000E+00  0.00000000000E+00  0.51782600620E+03  0.30589498239E+04  0.30148018595E+04 0.  0.
        5    1    3    3  502    0  0.80087566352E+03 -0.11907144007E+04  0.72722672002E+03  0.16087521265E+04  0.46999998093E+01 0.  1.
       -5    1    3    3    0  502 -0.80087566352E+03  0.11907144007E+04 -0.20940071381E+03  0.14501976973E+04  0.46999998093E+01 0. -1.
</event>
<event>
 5   0  0.1057036E-05  0.2971987E+04  0.7818609E-02  0.8251776E-01
        2   -1    0    0  501    0  0.00000000000E+00  0.00000000000E+00  0.18659419092E+04  0.18659419092E+04  0.25500000920E-02 0. -1.
       -2   -1    0    0    0  501  0.00000000000E+00  0.00000000000E+00 -0.11834112876E+04  0.11834112876E+04  0.25500000920E-02 0.  1.
    10030    2    1    2    0    0  0.00000000000E+00  0.00000000000E+00  0.68253062156E+03  0.30493531968E+04  0.29719870238E+04 0.  0.
        4    1    3    3  502    0 -0.58035693256E+03 -0.86314009071E+03  0.14301892009E+04  0.17684082528E+04  0.12699999809E+01 0. -1.
       -4    1    3    3    0  502  0.58035693256E+03  0.86314009071E+03 -0.74765857932E+03  0.12809449440E+04  0.12699999809E+01 0.  1.
</event>
<event>
 5   0  0.1028450E-05  0.2957084E+04  0.7818609E-02  0.8256093E-01
        2   -1    0    0  501    0  0.00000000000E+00  0.00000000000E+00  0.15438050260E+04  0.15438050260E+04  0.25500000920E-02 0.  1.
       -2   -1    0    0    0  501  0.00000000000E+00  0.00000000000E+00 -0.14160374545E+04  0.14160374545E+04  0.25500000920E-02 0. -1.
    10030    2    1    2    0    0  0.00000000000E+00  0.00000000000E+00  0.12776757149E+03  0.29598424805E+04  0.29570835222E+04 0.  0.
        3    1    3    3  502    0 -0.85915784954E+03  0.48760833052E+03 -0.10372205998E+04  0.14323898482E+04  0.10100000352E+00 0. -1.
       -3    1    3    3    0  502  0.85915784954E+03 -0.48760833052E+03  0.11649881713E+04  0.15274526323E+04  0.10100000352E+00 0.  1.
</event>
<event>
 5   0  0.3725232E-06  0.3270772E+04  0.7818609E-02  0.8170372E-01
       -1   -1    0    0    0  501  0.00000000000E+00  0.00000000000E+00  0.91383943443E+03  0.91383943445E+03  0.50400001928E-02 0. -1.
        1   -1    0    0  501    0  0.00000000000E+00  0.00000000000E+00 -0.29266492115E+04  0.29266492115E+04  0.50400001928E-02 0.  1.
    10030    2    1    2    0    0  0.00000000000E+00  0.00000000000E+00 -0.20128097770E+04  0.38404886459E+04  0.32707720558E+04 0.  0.
        2    1    3    3  502    0  0.13926515290E+04 -0.75472682730E+03 -0.14839336005E+04  0.21705183242E+04  0.25500000920E-02 0.  1.
       -2    1    3    3    0  502 -0.13926515290E+04  0.75472682730E+03 -0.52887617653E+03  0.16699703217E+04  0.25500000920E-02 0. -1.
</event>
<event>
 5   0  0.3636718E-06  0.2976750E+04  0.7818609E-02  0.8250402E-01
       -1   -1    0    0    0  501  0.00000000000E+00  0.00000000000E+00  0.15796617607E+04  0.15796617607E+04  0.50400001928E-02 0.  1.
        1   -1    0    0  501    0  0.00000000000E+00  0.00000000000E+00 -0.14023631459E+04  0.14023631459E+04  0.50400001928E-02 0. -1.
    10030    2    1    2    0    0  0.00000000000E+00  0.00000000000E+00  0.17729861477E+03  0.29820249066E+04  0.29767495267E+04 0.  0.
        4    1    3    3  502    0  0.21450983333E+03 -0.98698299512E+03  0.11837966050E+04  0.15561252893E+04  0.12699999809E+01 0.  1.
       -4    1    3    3    0  502 -0.21450983333E+03  0.98698299512E+03 -0.10064979902E+04  0.14258996172E+04  0.12699999809E+01 0. -1.
</event>
<event>
 5   0  0.3592331E-06  0.2153748E+04  0.7818609E-02  0.8537929E-01
        1   -1    0    0  501    0  0.00000000000E+00  0.00000000000E+00  0.19493047075E+04  0.19493047075E+04  0.50400001928E-02 0.  1.
       -1   -1    0    0    0  501  0.00000000000E+00  0.00000000000E+00 -0.59490858250E+03  0.59490858252E+03  0.50400001928E-02 0. -1.
    10030    2    1    2    0    0  0.00000000000E+00  0.00000000000E+00  0.13543961250E+04  0.25442132901E+04  0.21537484537E+04 0.  0.
        3    1    3    3  502    0 -0.28464420761E+03  0.80595645849E+03 -0.96591004605E+02  0.86018484658E+03  0.10100000352E+00 0. -1.
       -3    1    3    3    0  502  0.28464420761E+03 -0.80595645849E+03  0.14509871296E+04  0.16840284435E+04  0.10100000352E+00 0.  1.
</event>
<event>
 5   0  0.3896630E-06  0.2682071E+04  0.7818609E-02  0.8340846E-01
        1   -1    0    0  501    0  0.00000000000E+00  0.00000000000E+00  0.17230810940E+04  0.17230810940E+04  0.50400001928E-02 0. -1.
       -1   -1    0    0    0  501  0.00000000000E+00  0.00000000000E+00 -0.10436981932E+04  0.10436981933E+04  0.50400001928E-02 0.  1.
    10030    2    1    2    0    0  0.00000000000E+00  0.00000000000E+00  0.67938290075E+03  0.27667792873E+04  0.26820713075E+04 0.  0.
        5    1    3    3  502    0  0.59127516769E+03 -0.30571241983E+03 -0.86124496114E+03  0.10884996007E+04  0.46999998093E+01 0.  1.
       -5    1    3    3    0  502 -0.59127516769E+03  0.30571241983E+03  0.15406278619E+04  0.16782796866E+04  0.46999998093E+01 0. -1.
</event>
<event>
 5   0  0.9647945E-06  0.2667889E+04  0.7818609E-02  0.8345500E-01
        2   -1    0    0  501    0  0.00000000000E+00  0.00000000000E+00  0.13361409226E+04  0.13361409226E+04  0.25500000920E-02 0.  1.
       -2   -1    0    0    0  501  0.00000000000E+00  0.00000000000E+00 -0.13317513217E+04  0.13317513217E+04  0.25500000920E-02 0. -1.
    10030    2    1    2    0    0  0.00000000000E+00  0.00000000000E+00  0.43896008992E+01  0.26678922443E+04  0.26678886331E+04 0.  0.
        2    1    3    3  502    0 -0.11527043143E+03 -0.76891812173E+03  0.10861174314E+04  0.13357295479E+04  0.25500000920E-02 0.  1.
       -2    1    3    3    0  502  0.11527043143E+03  0.76891812173E+03 -0.10817278305E+04  0.13321626964E+04  0.25500000920E-02 0. -1.
</event>
<event>
 5   0  0.1029922E-05  0.3025238E+04  0.7818609E-02  0.8236560E-01
       -2   -1    0    0    0  501  0.00000000000E+00  0.00000000000E+00  0.10976876573E+04  0.10976876573E+04  0.25500000920E-02 0. -1.
        2   -1    0    0  501    0  0.00000000000E+00  0.00000000000E+00 -0.20843969643E+04  0.20843969643E+04  0.25500000920E-02 0.  1.
    10030    2    1    2    0    0  0.00000000000E+00  0.00000000000E+00 -0.98670930701E+03  0.31820846215E+04  0.30252383843E+04 0.  0.
        1    1    3    3  502    0 -0.10819511940E+02  0.16357893301E+03  0.10883158350E+04  0.11005936970E+04  0.50400001928E-02 0. -1.
       -1    1    3    3    0  502  0.10819511940E+02 -0.16357893301E+03 -0.20750251420E+04  0.20814909246E+04  0.50400001928E-02 0.  1.
</event>
<event>
 5   0  0.1089569E-05  0.3020635E+04  0.7818609E-02  0.8237863E-01
       -2   -1    0    0    0  501  0.00000000000E+00  0.00000000000E+00  0.12916995981E+04  0.12916995981E+04  0.25500000920E-02 0. -1.
        2   -1    0    0  501    0  0.00000000000E+00  0.00000000000E+00 -0.17659359342E+04  0.17659359342E+04  0.25500000920E-02 0.  1.
    10030    2    1    2    0    0  0.00000000000E+00  0.00000000000E+00 -0.47423633612E+03  0.30576355322E+04  0.30206348580E+04 0.  0.
        5    1    3    3  502    0  0.17945273288E+03  0.32332829515E+03  0.12451591645E+04  0.12989179746E+04  0.46999998093E+01 0. -1.
       -5    1    3    3    0  502 -0.17945273288E+03 -0.32332829515E+03 -0.17193955007E+04  0.17587175576E+04  0.46999998093E+01 0.  1.
</event>
<event>
 5   0  0.1057036E-05  0.3000568E+04  0.7818609E-02  0.8243569E-01
        2   -1    0    0  501    0  0.00000000000E+00  0.00000000000E+00  0.19681891432E+04  0.19681891432E+04  0.25500000920E-02 0. -1.
       -2   -1    0    0    0  501  0.00000000000E+00  0.00000000000E+00 -0.11436158421E+04  0.11436158421E+04  0.25500000920E-02 0.  1.
    10030    2    1    2    0    0  0.00000000000E+00  0.00000000000E+00  0.82457330105E+03  0.31118049853E+04  0.30005681358E+04 0.  0.
        4    1    3    3  502    0 -0.63627434282E+03  0.10644079712E+04  0.12880085750E+04  0.17879533189E+04  0.12699999809E+01 0. -1.
       -4    1    3    3    0  502  0.63627434282E+03 -0.10644079712E+04 -0.46343527397E+03  0.13238516664E+04  0.12699999809E+01 0.  1.
</event>
<event>
 5   0  0.9647945E-06  0.2990862E+04  0.7818609E-02  0.8246345E-01
       -2   -1    0    0    0  501  0.00000000000E+00  0.00000000000E+00  0.12216804094E+04  0.12216804094E+04  0.25500000920E-02 0.  1.
        2   -1    0    0  501    0  0.00000000000E+00  0.00000000000E+00 -0.18305225946E+04  0.18305225946E+04  0.25500000920E-02 0. -1.
    10030    2    1    2    0    0  0.00000000000E+00  0.00000000000E+00 -0.60884218522E+03  0.30522030040E+04  0.29908618107E+04 0.  0.
        2    1    3    3  502    0  0.79941203950E+03 -0.12146510394E+03 -0.15881962181E+04  0.17821842238E+04  0.25500000920E-02 0. -1.
       -2    1    3    3    0  502 -0.79941203950E+03  0.12146510394E+03  0.97935403286E+03  0.12700187802E+04  0.25500000920E-02 0.  1.
</event>
<event>
 5   0  0.1089569E-05  0.3049556E+04  0.7818609E-02  0.8229720E-01
        2   -1    0    0  501    0  0.00000000000E+00  0.00000000000E+00  0.18669292606E+04  0.18669292606E+04  0.25500000920E-02 0.  1.
       -2   -1    0    0    0  501  0.00000000000E+00  0.00000000000E+00 -0.12453328314E+04  0.12453328314E+04  0.25500000920E-02 0. -1.
    10030    2    1    2    0    0  0.00000000000E+00  0.00000000000E+00  0.62159642911E+03  0.31122620920E+04  0.30495562314E+04 0.  0.
        5    1    3    3  502    0 -0.14230110607E+04  0.53128964480E+03  0.17503256146E+03  0.15290152561E+04  0.46999998093E+01 0. -1.
       -5    1    3    3    0  502  0.14230110607E+04 -0.53128964480E+03  0.44656386765E+03  0.15832468360E+04  0.46999998093E+01 0.  1.
</event>
<event>
 5   0  0.1089569E-05  0.1931012E+04  0.7818609E-02  0.8639572E-01
        2   -1    0    0  501    0  0.00000000000E+00  0.00000000000E+00  0.13311440635E+04  0.13311440635E+04  0.25500000920E-02 0. -1.
       -2   -1    0    0    0  501  0.00000000000E+00  0.00000000000E+00 -0.70030108237E+03  0.70030108237E+03  0.25500000920E-02 0.  1.
    10030    2    1    2    0    0  0.00000000000E+00  0.00000000000E+00  0.63084298112E+03  0.20314451459E+04  0.19310117850E+04 0.  0.
        5    1    3    3  502    0  0.68976639068E+03 -0.50775669733E+03 -0.15338476409E+03  0.87013993889E+03  0.46999998093E+01 0.  1.
       -5    1    3    3    0  502 -0.68976639068E+03  0.50775669733E+03  0.78422774521E+03  0.11613052070E+04  0.46999998093E+01 0. -1.
</event>
<event>
 5   0  0.3725232E-06  0.2031494E+04  0.7818609E-02  0.8592036E-01
       -1   -1    0    0    0  501  0.00000000000E+00  0.00000000000E+00  0.11422747001E+04  0.11422747001E+04  0.50400001928E-02 0.  1.
        1   -1    0    0  501    0  0.00000000000E+00  0.00000000000E+00 -0.90323437062E+03  0.90323437064E+03  0.50400001928E-02 0. -1.
    10030    2    1    2    0    0  0.00000000000E+00  0.00000000000E+00  0.23904032952E+03  0.20455090708E+04  0.20314938049E+04 0.  0.
        2    1    3    3  502    0  0.75776342257E+03 -0.13559323012E+03 -0.54773626431E+03  0.94477825117E+03  0.25500000920E-02 0. -1.
       -2    1    3    3    0  502 -0.75776342257E+03  0.13559323012E+03  0.78677659383E+03  0.11007308196E+04  0.25500000920E-02 0.  1.
</event>
<event>
 5   0  0.3725232E-06  0.3010726E+04  0.7818609E-02  0.8240675E-01
       -1   -1    0    0    0  501  0.00000000000E+00  0.00000000000E+00  0.12014790558E+04  0.12014790558E+04  0.50400001928E-02 0. -1.
        1   -1    0    0  501    0  0.00000000000E+00  0.00000000000E+00 -0.18861065540E+04  0.18861065541E+04  0.50400001928E-02 0.  1.
    10030    2    1    2    0    0  0.00000000000E+00  0.00000000000E+00 -0.68462749826E+03  0.30875856098E+04  0.30107258405E+04 0.  0.
        2    1    3    3  502    0  0.14524688665E+04  0.39399229384E+03 -0.37816013371E+03  0.15517412228E+04  0.25500000920E-02 0. -1.
       -2    1    3    3    0  502 -0.14524688665E+04 -0.39399229384E+03 -0.30646736456E+03  0.15358443871E+04  0.25500000920E-02 0.  1.
</event>
<event>
 5   0  0.3725232E-06  0.2842698E+04  0.7818609E-02  0.8290134E-01
        1   -1    0    0  501    0  0.00000000000E+00  0.00000000000E+00  0.20334912696E+04  0.20334912696E+04  0.50400001928E-02 0.  1.
       -1   -1    0    0    0  501  0.00000000000E+00  0.00000000000E+00 -0.99347982442E+03  0.99347982443E+03  0.50400001928E-02 0. -1.
    10030    2    1    2    0    0  0.00000000000E+00  0.00000000000E+00  0.10400114452E+04  0.30269710940E+04  0.28426976973E+04 0.  0.
        2    1    3    3  502    0  0.10315392110E+04  0.45823760210E+03 -0.39980555600E+03  0.11974553546E+04  0.25500000920E-02 0. -1.
       -2    1    3    3    0  502 -0.10315392110E+04 -0.45823760210E+03  0.14398170012E+04  0.18295157394E+04  0.25500000920E-02 0.  1.
</event>
<event>
 5   0  0.3896630E-06  0.1920030E+04  0.7818609E-02  0.8644950E-01
        1   -1    0    0  501    0  0.00000000000E+00  0.00000000000E+00  0.88919244478E+03  0.88919244480E+03  0.50400001928E-02 0.  1.
       -1   -1    0    0    0  501  0.00000000000E+00  0.00000000000E+00 -0.10364785296E+04  0.10364785296E+04  0.50400001928E-02 0. -1.
    10030    2    1    2    0    0  0.00000000000E+00  0.00000000000E+00 -0.14728608483E+03  0.19256709744E+04  0.19200300807E+04 0.  0.
        5    1    3    3  502    0  0.93800614455E+03 -0.16142208061E+03 -0.19928747846E+03  0.97244547631E+03  0.46999998093E+01 0.  1.
       -5    1    3    3    0  502 -0.93800614455E+03  0.16142208061E+03  0.52001393629E+02  0.95322549812E+03  0.46999998093E+01 0. -1.
</event>
<event>
 5   0  0.1028450E-05  0.2306684E+04  0.7818609E-02  0.8475290E-01
       -2   -1    0    0    0  501  0.00000000000E+00  0.00000000000E+00  0.55029105761E+03  0.55029105762E+03  0.25500000920E-02 0.  1.
        2   -1    0    0  501    0  0.00000000000E+00  0.00000000000E+00 -0.24172627343E+04  0.24172627343E+04  0.25500000920E-02 0. -1.
    10030    2    1    2    0    0  0.00000000000E+00  0.00000000000E+00 -0.18669716767E+04  0.29675537919E+04  0.23066842580E+04 0.  0.
        3    1    3    3  502    0 -0.71941298588E+03 -0.33405846720E+03  0.14368431395E+03  0.80609881282E+03  0.10100000352E+00 0.  1.
       -3    1    3    3    0  502  0.71941298588E+03  0.33405846720E+03 -0.20106559906E+04  0.21614549791E+04  0.10100000352E+00 0. -1.
</event>
<event>
 5   0  0.3592331E-06  0.2909917E+04  0.7818609E-02  0.8269933E-01
       -1   -1    0    0    0  501  0.00000000000E+00  0.00000000000E+00  0.12177978064E+04  0.12177978064E+04  0.50400001928E-02 0.  1.
        1   -1    0    0  501    0  0.00000000000E+00  0.00000000000E+00 -0.17383054854E+04  0.17383054854E+04  0.50400001928E-02 0. -1.
    10030    2    1    2    0    0  0.00000000000E+00  0.00000000000E+00 -0.52050767904E+03  0.29561032918E+04  0.29099172545E+04 0.  0.
        3    1    3    3  502    0 -0.15500846230E+03  0.11030787373E+04  0.69060136063E+03  0.13106260236E+04  0.10100000352E+00 0.  1.
       -3    1    3    3    0  502  0.15500846230E+03 -0.11030787373E+04 -0.12111090397E+04  0.16454772682E+04  0.10100000352E+00 0. -1.
</event>
<event>
 5   0  0.3725232E-06  0.3055069E+04  0.7818609E-02  0.8228178E-01
       -1   -1    0    0    0  501  0.00000000000E+00  0.00000000000E+00  0.19284416271E+04  0.19284416271E+04  0.50400001928E-02 0.  1.
        1   -1    0    0  501    0  0.00000000000E+00  0.00000000000E+00 -0.12099727721E+04  0.12099727721E+04  0.50400001928E-02 0. -1.
    10030    2    1    2    0    0  0.00000000000E+00  0.00000000000E+00  0.71846885499E+03  0.31384143992E+04  0.30550691393E+04 0.  0.
        2    1    3    3  502    0 -0.17978540170E+03  0.13860263652E+04 -0.27399908486E+03  0.14242427371E+04  0.25500000920E-02 0. -1.
       -2    1    3    3    0  502  0.17978540170E+03 -0.13860263652E+04  0.99246793984E+03  0.17141716621E+04  0.25500000920E-02 0.  1.
</event>
<event>
 5   0  0.3896630E-06  0.2980188E+04  0.7818609E-02  0.8249411E-01
       -1   -1    0    0    0  501  0.00000000000E+00  0.00000000000E+00  0.13458539544E+04  0.13458539544E+04  0.50400001928E-02 0. -1.
        1   -1    0    0  501    0  0.00000000000E+00  0.00000000000E+00 -0.16497932842E+04  0.16497932842E+04  0.50400001928E-02 0.  1.
    10030    2    1    2    0    0  0.00000000000E+00  0.00000000000E+00 -0.30393932985E+03  0.29956472386E+04  0.29801884608E+04 0.  0.
        5    1    3    3  502    0 -0.10732462127E+04 -0.22079132687E+03 -0.11670357724E+04  0.16008125522E+04  0.46999998093E+01 0. -1.
       -5    1    3    3    0  502  0.10732462127E+04  0.22079132687E+03  0.86309644257E+03  0.13948346864E+04  0.46999998093E+01 0.  1.
</event>
<event>
 5   0  0.9647945E-06  0.2996708E+04  0.7818609E-02  0.8244671E-01
        2   -1    0    0  501    0  0.00000000000E+00  0.00000000000E+00  0.13598100589E+04  0.13598100589E+04  0.25500000920E-02 0.  1.
       -2   -1    0    0    0  501  0.00000000000E+00  0.00000000000E+00 -0.16510138584E+04  0.16510138584E+04  0.25500000920E-02 0. -1.
    10030    2    1    2    0    0  0.00000000000E+00  0.00000000000E+00 -0.29120379951E+03  0.30108239173E+04  0.29967083622E+04 0.  0.
        2    1    3    3  502    0  0.35036417436E+03  0.13819297062E+04  0.31763438928E+03  0.14606082202E+04  0.25500000920E-02 0.  1.
       -2    1    3    3    0  502 -0.35036417436E+03 -0.13819297062E+04 -0.60883818879E+03  0.15502156972E+04  0.25500000920E-02 0. -1.
</event>
<event>
 5   0  0.1057036E-05  0.3048401E+04  0.7818609E-02  0.8230043E-01
       -2   -1    0    0    0  501  0.00000000000E+00  0.00000000000E+00  0.12346050644E+04  0.12346050644E+04  0.25500000920E-02 0. -1.
        2   -1    0    0  501    0  0.00000000000E+00  0.00000000000E+00 -0.18817245143E+04  0.18817245143E+04  0.25500000920E-02 0.  1.
    10030    2    1    2    0    0  0.00000000000E+00  0.00000000000E+00 -0.64711944991E+03  0.31163295787E+04  0.30484006398E+04 0.  0.
        4    1    3    3  502    0 -0.96274814862E+02  0.39157195913E+03  0.11790883303E+04  0.12461333567E+04  0.12699999809E+01 0. -1.
       -4    1    3    3    0  502  0.96274814862E+02 -0.39157195913E+03 -0.18262077802E+04  0.18701962220E+04  0.12699999809E+01 0.  1.
</event>
<event>
 5   0  0.3592331E-06  0.2736032E+04  0.7818609E-02  0.8323408E-01
        1   -1    0    0  501    0  0.00000000000E+00  0.00000000000E+00  0.89170680771E+03  0.89170680772E+03  0.50400001928E-02 0.  1.
       -1   -1    0    0    0  501  0.00000000000E+00  0.00000000000E+00 -0.20987479323E+04  0.20987479323E+04  0.50400001928E-02 0. -1.
    10030    2    1    2    0    0  0.00000000000E+00  0.00000000000E+00 -0.12070411246E+04  0.29904547400E+04  0.27360320312E+04 0.  0.
        3    1    3    3  502    0 -0.12504108842E+04  0.91264046627E+02 -0.52534174721E+01  0.12537480265E+04  0.10100000352E+00 0.  1.
       -3    1    3    3    0  502  0.12504108842E+04 -0.91264046627E+02 -0.12017877071E+04  0.17367067135E+04  0.10100000352E+00 0. -1.
</event>
<event>
 5   0  0.9647945E-06  0.3021688E+04  0.7818609E-02  0.8237565E-01
        2   -1    0    0  501    0  0.00000000000E+00  0.00000000000E+00  0.25543254001E+04  0.25543254001E+04  0.25500000920E-02 0. -1.
       -2   -1    0    0    0  501  0.00000000000E+00  0.00000000000E+00 -0.89364068977E+03  0.89364068977E+03  0.25500000920E-02 0.  1.
    10030    2    1    2    0    0  0.00000000000E+00  0.00000000000E+00  0.16606847103E+04  0.34479660899E+04  0.30216876824E+04 0.  0.
        2    1    3    3  502    0 -0.56392211145E+03 -0.12447977321E+04  0.95151635795E+02  0.13698844387E+04  0.25500000920E-02 0.  1.
       -2    1    3    3    0  502  0.56392211145E+03  0.12447977321E+04  0.15655330745E+04  0.20780816512E+04  0.25500000920E-02 0. -1.
</event>
<event>
 5   0  0.3896630E-06  0.2380052E+04  0.7818609E-02  0.8447010E-01
       -1   -1    0    0    0  501  0.00000000000E+00  0.00000000000E+00  0.10008901455E+04  0.10008901455E+04  0.50400001928E-02 0. -1.
        1   -1    0    0  501    0  0.00000000000E+00  0.00000000000E+00 -0.14149022623E+04  0.14149022624E+04  0.50400001928E-02 0.  1.
    10030    2    1    2    0    0  0.00000000000E+00  0.00000000000E+00 -0.41401211689E+03  0.24157924078E+04  0.23800518744E+04 0.  0.
        5    1    3    3  502    0 -0.16948681333E+03 -0.13055606497E+03 -0.13952126249E+04  0.14115279043E+04  0.46999998093E+01 0.  1.
       -5    1    3    3    0  502  0.16948681333E+03  0.13055606497E+03  0.98120050803E+03  0.10042645035E+04  0.46999998093E+01 0. -1.
</event>
<event>
 5   0  0.3852126E-06  0.2979262E+04  0.7818609E-02  0.8249678E-01
       -1   -1    0    0    0  501  0.00000000000E+00  0.00000000000E+00  0.12824511742E+04  0.12824511743E+04  0.50400001928E-02 0.  1.
        1   -1    0    0  501    0  0.00000000000E+00  0.00000000000E+00 -0.17302803829E+04  0.17302803829E+04  0.50400001928E-02 0. -1.
    10030    2    1    2    0    0  0.00000000000E+00  0.00000000000E+00 -0.44782920868E+03  0.30127315572E+04  0.29792617266E+04 0.  0.
        1    1    3    3  502    0  0.88640669483E+03  0.10199477946E+04 -0.85784621097E+03  0.16005969055E+04  0.50400001928E-02 0.  1.
       -1    1    3    3    0  502 -0.88640669483E+03 -0.10199477946E+04  0.41001700229E+03  0.14121346517E+04  0.50400001928E-02 0. -1.
</event>
<event>
 5   0  0.3636718E-06  0.2930651E+04  0.7818609E-02  0.8263816E-01
        1   -1    0    0  501    0  0.00000000000E+00  0.00000000000E+00  0.14966710973E+04  0.14966710973E+04  0.50400001928E-02 0. -1.
       -1   -1    0    0    0  501  0.00000000000E+00  0.00000000000E+00 -0.14346360478E+04  0.14346360478E+04  0.50400001928E-02 0.  1.
    10030    2    1    2    0    0  0.00000000000E+00  0.00000000000E+00  0.62035049530E+02  0.29313071451E+04  0.29306506499E+04 0.  0.
        4    1    3    3  502    0 -0.96424813270E+03 -0.97325902772E+03 -0.48887684267E+03  0.14546510842E+04  0.12699999809E+01 0.  1.
       -4    1    3    3    0  502  0.96424813270E+03  0.97325902772E+03  0.55091189220E+03  0.14766560609E+04  0.12699999809E+01 0. -1.
</event>
<event>
 5   0  0.3896630E-06  0.2951952E+04  0.7818609E-02  0.8257586E-01
        1   -1    0    0  501    0  0.00000000000E+00  0.00000000000E+00  0.21416757839E+04  0.21416757839E+04  0.50400001928E-02 0.  1.
       -1   -1    0    0    0  501  0.00000000000E+00  0.00000000000E+00 -0.10171963636E+04  0.10171963636E+04  0.50400001928E-02 0. -1.
    10030    2    1    2    0    0  0.00000000000E+00  0.00000000000E+00  0.11244794203E+04  0.31588721475E+04  0.29519517743E+04 0.  0.
        5    1    3    3  502    0  0.12873439904E+04 -0.68289366240E+03  0.31154373996E+03  0.14901945831E+04  0.46999998093E+01 0.  1.
       -5    1    3    3    0  502 -0.12873439904E+04  0.68289366240E+03  0.81293568035E+03  0.16686775644E+04  0.46999998093E+01 0. -1.
</event>
<event>
 5   0  0.3592331E-06  0.2897396E+04  0.7818609E-02  0.8273653E-01
        1   -1    0    0  501    0  0.00000000000E+00  0.00000000000E+00  0.11625173412E+04  0.11625173412E+04  0.50400001928E-02 0.  1.
       -1   -1    0    0    0  501  0.00000000000E+00  0.00000000000E+00 -0.18053289729E+04  0.18053289729E+04  0.50400001928E-02 0. -1.
    10030    2    1    2    0    0  0.00000000000E+00  0.00000000000E+00 -0.64281163171E+03  0.29678463141E+04  0.28973962363E+04 0.  0.
        3    1    3    3  502    0  0.63533566990E+03  0.95250775846E+03 -0.12305704789E+04  0.16808409077E+04  0.10100000352E+00 0. -1.
       -3    1    3    3    0  502 -0.63533566990E+03 -0.95250775846E+03  0.58775884715E+03  0.12870054064E+04  0.10100000352E+00 0.  1.
</event>
<event>
 5   0  0.1028450E-05  0.3028021E+04  0.7818609E-02  0.8235774E-01
       -2   -1    0    0    0  501  0.00000000000E+00  0.00000000000E+00  0.14348558576E+04  0.14348558576E+04  0.25500000920E-02 0. -1.
        2   -1    0    0  501    0  0.00000000000E+00  0.00000000000E+00 -0.15975316010E+04  0.15975316010E+04  0.25500000920E-02 0.  1.
    10030    2    1    2    0    0  0.00000000000E+00  0.00000000000E+00 -0.16267574342E+03  0.30323874586E+04  0.30280208556E+04 0.  0.
        3    1    3    3  502    0  0.10693433501E+03  0.27458662484E+03  0.14058608475E+04  0.14364113266E+04  0.10100000352E+00 0. -1.
       -3    1    3    3    0  502 -0.10693433501E+03 -0.27458662484E+03 -0.15685365909E+04  0.15959761320E+04  0.10100000352E+00 0.  1.
</event>
<event>
 5   0  0.1028450E-05  0.3000380E+04  0.7818609E-02  0.8243622E-01
       -2   -1    0    0    0  501  0.00000000000E+00  0.00000000000E+00  0.12767482316E+04  0.12767482316E+04  0.25500000920E-02 0. -1.
        2   -1    0    0  501    0  0.00000000000E+00  0.00000000000E+00 -0.17627360026E+04  0.17627360026E+04  0.25500000920E-02 0.  1.
    10030    2    1    2    0    0  0.00000000000E+00  0.00000000000E+00 -0.48598777107E+03  0.30394842342E+04  0.30003800253E+04 0.  0.
        3    1    3    3  502    0  0.73629434238E+03  0.87723406073E+03 -0.12245916379E+04  0.16766912792E+04  0.10100000352E+00 0.  1.
       -3    1    3    3    0  502 -0.73629434238E+03 -0.87723406073E+03  0.73860386683E+03  0.13627929550E+04  0.10100000352E+00 0. -1.
</event>
<event>
 5   0  0.3896630E-06  0.2974391E+04  0.7818609E-02  0.8251082E-01
        1   -1    0    0  501    0  0.00000000000E+00  0.00000000000E+00  0.24183662064E+04  0.24183662064E+04  0.50400001928E-02 0. -1.
       -1   -1    0    0    0  501  0.00000000000E+00  0.00000000000E+00 -0.91456380720E+03  0.91456380721E+03  0.50400001928E-02 0.  1.
    10030    2    1    2    0    0  0.00000000000E+00  0.00000000000E+00  0.15038023992E+04  0.33329300136E+04  0.29743908317E+04 0.  0.
        5    1    3    3  502    0  0.26120004077E+03  0.82041266073E+03  0.21106829514E+04  0.22795409640E+04  0.46999998093E+01 0. -1.
       -5    1    3    3    0  502 -0.26120004077E+03 -0.82041266073E+03 -0.60688055221E+03  0.10533890496E+04  0.46999998093E+01 0.  1.
</event>
<event>
 5   0  0.3592331E-06  0.2839530E+04  0.7818609E-02  0.8291100E-01
        1   -1    0    0  501    0  0.00000000000E+00  0.00000000000E+00  0.19267531492E+04  0.19267531492E+04  0.50400001928E-02 0. -1.
       -1   -1    0    0    0  501  0.00000000000E+00  0.00000000000E+00 -0.10461812239E+04  0.10461812239E+04  0.50400001928E-02 0.  1.
    10030    2    1    2    0    0  0.00000000000E+00  0.00000000000E+00  0.88057192534E+03  0.29729343731E+04  0.28395302201E+04 0.  0.
        3    1    3    3  502    0  0.12183484473E+04 -0.31886169484E+03  0.11265876313E+04  0.16897471470E+04  0.10100000352E+00 0. -1.
       -3    1    3    3    0  502 -0.12183484473E+04  0.31886169484E+03 -0.24601570594E+03  0.12831872261E+04  0.10100000352E+00 0.  1.
</event>
<event>
 5   0  0.3592331E-06  0.3138904E+04  0.7818609E-02  0.8205141E-01
        1   -1    0    0  501    0  0.00000000000E+00  0.00000000000E+00  0.15742898339E+04  0.15742898339E+04  0.50400001928E-02 0.  1.
       -1   -1    0    0    0  501  0.00000000000E+00  0.00000000000E+00 -0.15646291339E+04  0.15646291339E+04  0.50400001928E-02 0. -1.
    10030    2    1    2    0    0  0.00000000000E+00  0.00000000000E+00  0.96606999560E+01  0.31389189678E+04  0.31389041014E+04 0.  0.
        3    1    3    3  502    0  0.13148794337E+04  0.82260718514E+03 -0.23514833342E+03  0.15687208978E+04  0.10100000352E+00 0. -1.
       -3    1    3    3    0  502 -0.13148794337E+04 -0.82260718514E+03  0.24480903337E+03  0.15701980701E+04  0.10100000352E+00 0.  1.
</event>
<event>
 5   0  0.9647945E-06  0.2989181E+04  0.7818609E-02  0.8246827E-01
        2   -1    0    0  501    0  0.00000000000E+00  0.00000000000E+00  0.25256361311E+04  0.25256361311E+04  0.25500000920E-02 0. -1.
       -2   -1    0    0    0  501  0.00000000000E+00  0.00000000000E+00 -0.88445078169E+03  0.88445078170E+03  0.25500000920E-02 0.  1.
    10030    2    1    2    0    0  0.00000000000E+00  0.00000000000E+00  0.16411853494E+04  0.34100869128E+04  0.29891810587E+04 0.  0.
        2    1    3    3  502    0  0.14448875417E+04 -0.73100865083E+02  0.39258812029E+03  0.14990560953E+04  0.25500000920E-02 0.  1.
       -2    1    3    3    0  502 -0.14448875417E+04  0.73100865083E+02  0.12485972291E+04  0.19110308175E+04  0.25500000920E-02 0. -1.
</event>
<event>
 5   0  0.9647945E-06  0.2843232E+04  0.7818609E-02  0.8289971E-01
        2   -1    0    0  501    0  0.00000000000E+00  0.00000000000E+00  0.16920552110E+04  0.16920552110E+04  0.25500000920E-02 0. -1.
       -2   -1    0    0    0  501  0.00000000000E+00  0.00000000000E+00 -0.11944008301E+04  0.11944008301E+04  0.25500000920E-02 0.  1.
    10030    2    1    2    0    0  0.00000000000E+00  0.00000000000E+00  0.49765438092E+03  0.28864560412E+04  0.28432320684E+04 0.  0.
        2    1    3    3  502    0 -0.55810130618E+03 -0.97249850851E+03 -0.63839334660E+03  0.12902621757E+04  0.25500000920E-02 0.  1.
       -2    1    3    3    0  502  0.55810130618E+03  0.97249850851E+03  0.11360477275E+04  0.15961938655E+04  0.25500000920E-02 0. -1.
</event>
<event>
 5   0  0.3852126E-06  0.1850301E+04  0.7818609E-02  0.8679998E-01
       -1   -1    0    0    0  501  0.00000000000E+00  0.00000000000E+00  0.79376162999E+03  0.79376163001E+03  0.50400001928E-02 0.  1.
        1   -1    0    0  501    0  0.00000000000E+00  0.00000000000E+00 -0.10782873529E+04  0.10782873529E+04  0.50400001928E-02 0. -1.
    10030    2    1    2    0    0  0.00000000000E+00  0.00000000000E+00 -0.28452572294E+03  0.18720489829E+04  0.18503006533E+04 0.  0.
        1    1    3    3  502    0  0.53908983018E+03  0.18517243061E+03 -0.87952293601E+03  0.10480778926E+04  0.50400001928E-02 0. -1.
       -1    1    3    3    0  502 -0.53908983018E+03 -0.18517243061E+03  0.59499721307E+03  0.82397109030E+03  0.50400001928E-02 0.  1.
</event>
<event>
 5   0  0.1029922E-05  0.2973839E+04  0.7818609E-02  0.8251241E-01
       -2   -1    0    0    0  501  0.00000000000E+00  0.00000000000E+00  0.10290590795E+04  0.10290590795E+04  0.25500000920E-02 0.  1.
        2   -1    0    0  501    0  0.00000000000E+00  0.00000000000E+00 -0.21484960941E+04  0.21484960941E+04  0.25500000920E-02 0. -1.
    10030    2    1    2    0    0  0.00000000000E+00  0.00000000000E+00 -0.11194370147E+04  0.31775551736E+04  0.29738388745E+04 0.  0.
        1    1    3    3  502    0  0.23577658712E+03 -0.94621186997E+03  0.63968334303E+03  0.11662342309E+04  0.50400001928E-02 0.  1.
       -1    1    3    3    0  502 -0.23577658712E+03  0.94621186997E+03 -0.17591203577E+04  0.20113209427E+04  0.50400001928E-02 0. -1.
</event>
<event>
 5   0  0.3725232E-06  0.3013964E+04  0.7818609E-02  0.8239755E-01
        1   -1    0    0  501    0  0.00000000000E+00  0.00000000000E+00  0.26350830690E+04  0.26350830691E+04  0.50400001928E-02 0.  1.
       -1   -1    0    0    0  501  0.00000000000E+00  0.00000000000E+00 -0.86183039110E+03  0.86183039111E+03  0.50400001928E-02 0. -1.
    10030    2    1    2    0    0  0.00000000000E+00  0.00000000000E+00  0.17732526779E+04  0.34969134602E+04  0.30139639494E+04 0.  0.
        2    1    3    3  502    0  0.22008129826E+03  0.12476496157E+04  0.18334321250E+04  0.22285732427E+04  0.25500000920E-02 0.  1.
       -2    1    3    3    0  502 -0.22008129826E+03 -0.12476496157E+04 -0.60179447046E+02  0.12683402174E+04  0.25500000920E-02 0. -1.
</event>
<event>
 5   0  0.3725232E-06  0.2505903E+04  0.7818609E-02  0.8400886E-01
       -1   -1    0    0    0  501  0.00000000000E+00  0.00000000000E+00  0.77440765160E+03  0.77440765162E+03  0.50400001928E-02 0. -1.
        1   -1    0    0  501    0  0.00000000000E+00  0.00000000000E+00 -0.20272108074E+04  0.20272108074E+04  0.50400001928E-02 0.  1.
    10030    2    1    2    0    0  0.00000000000E+00  0.00000000000E+00 -0.12528031558E+04  0.28016184590E+04  0.25059030793E+04 0.  0.
        2    1    3    3  502    0  0.96667038261E+03  0.21845546360E+03  0.23069038303E+03  0.10175423682E+04  0.25500000920E-02 0. -1.
       -2    1    3    3    0  502 -0.96667038261E+03 -0.21845546360E+03 -0.14834935388E+04  0.17840760908E+04  0.25500000920E-02 0.  1.
</event>
<event>
 5   0  0.9647945E-06  0.2794275E+04  0.7818609E-02  0.8305048E-01
       -2   -1    0    0    0  501  0.00000000000E+00  0.00000000000E+00  0.87044335701E+03  0.87044335702E+03  0.25500000920E-02 0.  1.
        2   -1    0    0  501    0  0.00000000000E+00  0.00000000000E+00 -0.22425281522E+04  0.22425281522E+04  0.25500000920E-02 0. -1.
    10030    2    1    2    0    0  0.00000000000E+00  0.00000000000E+00 -0.13720847952E+04  0.31129715093E+04  0.27942753859E+04 0.  0.
        2    1    3    3  502    0 -0.10481672495E+04 -0.91837545792E+03 -0.79703290112E+03  0.16054063380E+04  0.25500000920E-02 0.  1.
       -2    1    3    3    0  502  0.10481672495E+04  0.91837545792E+03 -0.57505189411E+03  0.15075651712E+04  0.25500000920E-02 0. -1.
</event>
<event>
 5   0  0.3313750E-06  0.2869014E+04  0.7818609E-02  0.8282157E-01
       -3   -1    0    0    0  501  0.00000000000E+00  0.00000000000E+00  0.13648573124E+04  0.13648573161E+04  0.10100000352E+00 0. -1.
        3   -1    0    0  501    0  0.00000000000E+00  0.00000000000E+00 -0.15077111815E+04  0.15077111849E+04  0.10100000352E+00 0.  1.
    10030    2    1    2    0    0  0.00000000000E+00  0.00000000000E+00 -0.14285386914E+03  0.28725685010E+04  0.28690142148E+04 0.  0.
        4    1    3    3  502    0  0.80537170865E+03  0.10796985829E+04  0.42257705999E+03  0.14117172534E+04  0.12699999809E+01 0. -1.
       -4    1    3    3    0  502 -0.80537170865E+03 -0.10796985829E+04 -0.56543092914E+03  0.14608512476E+04  0.12699999809E+01 0.  1.
</event>
<event>
 5   0  0.1028450E-05  0.2861210E+04  0.7818609E-02  0.8284513E-01
       -2   -1    0    0    0  501  0.00000000000E+00  0.00000000000E+00  0.11919849752E+04  0.11919849752E+04  0.25500000920E-02 0. -1.
        2   -1    0    0  501    0  0.00000000000E+00  0.00000000000E+00 -0.17169931338E+04  0.17169931338E+04  0.25500000920E-02 0.  1.
    10030    2    1    2    0    0  0.00000000000E+00  0.00000000000E+00 -0.52500815863E+03  0.29089781090E+04  0.28612095470E+04 0.  0.
        3    1    3    3  502    0  0.13252976901E+04 -0.33824297048E+03 -0.68879862389E+03  0.15314260769E+04  0.10100000352E+00 0.  1.
       -3    1    3    3    0  502 -0.13252976901E+04  0.33824297048E+03  0.16379046526E+03  0.13775520321E+04  0.10100000352E+00 0. -1.
</event>
<event>
 5   0  0.3592331E-06  0.2709251E+04  0.7818609E-02  0.8332010E-01
       -1   -1    0    0    0  501  0.00000000000E+00  0.00000000000E+00  0.12217054123E+04  0.12217054123E+04  0.50400001928E-02 0. -1.
        1   -1    0    0  501    0  0.00000000000E+00  0.00000000000E+00 -0.15020069913E+04  0.15020069913E+04  0.50400001928E-02 0.  1.
    10030    2    1    2    0    0  0.00000000000E+00  0.00000000000E+00 -0.28030157902E+03  0.27237124036E+04  0.27092508711E+04 0.  0.
        3    1    3    3  502    0  0.96400568970E+03  0.18015704987E+03  0.79931389834E+03  0.12651743954E+04  0.10100000352E+00 0. -1.
       -3    1    3    3    0  502 -0.96400568970E+03 -0.18015704987E+03 -0.10796154774E+04  0.14585380083E+04  0.10100000352E+00 0.  1.
</event>
<event>
 5   0  0.1057036E-05  0.2949146E+04  0.7818609E-02  0.8258403E-01
       -2   -1    0    0    0  501  0.00000000000E+00  0.00000000000E+00  0.10302232770E+04  0.10302232770E+04  0.25500000920E-02 0. -1.
        2   -1    0    0  501    0  0.00000000000E+00  0.00000000000E+00 -0.21105776650E+04  0.21105776650E+04  0.25500000920E-02 0.  1.
    10030    2    1    2    0    0  0.00000000000E+00  0.00000000000E+00 -0.10803543880E+04  0.31408009420E+04  0.29491464788E+04 0.  0.
        4    1    3    3  502    0  0.12365200305E+04 -0.71092601584E+03 -0.93861171340E+03  0.17074516529E+04  0.12699999809E+01 0.  1.
       -4    1    3    3    0  502 -0.12365200305E+04  0.71092601584E+03 -0.14174267456E+03  0.14333492890E+04  0.12699999809E+01 0. -1.
</event>
<event>
 5   0  0.3636718E-06  0.2998279E+04  0.7818609E-02  0.8244222E-01
        1   -1    0    0  501    0  0.00000000000E+00  0.00000000000E+00  0.12515652909E+04  0.12515652909E+04  0.50400001928E-02 0.  1.
       -1   -1    0    0    0  501  0.00000000000E+00  0.00000000000E+00 -0.17956868802E+04  0.17956868802E+04  0.50400001928E-02 0. -1.
    10030    2    1    2    0    0  0.00000000000E+00  0.00000000000E+00 -0.54412158930E+03  0.30472521711E+04  0.29982790882E+04 0.  0.
        4    1    3    3  502    0 -0.88542012804E+03  0.93854161751E+03  0.50368124249E+03  0.13851085076E+04  0.12699999809E+01 0.  1.
       -4    1    3    3    0  502  0.88542012804E+03 -0.93854161751E+03 -0.10478028318E+04  0.16621436635E+04  0.12699999809E+01 0. -1.
</event>
<event>
 5   0  0.3852126E-06  0.2877981E+04  0.7818609E-02  0.8279459E-01
        1   -1    0    0  501    0  0.00000000000E+00  0.00000000000E+00  0.12236923520E+04  0.12236923520E+04  0.50400001928E-02 0. -1.
       -1   -1    0    0    0  501  0.00000000000E+00  0.00000000000E+00 -0.16921684977E+04  0.16921684977E+04  0.50400001928E-02 0.  1.
    10030    2    1    2    0    0  0.00000000000E+00  0.00000000000E+00 -0.46847614571E+03  0.29158608498E+04  0.28779809930E+04 0.  0.
        1    1    3    3  502    0 -0.75539422212E+03  0.58826803552E+03  0.85415156965E+03  0.12830645410E+04  0.50400001928E-02 0. -1.
       -1    1    3    3    0  502  0.75539422212E+03 -0.58826803552E+03 -0.13226277154E+04  0.16327963088E+04  0.50400001928E-02 0.  1.
</event>
<event>
 5   0  0.1089569E-05  0.2986261E+04  0.7818609E-02  0.8247665E-01
        2   -1    0    0  501    0  0.00000000000E+00  0.00000000000E+00  0.18479234856E+04  0.18479234856E+04  0.25500000920E-02 0.  1.
       -2   -1    0    0    0  501  0.00000000000E+00  0.00000000000E+00 -0.12064562005E+04  0.12064562005E+04  0.25500000920E-02 0. -1.
    10030    2    1    2    0    0  0.00000000000E+00  0.00000000000E+00  0.64146728514E+03  0.30543796862E+04  0.29862610384E+04 0.  0.
        5    1    3    3  502    0  0.29638506093E+03 -0.16391504314E+03  0.18081073162E+04  0.18395614702E+04  0.46999998093E+01 0.  1.
       -5    1    3    3    0  502 -0.29638506093E+03  0.16391504314E+03 -0.11666400311E+04  0.12148182160E+04  0.46999998093E+01 0. -1.
</event>
<event>
 5   0  0.3896630E-06  0.3148276E+04  0.7818609E-02  0.8202612E-01
       -1   -1    0    0    0  501  0.00000000000E+00  0.00000000000E+00  0.13165888358E+04  0.13165888358E+04  0.50400001928E-02 0.  1.
        1   -1    0    0  501    0  0.00000000000E+00  0.00000000000E+00 -0.18820689859E+04  0.18820689859E+04  0.50400001928E-02 0. -1.
    10030    2    1    2    0    0  0.00000000000E+00  0.00000000000E+00 -0.56548015006E+03  0.31986578217E+04  0.31482763634E+04 0.  0.
        5    1    3    3  502    0 -0.16594318358E+03 -0.33228858821E+03  0.12714242357E+04  0.13245733363E+04  0.46999998093E+01 0.  1.
       -5    1    3    3    0  502  0.16594318358E+03  0.33228858821E+03 -0.18369043858E+04  0.18740844854E+04  0.46999998093E+01 0. -1.
</event>
<event>
 5   0  0.1028450E-05  0.3176716E+04  0.7818609E-02  0.8194994E-01
       -2   -1    0    0    0  501  0.00000000000E+00  0.00000000000E+00  0.11663677507E+04  0.11663677507E+04  0.25500000920E-02 0. -1.
        2   -1    0    0  501    0  0.00000000000E+00  0.00000000000E+00 -0.21630232950E+04  0.21630232950E+04  0.25500000920E-02 0.  1.
    10030    2    1    2    0    0  0.00000000000E+00  0.00000000000E+00 -0.99665554428E+03  0.33293910457E+04  0.31767156721E+04 0.  0.
        3    1    3    3  502    0  0.31253422034E+03  0.24095438779E+03 -0.21108243290E+04  0.21473974979E+04  0.10100000352E+00 0.  1.
       -3    1    3    3    0  502 -0.31253422034E+03 -0.24095438779E+03  0.11141687848E+04  0.11819935478E+04  0.10100000352E+00 0. -1.
</event>
<event>
 5   0  0.1029922E-05  0.2593101E+04  0.7818609E-02  0.8370548E-01
       -2   -1    0    0    0  501  0.00000000000E+00  0.00000000000E+00  0.12108927780E+04  0.12108927780E+04  0.25500000920E-02 0.  1.
        2   -1    0    0  501    0  0.00000000000E+00  0.00000000000E+00 -0.13882676667E+04  0.13882676667E+04  0.25500000920E-02 0. -1.
    10030    2    1    2    0    0  0.00000000000E+00  0.00000000000E+00 -0.17737488874E+03  0.25991604447E+04  0.25931010713E+04 0.  0.
        1    1    3    3  502    0 -0.11701349420E+04  0.36527822771E+03 -0.51204785936E+03  0.13284716694E+04  0.50400001928E-02 0. -1.
       -1    1    3    3    0  502  0.11701349420E+04 -0.36527822771E+03  0.33467297062E+03  0.12706887752E+04  0.50400001928E-02 0.  1.
</event>
<event>
 5   0  0.3725232E-06  0.3003563E+04  0.7818609E-02  0.8242714E-01
       -1   -1    0    0    0  501  0.00000000000E+00  0.00000000000E+00  0.16696143245E+04  0.16696143245E+04  0.50400001928E-02 0. -1.
        1   -1    0    0  501    0  0.00000000000E+00  0.00000000000E+00 -0.13508199889E+04  0.13508199889E+04  0.50400001928E-02 0.  1.
    10030    2    1    2    0    0  0.00000000000E+00  0.00000000000E+00  0.31879433562E+03  0.30204343134E+04  0.30035634858E+04 0.  0.
        2    1    3    3  502    0 -0.13960891038E+04  0.50303830612E+03  0.39142261291E+03  0.15347064817E+04  0.25500000920E-02 0. -1.
       -2    1    3    3    0  502  0.13960891038E+04 -0.50303830612E+03 -0.72628277284E+02  0.14857278317E+04  0.25500000920E-02 0.  1.
</event>
<event>
 5   0  0.3725232E-06  0.2902442E+04  0.7818609E-02  0.8272151E-01
        1   -1    0    0  501    0  0.00000000000E+00  0.00000000000E+00  0.10342221488E+04  0.10342221488E+04  0.50400001928E-02 0. -1.
       -1   -1    0    0    0  501  0.00000000000E+00  0.00000000000E+00 -0.20363546522E+04  0.20363546522E+04  0.50400001928E-02 0.  1.
    10030    2    1    2    0    0  0.00000000000E+00  0.00000000000E+00 -0.10021325034E+04  0.30705768011E+04  0.29024424778E+04 0.  0.
        2    1    3    3  502    0 -0.72622911076E+02 -0.12751527759E+04 -0.12300046697E+04  0.17731892670E+04  0.25500000920E-02 0.  1.
       -2    1    3    3    0  502  0.72622911076E+02  0.12751527759E+04  0.22787216634E+03  0.12973875340E+04  0.25500000920E-02 0. -1.
</event>
<event>
 5   0  0.1028450E-05  0.3044272E+04  0.7818609E-02  0.8231201E-01
       -2   -1    0    0    0  501  0.00000000000E+00  0.00000000000E+00  0.14072244953E+04  0.14072244953E+04  0.25500000920E-02 0.  1.
        2   -1    0    0  501    0  0.00000000000E+00  0.00000000000E+00 -0.16464310228E+04  0.16464310228E+04  0.25500000920E-02 0. -1.
    10030    2    1    2    0    0  0.00000000000E+00  0.00000000000E+00 -0.23920652750E+03  0.30536555181E+04  0.30442720411E+04 0.  0.
        3    1    3    3  502    0 -0.43250636295E+03  0.30211276151E+03  0.13125806064E+04  0.14146383754E+04  0.10100000352E+00 0.  1.
       -3    1    3    3    0  502  0.43250636295E+03 -0.30211276151E+03 -0.15517871339E+04  0.16390171426E+04  0.10100000352E+00 0. -1.
</event>
<event>
 5   0  0.1089569E-05  0.2971640E+04  0.7818609E-02  0.8251876E-01
       -2   -1    0    0    0  501  0.00000000000E+00  0.00000000000E+00  0.95467626723E+03  0.95467626724E+03  0.25500000920E-02 0.  1.
        2   -1    0    0  501    0  0.00000000000E+00  0.00000000000E+00 -0.23124707299E+04  0.23124707299E+04  0.25500000920E-02 0. -1.
    10030    2    1    2    0    0  0.00000000000E+00  0.00000000000E+00 -0.13577944627E+04  0.32671469972E+04  0.29716399005E+04 0.  0.
        5    1    3    3  502    0 -0.14244855162E+04 -0.18915286421E+03 -0.26357415054E+03  0.14609692724E+04  0.46999998093E+01 0. -1.
       -5    1    3    3    0  502  0.14244855162E+04  0.18915286421E+03 -0.10942203122E+04  0.18061777248E+04  0.46999998093E+01 0.  1.
</event>
<event>
 5   0  0.3636718E-06  0.2996995E+04  0.7818609E-02  0.8244590E-01
        1   -1    0    0  501    0  0.00000000000E+00  0.00000000000E+00  0.18861285127E+04  0.18861285127E+04  0.50400001928E-02 0. -1.
       -1   -1    0    0    0  501  0.00000000000E+00  0.00000000000E+00 -0.11905309006E+04  0.11905309006E+04  0.50400001928E-02 0.  1.
    10030    2    1    2    0    0  0.00000000000E+00  0.00000000000E+00  0.69559761204E+03  0.30766594133E+04  0.29969946793E+04 0.  0.
        4    1    3    3  502    0 -0.23233414358E+02  0.28967811662E+03 -0.11613247537E+04  0.11971340774E+04  0.12699999809E+01 0.  1.
       -4    1    3    3    0  502  0.23233414358E+02 -0.28967811662E+03  0.18569223658E+04  0.18795253359E+04  0.12699999809E+01 0. -1.
</event>
<event>
 5   0  0.3636718E-06  0.2297371E+04  0.7818609E-02  0.8478958E-01
       -1   -1    0    0    0  501  0.00000000000E+00  0.00000000000E+00  0.12909552639E+04  0.12909552639E+04  0.50400001928E-02 0.  1.
        1   -1    0    0  501    0  0.00000000000E+00  0.00000000000E+00 -0.10220949097E+04  0.10220949098E+04  0.50400001928E-02 0. -1.
    10030    2    1    2    0    0  0.00000000000E+00  0.00000000000E+00  0.26886035418E+03  0.23130501737E+04  0.22973713709E+04 0.  0.
        4    1    3    3  502    0  0.73128800960E+03 -0.83731305569E+03  0.42554336705E+03  0.11903630019E+04  0.12699999809E+01 0. -1.
       -4    1    3    3    0  502 -0.73128800960E+03  0.83731305569E+03 -0.15668301287E+03  0.11226871718E+04  0.12699999809E+01 0.  1.
</event>
<event>
 5   0  0.3852126E-06  0.2916883E+04  0.7818609E-02  0.8267872E-01
       -1   -1    0    0    0  501  0.00000000000E+00  0.00000000000E+00  0.99389876468E+03  0.99389876469E+03  0.50400001928E-02 0. -1.
        1   -1    0    0  501    0  0.00000000000E+00  0.00000000000E+00 -0.21401082276E+04  0.21401082276E+04  0.50400001928E-02 0.  1.
    10030    2    1    2    0    0  0.00000000000E+00  0.00000000000E+00 -0.11462094629E+04  0.31340069923E+04  0.29168825302E+04 0.  0.
        1    1    3    3  502    0  0.34088076946E+03  0.15220721293E+03 -0.20879026974E+04  0.21210149477E+04  0.50400001928E-02 0.  1.
       -1    1    3    3    0  502 -0.34088076946E+03 -0.15220721293E+03  0.94169323443E+03  0.10129920446E+04  0.50400001928E-02 0. -1.
</event>
<event>
 5   0  0.3852126E-06  0.3037679E+04  0.7818609E-02  0.8233053E-01
        1   -1    0    0  501    0  0.00000000000E+00  0.00000000000E+00  0.24763955660E+04  0.24763955660E+04  0.50400001928E-02 0.  1.
       -1   -1    0    0    0  501  0.00000000000E+00  0.00000000000E+00 -0.93154463368E+03  0.93154463369E+03  0.50400001928E-02 0. -1.
    10030    2    1    2    0    0  0.00000000000E+00  0.00000000000E+00  0.15448509323E+04  0.34079401997E+04  0.30376787193E+04 0.  0.
        1    1    3    3  502    0  0.98144050227E+03  0.10942623002E+04  0.34340343805E+03  0.15094904314E+04  0.50400001928E-02 0.  1.
       -1    1    3    3    0  502 -0.98144050227E+03 -0.10942623002E+04  0.12014474943E+04  0.18984497683E+04  0.50400001928E-02 0. -1.
</event>
<event>
 5   0  0.3725232E-06  0.3031981E+04  0.7818609E-02  0.8234657E-01
       -1   -1    0    0    0  501  0.00000000000E+00  0.00000000000E+00  0.12526636914E+04  0.12526636914E+04  0.50400001928E-02 0.  1.
        1   -1    0    0  501    0  0.00000000000E+00  0.00000000000E+00 -0.18346719758E+04  0.18346719758E+04  0.50400001928E-02 0. -1.
    10030    2    1    2    0    0  0.00000000000E+00  0.00000000000E+00 -0.58200828444E+03  0.30873356672E+04  0.30319808507E+04 0.  0.
        2    1    3    3  502    0 -0.53411979113E+03  0.65904243078E+03 -0.15703686064E+04  0.17848468945E+04  0.25500000920E-02 0. -1.
       -2    1    3    3    0  502  0.53411979113E+03 -0.65904243078E+03  0.98836032199E+03  0.13024887727E+04  0.25500000920E-02 0.  1.
</event>
<event>
 5   0  0.3896630E-06  0.2961908E+04  0.7818609E-02  0.8254693E-01
       -1   -1    0    0    0  501  0.00000000000E+00  0.00000000000E+00  0.10862565833E+04  0.10862565833E+04  0.50400001928E-02 0. -1.
        1   -1    0    0  501    0  0.00000000000E+00  0.00000000000E+00 -0.20190668515E+04  0.20190668515E+04  0.50400001928E-02 0.  1.
    10030    2    1    2    0    0  0.00000000000E+00  0.00000000000E+00 -0.93281026821E+03  0.31053234348E+04  0.29619079389E+04 0.  0.
        5    1    3    3  502    0  0.11407047571E+03 -0.91729417022E+03 -0.16794781923E+04  0.19170575778E+04  0.46999998093E+01 0.  1.
       -5    1    3    3    0  502 -0.11407047571E+03  0.91729417022E+03  0.74666792407E+03  0.11882658570E+04  0.46999998093E+01 0. -1.
</event>
<event>
 5   0  0.3725232E-06  0.2054146E+04  0.7818609E-02  0.8581716E-01
        1   -1    0    0  501    0  0.00000000000E+00  0.00000000000E+00  0.16631922553E+04  0.16631922553E+04  0.50400001928E-02 0. -1.
       -1   -1    0    0    0  501  0.00000000000E+00  0.00000000000E+00 -0.63424967454E+03  0.63424967456E+03  0.50400001928E-02 0.  1.
    10030    2    1    2    0    0  0.00000000000E+00  0.00000000000E+00  0.10289425808E+04  0.22974419299E+04  0.20541461941E+04 0.  0.
        2    1    3    3  502    0 -0.27836356935E+03 -0.70706950400E+03 -0.25834298417E+03  0.80260492006E+03  0.25500000920E-02 0.  1.
       -2    1    3    3    0  502  0.27836356935E+03  0.70706950400E+03  0.12872855649E+04  0.14948370098E+04  0.25500000920E-02 0. -1.
</event>
<event>
 5   0  0.1029922E-05  0.2993827E+04  0.7818609E-02  0.8245496E-01
        2   -1    0    0  501    0  0.00000000000E+00  0.00000000000E+00  0.25945095520E+04  0.25945095520E+04  0.25500000920E-02 0.  1.
       -2   -1    0    0    0  501  0.00000000000E+00  0.00000000000E+00 -0.86365067387E+03  0.86365067388E+03  0.25500000920E-02 0. -1.
    10030    2    1    2    0    0  0.00000000000E+00  0.00000000000E+00  0.17308588781E+04  0.34581602259E+04  0.29938269309E+04 0.  0.
        1    1    3    3  502    0 -0.98536191247E+01  0.82545574515E+03 -0.57695114606E+03  0.10071479067E+04  0.50400001928E-02 0. -1.
       -1    1    3    3    0  502  0.98536191247E+01 -0.82545574515E+03  0.23078100242E+04  0.24510123192E+04  0.50400001928E-02 0.  1.
</event>
<event>
 5   0  0.1029922E-05  0.3027128E+04  0.7818609E-02  0.8236026E-01
        2   -1    0    0  501    0  0.00000000000E+00  0.00000000000E+00  0.15397101996E+04  0.15397101996E+04  0.25500000920E-02 0.  1.
       -2   -1    0    0    0  501  0.00000000000E+00  0.00000000000E+00 -0.14878619356E+04  0.14878619356E+04  0.25500000920E-02 0. -1.
    10030    2    1    2    0    0  0.00000000000E+00  0.00000000000E+00  0.51848264008E+02  0.30275721352E+04  0.30271281426E+04 0.  0.
        1    1    3    3  502    0 -0.10485222555E+04 -0.94405363880E+03  0.57394610627E+03  0.15231711414E+04  0.50400001928E-02 0.  1.
       -1    1    3    3    0  502  0.10485222555E+04  0.94405363880E+03 -0.52209784227E+03  0.15044009938E+04  0.50400001928E-02 0. -1.
</event>
<event>
 5   0  0.9647945E-06  0.1938804E+04  0.7818609E-02  0.8635779E-01
        2   -1    0    0  501    0  0.00000000000E+00  0.00000000000E+00  0.18310065126E+04  0.18310065126E+04  0.25500000920E-02 0. -1.
       -2   -1    0    0    0  501  0.00000000000E+00  0.00000000000E+00 -0.51323709207E+03  0.51323709208E+03  0.25500000920E-02 0.  1.
    10030    2    1    2    0    0  0.00000000000E+00  0.00000000000E+00  0.13177694205E+04  0.23442436046E+04  0.19388042274E+04 0.  0.
        2    1    3    3  502    0 -0.58749233653E+03 -0.62448551480E+03  0.11195271698E+03  0.86467497624E+03  0.25500000920E-02 0.  1.
       -2    1    3    3    0  502  0.58749233653E+03  0.62448551480E+03  0.12058167035E+04  0.14795686284E+04  0.25500000920E-02 0. -1.
</event>
<event>
 5   0  0.3636718E-06  0.2979181E+04  0.7818609E-02  0.8249701E-01
        1   -1    0    0  501    0  0.00000000000E+00  0.00000000000E+00  0.17533128569E+04  0.17533128569E+04  0.50400001928E-02 0.  1.
       -1   -1    0    0    0  501  0.00000000000E+00  0.00000000000E+00 -0.12655352812E+04  0.12655352812E+04  0.50400001928E-02 0. -1.
    10030    2    1    2    0    0  0.00000000000E+00  0.00000000000E+00  0.48777757564E+03  0.30188481381E+04  0.29791806118E+04 0.  0.
        4    1    3    3  502    0 -0.66861164852E+03 -0.74674228531E+03 -0.87269600800E+03  0.13290092221E+04  0.12699999809E+01 0. -1.
       -4    1    3    3    0  502  0.66861164852E+03  0.74674228531E+03  0.13604735836E+04  0.16898389160E+04  0.12699999809E+01 0.  1.
</event>
<event>
 5   0  0.3636718E-06  0.3041419E+04  0.7818609E-02  0.8232001E-01
        1   -1    0    0  501    0  0.00000000000E+00  0.00000000000E+00  0.19192514694E+04  0.19192514694E+04  0.50400001928E-02 0.  1.
       -1   -1    0    0    0  501  0.00000000000E+00  0.00000000000E+00 -0.12049269956E+04  0.12049269956E+04  0.50400001928E-02 0. -1.
    10030    2    1    2    0    0  0.00000000000E+00  0.00000000000E+00  0.71432447382E+03  0.31241784650E+04  0.30414193442E+04 0.  0.
        4    1    3    3  502    0  0.37487629409E+03 -0.45568997763E+03  0.17968597509E+04  0.18912673447E+04  0.12699999809E+01 0.  1.
       -4    1    3    3    0  502 -0.37487629409E+03  0.45568997763E+03 -0.10825352771E+04  0.12329111204E+04  0.12699999809E+01 0. -1.
</event>
<event>
 5   0  0.3852126E-06  0.1991736E+04  0.7818609E-02  0.8610494E-01
       -1   -1    0    0    0  501  0.00000000000E+00  0.00000000000E+00  0.41212106611E+03  0.41212106614E+03  0.50400001928E-02 0. -1.
        1   -1    0    0  501    0  0.00000000000E+00  0.00000000000E+00 -0.24064597248E+04  0.24064597248E+04  0.50400001928E-02 0.  1.
    10030    2    1    2    0    0  0.00000000000E+00  0.00000000000E+00 -0.19943386587E+04  0.28185807909E+04  0.19917356726E+04 0.  0.
        1    1    3    3  502    0 -0.35434725973E+03  0.81849057661E+03 -0.16240993199E+04  0.18528862365E+04  0.50400001928E-02 0.  1.
       -1    1    3    3    0  502  0.35434725973E+03 -0.81849057661E+03 -0.37023933881E+03  0.96569455445E+03  0.50400001928E-02 0. -1.
</event>
<event>
 5   0  0.3725232E-06  0.3028899E+04  0.7818609E-02  0.8235527E-01
       -1   -1    0    0    0  501  0.00000000000E+00  0.00000000000E+00  0.98368520502E+03  0.98368520504E+03  0.50400001928E-02 0.  1.
        1   -1    0    0  501    0  0.00000000000E+00  0.00000000000E+00 -0.23315963902E+04  0.23315963902E+04  0.50400001928E-02 0. -1.
    10030    2    1    2    0    0  0.00000000000E+00  0.00000000000E+00 -0.13479111851E+04  0.33152815952E+04  0.30288987260E+04 0.  0.
        2    1    3    3  502    0 -0.97919854419E+03  0.10983804208E+04 -0.10659933544E+04  0.18170336181E+04  0.25500000920E-02 0. -1.
       -2    1    3    3    0  502  0.97919854419E+03 -0.10983804208E+04 -0.28191783074E+03  0.14982479771E+04  0.25500000920E-02 0.  1.
</event>
<event>
 5   0  0.3725232E-06  0.2060180E+04  0.7818609E-02  0.8578990E-01
       -1   -1    0    0    0  501  0.00000000000E+00  0.00000000000E+00  0.18109031477E+04  0.18109031477E+04  0.50400001928E-02 0. -1.
        1   -1    0    0  501    0  0.00000000000E+00  0.00000000000E+00 -0.58594291264E+03  0.58594291266E+03  0.50400001928E-02 0.  1.
    10030    2    1    2    0    0  0.00000000000E+00  0.00000000000E+00  0.12249602351E+04  0.23968460604E+04  0.20601804435E+04 0.  0.
        2    1    3    3  502    0 -0.44085114538E+03 -0.62939769569E+03  0.14105820919E+04  0.16063103778E+04  0.25500000920E-02 0. -1.
       -2    1    3    3    0  502  0.44085114538E+03  0.62939769569E+03 -0.18562185684E+03  0.79053568260E+03  0.25500000920E-02 0.  1.
</event>
<event>
 5   0  0.1028450E-05  0.2909571E+04  0.7818609E-02  0.8270036E-01
        2   -1    0    0  501    0  0.00000000000E+00  0.00000000000E+00  0.31818767134E+04  0.31818767134E+04  0.25500000920E-02 0. -1.
       -2   -1    0    0    0  501  0.00000000000E+00  0.00000000000E+00 -0.66514221896E+03  0.66514221896E+03  0.25500000920E-02 0.  1.
    10030    2    1    2    0    0  0.00000000000E+00  0.00000000000E+00  0.25167344945E+04  0.38470189324E+04  0.29095707846E+04 0.  0.
        3    1    3    3  502    0 -0.10287509898E+04  0.10285600554E+04  0.12429399536E+04  0.19134168717E+04  0.10100000352E+00 0. -1.
       -3    1    3    3    0  502  0.10287509898E+04 -0.10285600554E+04  0.12737945409E+04  0.19336020607E+04  0.10100000352E+00 0.  1.
</event>
<event>
 5   0  0.1029922E-05  0.2970193E+04  0.7818609E-02  0.8252294E-01
       -2   -1    0    0    0  501  0.00000000000E+00  0.00000000000E+00  0.11805908930E+04  0.11805908930E+04  0.25500000920E-02 0. -1.
        2   -1    0    0  501    0  0.00000000000E+00  0.00000000000E+00 -0.18681416893E+04  0.18681416893E+04  0.25500000920E-02 0.  1.
    10030    2    1    2    0    0  0.00000000000E+00  0.00000000000E+00 -0.68755079635E+03  0.30487325823E+04  0.29701926303E+04 0.  0.
        1    1    3    3  502    0  0.62054232603E+02 -0.11995777778E+04  0.55262913092E+03  0.13222089582E+04  0.50400001928E-02 0. -1.
       -1    1    3    3    0  502 -0.62054232603E+02  0.11995777778E+04 -0.12401799273E+04  0.17265236242E+04  0.50400001928E-02 0.  1.
</event>
<event>
 5   0  0.1028450E-05  0.3059856E+04  0.7818609E-02  0.8226842E-01
       -2   -1    0    0    0  501  0.00000000000E+00  0.00000000000E+00  0.10111246841E+04  0.10111246841E+04  0.25500000920E-02 0.  1.
        2   -1    0    0  501    0  0.00000000000E+00  0.00000000000E+00 -0.23149265501E+04  0.23149265501E+04  0.25500000920E-02 0. -1.
    10030    2    1    2    0    0  0.00000000000E+00  0.00000000000E+00 -0.13038018660E+04  0.33260512342E+04  0.30598557984E+04 0.  0.
        3    1    3    3  502    0  0.79539769239E+03 -0.14675526226E+03 -0.20635254308E+04  0.22163780836E+04  0.10100000352E+00 0.  1.
       -3    1    3    3    0  502 -0.79539769239E+03  0.14675526226E+03  0.75972356477E+03  0.11096731506E+04  0.10100000352E+00 0. -1.
</event>
<event>
 5   0  0.3852126E-06  0.2997778E+04  0.7818609E-02  0.8244366E-01
        1   -1    0    0  501    0  0.00000000000E+00  0.00000000000E+00  0.22248258599E+04  0.22248258599E+04  0.50400001928E-02 0.  1.
       -1   -1    0    0    0  501  0.00000000000E+00  0.00000000000E+00 -0.10098178542E+04  0.10098178543E+04  0.50400001928E-02 0. -1.
    10030    2    1    2    0    0  0.00000000000E+00  0.00000000000E+00  0.12150080057E+04  0.32346437142E+04  0.29977784281E+04 0.  0.
        1    1    3    3  502    0 -0.64894614464E+03 -0.13435371644E+04  0.45321763875E+03  0.15593682820E+04  0.50400001928E-02 0.  1.
       -1    1    3    3    0  502  0.64894614464E+03  0.13435371644E+04  0.76179036693E+03  0.16752754322E+04  0.50400001928E-02 0. -1.
</event>
<event>
 5   0  0.9647945E-06  0.2996483E+04  0.7818609E-02  0.8244736E-01
        2   -1    0    0  501    0  0.00000000000E+00  0.00000000000E+00  0.12048042760E+04  0.12048042760E+04  0.25500000920E-02 0.  1.
       -2   -1    0    0    0  501  0.00000000000E+00  0.00000000000E+00 -0.18631468816E+04  0.18631468816E+04  0.25500000920E-02 0. -1.
    10030    2    1    2    0    0  0.00000000000E+00  0.00000000000E+00 -0.65834260561E+03  0.30679511576E+04  0.29964828248E+04 0.  0.
        2    1    3    3  502    0  0.65818716560E+03 -0.42892443100E+02 -0.17064987708E+04  0.18295322248E+04  0.25500000920E-02 0. -1.
       -2    1    3    3    0  502 -0.65818716560E+03  0.42892443100E+02  0.10481561652E+04  0.12384189329E+04  0.25500000920E-02 0.  1.
</event>
<event>
 5   0  0.9647945E-06  0.3131343E+04  0.7818609E-02  0.8207188E-01
        2   -1    0    0  501    0  0.00000000000E+00  0.00000000000E+00  0.99403396826E+03  0.99403396826E+03  0.25500000920E-02 0. -1.
       -2   -1    0    0    0  501  0.00000000000E+00  0.00000000000E+00 -0.24660394770E+04  0.24660394770E+04  0.25500000920E-02 0.  1.
    10030    2    1    2    0    0  0.00000000000E+00  0.00000000000E+00 -0.14720055087E+04  0.34600734452E+04  0.31313428475E+04 0.  0.
        2    1    3    3  502    0  0.50737888674E+03  0.14274399305E+04 -0.29913843632E+03  0.15441832450E+04  0.25500000920E-02 0. -1.
       -2    1    3    3    0  502 -0.50737888674E+03 -0.14274399305E+04 -0.11728670724E+04  0.19158902003E+04  0.25500000920E-02 0.  1.
</event>
<event>
 5   0  0.3852126E-06  0.3003528E+04  0.7818609E-02  0.8242724E-01
        1   -1    0    0  501    0  0.00000000000E+00  0.00000000000E+00  0.17365091799E+04  0.17365091799E+04  0.50400001928E-02 0. -1.
       -1   -1    0    0    0  501  0.00000000000E+00  0.00000000000E+00 -0.12987523663E+04  0.12987523663E+04  0.50400001928E-02 0.  1.
    10030    2    1    2    0    0  0.00000000000E+00  0.00000000000E+00  0.43775681364E+03  0.30352615462E+04  0.30035281963E+04 0.  0.
        1    1    3    3  502    0 -0.12400407564E+04  0.74773782702E+03  0.62118303015E+03  0.15756526560E+04  0.50400001928E-02 0. -1.
       -1    1    3    3    0  502  0.12400407564E+04 -0.74773782702E+03 -0.18342621651E+03  0.14596088902E+04  0.50400001928E-02 0.  1.
</event>
<event>
 5   0  0.3636718E-06  0.2973868E+04  0.7818609E-02  0.8251233E-01
       -1   -1    0    0    0  501  0.00000000000E+00  0.00000000000E+00  0.14516570856E+04  0.14516570856E+04  0.50400001928E-02 0.  1.
        1   -1    0    0  501    0  0.00000000000E+00  0.00000000000E+00 -0.15230679245E+04  0.15230679245E+04  0.50400001928E-02 0. -1.
    10030    2    1    2    0    0  0.00000000000E+00  0.00000000000E+00 -0.71410838892E+02  0.29747250101E+04  0.29738677472E+04 0.  0.
        4    1    3    3  502    0 -0.63064030521E+03  0.12509332989E+04 -0.53427604294E+03  0.14993311228E+04  0.12699999809E+01 0. -1.
       -4    1    3    3    0  502  0.63064030521E+03 -0.12509332989E+04  0.46286520405E+03  0.14753938874E+04  0.12699999809E+01 0.  1.
</event>
<event>
 5   0  0.3896630E-06  0.2991317E+04  0.7818609E-02  0.8246215E-01
       -1   -1    0    0    0  501  0.00000000000E+00  0.00000000000E+00  0.69955456022E+03  0.69955456024E+03  0.50400001928E-02 0.  1.
        1   -1    0    0  501    0  0.00000000000E+00  0.00000000000E+00 -0.31977405754E+04  0.31977405754E+04  0.50400001928E-02 0. -1.
    10030    2    1    2    0    0  0.00000000000E+00  0.00000000000E+00 -0.24981860151E+04  0.38972951356E+04  0.29913167682E+04 0.  0.
        5    1    3    3  502    0  0.38479207714E+03 -0.14324495738E+04 -0.14996886461E+04  0.21092806474E+04  0.46999998093E+01 0. -1.
       -5    1    3    3    0  502 -0.38479207714E+03  0.14324495738E+04 -0.99849736906E+03  0.17880144882E+04  0.46999998093E+01 0.  1.
</event>
<event>
 5   0  0.1057036E-05  0.3040578E+04  0.7818609E-02  0.8232238E-01
       -2   -1    0    0    0  501  0.00000000000E+00  0.00000000000E+00  0.13089490198E+04  0.13089490198E+04  0.25500000920E-02 0. -1.
        2   -1    0    0  501    0  0.00000000000E+00  0.00000000000E+00 -0.17657510778E+04  0.17657510778E+04  0.25500000920E-02 0.  1.
    10030    2    1    2    0    0  0.00000000000E+00  0.00000000000E+00 -0.45680205804E+03  0.30747000977E+04  0.30405776705E+04 0.  0.
        4    1    3    3  502    0  0.14280313208E+04  0.14214567976E+02 -0.75559714625E+03  0.16156745240E+04  0.12699999809E+01 0.  1.
       -4    1    3    3    0  502 -0.14280313208E+04 -0.14214567976E+02  0.29879508821E+03  0.14590255737E+04  0.12699999809E+01 0. -1.
</event>
<event>
 5   0  0.3896630E-06  0.2863057E+04  0.7818609E-02  0.8283955E-01
       -1   -1    0    0    0  501  0.00000000000E+00  0.00000000000E+00  0.11694126014E+04  0.11694126015E+04  0.50400001928E-02 0. -1.
        1   -1    0    0  501    0  0.00000000000E+00  0.00000000000E+00 -0.17523960540E+04  0.17523960540E+04  0.50400001928E-02 0.  1.
    10030    2    1    2    0    0  0.00000000000E+00  0.00000000000E+00 -0.58298345256E+03  0.29218086555E+04  0.28630571271E+04 0.  0.
        5    1    3    3  502    0 -0.81311774279E+03  0.10856117569E+04  0.17565548871E+03  0.13676952479E+04  0.46999998093E+01 0. -1.
       -5    1    3    3    0  502  0.81311774279E+03 -0.10856117569E+04 -0.75863894128E+03  0.15541134076E+04  0.46999998093E+01 0.  1.
</event>
<event>
 5   0  0.1028450E-05  0.2938126E+04  0.7818609E-02  0.8261624E-01
       -2   -1    0    0    0  501  0.00000000000E+00  0.00000000000E+00  0.11195232696E+04  0.11195232696E+04  0.25500000920E-02 0.  1.
        2   -1    0    0  501    0  0.00000000000E+00  0.00000000000E+00 -0.19277362113E+04  0.19277362113E+04  0.25500000920E-02 0. -1.
    10030    2    1    2    0    0  0.00000000000E+00  0.00000000000E+00 -0.80821294176E+03  0.30472594809E+04  0.29381256244E+04 0.  0.
        3    1    3    3  502    0 -0.31399804191E+03 -0.12643677839E+04 -0.11082385788E+04  0.17103839981E+04  0.10100000352E+00 0. -1.
       -3    1    3    3    0  502  0.31399804191E+03  0.12643677839E+04  0.30002563703E+03  0.13368754828E+04  0.10100000352E+00 0.  1.
</event>
<event>
 5   0  0.3896630E-06  0.3006981E+04  0.7818609E-02  0.8241740E-01
       -1   -1    0    0    0  501  0.00000000000E+00  0.00000000000E+00  0.11852615056E+04  0.11852615056E+04  0.50400001928E-02 0.  1.
        1   -1    0    0  501    0  0.00000000000E+00  0.00000000000E+00 -0.19071604109E+04  0.19071604109E+04  0.50400001928E-02 0. -1.
    10030    2    1    2    0    0  0.00000000000E+00  0.00000000000E+00 -0.72189890532E+03  0.30924219165E+04  0.30069810907E+04 0.  0.
        5    1    3    3  502    0 -0.13780119650E+04 -0.20509344585E+02  0.25706167437E+03  0.14019416547E+04  0.46999998093E+01 0. -1.
       -5    1    3    3    0  502  0.13780119650E+04  0.20509344585E+02 -0.97896057970E+03  0.16904802618E+04  0.46999998093E+01 0.  1.
</event>
<event>
 5   0  0.3592331E-06  0.2690662E+04  0.7818609E-02  0.8338041E-01
       -1   -1    0    0    0  501  0.00000000000E+00  0.00000000000E+00  0.84690952028E+03  0.84690952030E+03  0.50400001928E-02 0. -1.
        1   -1    0    0  501    0  0.00000000000E+00  0.00000000000E+00 -0.21370821969E+04  0.21370821969E+04  0.50400001928E-02 0.  1.
    10030    2    1    2    0    0  0.00000000000E+00  0.00000000000E+00 -0.12901726766E+04  0.29839917172E+04  0.26906618206E+04 0.  0.
        3    1    3    3  502    0 -0.23075477583E+03  0.31577405297E+03  0.78247163127E+03  0.87477018870E+03  0.10100000352E+00 0. -1.
       -3    1    3    3    0  502  0.23075477583E+03 -0.31577405297E+03 -0.20726443079E+04  0.21092215285E+04  0.10100000352E+00 0.  1.
</event>
<event>
 5   0  0.3592331E-06  0.3052698E+04  0.7818609E-02  0.8228841E-01
        1   -1    0    0  501    0  0.00000000000E+00  0.00000000000E+00  0.19033446828E+04  0.19033446828E+04  0.50400001928E-02 0. -1.
       -1   -1    0    0    0  501  0.00000000000E+00  0.00000000000E+00 -0.12240245060E+04  0.12240245060E+04  0.50400001928E-02 0.  1.
    10030    2    1    2    0    0  0.00000000000E+00  0.00000000000E+00  0.67932017673E+03  0.31273691888E+04  0.30526975187E+04 0.  0.
        3    1    3    3  502    0  0.20222368229E+03  0.80121800780E+03  0.16543654737E+04  0.18492619730E+04  0.10100000352E+00 0. -1.
       -3    1    3    3    0  502 -0.20222368229E+03 -0.80121800780E+03 -0.97504529702E+03  0.12781072158E+04  0.10100000352E+00 0.  1.
</event>
<event>
 5   0  0.3313750E-06  0.2948751E+04  0.7818609E-02  0.8258518E-01
       -3   -1    0    0    0  501  0.00000000000E+00  0.00000000000E+00  0.10618077909E+04  0.10618077957E+04  0.10100000352E+00 0. -1.
        3   -1    0    0  501    0  0.00000000000E+00  0.00000000000E+00 -0.20472479592E+04  0.20472479616E+04  0.10100000352E+00 0.  1.
    10030    2    1    2    0    0  0.00000000000E+00  0.00000000000E+00 -0.98544016827E+03  0.31090557573E+04  0.29487514946E+04 0.  0.
        4    1    3    3  502    0  0.78254270324E+03 -0.62456864304E+03 -0.16338332120E+04  0.19162128405E+04  0.12699999809E+01 0.  1.
       -4    1    3    3    0  502 -0.78254270324E+03  0.62456864304E+03  0.64839304376E+03  0.11928429169E+04  0.12699999809E+01 0. -1.
</event>
<event>
 5   0  0.1057036E-05  0.2974664E+04  0.7818609E-02  0.8251003E-01
       -2   -1    0    0    0  501  0.00000000000E+00  0.00000000000E+00  0.14624569961E+04  0.14624569961E+04  0.25500000920E-02 0. -1.
        2   -1    0    0  501    0  0.00000000000E+00  0.00000000000E+00 -0.15126298851E+04  0.15126298851E+04  0.25500000920E-02 0.  1.
    10030    2    1    2    0    0  0.00000000000E+00  0.00000000000E+00 -0.50172889015E+02  0.29750868812E+04  0.29746637847E+04 0.  0.
        4    1    3    3  502    0  0.45484911415E+02  0.11727492236E+04  0.88868726956E+03  0.14721332462E+04  0.12699999809E+01 0. -1.
       -4    1    3    3    0  502 -0.45484911415E+02 -0.11727492236E+04 -0.93886015857E+03  0.15029536350E+04  0.12699999809E+01 0.  1.
</event>
<event>
 5   0  0.1028450E-05  0.2480254E+04  0.7818609E-02  0.8410054E-01
       -2   -1    0    0    0  501  0.00000000000E+00  0.00000000000E+00  0.60505995713E+03  0.60505995713E+03  0.25500000920E-02 0.  1.
        2   -1    0    0  501    0  0.00000000000E+00  0.00000000000E+00 -0.25417555118E+04  0.25417555118E+04  0.25500000920E-02 0. -1.
    10030    2    1    2    0    0  0.00000000000E+00  0.00000000000E+00 -0.19366955547E+04  0.31468154689E+04  0.24802536007E+04 0.  0.
        3    1    3    3  502    0  0.34639280171E+03  0.68291215732E+03 -0.22059831177E+04  0.23351056750E+04  0.10100000352E+00 0. -1.
       -3    1    3    3    0  502 -0.34639280171E+03 -0.68291215732E+03  0.26928756306E+03  0.81170979390E+03  0.10100000352E+00 0.  1.
</event>
<event>
 5   0  0.9647945E-06  0.2842356E+04  0.7818609E-02  0.8290238E-01
       -2   -1    0    0    0  501  0.00000000000E+00  0.00000000000E+00  0.13621195868E+04  0.13621195868E+04  0.25500000920E-02 0. -1.
        2   -1    0    0  501    0  0.00000000000E+00  0.00000000000E+00 -0.14827968937E+04  0.14827968937E+04  0.25500000920E-02 0.  1.
    10030    2    1    2    0    0  0.00000000000E+00  0.00000000000E+00 -0.12067730683E+03  0.28449164805E+04  0.28423558484E+04 0.  0.
        2    1    3    3  502    0 -0.72225609644E+03  0.87993333170E+03  0.79119812214E+03  0.13863372626E+04  0.25500000920E-02 0. -1.
       -2    1    3    3    0  502  0.72225609644E+03 -0.87993333170E+03 -0.91187542897E+03  0.14585792180E+04  0.25500000920E-02 0.  1.
</event>
<event>
 5   0  0.1029922E-05  0.3011733E+04  0.7818609E-02  0.8240388E-01
       -2   -1    0    0    0  501  0.00000000000E+00  0.00000000000E+00  0.12953859063E+04  0.12953859063E+04  0.25500000920E-02 0.  1.
        2   -1    0    0  501    0  0.00000000000E+00  0.00000000000E+00 -0.17505473552E+04  0.17505473552E+04  0.25500000920E-02 0. -1.
    10030    2    1    2    0    0  0.00000000000E+00  0.00000000000E+00 -0.45516144890E+03  0.30459332616E+04  0.30117333032E+04 0.  0.
        1    1    3    3  502    0 -0.94455535303E+03 -0.11205953252E+04 -0.57750927712E+03  0.15752573323E+04  0.50400001928E-02 0.  1.
       -1    1    3    3    0  502  0.94455535303E+03  0.11205953252E+04  0.12234782823E+03  0.14706759293E+04  0.50400001928E-02 0. -1.
</event>
<event>
 5   0  0.1089569E-05  0.3060548E+04  0.7818609E-02  0.8226649E-01
       -2   -1    0    0    0  501  0.00000000000E+00  0.00000000000E+00  0.12528180071E+04  0.12528180071E+04  0.25500000920E-02 0.  1.
        2   -1    0    0  501    0  0.00000000000E+00  0.00000000000E+00 -0.18691768926E+04  0.18691768926E+04  0.25500000920E-02 0. -1.
    10030    2    1    2    0    0  0.00000000000E+00  0.00000000000E+00 -0.61635888556E+03  0.31219948997E+04  0.30605479702E+04 0.  0.
        5    1    3    3  502    0  0.11961290047E+04 -0.68784163496E+03  0.36682004923E+03  0.14277358822E+04  0.46999998093E+01 0.  1.
       -5    1    3    3    0  502 -0.11961290047E+04  0.68784163496E+03 -0.98317893480E+03  0.16942590175E+04  0.46999998093E+01 0. -1.
</event>
<event>
 5   0  0.1028450E-05  0.2979676E+04  0.7818609E-02  0.8249558E-01
        2   -1    0    0  501    0  0.00000000000E+00  0.00000000000E+00  0.21338555003E+04  0.21338555003E+04  0.25500000920E-02 0.  1.
       -2   -1    0    0    0  501  0.00000000000E+00  0.00000000000E+00 -0.10401910076E+04  0.10401910076E+04  0.25500000920E-02 0. -1.
    10030    2    1    2    0    0  0.00000000000E+00  0.00000000000E+00  0.10936644927E+04  0.31740465079E+04  0.29796760247E+04 0.  0.
        3    1    3    3  502    0 -0.28221273689E+03  0.79238885299E+03 -0.76305379843E+03  0.11356827166E+04  0.10100000352E+00 0. -1.
       -3    1    3    3    0  502  0.28221273689E+03 -0.79238885299E+03  0.18567182911E+04  0.20383637914E+04  0.10100000352E+00 0.  1.
</event>
<event>
 5   0  0.3592331E-06  0.2231728E+04  0.7818609E-02  0.8505337E-01
        1   -1    0    0  501    0  0.00000000000E+00  0.00000000000E+00  0.75829598016E+03  0.75829598017E+03  0.50400001928E-02 0.  1.
       -1   -1    0    0    0  501  0.00000000000E+00  0.00000000000E+00 -0.16420400799E+04  0.16420400799E+04  0.50400001928E-02 0. -1.
    10030    2    1    2    0    0  0.00000000000E+00  0.00000000000E+00 -0.88374409970E+03  0.24003360600E+04  0.22317279331E+04 0.  0.
        3    1    3    3  502    0  0.14711745360E+03  0.44149477544E+03 -0.15326898155E+04  0.16017800294E+04  0.10100000352E+00 0.  1.
       -3    1    3    3    0  502 -0.14711745360E+03 -0.44149477544E+03  0.64894571576E+03  0.79855603066E+03  0.10100000352E+00 0. -1.
</event>
<event>
 5   0  0.3592331E-06  0.3049682E+04  0.7818609E-02  0.8229685E-01
        1   -1    0    0  501    0  0.00000000000E+00  0.00000000000E+00  0.14114120666E+04  0.14114120667E+04  0.50400001928E-02 0.  1.
       -1   -1    0    0    0  501  0.00000000000E+00  0.00000000000E+00 -0.16473854710E+04  0.16473854710E+04  0.50400001928E-02 0. -1.
    10030    2    1    2    0    0  0.00000000000E+00  0.00000000000E+00 -0.23597340437E+03  0.30587975377E+04  0.30496817750E+04 0.  0.
        3    1    3    3  502    0  0.75834316039E+03  0.91480461817E+03 -0.10764517448E+04  0.16033403280E+04  0.10100000352E+00 0. -1.
       -3    1    3    3    0  502 -0.75834316039E+03 -0.91480461817E+03  0.84047834041E+03  0.14554572097E+04  0.10100000352E+00 0.  1.
</event>
<event>
 5   0  0.3896630E-06  0.2273869E+04  0.7818609E-02  0.8488296E-01
       -1   -1    0    0    0  501  0.00000000000E+00  0.00000000000E+00  0.62939019181E+03  0.62939019183E+03  0.50400001928E-02 0.  1.
        1   -1    0    0  501    0  0.00000000000E+00  0.00000000000E+00 -0.20537660508E+04  0.20537660508E+04  0.50400001928E-02 0. -1.
    10030    2    1    2    0    0  0.00000000000E+00  0.00000000000E+00 -0.14243758590E+04  0.26831562427E+04  0.22738691332E+04 0.  0.
        5    1    3    3  502    0  0.58858589730E+03 -0.97222416886E+03 -0.74846058258E+03  0.13608337616E+04  0.46999998093E+01 0.  1.
       -5    1    3    3    0  502 -0.58858589730E+03  0.97222416886E+03 -0.67591527644E+03  0.13223224811E+04  0.46999998093E+01 0. -1.
</event>
<event>
 5   0  0.3592331E-06  0.2369760E+04  0.7818609E-02  0.8450913E-01
       -1   -1    0    0    0  501  0.00000000000E+00  0.00000000000E+00  0.87390185144E+03  0.87390185146E+03  0.50400001928E-02 0. -1.
        1   -1    0    0  501    0  0.00000000000E+00  0.00000000000E+00 -0.16065195789E+04  0.16065195789E+04  0.50400001928E-02 0.  1.
    10030    2    1    2    0    0  0.00000000000E+00  0.00000000000E+00 -0.73261772747E+03  0.24804214304E+04  0.23697598481E+04 0.  0.
        3    1    3    3  502    0 -0.52343247888E+03 -0.49478181709E+03  0.61844916499E+03  0.94935240366E+03  0.10100000352E+00 0. -1.
       -3    1    3    3    0  502  0.52343247888E+03  0.49478181709E+03 -0.13510668925E+04  0.15310690267E+04  0.10100000352E+00 0.  1.
</event>
<event>
 5   0  0.9647945E-06  0.2966594E+04  0.7818609E-02  0.8253335E-01
        2   -1    0    0  501    0  0.00000000000E+00  0.00000000000E+00  0.16423548189E+04  0.16423548189E+04  0.25500000920E-02 0. -1.
       -2   -1    0    0    0  501  0.00000000000E+00  0.00000000000E+00 -0.13396432489E+04  0.13396432490E+04  0.25500000920E-02 0.  1.
    10030    2    1    2    0    0  0.00000000000E+00  0.00000000000E+00  0.30271156999E+03  0.29819980679E+04  0.29665937002E+04 0.  0.
        2    1    3    3  502    0 -0.47991304544E+03  0.12948411747E+04  0.69568345205E+03  0.15462553684E+04  0.25500000920E-02 0. -1.
       -2    1    3    3    0  502  0.47991304544E+03 -0.12948411747E+04 -0.39297188206E+03  0.14357426995E+04  0.25500000920E-02 0.  1.
</event>
<event>
 5   0  0.1028450E-05  0.3094386E+04  0.7818609E-02  0.8217280E-01
       -2   -1    0    0    0  501  0.00000000000E+00  0.00000000000E+00  0.24069717306E+04  0.24069717306E+04  0.25500000920E-02 0.  1.
        2   -1    0    0  501    0  0.00000000000E+00  0.00000000000E+00 -0.99453009860E+03  0.99453009860E+03  0.25500000920E-02 0. -1.
    10030    2    1    2    0    0  0.00000000000E+00  0.00000000000E+00  0.14124416320E+04  0.34015018292E+04  0.30943857759E+04 0.  0.
        3    1    3    3  502    0 -0.15276043232E+04  0.15540454728E+03  0.91502115922E+03  0.17874532927E+04  0.10100000352E+00 0.  1.
       -3    1    3    3    0  502  0.15276043232E+04 -0.15540454728E+03  0.49742047280E+03  0.16140485366E+04  0.10100000352E+00 0. -1.
</event>
<event>
 5   0  0.3592331E-06  0.3012309E+04  0.7818609E-02  0.8240225E-01
       -1   -1    0    0    0  501  0.00000000000E+00  0.00000000000E+00  0.18247139138E+04  0.18247139138E+04  0.50400001928E-02 0. -1.
        1   -1    0    0  501    0  0.00000000000E+00  0.00000000000E+00 -0.12432091358E+04  0.12432091358E+04  0.50400001928E-02 0.  1.
    10030    2    1    2    0    0  0.00000000000E+00  0.00000000000E+00  0.58150477795E+03  0.30679230496E+04  0.30123087543E+04 0.  0.
        3    1    3    3  502    0  0.44390382665E+03 -0.12991655720E+04  0.92155742231E+03  0.16535264992E+04  0.10100000352E+00 0. -1.
       -3    1    3    3    0  502 -0.44390382665E+03  0.12991655720E+04 -0.34005264437E+03  0.14143965504E+04  0.10100000352E+00 0.  1.
</event>
<event>
 5   0  0.3725232E-06  0.3006475E+04  0.7818609E-02  0.8241884E-01
        1   -1    0    0  501    0  0.00000000000E+00  0.00000000000E+00  0.12793219718E+04  0.12793219718E+04  0.50400001928E-02 0.  1.
       -1   -1    0    0    0  501  0.00000000000E+00  0.00000000000E+00 -0.17663438013E+04  0.17663438013E+04  0.50400001928E-02 0. -1.
    10030    2    1    2    0    0  0.00000000000E+00  0.00000000000E+00 -0.48702182957E+03  0.30456657731E+04  0.30064746363E+04 0.  0.
        2    1    3    3  502    0  0.14041253086E+04 -0.37938566764E+03 -0.62822585442E+03  0.15843513156E+04  0.25500000920E-02 0. -1.
       -2    1    3    3    0  502 -0.14041253086E+04  0.37938566764E+03  0.14120402485E+03  0.14613144575E+04  0.25500000920E-02 0.  1.
</event>
<event>
 5   0  0.9647945E-06  0.2801886E+04  0.7818609E-02  0.8302683E-01
        2   -1    0    0  501    0  0.00000000000E+00  0.00000000000E+00  0.14159376735E+04  0.14159376735E+04  0.25500000920E-02 0.  1.
       -2   -1    0    0    0  501  0.00000000000E+00  0.00000000000E+00 -0.13861069008E+04  0.13861069008E+04  0.25500000920E-02 0. -1.
    10030    2    1    2    0    0  0.00000000000E+00  0.00000000000E+00  0.29830772772E+02  0.28020445743E+04  0.28018857795E+04 0.  0.
        2    1    3    3  502    0 -0.74304056251E+03 -0.78720268460E+03  0.90425968397E+03  0.14104903120E+04  0.25500000920E-02 0.  1.
       -2    1    3    3    0  502  0.74304056251E+03  0.78720268460E+03 -0.87442891120E+03  0.13915542623E+04  0.25500000920E-02 0. -1.
</event>
<event>
 5   0  0.3636718E-06  0.2604199E+04  0.7818609E-02  0.8366776E-01
       -1   -1    0    0    0  501  0.00000000000E+00  0.00000000000E+00  0.72782780330E+03  0.72782780332E+03  0.50400001928E-02 0.  1.
        1   -1    0    0  501    0  0.00000000000E+00  0.00000000000E+00 -0.23294837954E+04  0.23294837954E+04  0.50400001928E-02 0. -1.
    10030    2    1    2    0    0  0.00000000000E+00  0.00000000000E+00 -0.16016559921E+04  0.30573115987E+04  0.26041989737E+04 0.  0.
        4    1    3    3  502    0 -0.12498973844E+04  0.51291568984E+02 -0.37658392064E+03  0.13064039799E+04  0.12699999809E+01 0.  1.
       -4    1    3    3    0  502  0.12498973844E+04 -0.51291568984E+02 -0.12250720714E+04  0.17509076188E+04  0.12699999809E+01 0. -1.
</event>
<event>
 5   0  0.1029922E-05  0.3061490E+04  0.7818609E-02  0.8226387E-01
        2   -1    0    0  501    0  0.00000000000E+00  0.00000000000E+00  0.19160174525E+04  0.19160174525E+04  0.25500000920E-02 0.  1.
       -2   -1    0    0    0  501  0.00000000000E+00  0.00000000000E+00 -0.12229431698E+04  0.12229431698E+04  0.25500000920E-02 0. -1.
    10030    2    1    2    0    0  0.00000000000E+00  0.00000000000E+00  0.69307428265E+03  0.31389606223E+04  0.30614901318E+04 0.  0.
        1    1    3    3  502    0 -0.12124785133E+04  0.76996833509E+03 -0.19622119220E+03  0.14496406929E+04  0.50400001928E-02 0. -1.
       -1    1    3    3    0  502  0.12124785133E+04 -0.76996833509E+03  0.88929547485E+03  0.16893199294E+04  0.50400001928E-02 0.  1.
</event>
<event>
 5   0  0.3636718E-06  0.2960942E+04  0.7818609E-02  0.8254973E-01
        1   -1    0    0  501    0  0.00000000000E+00  0.00000000000E+00  0.22006319081E+04  0.22006319081E+04  0.50400001928E-02 0. -1.
       -1   -1    0    0    0  501  0.00000000000E+00  0.00000000000E+00 -0.99598408401E+03  0.99598408402E+03  0.50400001928E-02 0.  1.
    10030    2    1    2    0    0  0.00000000000E+00  0.00000000000E+00  0.12046478241E+04  0.31966159921E+04  0.29609419820E+04 0.  0.
        4    1    3    3  502    0  0.93983338725E+02  0.10941558869E+04 -0.46956846294E+03  0.11943643193E+04  0.12699999809E+01 0.  1.
       -4    1    3    3    0  502 -0.93983338725E+02 -0.10941558869E+04  0.16742162870E+04  0.20022516729E+04  0.12699999809E+01 0. -1.
</event>
<event>
 5   0  0.3592331E-06  0.2995770E+04  0.7818609E-02  0.8244940E-01
        1   -1    0    0  501    0  0.00000000000E+00  0.00000000000E+00  0.24398654824E+04  0.24398654824E+04  0.50400001928E-02 0. -1.
       -1   -1    0    0    0  501  0.00000000000E+00  0.00000000000E+00 -0.91958334599E+03  0.91958334601E+03  0.50400001928E-02 0.  1.
    10030    2    1    2    0    0  0.00000000000E+00  0.00000000000E+00  0.15202821364E+04  0.33594488284E+04  0.29957701275E+04 0.  0.
        3    1    3    3  502    0 -0.10889483921E+04  0.53527086861E+02  0.19119564471E+04  0.22009659733E+04  0.10100000352E+00 0. -1.
       -3    1    3    3    0  502  0.10889483921E+04 -0.53527086861E+02 -0.39167431069E+03  0.11584828551E+04  0.10100000352E+00 0.  1.
</event>
<event>
 5   0  0.3725232E-06  0.2145126E+04  0.7818609E-02  0.8541621E-01
        1   -1    0    0  501    0  0.00000000000E+00  0.00000000000E+00  0.14932096057E+04  0.14932096058E+04  0.50400001928E-02 0. -1.
       -1   -1    0    0    0  501  0.00000000000E+00  0.00000000000E+00 -0.77041551851E+03  0.77041551852E+03  0.50400001928E-02 0.  1.
    10030    2    1    2    0    0  0.00000000000E+00  0.00000000000E+00  0.72279408724E+03  0.22636251243E+04  0.21451264323E+04 0.  0.
        2    1    3    3  502    0 -0.10249810749E+04  0.31578174428E+03  0.37127010272E+03  0.11349651110E+04  0.25500000920E-02 0. -1.
       -2    1    3    3    0  502  0.10249810749E+04 -0.31578174428E+03  0.35152398452E+03  0.11286600133E+04  0.25500000920E-02 0.  1.
</event>
<event>
 5   0  0.1029922E-05  0.3098790E+04  0.7818609E-02  0.8216070E-01
        2   -1    0    0  501    0  0.00000000000E+00  0.00000000000E+00  0.16220003243E+04  0.16220003243E+04  0.25500000920E-02 0.  1.
       -2   -1    0    0    0  501  0.00000000000E+00  0.00000000000E+00 -0.14800400418E+04  0.14800400418E+04  0.25500000920E-02 0. -1.
    10030    2    1    2    0    0  0.00000000000E+00  0.00000000000E+00  0.14196028250E+03  0.31020403661E+04  0.30987903626E+04 0.  0.
        1    1    3    3  502    0 -0.50974962310E+03  0.29608887966E+03 -0.13633911429E+04  0.14853783059E+04  0.50400001928E-02 0. -1.
       -1    1    3    3    0  502  0.50974962310E+03 -0.29608887966E+03  0.15053514255E+04  0.16166620602E+04  0.50400001928E-02 0.  1.
</event>
<event>
 5   0  0.1089569E-05  0.2924047E+04  0.7818609E-02  0.8265759E-01
       -2   -1    0    0    0  501  0.00000000000E+00  0.00000000000E+00  0.18576177135E+04  0.18576177135E+04  0.25500000920E-02 0. -1.
        2   -1    0    0  501    0  0.00000000000E+00  0.00000000000E+00 -0.11506742069E+04  0.11506742069E+04  0.25500000920E-02 0.  1.
    10030    2    1    2    0    0  0.00000000000E+00  0.00000000000E+00  0.70694350659E+03  0.30082919205E+04  0.29240470511E+04 0.  0.
        5    1    3    3  502    0 -0.13224983965E+04 -0.62322204529E+03  0.36284313525E+03  0.15063482191E+04  0.46999998093E+01 0. -1.
       -5    1    3    3    0  502  0.13224983965E+04  0.62322204529E+03  0.34410037134E+03  0.15019437013E+04  0.46999998093E+01 0.  1.
</event>
<event>
 5   0  0.3896630E-06  0.2953710E+04  0.7818609E-02  0.8257074E-01
       -1   -1    0    0    0  501  0.00000000000E+00  0.00000000000E+00  0.12135940302E+04  0.12135940302E+04  0.50400001928E-02 0. -1.
        1   -1    0    0  501    0  0.00000000000E+00  0.00000000000E+00 -0.17972244150E+04  0.17972244150E+04  0.50400001928E-02 0.  1.
    10030    2    1    2    0    0  0.00000000000E+00  0.00000000000E+00 -0.58363038484E+03  0.30108184452E+04  0.29537100880E+04 0.  0.
        5    1    3    3  502    0  0.53968377274E+03  0.74481704873E+03  0.88597612788E+03  0.12771009356E+04  0.46999998093E+01 0. -1.
       -5    1    3    3    0  502 -0.53968377274E+03 -0.74481704873E+03 -0.14696065127E+04  0.17337175095E+04  0.46999998093E+01 0.  1.
</event>
<event>
 5   0  0.1057036E-05  0.2980066E+04  0.7818609E-02  0.8249446E-01
       -2   -1    0    0    0  501  0.00000000000E+00  0.00000000000E+00  0.18024112812E+04  0.18024112812E+04  0.25500000920E-02 0. -1.
        2   -1    0    0  501    0  0.00000000000E+00  0.00000000000E+00 -0.12317935364E+04  0.12317935364E+04  0.25500000920E-02 0.  1.
    10030    2    1    2    0    0  0.00000000000E+00  0.00000000000E+00  0.57061774488E+03  0.30342048176E+04  0.29800661510E+04 0.  0.
        4    1    3    3  502    0  0.97632407979E+02  0.10952061991E+04  0.13091557160E+04  0.17096487964E+04  0.12699999809E+01 0. -1.
       -4    1    3    3    0  502 -0.97632407979E+02 -0.10952061991E+04 -0.73853797109E+03  0.13245560212E+04  0.12699999809E+01 0.  1.
</event>
<event>
 5   0  0.3852126E-06  0.2973319E+04  0.7818609E-02  0.8251391E-01
       -1   -1    0    0    0  501  0.00000000000E+00  0.00000000000E+00  0.11997961498E+04  0.11997961498E+04  0.50400001928E-02 0. -1.
        1   -1    0    0  501    0  0.00000000000E+00  0.00000000000E+00 -0.18421102880E+04  0.18421102880E+04  0.50400001928E-02 0.  1.
    10030    2    1    2    0    0  0.00000000000E+00  0.00000000000E+00 -0.64231413812E+03  0.30419064378E+04  0.29733192436E+04 0.  0.
        1    1    3    3  502    0  0.20702664116E+03 -0.57050148782E+03 -0.17096014104E+04  0.18141303592E+04  0.50400001928E-02 0.  1.
       -1    1    3    3    0  502 -0.20702664116E+03  0.57050148782E+03  0.10672872722E+04  0.12277760786E+04  0.50400001928E-02 0. -1.
</event>
<event>
 5   0  0.3896630E-06  0.2696406E+04  0.7818609E-02  0.8336172E-01
       -1   -1    0    0    0  501  0.00000000000E+00  0.00000000000E+00  0.28176620206E+04  0.28176620206E+04  0.50400001928E-02 0. -1.
        1   -1    0    0  501    0  0.00000000000E+00  0.00000000000E+00 -0.64509206429E+03  0.64509206431E+03  0.50400001928E-02 0.  1.
    10030    2    1    2    0    0  0.00000000000E+00  0.00000000000E+00  0.21725699563E+04  0.34627540849E+04  0.26964060595E+04 0.  0.
        5    1    3    3  502    0 -0.74667666395E+02 -0.56804994537E+03 -0.48096452391E+03  0.74806748633E+03  0.46999998093E+01 0.  1.
       -5    1    3    3    0  502  0.74667666395E+02  0.56804994537E+03  0.26535344802E+04  0.27146865986E+04  0.46999998093E+01 0. -1.
</event>
<event>
 5   0  0.3725232E-06  0.2992256E+04  0.7818609E-02  0.8245946E-01
       -1   -1    0    0    0  501  0.00000000000E+00  0.00000000000E+00  0.10319848060E+04  0.10319848060E+04  0.50400001928E-02 0. -1.
        1   -1    0    0  501    0  0.00000000000E+00  0.00000000000E+00 -0.21690239223E+04  0.21690239223E+04  0.50400001928E-02 0.  1.
    10030    2    1    2    0    0  0.00000000000E+00  0.00000000000E+00 -0.11370391163E+04  0.32010087283E+04  0.29922564941E+04 0.  0.
        2    1    3    3  502    0 -0.26595261742E+03  0.12497676436E+04 -0.14011162298E+04  0.18962533184E+04  0.25500000920E-02 0.  1.
       -2    1    3    3    0  502  0.26595261742E+03 -0.12497676436E+04  0.26407711359E+03  0.13047554099E+04  0.25500000920E-02 0. -1.
</event>
<event>
 5   0  0.3725232E-06  0.3007349E+04  0.7818609E-02  0.8241635E-01
       -1   -1    0    0    0  501  0.00000000000E+00  0.00000000000E+00  0.18244365732E+04  0.18244365732E+04  0.50400001928E-02 0.  1.
        1   -1    0    0  501    0  0.00000000000E+00  0.00000000000E+00 -0.12393068932E+04  0.12393068932E+04  0.50400001928E-02 0. -1.
    10030    2    1    2    0    0  0.00000000000E+00  0.00000000000E+00  0.58512967998E+03  0.30637434663E+04  0.30073488799E+04 0.  0.
        2    1    3    3  502    0  0.77902002754E+03  0.90125621151E+03  0.12273231167E+04  0.17103967361E+04  0.25500000920E-02 0.  1.
       -2    1    3    3    0  502 -0.77902002754E+03 -0.90125621151E+03 -0.64219343671E+03  0.13533467302E+04  0.25500000920E-02 0. -1.
</event>
<event>
 5   0  0.3313750E-06  0.3042896E+04  0.7818609E-02  0.8231587E-01
        3   -1    0    0  501    0  0.00000000000E+00  0.00000000000E+00  0.13562646753E+04  0.13562646790E+04  0.10100000352E+00 0.  1.
       -3   -1    0    0    0  501  0.00000000000E+00  0.00000000000E+00 -0.17067490924E+04  0.17067490954E+04  0.10100000352E+00 0. -1.
    10030    2    1    2    0    0  0.00000000000E+00  0.00000000000E+00 -0.35048441709E+03  0.30630137744E+04  0.30428956695E+04 0.  0.
        4    1    3    3  502    0  0.44412295928E+03  0.31563999754E+03  0.12546876362E+04  0.13678876008E+04  0.12699999809E+01 0.  1.
       -4    1    3    3    0  502 -0.44412295928E+03 -0.31563999754E+03 -0.16051720533E+04  0.16951261736E+04  0.12699999809E+01 0. -1.
</event>
<event>
 5   0  0.3313750E-06  0.2926380E+04  0.7818609E-02  0.8265072E-01
        3   -1    0    0  501    0  0.00000000000E+00  0.00000000000E+00  0.23603471959E+04  0.23603471980E+04  0.10100000352E+00 0. -1.
       -3   -1    0    0    0  501  0.00000000000E+00  0.00000000000E+00 -0.90703824372E+03  0.90703824934E+03  0.10100000352E+00 0.  1.
    10030    2    1    2    0    0  0.00000000000E+00  0.00000000000E+00  0.14533089522E+04  0.32673854474E+04  0.29263801447E+04 0.  0.
        2    1    3    3  502    0 -0.13214208598E+03 -0.99354186898E+03 -0.46355508417E+03  0.11042962883E+04  0.25500000920E-02 0.  1.
       -2    1    3    3    0  502  0.13214208598E+03  0.99354186898E+03  0.19168640363E+04  0.21630891591E+04  0.25500000920E-02 0. -1.
</event>
<event>
 5   0  0.3636718E-06  0.2911851E+04  0.7818609E-02  0.8269360E-01
       -1   -1    0    0    0  501  0.00000000000E+00  0.00000000000E+00  0.12581500368E+04  0.12581500368E+04  0.50400001928E-02 0. -1.
        1   -1    0    0  501    0  0.00000000000E+00  0.00000000000E+00 -0.16847904874E+04  0.16847904874E+04  0.50400001928E-02 0.  1.
    10030    2    1    2    0    0  0.00000000000E+00  0.00000000000E+00 -0.42664045060E+03  0.29429405243E+04  0.29118511046E+04 0.  0.
        4    1    3    3  502    0  0.84261429011E+02 -0.23221775047E+02  0.12554955728E+04  0.12585348566E+04  0.12699999809E+01 0. -1.
       -4    1    3    3    0  502 -0.84261429011E+02  0.23221775047E+02 -0.16821360233E+04  0.16844056676E+04  0.12699999809E+01 0.  1.
</event>
<event>
 5   0  0.3725232E-06  0.2870724E+04  0.7818609E-02  0.8281641E-01
        1   -1    0    0  501    0  0.00000000000E+00  0.00000000000E+00  0.20752526307E+04  0.20752526307E+04  0.50400001928E-02 0.  1.
       -1   -1    0    0    0  501  0.00000000000E+00  0.00000000000E+00 -0.99277768980E+03  0.99277768981E+03  0.50400001928E-02 0. -1.
    10030    2    1    2    0    0  0.00000000000E+00  0.00000000000E+00  0.10824749409E+04  0.30680303205E+04  0.28707243076E+04 0.  0.
        2    1    3    3  502    0  0.50346980106E+03 -0.94169739815E+03  0.15663213480E+04  0.18956894248E+04  0.25500000920E-02 0.  1.
       -2    1    3    3    0  502 -0.50346980106E+03  0.94169739815E+03 -0.48384640701E+03  0.11723408957E+04  0.25500000920E-02 0. -1.
</event>
<event>
 5   0  0.3725232E-06  0.2925605E+04  0.7818609E-02  0.8265300E-01
        1   -1    0    0  501    0  0.00000000000E+00  0.00000000000E+00  0.14891514326E+04  0.14891514326E+04  0.50400001928E-02 0. -1.
       -1   -1    0    0    0  501  0.00000000000E+00  0.00000000000E+00 -0.14369198462E+04  0.14369198462E+04  0.50400001928E-02 0.  1.
    10030    2    1    2    0    0  0.00000000000E+00  0.00000000000E+00  0.52231586404E+02  0.29260712788E+04  0.29256050639E+04 0.  0.
        2    1    3    3  502    0 -0.15610802067E+03 -0.28956595893E+03 -0.13994439671E+04  0.14375888062E+04  0.25500000920E-02 0.  1.
       -2    1    3    3    0  502  0.15610802067E+03  0.28956595893E+03  0.14516755535E+04  0.14884824726E+04  0.25500000920E-02 0. -1.
</event>
<event>
 5   0  0.1029922E-05  0.2880813E+04  0.7818609E-02  0.8278609E-01
        2   -1    0    0  501    0  0.00000000000E+00  0.00000000000E+00  0.18539216838E+04  0.18539216838E+04  0.25500000920E-02 0. -1.
       -2   -1    0    0    0  501  0.00000000000E+00  0.00000000000E+00 -0.11191257669E+04  0.11191257669E+04  0.25500000920E-02 0.  1.
    10030    2    1    2    0    0  0.00000000000E+00  0.00000000000E+00  0.73479591689E+03  0.29730474506E+04  0.28808134449E+04 0.  0.
        1    1    3    3  502    0 -0.55591899161E+03 -0.74618878356E+03 -0.76731732847E+03  0.12060760791E+04  0.50400001928E-02 0.  1.
       -1    1    3    3    0  502  0.55591899161E+03  0.74618878356E+03  0.15021132454E+04  0.17669713715E+04  0.50400001928E-02 0. -1.
</event>
<event>
 5   0  0.3896630E-06  0.3000343E+04  0.7818609E-02  0.8243633E-01
        1   -1    0    0  501    0  0.00000000000E+00  0.00000000000E+00  0.14542484608E+04  0.14542484608E+04  0.50400001928E-02 0.  1.
       -1   -1    0    0    0  501  0.00000000000E+00  0.00000000000E+00 -0.15475446434E+04  0.15475446434E+04  0.50400001928E-02 0. -1.
    10030    2    1    2    0    0  0.00000000000E+00  0.00000000000E+00 -0.93296182596E+02  0.30017931042E+04  0.30003429241E+04 0.  0.
        5    1    3    3  502    0 -0.11747679174E+04  0.59142743257E+02  0.88488453298E+03  0.14719443776E+04  0.46999998093E+01 0.  1.
       -5    1    3    3    0  502  0.11747679174E+04 -0.59142743257E+02 -0.97818071558E+03  0.15298487266E+04  0.46999998093E+01 0. -1.
</event>
<event>
 5   0  0.3725232E-06  0.2993771E+04  0.7818609E-02  0.8245512E-01
       -1   -1    0    0    0  501  0.00000000000E+00  0.00000000000E+00  0.13844295810E+04  0.13844295810E+04  0.50400001928E-02 0.  1.
        1   -1    0    0  501    0  0.00000000000E+00  0.00000000000E+00 -0.16184757281E+04  0.16184757281E+04  0.50400001928E-02 0. -1.
    10030    2    1    2    0    0  0.00000000000E+00  0.00000000000E+00 -0.23404614716E+03  0.30029053091E+04  0.29937706486E+04 0.  0.
        2    1    3    3  502    0  0.11597509942E+04  0.76710650094E+03  0.43891612944E+03  0.14581228072E+04  0.25500000920E-02 0.  1.
       -2    1    3    3    0  502 -0.11597509942E+04 -0.76710650094E+03 -0.67296227659E+03  0.15447825019E+04  0.25500000920E-02 0. -1.
</event>
<event>
 5   0  0.3852126E-06  0.2900682E+04  0.7818609E-02  0.8272675E-01
        1   -1    0    0  501    0  0.00000000000E+00  0.00000000000E+00  0.11564641553E+04  0.11564641553E+04  0.50400001928E-02 0.  1.
       -1   -1    0    0    0  501  0.00000000000E+00  0.00000000000E+00 -0.18188965316E+04  0.18188965316E+04  0.50400001928E-02 0. -1.
    10030    2    1    2    0    0  0.00000000000E+00  0.00000000000E+00 -0.66243237632E+03  0.29753606869E+04  0.29006817413E+04 0.  0.
        1    1    3    3  502    0 -0.93296031849E+02  0.61511764880E+02  0.11520416024E+04  0.11574487896E+04  0.50400001928E-02 0.  1.
       -1    1    3    3    0  502  0.93296031849E+02 -0.61511764880E+02 -0.18144739788E+04  0.18179118973E+04  0.50400001928E-02 0. -1.
</event>
<event>
 5   0  0.1089569E-05  0.3025907E+04  0.7818609E-02  0.8236372E-01
        2   -1    0    0  501    0  0.00000000000E+00  0.00000000000E+00  0.19248089399E+04  0.19248089399E+04  0.25500000920E-02 0. -1.
       -2   -1    0    0    0  501  0.00000000000E+00  0.00000000000E+00 -0.11892233577E+04  0.11892233577E+04  0.25500000920E-02 0.  1.
    10030    2    1    2    0    0  0.00000000000E+00  0.00000000000E+00  0.73558558219E+03  0.31140322976E+04  0.30259066413E+04 0.  0.
        5    1    3    3  502    0  0.10699927974E+04  0.10695650353E+04  0.35511704318E+03  0.15540219289E+04  0.46999998093E+01 0.  1.
       -5    1    3    3    0  502 -0.10699927974E+04 -0.10695650353E+04  0.38046853901E+03  0.15600103687E+04  0.46999998093E+01 0. -1.
</event>
<event>
 5   0  0.1089569E-05  0.3217637E+04  0.7818609E-02  0.8184175E-01
       -2   -1    0    0    0  501  0.00000000000E+00  0.00000000000E+00  0.21051000878E+04  0.21051000878E+04  0.25500000920E-02 0. -1.
        2   -1    0    0  501    0  0.00000000000E+00  0.00000000000E+00 -0.12295363127E+04  0.12295363127E+04  0.25500000920E-02 0.  1.
    10030    2    1    2    0    0  0.00000000000E+00  0.00000000000E+00  0.87556377502E+03  0.33346364005E+04  0.32176370211E+04 0.  0.
        5    1    3    3  502    0  0.54486843753E+03  0.13271804228E+04  0.11922543584E+04  0.18654173887E+04  0.46999998093E+01 0. -1.
       -5    1    3    3    0  502 -0.54486843753E+03 -0.13271804228E+04 -0.31669058341E+03  0.14692190118E+04  0.46999998093E+01 0.  1.
</event>
<event>
 5   0  0.1057036E-05  0.2977339E+04  0.7818609E-02  0.8250232E-01
       -2   -1    0    0    0  501  0.00000000000E+00  0.00000000000E+00  0.16709219089E+04  0.16709219089E+04  0.25500000920E-02 0. -1.
        2   -1    0    0  501    0  0.00000000000E+00  0.00000000000E+00 -0.13262958924E+04  0.13262958924E+04  0.25500000920E-02 0.  1.
    10030    2    1    2    0    0  0.00000000000E+00  0.00000000000E+00  0.34462601649E+03  0.29972178013E+04  0.29773389893E+04 0.  0.
        4    1    3    3  502    0  0.14461871345E+03 -0.91262552790E+03  0.13472972107E+04  0.16337109026E+04  0.12699999809E+01 0. -1.
       -4    1    3    3    0  502 -0.14461871345E+03  0.91262552790E+03 -0.10026711942E+04  0.13635068988E+04  0.12699999809E+01 0.  1.
</event>
<event>
 5   0  0.3896630E-06  0.3044467E+04  0.7818609E-02  0.8231146E-01
       -1   -1    0    0    0  501  0.00000000000E+00  0.00000000000E+00  0.10358807341E+04  0.10358807341E+04  0.50400001928E-02 0.  1.
        1   -1    0    0  501    0  0.00000000000E+00  0.00000000000E+00 -0.22369317821E+04  0.22369317821E+04  0.50400001928E-02 0. -1.
    10030    2    1    2    0    0  0.00000000000E+00  0.00000000000E+00 -0.12010510480E+04  0.32728125162E+04  0.30444668082E+04 0.  0.
        5    1    3    3  502    0 -0.85986297064E+03 -0.50606545005E+03 -0.18364083423E+04  0.20899483864E+04  0.46999998093E+01 0. -1.
       -5    1    3    3    0  502  0.85986297064E+03  0.50606545005E+03  0.63535729438E+03  0.11828641298E+04  0.46999998093E+01 0.  1.
</event>
<event>
 5   0  0.9647945E-06  0.2994825E+04  0.7818609E-02  0.8245210E-01
        2   -1    0    0  501    0  0.00000000000E+00  0.00000000000E+00  0.11618199350E+04  0.11618199350E+04  0.25500000920E-02 0. -1.
       -2   -1    0    0    0  501  0.00000000000E+00  0.00000000000E+00 -0.19299409609E+04  0.19299409609E+04  0.25500000920E-02 0.  1.
    10030    2    1    2    0    0  0.00000000000E+00  0.00000000000E+00 -0.76812102587E+03  0.30917608959E+04  0.29948247908E+04 0.  0.
        2    1    3    3  502    0 -0.22921888786E+03 -0.11645676942E+04 -0.13265647004E+04  0.17800373921E+04  0.25500000920E-02 0.  1.
       -2    1    3    3    0  502  0.22921888786E+03  0.11645676942E+04  0.55844367457E+03  0.13117235038E+04  0.25500000920E-02 0. -1.
</event>
<event>
 5   0  0.3725232E-06  0.3028417E+04  0.7818609E-02  0.8235662E-01
       -1   -1    0    0    0  501  0.00000000000E+00  0.00000000000E+00  0.17836810690E+04  0.17836810690E+04  0.50400001928E-02 0. -1.
        1   -1    0    0  501    0  0.00000000000E+00  0.00000000000E+00 -0.12854469900E+04  0.12854469900E+04  0.50400001928E-02 0.  1.
    10030    2    1    2    0    0  0.00000000000E+00  0.00000000000E+00  0.49823407905E+03  0.30691280590E+04  0.30284170527E+04 0.  0.
        2    1    3    3  502    0 -0.67318255987E+03 -0.29788743663E+03  0.15901268492E+04  0.17522599922E+04  0.25500000920E-02 0. -1.
       -2    1    3    3    0  502  0.67318255987E+03  0.29788743663E+03 -0.10918927702E+04  0.13168680668E+04  0.25500000920E-02 0.  1.
</event>
<event>
 5   0  0.9647945E-06  0.3002346E+04  0.7818609E-02  0.8243061E-01
        2   -1    0    0  501    0  0.00000000000E+00  0.00000000000E+00  0.14163842315E+04  0.14163842315E+04  0.25500000920E-02 0. -1.
       -2   -1    0    0    0  501  0.00000000000E+00  0.00000000000E+00 -0.15910371661E+04  0.15910371661E+04  0.25500000920E-02 0.  1.
    10030    2    1    2    0    0  0.00000000000E+00  0.00000000000E+00 -0.17465293463E+03  0.30074213976E+04  0.30023457188E+04 0.  0.
        2    1    3    3  502    0 -0.46518633467E+03  0.11248890732E+04  0.79264954946E+03  0.14526069879E+04  0.25500000920E-02 0. -1.
       -2    1    3    3    0  502  0.46518633467E+03 -0.11248890732E+04 -0.96730248409E+03  0.15548144097E+04  0.25500000920E-02 0.  1.
</event>
<event>
 5   0  0.3896630E-06  0.3026777E+04  0.7818609E-02  0.8236126E-01
       -1   -1    0    0    0  501  0.00000000000E+00  0.00000000000E+00  0.14561250638E+04  0.14561250638E+04  0.50400001928E-02 0. -1.
        1   -1    0    0  501    0  0.00000000000E+00  0.00000000000E+00 -0.15729040533E+04  0.15729040534E+04  0.50400001928E-02 0.  1.
    10030    2    1    2    0    0  0.00000000000E+00  0.00000000000E+00 -0.11677898951E+03  0.30290291172E+04  0.30267771739E+04 0.  0.
        5    1    3    3  502    0  0.12520288564E+04 -0.74418061550E+03 -0.46972070029E+03  0.15303727233E+04  0.46999998093E+01 0.  1.
       -5    1    3    3    0  502 -0.12520288564E+04  0.74418061550E+03  0.35294171078E+03  0.14986563939E+04  0.46999998093E+01 0. -1.
</event>
<event>
 5   0  0.1057036E-05  0.2968828E+04  0.7818609E-02  0.8252689E-01
       -2   -1    0    0    0  501  0.00000000000E+00  0.00000000000E+00  0.98171181051E+03  0.98171181051E+03  0.25500000920E-02 0.  1.
        2   -1    0    0  501    0  0.00000000000E+00  0.00000000000E+00 -0.22445331078E+04  0.22445331078E+04  0.25500000920E-02 0. -1.
    10030    2    1    2    0    0  0.00000000000E+00  0.00000000000E+00 -0.12628212973E+04  0.32262449183E+04  0.29688278233E+04 0.  0.
        4    1    3    3  502    0 -0.63533712939E+03  0.13344946544E+04 -0.48180071171E+03  0.15545619284E+04  0.12699999809E+01 0.  1.
       -4    1    3    3    0  502  0.63533712939E+03 -0.13344946544E+04 -0.78102058560E+03  0.16716829899E+04  0.12699999809E+01 0. -1.
</event>
<event>
 5   0  0.3852126E-06  0.3008055E+04  0.7818609E-02  0.8241434E-01
        1   -1    0    0  501    0  0.00000000000E+00  0.00000000000E+00  0.98112076965E+03  0.98112076966E+03  0.50400001928E-02 0. -1.
       -1   -1    0    0    0  501  0.00000000000E+00  0.00000000000E+00 -0.23056277066E+04  0.23056277067E+04  0.50400001928E-02 0.  1.
    10030    2    1    2    0    0  0.00000000000E+00  0.00000000000E+00 -0.13245069370E+04  0.32867484763E+04  0.30080553387E+04 0.  0.
        1    1    3    3  502    0  0.82738362394E+03 -0.85235319711E+02 -0.20314566066E+04  0.21951411493E+04  0.50400001928E-02 0.  1.
       -1    1    3    3    0  502 -0.82738362394E+03  0.85235319711E+02  0.70694966963E+03  0.10916073270E+04  0.50400001928E-02 0. -1.
</event>
<event>
 5   0  0.3896630E-06  0.2991268E+04  0.7818609E-02  0.8246229E-01
        1   -1    0    0  501    0  0.00000000000E+00  0.00000000000E+00  0.16157691269E+04  0.16157691269E+04  0.50400001928E-02 0. -1.
       -1   -1    0    0    0  501  0.00000000000E+00  0.00000000000E+00 -0.13844311620E+04  0.13844311620E+04  0.50400001928E-02 0.  1.
    10030    2    1    2    0    0  0.00000000000E+00  0.00000000000E+00  0.23133796488E+03  0.30002002890E+04  0.29912680455E+04 0.  0.
        5    1    3    3  502    0 -0.79884249179E+03  0.12565440259E+04  0.25696841841E+03  0.15109953917E+04  0.46999998093E+01 0.  1.
       -5    1    3    3    0  502  0.79884249179E+03 -0.12565440259E+04 -0.25630453524E+02  0.14892048972E+04  0.46999998093E+01 0. -1.
</event>
<event>
 5   0  0.3852126E-06  0.2963992E+04  0.7818609E-02  0.8254088E-01
        1   -1    0    0  501    0  0.00000000000E+00  0.00000000000E+00  0.95704720046E+03  0.95704720047E+03  0.50400001928E-02 0. -1.
       -1   -1    0    0    0  501  0.00000000000E+00  0.00000000000E+00 -0.22948843328E+04  0.22948843328E+04  0.50400001928E-02 0.  1.
    10030    2    1    2    0    0  0.00000000000E+00  0.00000000000E+00 -0.13378371323E+04  0.32519315332E+04  0.29639923253E+04 0.  0.
        1    1    3    3  502    0 -0.33620868872E+03  0.14042321482E+04 -0.10351227665E+04  0.17766213300E+04  0.50400001928E-02 0.  1.
       -1    1    3    3    0  502  0.33620868872E+03 -0.14042321482E+04 -0.30271436579E+03  0.14753102032E+04  0.50400001928E-02 0. -1.
</event>
<event>
 5   0  0.9647945E-06  0.3018582E+04  0.7818609E-02  0.8238445E-01
       -2   -1    0    0    0  501  0.00000000000E+00  0.00000000000E+00  0.12397012577E+04  0.12397012577E+04  0.25500000920E-02 0.  1.
        2   -1    0    0  501    0  0.00000000000E+00  0.00000000000E+00 -0.18375061395E+04  0.18375061396E+04  0.25500000920E-02 0. -1.
    10030    2    1    2    0    0  0.00000000000E+00  0.00000000000E+00 -0.59780488182E+03  0.30772073973E+04  0.30185815691E+04 0.  0.
        2    1    3    3  502    0  0.10635063131E+04 -0.82037279991E+03  0.40287253299E+03  0.14022708321E+04  0.25500000920E-02 0.  1.
       -2    1    3    3    0  502 -0.10635063131E+04  0.82037279991E+03 -0.10006774148E+04  0.16749365652E+04  0.25500000920E-02 0. -1.
</event>
<event>
 5   0  0.1028450E-05  0.2437401E+04  0.7818609E-02  0.8425632E-01
        2   -1    0    0  501    0  0.00000000000E+00  0.00000000000E+00  0.13724441006E+04  0.13724441006E+04  0.25500000920E-02 0. -1.
       -2   -1    0    0    0  501  0.00000000000E+00  0.00000000000E+00 -0.10821799311E+04  0.10821799311E+04  0.25500000920E-02 0.  1.
    10030    2    1    2    0    0  0.00000000000E+00  0.00000000000E+00  0.29026416958E+03  0.24546240317E+04  0.24374014542E+04 0.  0.
        3    1    3    3  502    0 -0.97874932502E+03 -0.10303973647E+03  0.86900449927E+03  0.13129113673E+04  0.10100000352E+00 0. -1.
       -3    1    3    3    0  502  0.97874932502E+03  0.10303973647E+03 -0.57874032970E+03  0.11417126643E+04  0.10100000352E+00 0.  1.
</event>
<event>
 5   0  0.3896630E-06  0.2282040E+04  0.7818609E-02  0.8485036E-01
        1   -1    0    0  501    0  0.00000000000E+00  0.00000000000E+00  0.15679570061E+04  0.15679570061E+04  0.50400001928E-02 0.  1.
       -1   -1    0    0    0  501  0.00000000000E+00  0.00000000000E+00 -0.83033337227E+03  0.83033337229E+03  0.50400001928E-02 0. -1.
    10030    2    1    2    0    0  0.00000000000E+00  0.00000000000E+00  0.73762363386E+03  0.23982903784E+04  0.22820403401E+04 0.  0.
        5    1    3    3  502    0 -0.69775316862E+03 -0.82475656764E+03 -0.17074095879E+02  0.10804612418E+04  0.46999998093E+01 0.  1.
       -5    1    3    3    0  502  0.69775316862E+03  0.82475656764E+03  0.75469772974E+03  0.13178291367E+04  0.46999998093E+01 0. -1.
</event>
<event>
 5   0  0.3725232E-06  0.2789874E+04  0.7818609E-02  0.8306419E-01
        1   -1    0    0  501    0  0.00000000000E+00  0.00000000000E+00  0.19062905938E+04  0.19062905938E+04  0.50400001928E-02 0. -1.
       -1   -1    0    0    0  501  0.00000000000E+00  0.00000000000E+00 -0.10207515782E+04  0.10207515782E+04  0.50400001928E-02 0.  1.
    10030    2    1    2    0    0  0.00000000000E+00  0.00000000000E+00  0.88553901562E+03  0.29270421720E+04  0.27898739270E+04 0.  0.
        2    1    3    3  502    0 -0.30549088825E+03 -0.15260135351E+03  0.18617597955E+04  0.18928183727E+04  0.25500000920E-02 0. -1.
       -2    1    3    3    0  502  0.30549088825E+03  0.15260135351E+03 -0.97622077990E+03  0.10342237993E+04  0.25500000920E-02 0.  1.
</event>
<event>
 5   0  0.1089569E-05  0.2988109E+04  0.7818609E-02  0.8247135E-01
       -2   -1    0    0    0  501  0.00000000000E+00  0.00000000000E+00  0.13253666751E+04  0.13253666751E+04  0.25500000920E-02 0. -1.
        2   -1    0    0  501    0  0.00000000000E+00  0.00000000000E+00 -0.16842119579E+04  0.16842119579E+04  0.25500000920E-02 0.  1.
    10030    2    1    2    0    0  0.00000000000E+00  0.00000000000E+00 -0.35884528275E+03  0.30095786330E+04  0.29881087014E+04 0.  0.
        5    1    3    3  502    0  0.32144979622E+03 -0.14154023383E+04 -0.53620304408E+03  0.15473298114E+04  0.46999998093E+01 0.  1.
       -5    1    3    3    0  502 -0.32144979622E+03  0.14154023383E+04  0.17735776134E+03  0.14622488216E+04  0.46999998093E+01 0. -1.
</event>
<event>
 5   0  0.1089569E-05  0.3044426E+04  0.7818609E-02  0.8231157E-01
        2   -1    0    0  501    0  0.00000000000E+00  0.00000000000E+00  0.97444774951E+03  0.97444774951E+03  0.25500000920E-02 0. -1.
       -2   -1    0    0    0  501  0.00000000000E+00  0.00000000000E+00 -0.23778930543E+04  0.23778930543E+04  0.25500000920E-02 0.  1.
    10030    2    1    2    0    0  0.00000000000E+00  0.00000000000E+00 -0.14034453048E+04  0.33523408038E+04  0.30444260775E+04 0.  0.
        5    1    3    3  502    0 -0.75027419589E+02  0.78800368518E+03  0.72998506743E+03  0.10767911637E+04  0.46999998093E+01 0. -1.
       -5    1    3    3    0  502  0.75027419589E+02 -0.78800368518E+03 -0.21334303722E+04  0.22755496401E+04  0.46999998093E+01 0.  1.
</event>
<event>
 5   0  0.3852126E-06  0.2551446E+04  0.7818609E-02  0.8384884E-01
        1   -1    0    0  501    0  0.00000000000E+00  0.00000000000E+00  0.14010038689E+04  0.14010038689E+04  0.50400001928E-02 0. -1.
       -1   -1    0    0    0  501  0.00000000000E+00  0.00000000000E+00 -0.11616449289E+04  0.11616449290E+04  0.50400001928E-02 0.  1.
    10030    2    1    2    0    0  0.00000000000E+00  0.00000000000E+00  0.23935893992E+03  0.25626487978E+04  0.25514458957E+04 0.  0.
        1    1    3    3  502    0  0.86991692311E+03 -0.75108254404E+03  0.67581511084E+03  0.13332691045E+04  0.50400001928E-02 0. -1.
       -1    1    3    3    0  502 -0.86991692311E+03  0.75108254404E+03 -0.43645617092E+03  0.12293796933E+04  0.50400001928E-02 0.  1.
</event>
<event>
 5   0  0.1057036E-05  0.3033166E+04  0.7818609E-02  0.8234323E-01
       -2   -1    0    0    0  501  0.00000000000E+00  0.00000000000E+00  0.11766241489E+04  0.11766241489E+04  0.25500000920E-02 0.  1.
        2   -1    0    0  501    0  0.00000000000E+00  0.00000000000E+00 -0.19547651978E+04  0.19547651978E+04  0.25500000920E-02 0. -1.
    10030    2    1    2    0    0  0.00000000000E+00  0.00000000000E+00 -0.77814104887E+03  0.31313893466E+04  0.30331659612E+04 0.  0.
        4    1    3    3  502    0 -0.11477460919E+04 -0.98164653515E+03 -0.53164152287E+03  0.16011231474E+04  0.12699999809E+01 0. -1.
       -4    1    3    3    0  502  0.11477460919E+04  0.98164653515E+03 -0.24649952600E+03  0.15302661993E+04  0.12699999809E+01 0.  1.
</event>
<event>
 5   0  0.3852126E-06  0.2992206E+04  0.7818609E-02  0.8245960E-01
       -1   -1    0    0    0  501  0.00000000000E+00  0.00000000000E+00  0.18774580697E+04  0.18774580697E+04  0.50400001928E-02 0.  1.
        1   -1    0    0  501    0  0.00000000000E+00  0.00000000000E+00 -0.11922102806E+04  0.11922102806E+04  0.50400001928E-02 0. -1.
    10030    2    1    2    0    0  0.00000000000E+00  0.00000000000E+00  0.68524778914E+03  0.30696683503E+04  0.29922064180E+04 0.  0.
        1    1    3    3  502    0 -0.12336115857E+03  0.28127797160E+03  0.18447667529E+04  0.18701603261E+04  0.50400001928E-02 0.  1.
       -1    1    3    3    0  502  0.12336115857E+03 -0.28127797160E+03 -0.11595189637E+04  0.11995080242E+04  0.50400001928E-02 0. -1.
</event>
<event>
 5   0  0.3592331E-06  0.2970216E+04  0.7818609E-02  0.8252287E-01
       -1   -1    0    0    0  501  0.00000000000E+00  0.00000000000E+00  0.11151937548E+04  0.11151937548E+04  0.50400001928E-02 0.  1.
        1   -1    0    0  501    0  0.00000000000E+00  0.00000000000E+00 -0.19777237898E+04  0.19777237898E+04  0.50400001928E-02 0. -1.
    10030    2    1    2    0    0  0.00000000000E+00  0.00000000000E+00 -0.86253003495E+03  0.30929175446E+04  0.29702156279E+04 0.  0.
        3    1    3    3  502    0 -0.29109691260E+02 -0.93396783111E+03  0.77071705180E+03  0.12112588773E+04  0.10100000352E+00 0.  1.
       -3    1    3    3    0  502  0.29109691260E+02  0.93396783111E+03 -0.16332470868E+04  0.18816586673E+04  0.10100000352E+00 0. -1.
</event>
<event>
 5   0  0.3636718E-06  0.2431248E+04  0.7818609E-02  0.8427897E-01
       -1   -1    0    0    0  501  0.00000000000E+00  0.00000000000E+00  0.22145926261E+04  0.22145926261E+04  0.50400001928E-02 0. -1.
        1   -1    0    0  501    0  0.00000000000E+00  0.00000000000E+00 -0.66727477919E+03  0.66727477921E+03  0.50400001928E-02 0.  1.
    10030    2    1    2    0    0  0.00000000000E+00  0.00000000000E+00  0.15473178469E+04  0.28818674053E+04  0.24312480792E+04 0.  0.
        4    1    3    3  502    0 -0.21876019357E+02 -0.11528623180E+04  0.31738566244E+03  0.11959537433E+04  0.12699999809E+01 0.  1.
       -4    1    3    3    0  502  0.21876019357E+02  0.11528623180E+04  0.12299321845E+04  0.16859136620E+04  0.12699999809E+01 0. -1.
</event>
<event>
 5   0  0.1057036E-05  0.2963279E+04  0.7818609E-02  0.8254295E-01
        2   -1    0    0  501    0  0.00000000000E+00  0.00000000000E+00  0.21005098883E+04  0.21005098883E+04  0.25500000920E-02 0.  1.
       -2   -1    0    0    0  501  0.00000000000E+00  0.00000000000E+00 -0.10451059051E+04  0.10451059051E+04  0.25500000920E-02 0. -1.
    10030    2    1    2    0    0  0.00000000000E+00  0.00000000000E+00  0.10554039832E+04  0.31456157935E+04  0.29632787841E+04 0.  0.
        4    1    3    3  502    0  0.46145745427E+02  0.13697853498E+03  0.20930070998E+04  0.20979925838E+04  0.12699999809E+01 0.  1.
       -4    1    3    3    0  502 -0.46145745427E+02 -0.13697853498E+03 -0.10376031166E+04  0.10476232097E+04  0.12699999809E+01 0. -1.
</event>
<event>
 5   0  0.3636718E-06  0.2810946E+04  0.7818609E-02  0.8299878E-01
        1   -1    0    0  501    0  0.00000000000E+00  0.00000000000E+00  0.20307758014E+04  0.20307758014E+04  0.50400001928E-02 0. -1.
       -1   -1    0    0    0  501  0.00000000000E+00  0.00000000000E+00 -0.97270945090E+03  0.97270945091E+03  0.50400001928E-02 0.  1.
    10030    2    1    2    0    0  0.00000000000E+00  0.00000000000E+00  0.10580663505E+04  0.30034852524E+04  0.28109463280E+04 0.  0.
        4    1    3    3  502    0 -0.70679229212E+03 -0.97812994301E+03 -0.24077336157E+03  0.12305555470E+04  0.12699999809E+01 0.  1.
       -4    1    3    3    0  502  0.70679229212E+03  0.97812994301E+03  0.12988397121E+04  0.17729297054E+04  0.12699999809E+01 0. -1.
</event>
<event>
 5   0  0.3592331E-06  0.2688211E+04  0.7818609E-02  0.8338840E-01
       -1   -1    0    0    0  501  0.00000000000E+00  0.00000000000E+00  0.80470089716E+03  0.80470089717E+03  0.50400001928E-02 0.  1.
        1   -1    0    0  501    0  0.00000000000E+00  0.00000000000E+00 -0.22450829427E+04  0.22450829428E+04  0.50400001928E-02 0. -1.
    10030    2    1    2    0    0  0.00000000000E+00  0.00000000000E+00 -0.14403820456E+04  0.30497838399E+04  0.26882114934E+04 0.  0.
        3    1    3    3  502    0 -0.75363654707E+03  0.82748479340E+03 -0.15645547870E+04  0.19236763813E+04  0.10100000352E+00 0.  1.
       -3    1    3    3    0  502  0.75363654707E+03 -0.82748479340E+03  0.12417274141E+03  0.11261074586E+04  0.10100000352E+00 0. -1.
</event>
<event>
 5   0  0.1029922E-05  0.2968967E+04  0.7818609E-02  0.8252648E-01
       -2   -1    0    0    0  501  0.00000000000E+00  0.00000000000E+00  0.12332459018E+04  0.12332459018E+04  0.25500000920E-02 0.  1.
        2   -1    0    0  501    0  0.00000000000E+00  0.00000000000E+00 -0.17869039241E+04  0.17869039241E+04  0.25500000920E-02 0. -1.
    10030    2    1    2    0    0  0.00000000000E+00  0.00000000000E+00 -0.55365802231E+03  0.30201498260E+04  0.29689674578E+04 0.  0.
        1    1    3    3  502    0 -0.85535352707E+03 -0.73684015913E+03  0.70370130795E+03  0.13303227455E+04  0.50400001928E-02 0.  1.
       -1    1    3    3    0  502  0.85535352707E+03  0.73684015913E+03 -0.12573593303E+04  0.16898270804E+04  0.50400001928E-02 0. -1.
</event>
<event>
 5   0  0.1089569E-05  0.3136055E+04  0.7818609E-02  0.8205912E-01
       -2   -1    0    0    0  501  0.00000000000E+00  0.00000000000E+00  0.20007641026E+04  0.20007641026E+04  0.25500000920E-02 0.  1.
        2   -1    0    0  501    0  0.00000000000E+00  0.00000000000E+00 -0.12288855706E+04  0.12288855706E+04  0.25500000920E-02 0. -1.
    10030    2    1    2    0    0  0.00000000000E+00  0.00000000000E+00  0.77187853197E+03  0.32296496732E+04  0.31360549331E+04 0.  0.
        5    1    3    3  502    0 -0.81324634050E+03  0.74388075732E+03  0.15345554654E+04  0.18893413556E+04  0.46999998093E+01 0.  1.
       -5    1    3    3    0  502  0.81324634050E+03 -0.74388075732E+03 -0.76267693343E+03  0.13403083176E+04  0.46999998093E+01 0. -1.
</event>
<event>
 5   0  0.3636718E-06  0.3006830E+04  0.7818609E-02  0.8241783E-01
       -1   -1    0    0    0  501  0.00000000000E+00  0.00000000000E+00  0.16836841139E+04  0.16836841139E+04  0.50400001928E-02 0. -1.
        1   -1    0    0  501    0  0.00000000000E+00  0.00000000000E+00 -0.13424472816E+04  0.13424472816E+04  0.50400001928E-02 0.  1.
    10030    2    1    2    0    0  0.00000000000E+00  0.00000000000E+00  0.34123683238E+03  0.30261313955E+04  0.30068303323E+04 0.  0.
        4    1    3    3  502    0 -0.45666094114E+03 -0.14106484815E+04 -0.79547477396E+02  0.14848561437E+04  0.12699999809E+01 0.  1.
       -4    1    3    3    0  502  0.45666094114E+03  0.14106484815E+04  0.42078430977E+03  0.15412752518E+04  0.12699999809E+01 0. -1.
</event>
<event>
 5   0  0.1057036E-05  0.2965007E+04  0.7818609E-02  0.8253795E-01
       -2   -1    0    0    0  501  0.00000000000E+00  0.00000000000E+00  0.96113196082E+03  0.96113196083E+03  0.25500000920E-02 0.  1.
        2   -1    0    0  501    0  0.00000000000E+00  0.00000000000E+00 -0.22866957635E+04  0.22866957635E+04  0.25500000920E-02 0. -1.
    10030    2    1    2    0    0  0.00000000000E+00  0.00000000000E+00 -0.13255638026E+04  0.32478277243E+04  0.29650068350E+04 0.  0.
        4    1    3    3  502    0 -0.10878818680E+04  0.50505785685E+03 -0.16172426579E+04  0.20134661221E+04  0.12699999809E+01 0. -1.
       -4    1    3    3    0  502  0.10878818680E+04 -0.50505785685E+03  0.29167885520E+03  0.12343616022E+04  0.12699999809E+01 0.  1.
</event>
<event>
 5   0  0.9647945E-06  0.2977931E+04  0.7818609E-02  0.8250061E-01
       -2   -1    0    0    0  501  0.00000000000E+00  0.00000000000E+00  0.15947854361E+04  0.15947854361E+04  0.25500000920E-02 0. -1.
        2   -1    0    0  501    0  0.00000000000E+00  0.00000000000E+00 -0.13901668014E+04  0.13901668014E+04  0.25500000920E-02 0.  1.
    10030    2    1    2    0    0  0.00000000000E+00  0.00000000000E+00  0.20461863469E+03  0.29849522376E+04  0.29779306699E+04 0.  0.
        2    1    3    3  502    0 -0.14675049756E+04  0.10776804984E+02 -0.14994012124E+03  0.14751844064E+04  0.25500000920E-02 0. -1.
       -2    1    3    3    0  502  0.14675049756E+04 -0.10776804984E+02  0.35455875593E+03  0.15097678312E+04  0.25500000920E-02 0.  1.
</event>
<event>
 5   0  0.3852126E-06  0.3010940E+04  0.7818609E-02  0.8240614E-01
       -1   -1    0    0    0  501  0.00000000000E+00  0.00000000000E+00  0.10740956440E+04  0.10740956440E+04  0.50400001928E-02 0.  1.
        1   -1    0    0  501    0  0.00000000000E+00  0.00000000000E+00 -0.21100915677E+04  0.21100915677E+04  0.50400001928E-02 0. -1.
    10030    2    1    2    0    0  0.00000000000E+00  0.00000000000E+00 -0.10359959237E+04  0.31841872117E+04  0.30109401597E+04 0.  0.
        1    1    3    3  502    0 -0.18861698974E+03 -0.11693585966E+04  0.46469682889E+03  0.12723674937E+04  0.50400001928E-02 0. -1.
       -1    1    3    3    0  502  0.18861698974E+03  0.11693585966E+04 -0.15006927526E+04  0.19118197180E+04  0.50400001928E-02 0.  1.
</event>
<event>
 5   0  0.9647945E-06  0.3005917E+04  0.7818609E-02  0.8242043E-01
       -2   -1    0    0    0  501  0.00000000000E+00  0.00000000000E+00  0.87575951326E+03  0.87575951327E+03  0.25500000920E-02 0.  1.
        2   -1    0    0  501    0  0.00000000000E+00  0.00000000000E+00 -0.25793423924E+04  0.25793423924E+04  0.25500000920E-02 0. -1.
    10030    2    1    2    0    0  0.00000000000E+00  0.00000000000E+00 -0.17035828792E+04  0.34551019057E+04  0.30059165911E+04 0.  0.
        2    1    3    3  502    0 -0.23137690514E+03  0.13688300030E+03  0.84789864381E+03  0.88949667688E+03  0.25500000920E-02 0.  1.
       -2    1    3    3    0  502  0.23137690514E+03 -0.13688300030E+03 -0.25514815230E+04  0.25656052288E+04  0.25500000920E-02 0. -1.
</event>
<event>
 5   0  0.3636718E-06  0.2953505E+04  0.7818609E-02  0.8257134E-01
        1   -1    0    0  501    0  0.00000000000E+00  0.00000000000E+00  0.81130421589E+03  0.81130421591E+03  0.50400001928E-02 0. -1.
       -1   -1    0    0    0  501  0.00000000000E+00  0.00000000000E+00 -0.26880144232E+04  0.26880144232E+04  0.50400001928E-02 0.  1.
    10030    2    1    2    0    0  0.00000000000E+00  0.00000000000E+00 -0.18767102073E+04  0.34993186391E+04  0.29535046531E+04 0.  0.
        4    1    3    3  502    0 -0.99944972437E+03 -0.85113527654E+03 -0.17397095979E+04  0.21794316022E+04  0.12699999809E+01 0.  1.
       -4    1    3    3    0  502  0.99944972437E+03  0.85113527654E+03 -0.13700060941E+03  0.13198870370E+04  0.12699999809E+01 0. -1.
</event>
<event>
 5   0  0.3852126E-06  0.3057336E+04  0.7818609E-02  0.8227545E-01
        1   -1    0    0  501    0  0.00000000000E+00  0.00000000000E+00  0.11335452856E+04  0.11335452856E+04  0.50400001928E-02 0. -1.
       -1   -1    0    0    0  501  0.00000000000E+00  0.00000000000E+00 -0.20615189617E+04  0.20615189617E+04  0.50400001928E-02 0.  1.
    10030    2    1    2    0    0  0.00000000000E+00  0.00000000000E+00 -0.92797367610E+03  0.31950642473E+04  0.30573355067E+04 0.  0.
        1    1    3    3  502    0  0.11576409149E+04 -0.33950621476E+03  0.51715083493E+03  0.13125707386E+04  0.50400001928E-02 0. -1.
       -1    1    3    3    0  502 -0.11576409149E+04  0.33950621476E+03 -0.14451245110E+04  0.18824935087E+04  0.50400001928E-02 0.  1.
</event>
<event>
 5   0  0.1029922E-05  0.2994686E+04  0.7818609E-02  0.8245250E-01
       -2   -1    0    0    0  501  0.00000000000E+00  0.00000000000E+00  0.10502463850E+04  0.10502463850E+04  0.25500000920E-02 0.  1.
        2   -1    0    0  501    0  0.00000000000E+00  0.00000000000E+00 -0.21347712540E+04  0.21347712540E+04  0.25500000920E-02 0. -1.
    10030    2    1    2    0    0  0.00000000000E+00  0.00000000000E+00 -0.10845248690E+04  0.31850176391E+04  0.29946858215E+04 0.  0.
        1    1    3    3  502    0 -0.83927635738E+03 -0.12259527852E+04 -0.74035467433E+03  0.16599608668E+04  0.50400001928E-02 0.  1.
       -1    1    3    3    0  502  0.83927635738E+03  0.12259527852E+04 -0.34417019469E+03  0.15250567722E+04  0.50400001928E-02 0. -1.
</event>
<event>
 5   0  0.9647945E-06  0.3082559E+04  0.7818609E-02  0.8220541E-01
        2   -1    0    0  501    0  0.00000000000E+00  0.00000000000E+00  0.25669585736E+04  0.25669585736E+04  0.25500000920E-02 0. -1.
       -2   -1    0    0    0  501  0.00000000000E+00  0.00000000000E+00 -0.92543101695E+03  0.92543101696E+03  0.25500000920E-02 0.  1.
    10030    2    1    2    0    0  0.00000000000E+00  0.00000000000E+00  0.16415275566E+04  0.34923895905E+04  0.30825593803E+04 0.  0.
        2    1    3    3  502    0  0.10154563147E+04  0.76243873161E+03  0.18104463213E+04  0.22113751895E+04  0.25500000920E-02 0.  1.
       -2    1    3    3    0  502 -0.10154563147E+04 -0.76243873161E+03 -0.16891876470E+03  0.12810144010E+04  0.25500000920E-02 0. -1.
</event>
<event>
 5   0  0.3852126E-06  0.3041262E+04  0.7818609E-02  0.8232045E-01
       -1   -1    0    0    0  501  0.00000000000E+00  0.00000000000E+00  0.14136187478E+04  0.14136187478E+04  0.50400001928E-02 0. -1.
        1   -1    0    0  501    0  0.00000000000E+00  0.00000000000E+00 -0.16357446184E+04  0.16357446184E+04  0.50400001928E-02 0.  1.
    10030    2    1    2    0    0  0.00000000000E+00  0.00000000000E+00 -0.22212587065E+03  0.30493633662E+04  0.30412624084E+04 0.  0.
        1    1    3    3  502    0  0.94842367706E+03 -0.10398604463E+04  0.46623285085E+03  0.14826295188E+04  0.50400001928E-02 0.  1.
       -1    1    3    3    0  502 -0.94842367706E+03  0.10398604463E+04 -0.68835872150E+03  0.15667338473E+04  0.50400001928E-02 0. -1.
</event>
<event>
 5   0  0.3725232E-06  0.3010087E+04  0.7818609E-02  0.8240856E-01
       -1   -1    0    0    0  501  0.00000000000E+00  0.00000000000E+00  0.97616530503E+03  0.97616530505E+03  0.50400001928E-02 0. -1.
        1   -1    0    0  501    0  0.00000000000E+00  0.00000000000E+00 -0.23204630720E+04  0.23204630720E+04  0.50400001928E-02 0.  1.
    10030    2    1    2    0    0  0.00000000000E+00  0.00000000000E+00 -0.13442977670E+04  0.32966283771E+04  0.30100867380E+04 0.  0.
        2    1    3    3  502    0 -0.91106885675E+03  0.10443927501E+04 -0.13148259938E+04  0.19103847969E+04  0.25500000920E-02 0.  1.
       -2    1    3    3    0  502  0.91106885675E+03 -0.10443927501E+04 -0.29471773221E+02  0.13862435802E+04  0.25500000920E-02 0. -1.
</event>
<event>
 5   0  0.1029922E-05  0.2520466E+04  0.7818609E-02  0.8395730E-01
        2   -1    0    0  501    0  0.00000000000E+00  0.00000000000E+00  0.14791029238E+04  0.14791029238E+04  0.25500000920E-02 0.  1.
       -2   -1    0    0    0  501  0.00000000000E+00  0.00000000000E+00 -0.10737506270E+04  0.10737506270E+04  0.25500000920E-02 0. -1.
    10030    2    1    2    0    0  0.00000000000E+00  0.00000000000E+00  0.40535229677E+03  0.25528535508E+04  0.25204663789E+04 0.  0.
        1    1    3    3  502    0 -0.17044300617E+03 -0.18448554204E+03  0.14534950405E+04  0.14750368017E+04  0.50400001928E-02 0.  1.
       -1    1    3    3    0  502  0.17044300617E+03  0.18448554204E+03 -0.10481427437E+04  0.10778167492E+04  0.50400001928E-02 0. -1.
</event>
<event>
 5   0  0.3725232E-06  0.3000471E+04  0.7818609E-02  0.8243597E-01
        1   -1    0    0  501    0  0.00000000000E+00  0.00000000000E+00  0.24256423805E+04  0.24256423805E+04  0.50400001928E-02 0. -1.
       -1   -1    0    0    0  501  0.00000000000E+00  0.00000000000E+00 -0.92788038366E+03  0.92788038368E+03  0.50400001928E-02 0.  1.
    10030    2    1    2    0    0  0.00000000000E+00  0.00000000000E+00  0.14977619969E+04  0.33535227642E+04  0.30004706182E+04 0.  0.
        2    1    3    3  502    0  0.71448716363E+03  0.12955946936E+04  0.47137459017E+03  0.15528205052E+04  0.25500000920E-02 0.  1.
       -2    1    3    3    0  502 -0.71448716363E+03 -0.12955946936E+04  0.10263874067E+04  0.18007022590E+04  0.25500000920E-02 0. -1.
</event>
<event>
 5   0  0.3592331E-06  0.3058835E+04  0.7818609E-02  0.8227127E-01
       -1   -1    0    0    0  501  0.00000000000E+00  0.00000000000E+00  0.29558368551E+04  0.29558368551E+04  0.50400001928E-02 0. -1.
        1   -1    0    0  501    0  0.00000000000E+00  0.00000000000E+00 -0.79135563529E+03  0.79135563530E+03  0.50400001928E-02 0.  1.
    10030    2    1    2    0    0  0.00000000000E+00  0.00000000000E+00  0.21644812198E+04  0.37471924904E+04  0.30588351720E+04 0.  0.
        3    1    3    3  502    0  0.51359068481E+03  0.14380993506E+04  0.11862824795E+04  0.19336936844E+04  0.10100000352E+00 0.  1.
       -3    1    3    3    0  502 -0.51359068481E+03 -0.14380993506E+04  0.97819874030E+03  0.18134988060E+04  0.10100000352E+00 0. -1.
</event>
<event>
 5   0  0.1057036E-05  0.2774352E+04  0.7818609E-02  0.8311276E-01
       -2   -1    0    0    0  501  0.00000000000E+00  0.00000000000E+00  0.11752004806E+04  0.11752004806E+04  0.25500000920E-02 0.  1.
        2   -1    0    0  501    0  0.00000000000E+00  0.00000000000E+00 -0.16373864787E+04  0.16373864787E+04  0.25500000920E-02 0. -1.
    10030    2    1    2    0    0  0.00000000000E+00  0.00000000000E+00 -0.46218599813E+03  0.28125869593E+04  0.27743520877E+04 0.  0.
        4    1    3    3  502    0 -0.13168187078E+04 -0.23973490375E+03  0.13830683849E+03  0.13455908471E+04  0.12699999809E+01 0.  1.
       -4    1    3    3    0  502  0.13168187078E+04  0.23973490375E+03 -0.60049283662E+03  0.14669961122E+04  0.12699999809E+01 0. -1.
</event>
<event>
 5   0  0.1057036E-05  0.1895694E+04  0.7818609E-02  0.8657003E-01
        2   -1    0    0  501    0  0.00000000000E+00  0.00000000000E+00  0.12034704104E+04  0.12034704104E+04  0.25500000920E-02 0. -1.
       -2   -1    0    0    0  501  0.00000000000E+00  0.00000000000E+00 -0.74651906918E+03  0.74651906918E+03  0.25500000920E-02 0.  1.
    10030    2    1    2    0    0  0.00000000000E+00  0.00000000000E+00  0.45695134124E+03  0.19499894796E+04  0.18956936573E+04 0.  0.
        4    1    3    3  502    0 -0.71407369320E+03 -0.44182192173E+02 -0.41107039708E+03  0.82512652950E+03  0.12699999809E+01 0.  1.
       -4    1    3    3    0  502  0.71407369320E+03  0.44182192173E+02  0.86802173832E+03  0.11248629501E+04  0.12699999809E+01 0. -1.
</event>
<event>
 5   0  0.1057036E-05  0.2913923E+04  0.7818609E-02  0.8268747E-01
       -2   -1    0    0    0  501  0.00000000000E+00  0.00000000000E+00  0.90520557708E+03  0.90520557708E+03  0.25500000920E-02 0.  1.
        2   -1    0    0  501    0  0.00000000000E+00  0.00000000000E+00 -0.23450333736E+04  0.23450333736E+04  0.25500000920E-02 0. -1.
    10030    2    1    2    0    0  0.00000000000E+00  0.00000000000E+00 -0.14398277965E+04  0.32502389507E+04  0.29139233265E+04 0.  0.
        4    1    3    3  502    0 -0.90711573819E+02  0.30701171643E+03  0.86548964342E+03  0.92279939283E+03  0.12699999809E+01 0.  1.
       -4    1    3    3    0  502  0.90711573819E+02 -0.30701171643E+03 -0.23053174399E+04  0.23274395578E+04  0.12699999809E+01 0. -1.
</event>
<event>
 5   0  0.1028450E-05  0.2994281E+04  0.7818609E-02  0.8245366E-01
        2   -1    0    0  501    0  0.00000000000E+00  0.00000000000E+00  0.20652369929E+04  0.20652369929E+04  0.25500000920E-02 0. -1.
       -2   -1    0    0    0  501  0.00000000000E+00  0.00000000000E+00 -0.10853134104E+04  0.10853134104E+04  0.25500000920E-02 0.  1.
    10030    2    1    2    0    0  0.00000000000E+00  0.00000000000E+00  0.97992358246E+03  0.31505504033E+04  0.29942808179E+04 0.  0.
        3    1    3    3  502    0 -0.12851393861E+04 -0.69484815048E+03  0.83419370382E+03  0.16823425156E+04  0.10100000352E+00 0.  1.
       -3    1    3    3    0  502  0.12851393861E+04  0.69484815048E+03  0.14572987863E+03  0.14682078878E+04  0.10100000352E+00 0. -1.
</event>
<event>
 5   0  0.3852126E-06  0.2998826E+04  0.7818609E-02  0.8244066E-01
        1   -1    0    0  501    0  0.00000000000E+00  0.00000000000E+00  0.12707457280E+04  0.12707457280E+04  0.50400001928E-02 0.  1.
       -1   -1    0    0    0  501  0.00000000000E+00  0.00000000000E+00 -0.17692284849E+04  0.17692284849E+04  0.50400001928E-02 0. -1.
    10030    2    1    2    0    0  0.00000000000E+00  0.00000000000E+00 -0.49848275689E+03  0.30399742129E+04  0.29988261297E+04 0.  0.
        1    1    3    3  502    0 -0.77976846537E+03  0.68780418438E+02  0.10471612281E+04  0.13074082159E+04  0.50400001928E-02 0.  1.
       -1    1    3    3    0  502  0.77976846537E+03 -0.68780418438E+02 -0.15456439849E+04  0.17325659969E+04  0.50400001928E-02 0. -1.
</event>
<event>
 5   0  0.9647945E-06  0.2988407E+04  0.7818609E-02  0.8247049E-01
       -2   -1    0    0    0  501  0.00000000000E+00  0.00000000000E+00  0.16358611630E+04  0.16358611630E+04  0.25500000920E-02 0.  1.
        2   -1    0    0  501    0  0.00000000000E+00  0.00000000000E+00 -0.13648130832E+04  0.13648130832E+04  0.25500000920E-02 0. -1.
    10030    2    1    2    0    0  0.00000000000E+00  0.00000000000E+00  0.27104807981E+03  0.30006742462E+04  0.29884074137E+04 0.  0.
        2    1    3    3  502    0 -0.11232493149E+04  0.93795635431E+03  0.43874635419E+03  0.15277269093E+04  0.25500000920E-02 0. -1.
       -2    1    3    3    0  502  0.11232493149E+04 -0.93795635431E+03 -0.16769827438E+03  0.14729473369E+04  0.25500000920E-02 0.  1.
</event>
<event>
 5   0  0.1029922E-05  0.2901168E+04  0.7818609E-02  0.8272530E-01
        2   -1    0    0  501    0  0.00000000000E+00  0.00000000000E+00  0.20025992228E+04  0.20025992228E+04  0.25500000920E-02 0. -1.
       -2   -1    0    0    0  501  0.00000000000E+00  0.00000000000E+00 -0.10507313835E+04  0.10507313835E+04  0.25500000920E-02 0.  1.
    10030    2    1    2    0    0  0.00000000000E+00  0.00000000000E+00  0.95186783924E+03  0.30533306063E+04  0.29011679386E+04 0.  0.
        1    1    3    3  502    0 -0.33196228941E+03  0.13456600051E+04  0.92639433526E+03  0.16670951608E+04  0.50400001928E-02 0. -1.
       -1    1    3    3    0  502  0.33196228941E+03 -0.13456600051E+04  0.25473503979E+02  0.13862354455E+04  0.50400001928E-02 0.  1.
</event>
<event>
 5   0  0.3725232E-06  0.2913732E+04  0.7818609E-02  0.8268804E-01
        1   -1    0    0  501    0  0.00000000000E+00  0.00000000000E+00  0.18360527073E+04  0.18360527073E+04  0.50400001928E-02 0.  1.
       -1   -1    0    0    0  501  0.00000000000E+00  0.00000000000E+00 -0.11559896055E+04  0.11559896055E+04  0.50400001928E-02 0. -1.
    10030    2    1    2    0    0  0.00000000000E+00  0.00000000000E+00  0.68006310182E+03  0.29920423128E+04  0.29137315214E+04 0.  0.
        2    1    3    3  502    0  0.93997093930E+03  0.87440272508E+03 -0.36719665375E+03  0.13352748312E+04  0.25500000920E-02 0. -1.
       -2    1    3    3    0  502 -0.93997093930E+03 -0.87440272508E+03  0.10472597556E+04  0.16567674816E+04  0.25500000920E-02 0.  1.
</event>
<event>
 5   0  0.3725232E-06  0.3010281E+04  0.7818609E-02  0.8240801E-01
       -1   -1    0    0    0  501  0.00000000000E+00  0.00000000000E+00  0.85585695931E+03  0.85585695932E+03  0.50400001928E-02 0.  1.
        1   -1    0    0  501    0  0.00000000000E+00  0.00000000000E+00 -0.26469936350E+04  0.26469936350E+04  0.50400001928E-02 0. -1.
    10030    2    1    2    0    0  0.00000000000E+00  0.00000000000E+00 -0.17911366757E+04  0.35028505943E+04  0.30102809994E+04 0.  0.
        2    1    3    3  502    0  0.13494235793E+03 -0.47436123667E+03  0.75916785708E+03  0.90529766268E+03  0.25500000920E-02 0.  1.
       -2    1    3    3    0  502 -0.13494235793E+03  0.47436123667E+03 -0.25503045328E+04  0.25975529317E+04  0.25500000920E-02 0. -1.
</event>
<event>
 5   0  0.1029922E-05  0.2986865E+04  0.7818609E-02  0.8247492E-01
        2   -1    0    0  501    0  0.00000000000E+00  0.00000000000E+00  0.13531076256E+04  0.13531076256E+04  0.25500000920E-02 0. -1.
       -2   -1    0    0    0  501  0.00000000000E+00  0.00000000000E+00 -0.16483099288E+04  0.16483099288E+04  0.25500000920E-02 0.  1.
    10030    2    1    2    0    0  0.00000000000E+00  0.00000000000E+00 -0.29520230319E+03  0.30014175544E+04  0.29868650683E+04 0.  0.
        1    1    3    3  502    0 -0.11965931430E+04 -0.29577673743E+03 -0.99493049000E+03  0.15840472557E+04  0.50400001928E-02 0.  1.
       -1    1    3    3    0  502  0.11965931430E+04  0.29577673743E+03  0.69972818681E+03  0.14173702987E+04  0.50400001928E-02 0. -1.
</event>
<event>
 5   0  0.1057036E-05  0.2888802E+04  0.7818609E-02  0.8276217E-01
       -2   -1    0    0    0  501  0.00000000000E+00  0.00000000000E+00  0.14165291370E+04  0.14165291370E+04  0.25500000920E-02 0.  1.
        2   -1    0    0  501    0  0.00000000000E+00  0.00000000000E+00 -0.14728212360E+04  0.14728212360E+04  0.25500000920E-02 0. -1.
    10030    2    1    2    0    0  0.00000000000E+00  0.00000000000E+00 -0.56292099029E+02  0.28893503730E+04  0.28888019623E+04 0.  0.
        4    1    3    3  502    0 -0.62553554989E+03 -0.74548233020E+02 -0.13281775593E+04  0.14700031990E+04  0.12699999809E+01 0. -1.
       -4    1    3    3    0  502  0.62553554989E+03  0.74548233020E+02  0.12718854603E+04  0.14193471740E+04  0.12699999809E+01 0.  1.
</event>
<event>
 5   0  0.1057036E-05  0.2952688E+04  0.7818609E-02  0.8257372E-01
       -2   -1    0    0    0  501  0.00000000000E+00  0.00000000000E+00  0.81145307996E+03  0.81145307997E+03  0.25500000920E-02 0. -1.
        2   -1    0    0  501    0  0.00000000000E+00  0.00000000000E+00 -0.26860356464E+04  0.26860356464E+04  0.25500000920E-02 0.  1.
    10030    2    1    2    0    0  0.00000000000E+00  0.00000000000E+00 -0.18745825664E+04  0.34974887264E+04  0.29526881977E+04 0.  0.
        4    1    3    3  502    0  0.53506003746E+03  0.64845745010E+03  0.50021982478E+03  0.97826775184E+03  0.12699999809E+01 0. -1.
       -4    1    3    3    0  502 -0.53506003746E+03 -0.64845745010E+03 -0.23748023912E+04  0.25192209745E+04  0.12699999809E+01 0.  1.
</event>
<event>
 5   0  0.3592331E-06  0.3045640E+04  0.7818609E-02  0.8230817E-01
       -1   -1    0    0    0  501  0.00000000000E+00  0.00000000000E+00  0.13668178792E+04  0.13668178792E+04  0.50400001928E-02 0. -1.
        1   -1    0    0  501    0  0.00000000000E+00  0.00000000000E+00 -0.16966272480E+04  0.16966272480E+04  0.50400001928E-02 0.  1.
    10030    2    1    2    0    0  0.00000000000E+00  0.00000000000E+00 -0.32980936878E+03  0.30634451272E+04  0.30456398060E+04 0.  0.
        3    1    3    3  502    0  0.65349170879E+03  0.77948185609E+03  0.97500665643E+03  0.14090001305E+04  0.10100000352E+00 0. -1.
       -3    1    3    3    0  502 -0.65349170879E+03 -0.77948185609E+03 -0.13048160252E+04  0.16544449968E+04  0.10100000352E+00 0.  1.
</event>
<event>
 5   0  0.3896630E-06  0.2030533E+04  0.7818609E-02  0.8592477E-01
        1   -1    0    0  501    0  0.00000000000E+00  0.00000000000E+00  0.18824939901E+04  0.18824939901E+04  0.50400001928E-02 0. -1.
       -1   -1    0    0    0  501  0.00000000000E+00  0.00000000000E+00 -0.54755368395E+03  0.54755368397E+03  0.50400001928E-02 0.  1.
    10030    2    1    2    0    0  0.00000000000E+00  0.00000000000E+00  0.13349403062E+04  0.24300476741E+04  0.20305334465E+04 0.  0.
        5    1    3    3  502    0  0.47616530267E+03  0.99693269811E+02 -0.39896552424E+03  0.62918019918E+03  0.46999998093E+01 0.  1.
       -5    1    3    3    0  502 -0.47616530267E+03 -0.99693269811E+02  0.17339058304E+04  0.18008674749E+04  0.46999998093E+01 0. -1.
</event>
<event>
 5   0  0.9647945E-06  0.2978881E+04  0.7818609E-02  0.8249787E-01
       -2   -1    0    0    0  501  0.00000000000E+00  0.00000000000E+00  0.17996240142E+04  0.17996240142E+04  0.25500000920E-02 0.  1.
        2   -1    0    0  501    0  0.00000000000E+00  0.00000000000E+00 -0.12327204808E+04  0.12327204808E+04  0.25500000920E-02 0. -1.
    10030    2    1    2    0    0  0.00000000000E+00  0.00000000000E+00  0.56690353342E+03  0.30323444950E+04  0.29788812531E+04 0.  0.
        2    1    3    3  502    0 -0.24786502972E+03  0.10952097854E+04 -0.71263557728E+03  0.13299515078E+04  0.25500000920E-02 0. -1.
       -2    1    3    3    0  502  0.24786502972E+03 -0.10952097854E+04  0.12795391107E+04  0.17023929872E+04  0.25500000920E-02 0.  1.
</event>
<event>
 5   0  0.3725232E-06  0.2905187E+04  0.7818609E-02  0.8271336E-01
        1   -1    0    0  501    0  0.00000000000E+00  0.00000000000E+00  0.17692222960E+04  0.17692222960E+04  0.50400001928E-02 0.  1.
       -1   -1    0    0    0  501  0.00000000000E+00  0.00000000000E+00 -0.11926304471E+04  0.11926304471E+04  0.50400001928E-02 0. -1.
    10030    2    1    2    0    0  0.00000000000E+00  0.00000000000E+00  0.57659184884E+03  0.29618527431E+04  0.29051873454E+04 0.  0.
        2    1    3    3  502    0  0.95915778537E+03 -0.44978228948E+03 -0.72494045472E+03  0.12836769173E+04  0.25500000920E-02 0. -1.
       -2    1    3    3    0  502 -0.95915778537E+03  0.44978228948E+03  0.13015323036E+04  0.16781758258E+04  0.25500000920E-02 0.  1.
</event>
<event>
 5   0  0.3636718E-06  0.2928729E+04  0.7818609E-02  0.8264381E-01
       -1   -1    0    0    0  501  0.00000000000E+00  0.00000000000E+00  0.11416324492E+04  0.11416324493E+04  0.50400001928E-02 0.  1.
        1   -1    0    0  501    0  0.00000000000E+00  0.00000000000E+00 -0.18783306265E+04  0.18783306265E+04  0.50400001928E-02 0. -1.
    10030    2    1    2    0    0  0.00000000000E+00  0.00000000000E+00 -0.73669817723E+03  0.30199630757E+04  0.29287288667E+04 0.  0.
        4    1    3    3  502    0  0.10065875899E+04  0.93535738168E+03 -0.89032930194E+03  0.16373148403E+04  0.12699999809E+01 0. -1.
       -4    1    3    3    0  502 -0.10065875899E+04 -0.93535738168E+03  0.15363112471E+03  0.13826482354E+04  0.12699999809E+01 0.  1.
</event>
<event>
 5   0  0.3852126E-06  0.2965169E+04  0.7818609E-02  0.8253747E-01
       -1   -1    0    0    0  501  0.00000000000E+00  0.00000000000E+00  0.97115748073E+03  0.97115748074E+03  0.50400001928E-02 0. -1.
        1   -1    0    0  501    0  0.00000000000E+00  0.00000000000E+00 -0.22633376338E+04  0.22633376338E+04  0.50400001928E-02 0.  1.
    10030    2    1    2    0    0  0.00000000000E+00  0.00000000000E+00 -0.12921801531E+04  0.32344951145E+04  0.29651693203E+04 0.  0.
        1    1    3    3  502    0  0.77505647851E+03 -0.45217237226E+03  0.64131320817E+03  0.11029302018E+04  0.50400001928E-02 0. -1.
       -1    1    3    3    0  502 -0.77505647851E+03  0.45217237226E+03 -0.19334933612E+04  0.21315649127E+04  0.50400001928E-02 0.  1.
</event>
<event>
 5   0  0.9647945E-06  0.3004645E+04  0.7818609E-02  0.8242406E-01
        2   -1    0    0  501    0  0.00000000000E+00  0.00000000000E+00  0.31078695643E+04  0.31078695643E+04  0.25500000920E-02 0. -1.
       -2   -1    0    0    0  501  0.00000000000E+00  0.00000000000E+00 -0.72621245732E+03  0.72621245732E+03  0.25500000920E-02 0.  1.
    10030    2    1    2    0    0  0.00000000000E+00  0.00000000000E+00  0.23816571070E+04  0.38340820217E+04  0.30046454655E+04 0.  0.
        2    1    3    3  502    0 -0.51092539380E+03 -0.11715355523E+04  0.18328655690E+03  0.12911755381E+04  0.25500000920E-02 0.  1.
       -2    1    3    3    0  502  0.51092539380E+03  0.11715355523E+04  0.21983705501E+04  0.25429064835E+04  0.25500000920E-02 0. -1.
</event>
<event>
 5   0  0.1057036E-05  0.2995834E+04  0.7818609E-02  0.8244921E-01
       -2   -1    0    0    0  501  0.00000000000E+00  0.00000000000E+00  0.70264714401E+03  0.70264714401E+03  0.25500000920E-02 0.  1.
        2   -1    0    0  501    0  0.00000000000E+00  0.00000000000E+00 -0.31932897646E+04  0.31932897646E+04  0.25500000920E-02 0. -1.
    10030    2    1    2    0    0  0.00000000000E+00  0.00000000000E+00 -0.24906426206E+04  0.38959369086E+04  0.29958343967E+04 0.  0.
        4    1    3    3  502    0  0.13464218439E+04  0.53970116429E+03 -0.75938874621E+03  0.16373154886E+04  0.12699999809E+01 0.  1.
       -4    1    3    3    0  502 -0.13464218439E+04 -0.53970116429E+03 -0.17312538744E+04  0.22586214200E+04  0.12699999809E+01 0. -1.
</event>
<event>
 5   0  0.3592331E-06  0.2987612E+04  0.7818609E-02  0.8247277E-01
        1   -1    0    0  501    0  0.00000000000E+00  0.00000000000E+00  0.22067613854E+04  0.22067613854E+04  0.50400001928E-02 0.  1.
       -1   -1    0    0    0  501  0.00000000000E+00  0.00000000000E+00 -0.10111904370E+04  0.10111904370E+04  0.50400001928E-02 0. -1.
    10030    2    1    2    0    0  0.00000000000E+00  0.00000000000E+00  0.11955709484E+04  0.32179518224E+04  0.29876117617E+04 0.  0.
        3    1    3    3  502    0  0.52249381028E+02 -0.18549789026E+03 -0.99774467498E+03  0.10161859632E+04  0.10100000352E+00 0. -1.
       -3    1    3    3    0  502 -0.52249381028E+02  0.18549789026E+03  0.21933156234E+04  0.22017658593E+04  0.10100000352E+00 0.  1.
</event>
<event>
 5   0  0.1029922E-05  0.3006762E+04  0.7818609E-02  0.8241803E-01
       -2   -1    0    0    0  501  0.00000000000E+00  0.00000000000E+00  0.10665412146E+04  0.10665412146E+04  0.25500000920E-02 0.  1.
        2   -1    0    0  501    0  0.00000000000E+00  0.00000000000E+00 -0.21191437021E+04  0.21191437021E+04  0.25500000920E-02 0. -1.
    10030    2    1    2    0    0  0.00000000000E+00  0.00000000000E+00 -0.10526024876E+04  0.31856849167E+04  0.30067617783E+04 0.  0.
        1    1    3    3  502    0 -0.29286913244E+02 -0.49207112119E+03 -0.20310854663E+04  0.20900478184E+04  0.50400001928E-02 0. -1.
       -1    1    3    3    0  502  0.29286913244E+02  0.49207112119E+03  0.97848297872E+03  0.10956370983E+04  0.50400001928E-02 0.  1.
</event>
<event>
 5   0  0.3725232E-06  0.3246985E+04  0.7818609E-02  0.8176518E-01
       -1   -1    0    0    0  501  0.00000000000E+00  0.00000000000E+00  0.15621452648E+04  0.15621452648E+04  0.50400001928E-02 0.  1.
        1   -1    0    0  501    0  0.00000000000E+00  0.00000000000E+00 -0.16872487471E+04  0.16872487471E+04  0.50400001928E-02 0. -1.
    10030    2    1    2    0    0  0.00000000000E+00  0.00000000000E+00 -0.12510348230E+03  0.32493940119E+04  0.32469848419E+04 0.  0.
        2    1    3    3  502    0 -0.12504403552E+03  0.14290847257E+04 -0.82325288469E+03  0.16539844244E+04  0.25500000920E-02 0. -1.
       -2    1    3    3    0  502  0.12504403552E+03 -0.14290847257E+04  0.69814940239E+03  0.15954095876E+04  0.25500000920E-02 0.  1.
</event>
<event>
 5   0  0.3852126E-06  0.3071929E+04  0.7818609E-02  0.8223484E-01
        1   -1    0    0  501    0  0.00000000000E+00  0.00000000000E+00  0.21013658166E+04  0.21013658166E+04  0.50400001928E-02 0.  1.
       -1   -1    0    0    0  501  0.00000000000E+00  0.00000000000E+00 -0.11226918069E+04  0.11226918069E+04  0.50400001928E-02 0. -1.
    10030    2    1    2    0    0  0.00000000000E+00  0.00000000000E+00  0.97867400977E+03  0.32240576235E+04  0.30719285054E+04 0.  0.
        1    1    3    3  502    0  0.72177903547E+03 -0.13511664791E+04  0.37166708199E+03  0.15763096936E+04  0.50400001928E-02 0. -1.
       -1    1    3    3    0  502 -0.72177903547E+03  0.13511664791E+04  0.60700692778E+03  0.16477479299E+04  0.50400001928E-02 0.  1.
</event>
<event>
 5   0  0.3592331E-06  0.3001440E+04  0.7818609E-02  0.8243320E-01
        1   -1    0    0  501    0  0.00000000000E+00  0.00000000000E+00  0.15737869991E+04  0.15737869991E+04  0.50400001928E-02 0.  1.
       -1   -1    0    0    0  501  0.00000000000E+00  0.00000000000E+00 -0.14310449670E+04  0.14310449670E+04  0.50400001928E-02 0. -1.
    10030    2    1    2    0    0  0.00000000000E+00  0.00000000000E+00  0.14274203214E+03  0.30048319661E+04  0.30014396307E+04 0.  0.
        3    1    3    3  502    0  0.14177093830E+04  0.38673932927E+03  0.37616996321E+03  0.15168952024E+04  0.10100000352E+00 0.  1.
       -3    1    3    3    0  502 -0.14177093830E+04 -0.38673932927E+03 -0.23342793106E+03  0.14879367637E+04  0.10100000352E+00 0. -1.
</event>
<event>
 5   0  0.3852126E-06  0.2978863E+04  0.7818609E-02  0.8249793E-01
        1   -1    0    0  501    0  0.00000000000E+00  0.00000000000E+00  0.26413493791E+04  0.26413493791E+04  0.50400001928E-02 0.  1.
       -1   -1    0    0    0  501  0.00000000000E+00  0.00000000000E+00 -0.83987587307E+03  0.83987587309E+03  0.50400001928E-02 0. -1.
    10030    2    1    2    0    0  0.00000000000E+00  0.00000000000E+00  0.18014735060E+04  0.34812252522E+04  0.29788626124E+04 0.  0.
        1    1    3    3  502    0 -0.16882704076E+03  0.11628778823E+04 -0.16882206400E+03  0.11871345451E+04  0.50400001928E-02 0. -1.
       -1    1    3    3    0  502  0.16882704076E+03 -0.11628778823E+04  0.19702955700E+04  0.22940907071E+04  0.50400001928E-02 0.  1.
</event>
<event>
 5   0  0.3852126E-06  0.2822990E+04  0.7818609E-02  0.8296166E-01
       -1   -1    0    0    0  501  0.00000000000E+00  0.00000000000E+00  0.88810526286E+03  0.88810526287E+03  0.50400001928E-02 0. -1.
        1   -1    0    0  501    0  0.00000000000E+00  0.00000000000E+00 -0.22433358213E+04  0.22433358213E+04  0.50400001928E-02 0.  1.
    10030    2    1    2    0    0  0.00000000000E+00  0.00000000000E+00 -0.13552305585E+04  0.31314410842E+04  0.28229901518E+04 0.  0.
        1    1    3    3  502    0 -0.11713479209E+04  0.24911058280E+03  0.15115134846E+03  0.12070454690E+04  0.50400001928E-02 0. -1.
       -1    1    3    3    0  502  0.11713479209E+04 -0.24911058280E+03 -0.15063819069E+04  0.19243956152E+04  0.50400001928E-02 0.  1.
</event>
<event>
 5   0  0.3725232E-06  0.3054835E+04  0.7818609E-02  0.8228244E-01
       -1   -1    0    0    0  501  0.00000000000E+00  0.00000000000E+00  0.14118302660E+04  0.14118302660E+04  0.50400001928E-02 0. -1.
        1   -1    0    0  501    0  0.00000000000E+00  0.00000000000E+00 -0.16524675513E+04  0.16524675514E+04  0.50400001928E-02 0.  1.
    10030    2    1    2    0    0  0.00000000000E+00  0.00000000000E+00 -0.24063728531E+03  0.30642978174E+04  0.30548346618E+04 0.  0.
        2    1    3    3  502    0  0.97393771190E+03 -0.99854836426E+03  0.50398397307E+03  0.14831228363E+04  0.25500000920E-02 0. -1.
       -2    1    3    3    0  502 -0.97393771190E+03  0.99854836426E+03 -0.74462125838E+03  0.15811749811E+04  0.25500000920E-02 0.  1.
</event>
<event>
 5   0  0.3852126E-06  0.2982450E+04  0.7818609E-02  0.8248760E-01
        1   -1    0    0  501    0  0.00000000000E+00  0.00000000000E+00  0.21770350100E+04  0.21770350100E+04  0.50400001928E-02 0. -1.
       -1   -1    0    0    0  501  0.00000000000E+00  0.00000000000E+00 -0.10214587527E+04  0.10214587527E+04  0.50400001928E-02 0.  1.
    10030    2    1    2    0    0  0.00000000000E+00  0.00000000000E+00  0.11555762572E+04  0.31984937627E+04  0.29824496415E+04 0.  0.
        1    1    3    3  502    0 -0.10423001225E+04 -0.24859160050E+03  0.16900077313E+04  0.20010780748E+04  0.50400001928E-02 0. -1.
       -1    1    3    3    0  502  0.10423001225E+04  0.24859160050E+03 -0.53443147410E+03  0.11974156880E+04  0.50400001928E-02 0.  1.
</event>
<event>
 5   0  0.9647945E-06  0.3255242E+04  0.7818609E-02  0.8174378E-01
        2   -1    0    0  501    0  0.00000000000E+00  0.00000000000E+00  0.29582162342E+04  0.29582162342E+04  0.25500000920E-02 0. -1.
       -2   -1    0    0    0  501  0.00000000000E+00  0.00000000000E+00 -0.89552296269E+03  0.89552296269E+03  0.25500000920E-02 0.  1.
    10030    2    1    2    0    0  0.00000000000E+00  0.00000000000E+00  0.20626932715E+04  0.38537391969E+04  0.32552422744E+04 0.  0.
        2    1    3    3  502    0 -0.11255586214E+04 -0.91846121888E+03  0.16244338678E+03  0.14617937867E+04  0.25500000920E-02 0.  1.
       -2    1    3    3    0  502  0.11255586214E+04  0.91846121888E+03  0.19002498847E+04  0.23919454102E+04  0.25500000920E-02 0. -1.
</event>
<event>
 5   0  0.3725232E-06  0.3034854E+04  0.7818609E-02  0.8233848E-01
        1   -1    0    0  501    0  0.00000000000E+00  0.00000000000E+00  0.19604837098E+04  0.19604837098E+04  0.50400001928E-02 0. -1.
       -1   -1    0    0    0  501  0.00000000000E+00  0.00000000000E+00 -0.11744984321E+04  0.11744984321E+04  0.50400001928E-02 0.  1.
    10030    2    1    2    0    0  0.00000000000E+00  0.00000000000E+00  0.78598527769E+03  0.31349821419E+04  0.30348542261E+04 0.  0.
        2    1    3    3  502    0 -0.94079188436E+03 -0.11889230371E+04  0.45797835031E+03  0.15837839269E+04  0.25500000920E-02 0.  1.
       -2    1    3    3    0  502  0.94079188436E+03  0.11889230371E+04  0.32800692738E+03  0.15511982150E+04  0.25500000920E-02 0. -1.
</event>
<event>
 5   0  0.3896630E-06  0.3023425E+04  0.7818609E-02  0.8237073E-01
        1   -1    0    0  501    0  0.00000000000E+00  0.00000000000E+00  0.24459591588E+04  0.24459591589E+04  0.50400001928E-02 0. -1.
       -1   -1    0    0    0  501  0.00000000000E+00  0.00000000000E+00 -0.93430626603E+03  0.93430626604E+03  0.50400001928E-02 0.  1.
    10030    2    1    2    0    0  0.00000000000E+00  0.00000000000E+00  0.15116528928E+04  0.33802654249E+04  0.30234251892E+04 0.  0.
        5    1    3    3  502    0 -0.48559741093E+03  0.89749587343E+03 -0.49113462949E+03  0.11324923852E+04  0.46999998093E+01 0.  1.
       -5    1    3    3    0  502  0.48559741093E+03 -0.89749587343E+03  0.20027875223E+04  0.22477730397E+04  0.46999998093E+01 0. -1.
</event>
<event>
 5   0  0.1029922E-05  0.2909460E+04  0.7818609E-02  0.8270068E-01
       -2   -1    0    0    0  501  0.00000000000E+00  0.00000000000E+00  0.13026290892E+04  0.13026290892E+04  0.25500000920E-02 0. -1.
        2   -1    0    0  501    0  0.00000000000E+00  0.00000000000E+00 -0.16245906347E+04  0.16245906347E+04  0.25500000920E-02 0.  1.
    10030    2    1    2    0    0  0.00000000000E+00  0.00000000000E+00 -0.32196154555E+03  0.29272197239E+04  0.29094597566E+04 0.  0.
        1    1    3    3  502    0 -0.13787169518E+04 -0.89984139256E+02  0.29708007979E+03  0.14132282733E+04  0.50400001928E-02 0. -1.
       -1    1    3    3    0  502  0.13787169518E+04  0.89984139256E+02 -0.61904162534E+03  0.15139914506E+04  0.50400001928E-02 0.  1.
</event>
<event>
 5   0  0.1029922E-05  0.2018126E+04  0.7818609E-02  0.8598193E-01
        2   -1    0    0  501    0  0.00000000000E+00  0.00000000000E+00  0.11959069747E+04  0.11959069747E+04  0.25500000920E-02 0. -1.
       -2   -1    0    0    0  501  0.00000000000E+00  0.00000000000E+00 -0.85141062173E+03  0.85141062173E+03  0.25500000920E-02 0.  1.
    10030    2    1    2    0    0  0.00000000000E+00  0.00000000000E+00  0.34449635298E+03  0.20473175964E+04  0.20181257650E+04 0.  0.
        1    1    3    3  502    0  0.51405319405E+03  0.93477971536E+02  0.10479958172E+04  0.11710183818E+04  0.50400001928E-02 0. -1.
       -1    1    3    3    0  502 -0.51405319405E+03 -0.93477971536E+02 -0.70349946423E+03  0.87629921469E+03  0.50400001928E-02 0.  1.
</event>
<event>
 5   0  0.9647945E-06  0.2991803E+04  0.7818609E-02  0.8246075E-01
        2   -1    0    0  501    0  0.00000000000E+00  0.00000000000E+00  0.15909013214E+04  0.15909013214E+04  0.25500000920E-02 0. -1.
       -2   -1    0    0    0  501  0.00000000000E+00  0.00000000000E+00 -0.14065744240E+04  0.14065744240E+04  0.25500000920E-02 0.  1.
    10030    2    1    2    0    0  0.00000000000E+00  0.00000000000E+00  0.18432689742E+03  0.29974757454E+04  0.29918028744E+04 0.  0.
        2    1    3    3  502    0 -0.87229300539E+03 -0.32427425420E+03  0.12655682901E+04  0.15708952785E+04  0.25500000920E-02 0. -1.
       -2    1    3    3    0  502  0.87229300539E+03  0.32427425420E+03 -0.10812413927E+04  0.14265804669E+04  0.25500000920E-02 0.  1.
</event>
<event>
 5   0  0.1089569E-05  0.2497109E+04  0.7818609E-02  0.8404016E-01
        2   -1    0    0  501    0  0.00000000000E+00  0.00000000000E+00  0.12214424050E+04  0.12214424050E+04  0.25500000920E-02 0. -1.
       -2   -1    0    0    0  501  0.00000000000E+00  0.00000000000E+00 -0.12762682613E+04  0.12762682613E+04  0.25500000920E-02 0.  1.
    10030    2    1    2    0    0  0.00000000000E+00  0.00000000000E+00 -0.54825856289E+02  0.24977106663E+04  0.24971088679E+04 0.  0.
        5    1    3    3  502    0 -0.55808539722E+03  0.60320626524E+03 -0.96761231869E+03  0.12694931265E+04  0.46999998093E+01 0.  1.
       -5    1    3    3    0  502  0.55808539722E+03 -0.60320626524E+03  0.91278646240E+03  0.12282175398E+04  0.46999998093E+01 0. -1.
</event>
<event>
 5   0  0.3636718E-06  0.3026371E+04  0.7818609E-02  0.8236240E-01
        1   -1    0    0  501    0  0.00000000000E+00  0.00000000000E+00  0.13596669028E+04  0.13596669028E+04  0.50400001928E-02 0. -1.
       -1   -1    0    0    0  501  0.00000000000E+00  0.00000000000E+00 -0.16840374862E+04  0.16840374862E+04  0.50400001928E-02 0.  1.
    10030    2    1    2    0    0  0.00000000000E+00  0.00000000000E+00 -0.32437058339E+03  0.30437043890E+04  0.30263707857E+04 0.  0.
        4    1    3    3  502    0 -0.12384803364E+03 -0.74005418452E+02  0.13527332579E+04  0.13604058282E+04  0.12699999809E+01 0. -1.
       -4    1    3    3    0  502  0.12384803364E+03  0.74005418452E+02 -0.16771038413E+04  0.16832985608E+04  0.12699999809E+01 0.  1.
</event>
<event>
 5   0  0.1029922E-05  0.3068397E+04  0.7818609E-02  0.8224465E-01
        2   -1    0    0  501    0  0.00000000000E+00  0.00000000000E+00  0.11607482759E+04  0.11607482759E+04  0.25500000920E-02 0.  1.
       -2   -1    0    0    0  501  0.00000000000E+00  0.00000000000E+00 -0.20278000371E+04  0.20278000371E+04  0.25500000920E-02 0. -1.
    10030    2    1    2    0    0  0.00000000000E+00  0.00000000000E+00 -0.86705176121E+03  0.31885483130E+04  0.30683972343E+04 0.  0.
        1    1    3    3  502    0  0.12532746072E+04 -0.87923794065E+03 -0.53748735166E+03  0.16225440673E+04  0.50400001928E-02 0.  1.
       -1    1    3    3    0  502 -0.12532746072E+04  0.87923794065E+03 -0.32956440955E+03  0.15660042456E+04  0.50400001928E-02 0. -1.
</event>
<event>
 5   0  0.3852126E-06  0.3057150E+04  0.7818609E-02  0.8227597E-01
        1   -1    0    0  501    0  0.00000000000E+00  0.00000000000E+00  0.17018920835E+04  0.17018920835E+04  0.50400001928E-02 0.  1.
       -1   -1    0    0    0  501  0.00000000000E+00  0.00000000000E+00 -0.13729079142E+04  0.13729079142E+04  0.50400001928E-02 0. -1.
    10030    2    1    2    0    0  0.00000000000E+00  0.00000000000E+00  0.32898416933E+03  0.30747999977E+04  0.30571497252E+04 0.  0.
        1    1    3    3  502    0 -0.12932495328E+03  0.44227834007E+03 -0.13013881278E+04  0.13805600794E+04  0.50400001928E-02 0. -1.
       -1    1    3    3    0  502  0.12932495328E+03 -0.44227834007E+03  0.16303722971E+04  0.16942399183E+04  0.50400001928E-02 0.  1.
</event>
<event>
 5   0  0.3725232E-06  0.2946626E+04  0.7818609E-02  0.8259139E-01
        1   -1    0    0  501    0  0.00000000000E+00  0.00000000000E+00  0.14939460094E+04  0.14939460094E+04  0.50400001928E-02 0. -1.
       -1   -1    0    0    0  501  0.00000000000E+00  0.00000000000E+00 -0.14529647319E+04  0.14529647319E+04  0.50400001928E-02 0.  1.
    10030    2    1    2    0    0  0.00000000000E+00  0.00000000000E+00  0.40981277465E+02  0.29469107413E+04  0.29466257740E+04 0.  0.
        2    1    3    3  502    0 -0.63795796323E+03  0.41983206187E+03  0.12805337289E+04  0.14909781869E+04  0.25500000920E-02 0. -1.
       -2    1    3    3    0  502  0.63795796323E+03 -0.41983206187E+03 -0.12395524514E+04  0.14559325544E+04  0.25500000920E-02 0.  1.
</event>
<event>
 5   0  0.3592331E-06  0.2767945E+04  0.7818609E-02  0.8313290E-01
        1   -1    0    0  501    0  0.00000000000E+00  0.00000000000E+00  0.11748948922E+04  0.11748948922E+04  0.50400001928E-02 0.  1.
       -1   -1    0    0    0  501  0.00000000000E+00  0.00000000000E+00 -0.16302567549E+04  0.16302567549E+04  0.50400001928E-02 0. -1.
    10030    2    1    2    0    0  0.00000000000E+00  0.00000000000E+00 -0.45536186272E+03  0.28051516472E+04  0.27679453278E+04 0.  0.
        3    1    3    3  502    0 -0.46487457878E+03 -0.93630536276E+01 -0.15487303911E+04  0.16170225339E+04  0.10100000352E+00 0. -1.
       -3    1    3    3    0  502  0.46487457878E+03  0.93630536276E+01  0.10933685283E+04  0.11881291133E+04  0.10100000352E+00 0.  1.
</event>
<event>
 5   0  0.3896630E-06  0.2997539E+04  0.7818609E-02  0.8244434E-01
       -1   -1    0    0    0  501  0.00000000000E+00  0.00000000000E+00  0.11575268564E+04  0.11575268564E+04  0.50400001928E-02 0.  1.
        1   -1    0    0  501    0  0.00000000000E+00  0.00000000000E+00 -0.19406117666E+04  0.19406117666E+04  0.50400001928E-02 0. -1.
    10030    2    1    2    0    0  0.00000000000E+00  0.00000000000E+00 -0.78308491015E+03  0.30981386230E+04  0.29975391492E+04 0.  0.
        5    1    3    3  502    0  0.12871450266E+04 -0.61531331745E+03 -0.86623309207E+03  0.16690520237E+04  0.46999998093E+01 0. -1.
       -5    1    3    3    0  502 -0.12871450266E+04  0.61531331745E+03  0.83148181921E+02  0.14290865993E+04  0.46999998093E+01 0.  1.
</event>
<event>
 5   0  0.3725232E-06  0.2936056E+04  0.7818609E-02  0.8262230E-01
       -1   -1    0    0    0  501  0.00000000000E+00  0.00000000000E+00  0.15452986709E+04  0.15452986709E+04  0.50400001928E-02 0. -1.
        1   -1    0    0  501    0  0.00000000000E+00  0.00000000000E+00 -0.13946212153E+04  0.13946212153E+04  0.50400001928E-02 0.  1.
    10030    2    1    2    0    0  0.00000000000E+00  0.00000000000E+00  0.15067745559E+03  0.29399198863E+04  0.29360560693E+04 0.  0.
        2    1    3    3  502    0  0.74782914947E+03  0.67097175139E+03  0.11470999439E+04  0.15248900975E+04  0.25500000920E-02 0. -1.
       -2    1    3    3    0  502 -0.74782914947E+03 -0.67097175139E+03 -0.99642248833E+03  0.14150297888E+04  0.25500000920E-02 0.  1.
</event>
<event>
 5   0  0.1029922E-05  0.2722821E+04  0.7818609E-02  0.8327638E-01
       -2   -1    0    0    0  501  0.00000000000E+00  0.00000000000E+00  0.95583024020E+03  0.95583024020E+03  0.25500000920E-02 0.  1.
        2   -1    0    0  501    0  0.00000000000E+00  0.00000000000E+00 -0.19390872698E+04  0.19390872698E+04  0.25500000920E-02 0. -1.
    10030    2    1    2    0    0  0.00000000000E+00  0.00000000000E+00 -0.98325702958E+03  0.28949175100E+04  0.27228207806E+04 0.  0.
        1    1    3    3  502    0 -0.77154270266E+03 -0.98977632893E+03 -0.10527178564E+04  0.16380324198E+04  0.50400001928E-02 0. -1.
       -1    1    3    3    0  502  0.77154270266E+03  0.98977632893E+03  0.69460826771E+02  0.12568850901E+04  0.50400001928E-02 0.  1.
</event>
<event>
 5   0  0.1028450E-05  0.3025781E+04  0.7818609E-02  0.8236407E-01
       -2   -1    0    0    0  501  0.00000000000E+00  0.00000000000E+00  0.16295974378E+04  0.16295974378E+04  0.25500000920E-02 0. -1.
        2   -1    0    0  501    0  0.00000000000E+00  0.00000000000E+00 -0.14045420712E+04  0.14045420712E+04  0.25500000920E-02 0.  1.
    10030    2    1    2    0    0  0.00000000000E+00  0.00000000000E+00  0.22505536657E+03  0.30341395090E+04  0.30257813275E+04 0.  0.
        3    1    3    3  502    0 -0.10706078416E+04 -0.22000962233E+03 -0.93641767338E+03  0.14392649004E+04  0.10100000352E+00 0.  1.
       -3    1    3    3    0  502  0.10706078416E+04  0.22000962233E+03  0.11614730400E+04  0.15948746086E+04  0.10100000352E+00 0. -1.
</event>
<event>
 5   0  0.3852126E-06  0.2903517E+04  0.7818609E-02  0.8271832E-01
       -1   -1    0    0    0  501  0.00000000000E+00  0.00000000000E+00  0.11840960458E+04  0.11840960458E+04  0.50400001928E-02 0.  1.
        1   -1    0    0  501    0  0.00000000000E+00  0.00000000000E+00 -0.17799260616E+04  0.17799260616E+04  0.50400001928E-02 0. -1.
    10030    2    1    2    0    0  0.00000000000E+00  0.00000000000E+00 -0.59583001582E+03  0.29640221074E+04  0.29035174608E+04 0.  0.
        1    1    3    3  502    0 -0.11174154000E+04 -0.91992904220E+03 -0.41303368506E+03  0.15051522992E+04  0.50400001928E-02 0.  1.
       -1    1    3    3    0  502  0.11174154000E+04  0.91992904220E+03 -0.18279633077E+03  0.14588698082E+04  0.50400001928E-02 0. -1.
</event>
<event>
 5   0  0.3725232E-06  0.3040637E+04  0.7818609E-02  0.8232221E-01
       -1   -1    0    0    0  501  0.00000000000E+00  0.00000000000E+00  0.26707811056E+04  0.26707811056E+04  0.50400001928E-02 0. -1.
        1   -1    0    0  501    0  0.00000000000E+00  0.00000000000E+00 -0.86542770072E+03  0.86542770073E+03  0.50400001928E-02 0.  1.
    10030    2    1    2    0    0  0.00000000000E+00  0.00000000000E+00  0.18053534048E+04  0.35362088063E+04  0.30406367434E+04 0.  0.
        2    1    3    3  502    0  0.48455801460E+03  0.14834415750E+03  0.25696680933E+04  0.26191595156E+04  0.25500000920E-02 0. -1.
       -2    1    3    3    0  502 -0.48455801460E+03 -0.14834415750E+03 -0.76431468844E+03  0.91704929069E+03  0.25500000920E-02 0.  1.
</event>
<event>
 5   0  0.3852126E-06  0.2981428E+04  0.7818609E-02  0.8249054E-01
       -1   -1    0    0    0  501  0.00000000000E+00  0.00000000000E+00  0.96976778404E+03  0.96976778406E+03  0.50400001928E-02 0.  1.
        1   -1    0    0  501    0  0.00000000000E+00  0.00000000000E+00 -0.22915054871E+04  0.22915054872E+04  0.50400001928E-02 0. -1.
    10030    2    1    2    0    0  0.00000000000E+00  0.00000000000E+00 -0.13217377031E+04  0.32612732712E+04  0.29814279790E+04 0.  0.
        1    1    3    3  502    0  0.77421082499E+03 -0.45508604756E+03 -0.19623921098E+04  0.21581215223E+04  0.50400001928E-02 0. -1.
       -1    1    3    3    0  502 -0.77421082499E+03  0.45508604756E+03  0.64065440674E+03  0.11031517489E+04  0.50400001928E-02 0.  1.
</event>
<event>
 5   0  0.3636718E-06  0.2933554E+04  0.7818609E-02  0.8262964E-01
       -1   -1    0    0    0  501  0.00000000000E+00  0.00000000000E+00  0.97691306072E+03  0.97691306073E+03  0.50400001928E-02 0.  1.
        1   -1    0    0  501    0  0.00000000000E+00  0.00000000000E+00 -0.22022780285E+04  0.22022780285E+04  0.50400001928E-02 0. -1.
    10030    2    1    2    0    0  0.00000000000E+00  0.00000000000E+00 -0.12253649678E+04  0.31791910892E+04  0.29335535921E+04 0.  0.
        4    1    3    3  502    0  0.65913800246E+03 -0.10649515869E+04  0.21468828783E+03  0.12706995957E+04  0.12699999809E+01 0.  1.
       -4    1    3    3    0  502 -0.65913800246E+03  0.10649515869E+04 -0.14400532556E+04  0.19084914935E+04  0.12699999809E+01 0. -1.
</event>
<event>
 5   0  0.3592331E-06  0.3007527E+04  0.7818609E-02  0.8241585E-01
        1   -1    0    0  501    0  0.00000000000E+00  0.00000000000E+00  0.24032552177E+04  0.24032552177E+04  0.50400001928E-02 0.  1.
       -1   -1    0    0    0  501  0.00000000000E+00  0.00000000000E+00 -0.94093433401E+03  0.94093433402E+03  0.50400001928E-02 0. -1.
    10030    2    1    2    0    0  0.00000000000E+00  0.00000000000E+00  0.14623208837E+04  0.33441895517E+04  0.30075274547E+04 0.  0.
        3    1    3    3  502    0  0.12893045152E+04 -0.27762595713E+03 -0.72152042579E+02  0.13208286159E+04  0.10100000352E+00 0.  1.
       -3    1    3    3    0  502 -0.12893045152E+04  0.27762595713E+03  0.15344729263E+04  0.20233609358E+04  0.10100000352E+00 0. -1.
</event>
<event>
 5   0  0.1029922E-05  0.2918835E+04  0.7818609E-02  0.8267295E-01
        2   -1    0    0  501    0  0.00000000000E+00  0.00000000000E+00  0.15613237716E+04  0.15613237716E+04  0.25500000920E-02 0.  1.
       -2   -1    0    0    0  501  0.00000000000E+00  0.00000000000E+00 -0.13641628090E+04  0.13641628090E+04  0.25500000920E-02 0. -1.
    10030    2    1    2    0    0  0.00000000000E+00  0.00000000000E+00  0.19716096258E+03  0.29254865806E+04  0.29188352623E+04 0.  0.
        1    1    3    3  502    0  0.53383083278E+03 -0.81611060108E+03 -0.98965978283E+03  0.13894021581E+04  0.50400001928E-02 0. -1.
       -1    1    3    3    0  502 -0.53383083278E+03  0.81611060108E+03  0.11868207454E+04  0.15360844225E+04  0.50400001928E-02 0.  1.
</event>
<event>
 5   0  0.3896630E-06  0.2850234E+04  0.7818609E-02  0.8287840E-01
        1   -1    0    0  501    0  0.00000000000E+00  0.00000000000E+00  0.16900433745E+04  0.16900433745E+04  0.50400001928E-02 0. -1.
       -1   -1    0    0    0  501  0.00000000000E+00  0.00000000000E+00 -0.12017196992E+04  0.12017196993E+04  0.50400001928E-02 0.  1.
    10030    2    1    2    0    0  0.00000000000E+00  0.00000000000E+00  0.48832367528E+03  0.28917630738E+04  0.28502339664E+04 0.  0.
        5    1    3    3  502    0 -0.63823686506E+03 -0.56419046781E+03 -0.91497283313E+03  0.12501418141E+04  0.46999998093E+01 0.  1.
       -5    1    3    3    0  502  0.63823686506E+03  0.56419046781E+03  0.14032965084E+04  0.16416212597E+04  0.46999998093E+01 0. -1.
</event>
<event>
 5   0  0.9647945E-06  0.2956877E+04  0.7818609E-02  0.8256153E-01
        2   -1    0    0  501    0  0.00000000000E+00  0.00000000000E+00  0.15380623618E+04  0.15380623618E+04  0.25500000920E-02 0.  1.
       -2   -1    0    0    0  501  0.00000000000E+00  0.00000000000E+00 -0.14211264521E+04  0.14211264521E+04  0.25500000920E-02 0. -1.
    10030    2    1    2    0    0  0.00000000000E+00  0.00000000000E+00  0.11693590976E+03  0.29591888139E+04  0.29568774796E+04 0.  0.
        2    1    3    3  502    0 -0.72318493189E+03  0.90407378768E+03 -0.86172631029E+03  0.14432318224E+04  0.25500000920E-02 0. -1.
       -2    1    3    3    0  502  0.72318493189E+03 -0.90407378768E+03  0.97866222005E+03  0.15159569916E+04  0.25500000920E-02 0.  1.
</event>
<event>
 5   0  0.3636718E-06  0.2631421E+04  0.7818609E-02  0.8357606E-01
       -1   -1    0    0    0  501  0.00000000000E+00  0.00000000000E+00  0.19227345687E+04  0.19227345687E+04  0.50400001928E-02 0. -1.
        1   -1    0    0  501    0  0.00000000000E+00  0.00000000000E+00 -0.90032900552E+03  0.90032900553E+03  0.50400001928E-02 0.  1.
    10030    2    1    2    0    0  0.00000000000E+00  0.00000000000E+00  0.10224055631E+04  0.28230635742E+04  0.26314206825E+04 0.  0.
        4    1    3    3  502    0 -0.35106544150E+03 -0.85782190285E+03  0.15130126650E+04  0.17743489788E+04  0.12699999809E+01 0. -1.
       -4    1    3    3    0  502  0.35106544150E+03  0.85782190285E+03 -0.49060710189E+03  0.10487145954E+04  0.12699999809E+01 0.  1.
</event>
<event>
 5   0  0.1028450E-05  0.2971406E+04  0.7818609E-02  0.8251943E-01
        2   -1    0    0  501    0  0.00000000000E+00  0.00000000000E+00  0.15976670776E+04  0.15976670776E+04  0.25500000920E-02 0. -1.
       -2   -1    0    0    0  501  0.00000000000E+00  0.00000000000E+00 -0.13815855489E+04  0.13815855489E+04  0.25500000920E-02 0.  1.
    10030    2    1    2    0    0  0.00000000000E+00  0.00000000000E+00  0.21608152867E+03  0.29792526265E+04  0.29714062303E+04 0.  0.
        3    1    3    3  502    0 -0.20115793925E+03 -0.77614343890E+03  0.13621236058E+04  0.15805833993E+04  0.10100000352E+00 0. -1.
       -3    1    3    3    0  502  0.20115793925E+03  0.77614343890E+03 -0.11460420772E+04  0.13986692272E+04  0.10100000352E+00 0.  1.
</event>
<event>
 5   0  0.3852126E-06  0.2967215E+04  0.7818609E-02  0.8253155E-01
       -1   -1    0    0    0  501  0.00000000000E+00  0.00000000000E+00  0.17431925815E+04  0.17431925815E+04  0.50400001928E-02 0.  1.
        1   -1    0    0  501    0  0.00000000000E+00  0.00000000000E+00 -0.12626784344E+04  0.12626784344E+04  0.50400001928E-02 0. -1.
    10030    2    1    2    0    0  0.00000000000E+00  0.00000000000E+00  0.48051414707E+03  0.30058710159E+04  0.29672153139E+04 0.  0.
        1    1    3    3  502    0 -0.77025940057E+03  0.50752262252E+03 -0.93686745432E+03  0.13147621015E+04  0.50400001928E-02 0. -1.
       -1    1    3    3    0  502  0.77025940057E+03 -0.50752262252E+03  0.14173816014E+04  0.16911089145E+04  0.50400001928E-02 0.  1.
</event>
<event>
 5   0  0.1028450E-05  0.3025370E+04  0.7818609E-02  0.8236523E-01
       -2   -1    0    0    0  501  0.00000000000E+00  0.00000000000E+00  0.15293725877E+04  0.15293725877E+04  0.25500000920E-02 0. -1.
        2   -1    0    0  501    0  0.00000000000E+00  0.00000000000E+00 -0.14961792447E+04  0.14961792447E+04  0.25500000920E-02 0.  1.
    10030    2    1    2    0    0  0.00000000000E+00  0.00000000000E+00  0.33193342991E+02  0.30255518323E+04  0.30253697447E+04 0.  0.
        3    1    3    3  502    0 -0.10699335888E+04 -0.96905256531E+03  0.46872426260E+03  0.15177362100E+04  0.10100000352E+00 0. -1.
       -3    1    3    3    0  502  0.10699335888E+04  0.96905256531E+03 -0.43553091961E+03  0.15078156223E+04  0.10100000352E+00 0.  1.
</event>
<event>
 5   0  0.3896630E-06  0.3008816E+04  0.7818609E-02  0.8241218E-01
       -1   -1    0    0    0  501  0.00000000000E+00  0.00000000000E+00  0.17652004076E+04  0.17652004076E+04  0.50400001928E-02 0. -1.
        1   -1    0    0  501    0  0.00000000000E+00  0.00000000000E+00 -0.12821455670E+04  0.12821455670E+04  0.50400001928E-02 0.  1.
    10030    2    1    2    0    0  0.00000000000E+00  0.00000000000E+00  0.48305484064E+03  0.30473459746E+04  0.30088162971E+04 0.  0.
        5    1    3    3  502    0  0.11087867532E+02 -0.18449795536E+03 -0.12705948413E+04  0.12839765484E+04  0.46999998093E+01 0.  1.
       -5    1    3    3    0  502 -0.11087867532E+02  0.18449795536E+03  0.17536496819E+04  0.17633694262E+04  0.46999998093E+01 0. -1.
</event>
<event>
 5   0  0.3896630E-06  0.2952531E+04  0.7818609E-02  0.8257417E-01
       -1   -1    0    0    0  501  0.00000000000E+00  0.00000000000E+00  0.11203612970E+04  0.11203612970E+04  0.50400001928E-02 0. -1.
        1   -1    0    0  501    0  0.00000000000E+00  0.00000000000E+00 -0.19452291235E+04  0.19452291235E+04  0.50400001928E-02 0.  1.
    10030    2    1    2    0    0  0.00000000000E+00  0.00000000000E+00 -0.82486782647E+03  0.30655904205E+04  0.29525307272E+04 0.  0.
        5    1    3    3  502    0 -0.65739189669E+03 -0.11345940394E+04 -0.11165383029E+04  0.17222507402E+04  0.46999998093E+01 0.  1.
       -5    1    3    3    0  502  0.65739189669E+03  0.11345940394E+04  0.29167047648E+03  0.13433396804E+04  0.46999998093E+01 0. -1.
</event>
<event>
 5   0  0.3592331E-06  0.3016226E+04  0.7818609E-02  0.8239113E-01
       -1   -1    0    0    0  501  0.00000000000E+00  0.00000000000E+00  0.27910900729E+04  0.27910900729E+04  0.50400001928E-02 0.  1.
        1   -1    0    0  501    0  0.00000000000E+00  0.00000000000E+00 -0.81488039160E+03  0.81488039161E+03  0.50400001928E-02 0. -1.
    10030    2    1    2    0    0  0.00000000000E+00  0.00000000000E+00  0.19762096813E+04  0.36059704645E+04  0.30162258348E+04 0.  0.
        3    1    3    3  502    0 -0.35972004332E+03 -0.76869354889E+03 -0.50228562851E+03  0.98619427319E+03  0.10100000352E+00 0. -1.
       -3    1    3    3    0  502  0.35972004332E+03  0.76869354889E+03  0.24784953098E+04  0.26197761913E+04  0.10100000352E+00 0.  1.
</event>
<event>
 5   0  0.1089569E-05  0.2394027E+04  0.7818609E-02  0.8441743E-01
       -2   -1    0    0    0  501  0.00000000000E+00  0.00000000000E+00  0.82872609703E+03  0.82872609703E+03  0.25500000920E-02 0.  1.
        2   -1    0    0  501    0  0.00000000000E+00  0.00000000000E+00 -0.17289684732E+04  0.17289684733E+04  0.25500000920E-02 0. -1.
    10030    2    1    2    0    0  0.00000000000E+00  0.00000000000E+00 -0.90024237622E+03  0.25576945703E+04  0.23940269796E+04 0.  0.
        5    1    3    3  502    0 -0.75713082029E+03 -0.47800842735E+03 -0.12988361792E+04  0.15775730240E+04  0.46999998093E+01 0. -1.
       -5    1    3    3    0  502  0.75713082029E+03  0.47800842735E+03  0.39859380301E+03  0.98012154626E+03  0.46999998093E+01 0.  1.
</event>
<event>
 5   0  0.1029922E-05  0.2951302E+04  0.7818609E-02  0.8257775E-01
       -2   -1    0    0    0  501  0.00000000000E+00  0.00000000000E+00  0.16261256648E+04  0.16261256648E+04  0.25500000920E-02 0.  1.
        2   -1    0    0  501    0  0.00000000000E+00  0.00000000000E+00 -0.13391004560E+04  0.13391004561E+04  0.25500000920E-02 0. -1.
    10030    2    1    2    0    0  0.00000000000E+00  0.00000000000E+00  0.28702520871E+03  0.29652261208E+04  0.29513018275E+04 0.  0.
        1    1    3    3  502    0  0.88592021736E+03 -0.65663090039E+03 -0.84168851848E+03  0.13872484756E+04  0.50400001928E-02 0. -1.
       -1    1    3    3    0  502 -0.88592021736E+03  0.65663090039E+03  0.11287137272E+04  0.15779776452E+04  0.50400001928E-02 0.  1.
</event>
<event>
 5   0  0.1029922E-05  0.2939717E+04  0.7818609E-02  0.8261158E-01
        2   -1    0    0  501    0  0.00000000000E+00  0.00000000000E+00  0.10275225887E+04  0.10275225887E+04  0.25500000920E-02 0. -1.
       -2   -1    0    0    0  501  0.00000000000E+00  0.00000000000E+00 -0.21026142271E+04  0.21026142272E+04  0.25500000920E-02 0.  1.
    10030    2    1    2    0    0  0.00000000000E+00  0.00000000000E+00 -0.10750916384E+04  0.31301368159E+04  0.29397167304E+04 0.  0.
        1    1    3    3  502    0  0.31579457439E+03  0.10559995548E+04 -0.15729661748E+04  0.19206987947E+04  0.50400001928E-02 0.  1.
       -1    1    3    3    0  502 -0.31579457439E+03 -0.10559995548E+04  0.49787453634E+03  0.12094380211E+04  0.50400001928E-02 0. -1.
</event>
<event>
 5   0  0.3725232E-06  0.2978389E+04  0.7818609E-02  0.8249929E-01
       -1   -1    0    0    0  501  0.00000000000E+00  0.00000000000E+00  0.22316866956E+04  0.22316866956E+04  0.50400001928E-02 0.  1.
        1   -1    0    0  501    0  0.00000000000E+00  0.00000000000E+00 -0.99373277698E+03  0.99373277700E+03  0.50400001928E-02 0. -1.
    10030    2    1    2    0    0  0.00000000000E+00  0.00000000000E+00  0.12379539186E+04  0.32254194726E+04  0.29783889722E+04 0.  0.
        2    1    3    3  502    0 -0.12502530194E+04  0.80885564907E+03  0.63835354736E+03  0.16201466986E+04  0.25500000920E-02 0. -1.
       -2    1    3    3    0  502  0.12502530194E+04 -0.80885564907E+03  0.59960037127E+03  0.16052727740E+04  0.25500000920E-02 0.  1.
</event>
<event>
 5   0  0.3725232E-06  0.3026152E+04  0.7818609E-02  0.8236302E-01
       -1   -1    0    0    0  501  0.00000000000E+00  0.00000000000E+00  0.12188642489E+04  0.12188642489E+04  0.50400001928E-02 0. -1.
        1   -1    0    0  501    0  0.00000000000E+00  0.00000000000E+00 -0.18783052559E+04  0.18783052559E+04  0.50400001928E-02 0.  1.
    10030    2    1    2    0    0  0.00000000000E+00  0.00000000000E+00 -0.65944100705E+03  0.30971695048E+04  0.30261520946E+04 0.  0.
        2    1    3    3  502    0 -0.51844309627E+03 -0.17772954977E+03 -0.17731470245E+04  0.18559152479E+04  0.25500000920E-02 0.  1.
       -2    1    3    3    0  502  0.51844309627E+03  0.17772954977E+03  0.11137060174E+04  0.12412542569E+04  0.25500000920E-02 0. -1.
</event>
<event>
 5   0  0.9647945E-06  0.2951807E+04  0.7818609E-02  0.8257628E-01
        2   -1    0    0  501    0  0.00000000000E+00  0.00000000000E+00  0.14133165204E+04  0.14133165204E+04  0.25500000920E-02 0.  1.
       -2   -1    0    0    0  501  0.00000000000E+00  0.00000000000E+00 -0.15412620666E+04  0.15412620666E+04  0.25500000920E-02 0. -1.
    10030    2    1    2    0    0  0.00000000000E+00  0.00000000000E+00 -0.12794554617E+03  0.29545785871E+04  0.29518069998E+04 0.  0.
        2    1    3    3  502    0 -0.58455234817E+03  0.39933426991E+03  0.12322805842E+04  0.14211561297E+04  0.25500000920E-02 0.  1.
       -2    1    3    3    0  502  0.58455234817E+03 -0.39933426991E+03 -0.13602261304E+04  0.15334224573E+04  0.25500000920E-02 0. -1.
</event>
<event>
 5   0  0.3896630E-06  0.2977496E+04  0.7818609E-02  0.8250186E-01
       -1   -1    0    0    0  501  0.00000000000E+00  0.00000000000E+00  0.99218461419E+03  0.99218461420E+03  0.50400001928E-02 0. -1.
        1   -1    0    0  501    0  0.00000000000E+00  0.00000000000E+00 -0.22338292851E+04  0.22338292851E+04  0.50400001928E-02 0.  1.
    10030    2    1    2    0    0  0.00000000000E+00  0.00000000000E+00 -0.12416446709E+04  0.32260138993E+04  0.29774962955E+04 0.  0.
        5    1    3    3  502    0 -0.28755392298E+03  0.56222509191E+03  0.83987399258E+03  0.10508067025E+04  0.46999998093E+01 0. -1.
       -5    1    3    3    0  502  0.28755392298E+03 -0.56222509191E+03 -0.20815186635E+04  0.21752071968E+04  0.46999998093E+01 0.  1.
</event>
<event>
 5   0  0.3636718E-06  0.3012811E+04  0.7818609E-02  0.8240082E-01
       -1   -1    0    0    0  501  0.00000000000E+00  0.00000000000E+00  0.10237021932E+04  0.10237021932E+04  0.50400001928E-02 0.  1.
        1   -1    0    0  501    0  0.00000000000E+00  0.00000000000E+00 -0.22167168707E+04  0.22167168707E+04  0.50400001928E-02 0. -1.
    10030    2    1    2    0    0  0.00000000000E+00  0.00000000000E+00 -0.11930146775E+04  0.32404190640E+04  0.30128112602E+04 0.  0.
        4    1    3    3  502    0 -0.24330111607E+03 -0.12864717500E+04  0.20479391051E+03  0.13251970251E+04  0.12699999809E+01 0.  1.
       -4    1    3    3    0  502  0.24330111607E+03  0.12864717500E+04 -0.13978085880E+04  0.19152220389E+04  0.12699999809E+01 0. -1.
</event>
<event>
 5   0  0.3592331E-06  0.2805003E+04  0.7818609E-02  0.8301717E-01
       -1   -1    0    0    0  501  0.00000000000E+00  0.00000000000E+00  0.12443765126E+04  0.12443765126E+04  0.50400001928E-02 0.  1.
        1   -1    0    0  501    0  0.00000000000E+00  0.00000000000E+00 -0.15807200388E+04  0.15807200388E+04  0.50400001928E-02 0. -1.
    10030    2    1    2    0    0  0.00000000000E+00  0.00000000000E+00 -0.33634352618E+03  0.28250965514E+04  0.28050033079E+04 0.  0.
        3    1    3    3  502    0 -0.17343535856E+03 -0.11179762186E+04  0.66665684385E+03  0.13131572665E+04  0.10100000352E+00 0.  1.
       -3    1    3    3    0  502  0.17343535856E+03  0.11179762186E+04 -0.10030003700E+04  0.15119392850E+04  0.10100000352E+00 0. -1.
</event>
<event>
 5   0  0.3896630E-06  0.3067089E+04  0.7818609E-02  0.8224829E-01
       -1   -1    0    0    0  501  0.00000000000E+00  0.00000000000E+00  0.10516582797E+04  0.10516582798E+04  0.50400001928E-02 0.  1.
        1   -1    0    0  501    0  0.00000000000E+00  0.00000000000E+00 -0.22362382432E+04  0.22362382432E+04  0.50400001928E-02 0. -1.
    10030    2    1    2    0    0  0.00000000000E+00  0.00000000000E+00 -0.11845799634E+04  0.32878965230E+04  0.30670888243E+04 0.  0.
        5    1    3    3  502    0 -0.14533426197E+04  0.47639624219E+03 -0.47206313669E+03  0.16006323266E+04  0.46999998093E+01 0.  1.
       -5    1    3    3    0  502  0.14533426197E+04 -0.47639624219E+03 -0.71251682675E+03  0.16872641964E+04  0.46999998093E+01 0. -1.
</event>
<event>
 5   0  0.9647945E-06  0.2982423E+04  0.7818609E-02  0.8248768E-01
       -2   -1    0    0    0  501  0.00000000000E+00  0.00000000000E+00  0.23367267663E+04  0.23367267663E+04  0.25500000920E-02 0. -1.
        2   -1    0    0  501    0  0.00000000000E+00  0.00000000000E+00 -0.95163504981E+03  0.95163504981E+03  0.25500000920E-02 0.  1.
    10030    2    1    2    0    0  0.00000000000E+00  0.00000000000E+00  0.13850917165E+04  0.32883618161E+04  0.29824225674E+04 0.  0.
        2    1    3    3  502    0 -0.80299413733E+03 -0.73420661802E+03  0.18168821178E+04  0.21177628697E+04  0.25500000920E-02 0. -1.
       -2    1    3    3    0  502  0.80299413733E+03  0.73420661802E+03 -0.43179040131E+03  0.11705989464E+04  0.25500000920E-02 0.  1.
</event>
<event>
 5   0  0.9647945E-06  0.2172616E+04  0.7818609E-02  0.8529913E-01
        2   -1    0    0  501    0  0.00000000000E+00  0.00000000000E+00  0.15033431850E+04  0.15033431850E+04  0.25500000920E-02 0.  1.
       -2   -1    0    0    0  501  0.00000000000E+00  0.00000000000E+00 -0.78496028782E+03  0.78496028782E+03  0.25500000920E-02 0. -1.
    10030    2    1    2    0    0  0.00000000000E+00  0.00000000000E+00  0.71838289722E+03  0.22883034729E+04  0.21726156579E+04 0.  0.
        2    1    3    3  502    0 -0.81486685666E+03 -0.49824725223E+03  0.90424751136E+03  0.13152649468E+04  0.25500000920E-02 0.  1.
       -2    1    3    3    0  502  0.81486685666E+03  0.49824725223E+03 -0.18586461414E+03  0.97303852608E+03  0.25500000920E-02 0. -1.
</event>
<event>
 5   0  0.3636718E-06  0.3013308E+04  0.7818609E-02  0.8239941E-01
        1   -1    0    0  501    0  0.00000000000E+00  0.00000000000E+00  0.15158880983E+04  0.15158880983E+04  0.50400001928E-02 0.  1.
       -1   -1    0    0    0  501  0.00000000000E+00  0.00000000000E+00 -0.14974758069E+04  0.14974758069E+04  0.50400001928E-02 0. -1.
    10030    2    1    2    0    0  0.00000000000E+00  0.00000000000E+00  0.18412291334E+02  0.30133639052E+04  0.30133076532E+04 0.  0.
        4    1    3    3  502    0 -0.67878511030E+03 -0.11200396721E+04  0.75404623591E+03  0.15112330832E+04  0.12699999809E+01 0.  1.
       -4    1    3    3    0  502  0.67878511030E+03  0.11200396721E+04 -0.73563394457E+03  0.15021308220E+04  0.12699999809E+01 0. -1.
</event>
<event>
 5   0  0.3592331E-06  0.2981262E+04  0.7818609E-02  0.8249102E-01
       -1   -1    0    0    0  501  0.00000000000E+00  0.00000000000E+00  0.11891302957E+04  0.11891302957E+04  0.50400001928E-02 0. -1.
        1   -1    0    0  501    0  0.00000000000E+00  0.00000000000E+00 -0.18685769208E+04  0.18685769208E+04  0.50400001928E-02 0.  1.
    10030    2    1    2    0    0  0.00000000000E+00  0.00000000000E+00 -0.67944662513E+03  0.30577072165E+04  0.29812624349E+04 0.  0.
        3    1    3    3  502    0  0.49661494200E+03  0.55250754115E+03 -0.16651804388E+04  0.18233806206E+04  0.10100000352E+00 0.  1.
       -3    1    3    3    0  502 -0.49661494200E+03 -0.55250754115E+03  0.98573381371E+03  0.12343265959E+04  0.10100000352E+00 0. -1.
</event>
<event>
 5   0  0.3852126E-06  0.2089028E+04  0.7818609E-02  0.8566092E-01
       -1   -1    0    0    0  501  0.00000000000E+00  0.00000000000E+00  0.13443923788E+04  0.13443923788E+04  0.50400001928E-02 0. -1.
        1   -1    0    0  501    0  0.00000000000E+00  0.00000000000E+00 -0.81152641949E+03  0.81152641950E+03  0.50400001928E-02 0.  1.
    10030    2    1    2    0    0  0.00000000000E+00  0.00000000000E+00  0.53286595929E+03  0.21559187983E+04  0.20890284187E+04 0.  0.
        1    1    3    3  502    0  0.50157756860E+03  0.80607713008E+03 -0.18302266888E+03  0.96687005037E+03  0.50400001928E-02 0.  1.
       -1    1    3    3    0  502 -0.50157756860E+03 -0.80607713008E+03  0.71588862817E+03  0.11890487479E+04  0.50400001928E-02 0. -1.
</event>
<event>
 5   0  0.3896630E-06  0.2965797E+04  0.7818609E-02  0.8253566E-01
       -1   -1    0    0    0  501  0.00000000000E+00  0.00000000000E+00  0.12939925710E+04  0.12939925710E+04  0.50400001928E-02 0.  1.
        1   -1    0    0  501    0  0.00000000000E+00  0.00000000000E+00 -0.16993818597E+04  0.16993818597E+04  0.50400001928E-02 0. -1.
    10030    2    1    2    0    0  0.00000000000E+00  0.00000000000E+00 -0.40538928871E+03  0.29933744307E+04  0.29657966901E+04 0.  0.
        5    1    3    3  502    0 -0.44330099900E+03  0.97695538787E+03 -0.12359363490E+04  0.16366179622E+04  0.46999998093E+01 0. -1.
       -5    1    3    3    0  502  0.44330099900E+03 -0.97695538787E+03  0.83054706024E+03  0.13567564685E+04  0.46999998093E+01 0.  1.
</event>
<event>
 5   0  0.1029922E-05  0.2957924E+04  0.7818609E-02  0.8255849E-01
       -2   -1    0    0    0  501  0.00000000000E+00  0.00000000000E+00  0.10553221232E+04  0.10553221232E+04  0.25500000920E-02 0. -1.
        2   -1    0    0  501    0  0.00000000000E+00  0.00000000000E+00 -0.20726644141E+04  0.20726644141E+04  0.25500000920E-02 0.  1.
    10030    2    1    2    0    0  0.00000000000E+00  0.00000000000E+00 -0.10173422909E+04  0.31279865373E+04  0.29579240086E+04 0.  0.
        1    1    3    3  502    0 -0.94062061647E+03 -0.97815759690E+03 -0.11305001907E+04  0.17662361421E+04  0.50400001928E-02 0.  1.
       -1    1    3    3    0  502  0.94062061647E+03  0.97815759690E+03  0.11315789972E+03  0.13617503952E+04  0.50400001928E-02 0. -1.
</event>
<event>
 5   0  0.1028450E-05  0.2957072E+04  0.7818609E-02  0.8256097E-01
       -2   -1    0    0    0  501  0.00000000000E+00  0.00000000000E+00  0.10671228303E+04  0.10671228303E+04  0.25500000920E-02 0. -1.
        2   -1    0    0  501    0  0.00000000000E+00  0.00000000000E+00 -0.20485632383E+04  0.20485632383E+04  0.25500000920E-02 0.  1.
    10030    2    1    2    0    0  0.00000000000E+00  0.00000000000E+00 -0.98144040798E+03  0.31156860686E+04  0.29570719307E+04 0.  0.
        3    1    3    3  502    0 -0.50246695909E+03  0.43992246711E+03  0.89915045145E+03  0.11200340917E+04  0.10100000352E+00 0. -1.
       -3    1    3    3    0  502  0.50246695909E+03 -0.43992246711E+03 -0.18805908594E+04  0.19956519769E+04  0.10100000352E+00 0.  1.
</event>
<event>
 5   0  0.1029922E-05  0.2902462E+04  0.7818609E-02  0.8272145E-01
        2   -1    0    0  501    0  0.00000000000E+00  0.00000000000E+00  0.26372972999E+04  0.26372972999E+04  0.25500000920E-02 0. -1.
       -2   -1    0    0    0  501  0.00000000000E+00  0.00000000000E+00 -0.79857163017E+03  0.79857163018E+03  0.25500000920E-02 0.  1.
    10030    2    1    2    0    0  0.00000000000E+00  0.00000000000E+00  0.18387256697E+04  0.34358689300E+04  0.29024615787E+04 0.  0.
        1    1    3    3  502    0 -0.12686425965E+04  0.22032352276E+03  0.12696162144E+03  0.12938762482E+04  0.50400001928E-02 0.  1.
       -1    1    3    3    0  502  0.12686425965E+04 -0.22032352276E+03  0.17117640483E+04  0.21419926819E+04  0.50400001928E-02 0. -1.
</event>
<event>
 5   0  0.1028450E-05  0.2872050E+04  0.7818609E-02  0.8281242E-01
       -2   -1    0    0    0  501  0.00000000000E+00  0.00000000000E+00  0.12331240092E+04  0.12331240092E+04  0.25500000920E-02 0.  1.
        2   -1    0    0  501    0  0.00000000000E+00  0.00000000000E+00 -0.16723115013E+04  0.16723115013E+04  0.25500000920E-02 0. -1.
    10030    2    1    2    0    0  0.00000000000E+00  0.00000000000E+00 -0.43918749212E+03  0.29054355104E+04  0.28720497649E+04 0.  0.
        3    1    3    3  502    0  0.13606665177E+04  0.34140078269E+03  0.90893508146E+02  0.14057843031E+04  0.10100000352E+00 0.  1.
       -3    1    3    3    0  502 -0.13606665177E+04 -0.34140078269E+03 -0.53008100027E+03  0.14996512074E+04  0.10100000352E+00 0. -1.
</event>
<event>
 5   0  0.1089569E-05  0.3110943E+04  0.7818609E-02  0.8212741E-01
       -2   -1    0    0    0  501  0.00000000000E+00  0.00000000000E+00  0.13726414255E+04  0.13726414255E+04  0.25500000920E-02 0. -1.
        2   -1    0    0  501    0  0.00000000000E+00  0.00000000000E+00 -0.17626534433E+04  0.17626534433E+04  0.25500000920E-02 0.  1.
    10030    2    1    2    0    0  0.00000000000E+00  0.00000000000E+00 -0.39001201774E+03  0.31352948688E+04  0.31109427093E+04 0.  0.
        5    1    3    3  502    0  0.66165433721E+03 -0.10721564037E+04  0.72436464971E+03  0.14532831974E+04  0.46999998093E+01 0. -1.
       -5    1    3    3    0  502 -0.66165433721E+03  0.10721564037E+04 -0.11143766675E+04  0.16820116715E+04  0.46999998093E+01 0.  1.
</event>
<event>
 5   0  0.3725232E-06  0.3038321E+04  0.7818609E-02  0.8232872E-01
        1   -1    0    0  501    0  0.00000000000E+00  0.00000000000E+00  0.14746040286E+04  0.14746040286E+04  0.50400001928E-02 0.  1.
       -1   -1    0    0    0  501  0.00000000000E+00  0.00000000000E+00 -0.15650633811E+04  0.15650633811E+04  0.50400001928E-02 0. -1.
    10030    2    1    2    0    0  0.00000000000E+00  0.00000000000E+00 -0.90459352495E+02  0.30396674097E+04  0.30383210935E+04 0.  0.
        2    1    3    3  502    0 -0.82100854880E+03 -0.20742400233E+03  0.12165861195E+04  0.14822825440E+04  0.25500000920E-02 0.  1.
       -2    1    3    3    0  502  0.82100854880E+03  0.20742400233E+03 -0.13070454720E+04  0.15573848657E+04  0.25500000920E-02 0. -1.
</event>
<event>
 5   0  0.3592331E-06  0.2976568E+04  0.7818609E-02  0.8250454E-01
       -1   -1    0    0    0  501  0.00000000000E+00  0.00000000000E+00  0.11026017620E+04  0.11026017620E+04  0.50400001928E-02 0. -1.
        1   -1    0    0  501    0  0.00000000000E+00  0.00000000000E+00 -0.20088756382E+04  0.20088756382E+04  0.50400001928E-02 0.  1.
    10030    2    1    2    0    0  0.00000000000E+00  0.00000000000E+00 -0.90627387613E+03  0.31114774002E+04  0.29765683721E+04 0.  0.
        3    1    3    3  502    0 -0.70247300053E+03 -0.81382658132E+03 -0.15289612901E+04  0.18690919340E+04  0.10100000352E+00 0.  1.
       -3    1    3    3    0  502  0.70247300053E+03  0.81382658132E+03  0.62268741397E+03  0.12423854662E+04  0.10100000352E+00 0. -1.
</event>
<event>
 5   0  0.1029922E-05  0.2995038E+04  0.7818609E-02  0.8245149E-01
       -2   -1    0    0    0  501  0.00000000000E+00  0.00000000000E+00  0.95981966195E+03  0.95981966195E+03  0.25500000920E-02 0. -1.
        2   -1    0    0  501    0  0.00000000000E+00  0.00000000000E+00 -0.23364422188E+04  0.23364422188E+04  0.25500000920E-02 0.  1.
    10030    2    1    2    0    0  0.00000000000E+00  0.00000000000E+00 -0.13766225569E+04  0.32962618808E+04  0.29950380169E+04 0.  0.
        1    1    3    3  502    0 -0.99001668690E+03  0.14634080483E+03 -0.19143601961E+04  0.21601675009E+04  0.50400001928E-02 0.  1.
       -1    1    3    3    0  502  0.99001668690E+03 -0.14634080483E+03  0.53773763917E+03  0.11360943799E+04  0.50400001928E-02 0. -1.
</event>
<event>
 5   0  0.3592331E-06  0.3013456E+04  0.7818609E-02  0.8239899E-01
        1   -1    0    0  501    0  0.00000000000E+00  0.00000000000E+00  0.25598730604E+04  0.25598730604E+04  0.50400001928E-02 0. -1.
       -1   -1    0    0    0  501  0.00000000000E+00  0.00000000000E+00 -0.88685231411E+03  0.88685231413E+03  0.50400001928E-02 0.  1.
    10030    2    1    2    0    0  0.00000000000E+00  0.00000000000E+00  0.16730207463E+04  0.34467253746E+04  0.30134560541E+04 0.  0.
        3    1    3    3  502    0  0.25726054087E+03 -0.13623544969E+04  0.15112780379E+04  0.20508910452E+04  0.10100000352E+00 0. -1.
       -3    1    3    3    0  502 -0.25726054087E+03  0.13623544969E+04  0.16174270842E+03  0.13958343294E+04  0.10100000352E+00 0.  1.
</event>
<event>
 5   0  0.3725232E-06  0.2869169E+04  0.7818609E-02  0.8282110E-01
       -1   -1    0    0    0  501  0.00000000000E+00  0.00000000000E+00  0.68885819216E+03  0.68885819218E+03  0.50400001928E-02 0. -1.
        1   -1    0    0  501    0  0.00000000000E+00  0.00000000000E+00 -0.29876005531E+04  0.29876005531E+04  0.50400001928E-02 0.  1.
    10030    2    1    2    0    0  0.00000000000E+00  0.00000000000E+00 -0.22987423609E+04  0.36764587453E+04  0.28691692986E+04 0.  0.
        2    1    3    3  502    0  0.60761750722E+03 -0.34140737015E+03  0.45733989961E+03  0.83361730503E+03  0.25500000920E-02 0. -1.
       -2    1    3    3    0  502 -0.60761750722E+03  0.34140737015E+03 -0.27560822606E+04  0.28428414403E+04  0.25500000920E-02 0.  1.
</event>
<event>
 5   0  0.3636718E-06  0.3112707E+04  0.7818609E-02  0.8212259E-01
        1   -1    0    0  501    0  0.00000000000E+00  0.00000000000E+00  0.24893746991E+04  0.24893746991E+04  0.50400001928E-02 0. -1.
       -1   -1    0    0    0  501  0.00000000000E+00  0.00000000000E+00 -0.97303021711E+03  0.97303021713E+03  0.50400001928E-02 0.  1.
    10030    2    1    2    0    0  0.00000000000E+00  0.00000000000E+00  0.15163444820E+04  0.34624049163E+04  0.31127073772E+04 0.  0.
        4    1    3    3  502    0 -0.90607986340E+03 -0.12539150746E+04  0.94743918950E+03  0.18140910572E+04  0.12699999809E+01 0. -1.
       -4    1    3    3    0  502  0.90607986340E+03  0.12539150746E+04  0.56890529250E+03  0.16483138590E+04  0.12699999809E+01 0.  1.
</event>
<event>
 5   0  0.1057036E-05  0.2919933E+04  0.7818609E-02  0.8266971E-01
       -2   -1    0    0    0  501  0.00000000000E+00  0.00000000000E+00  0.17951557406E+04  0.17951557406E+04  0.25500000920E-02 0. -1.
        2   -1    0    0  501    0  0.00000000000E+00  0.00000000000E+00 -0.11873637683E+04  0.11873637683E+04  0.25500000920E-02 0.  1.
    10030    2    1    2    0    0  0.00000000000E+00  0.00000000000E+00  0.60779197224E+03  0.29825195089E+04  0.29199334820E+04 0.  0.
        4    1    3    3  502    0 -0.75928521006E+03  0.97586872362E+03 -0.48906023802E+03  0.13296673739E+04  0.12699999809E+01 0. -1.
       -4    1    3    3    0  502  0.75928521006E+03 -0.97586872362E+03  0.10968522103E+04  0.16528521350E+04  0.12699999809E+01 0.  1.
</event>
<event>
 5   0  0.3313750E-06  0.3102275E+04  0.7818609E-02  0.8215114E-01
       -3   -1    0    0    0  501  0.00000000000E+00  0.00000000000E+00  0.20074591634E+04  0.20074591659E+04  0.10100000352E+00 0.  1.
        3   -1    0    0  501    0  0.00000000000E+00  0.00000000000E+00 -0.11985440395E+04  0.11985440438E+04  0.10100000352E+00 0. -1.
    10030    2    1    2    0    0  0.00000000000E+00  0.00000000000E+00  0.80891512382E+03  0.32060032097E+04  0.31022754396E+04 0.  0.
        4    1    3    3  502    0  0.77948368000E+03 -0.56783669672E+03  0.16599837911E+04  0.19197867385E+04  0.12699999809E+01 0.  1.
       -4    1    3    3    0  502 -0.77948368000E+03  0.56783669672E+03 -0.85106866729E+03  0.12862164712E+04  0.12699999809E+01 0. -1.
</event>
<event>
 5   0  0.3896630E-06  0.2978180E+04  0.7818609E-02  0.8249989E-01
       -1   -1    0    0    0  501  0.00000000000E+00  0.00000000000E+00  0.21012717604E+04  0.21012717604E+04  0.50400001928E-02 0. -1.
        1   -1    0    0  501    0  0.00000000000E+00  0.00000000000E+00 -0.10552603048E+04  0.10552603048E+04  0.50400001928E-02 0.  1.
    10030    2    1    2    0    0  0.00000000000E+00  0.00000000000E+00  0.10460114556E+04  0.31565320653E+04  0.29781797652E+04 0.  0.
        5    1    3    3  502    0 -0.22326765466E+03  0.14476394093E+04  0.23888840324E+03  0.14841152462E+04  0.46999998093E+01 0. -1.
       -5    1    3    3    0  502  0.22326765466E+03 -0.14476394093E+04  0.80712305233E+03  0.16724168190E+04  0.46999998093E+01 0.  1.
</event>
<event>
 5   0  0.3896630E-06  0.2944163E+04  0.7818609E-02  0.8259858E-01
       -1   -1    0    0    0  501  0.00000000000E+00  0.00000000000E+00  0.20802673318E+04  0.20802673318E+04  0.50400001928E-02 0.  1.
        1   -1    0    0  501    0  0.00000000000E+00  0.00000000000E+00 -0.10417045408E+04  0.10417045408E+04  0.50400001928E-02 0. -1.
    10030    2    1    2    0    0  0.00000000000E+00  0.00000000000E+00  0.10385627910E+04  0.31219718727E+04  0.29441629885E+04 0.  0.
        5    1    3    3  502    0 -0.10150727919E+03  0.95796038003E+03  0.16996143867E+04  0.19536383931E+04  0.46999998093E+01 0.  1.
       -5    1    3    3    0  502  0.10150727919E+03 -0.95796038003E+03 -0.66105159569E+03  0.11683334796E+04  0.46999998093E+01 0. -1.
</event>
<event>
 5   0  0.1089569E-05  0.3096216E+04  0.7818609E-02  0.8216777E-01
        2   -1    0    0  501    0  0.00000000000E+00  0.00000000000E+00  0.10519461424E+04  0.10519461424E+04  0.25500000920E-02 0. -1.
       -2   -1    0    0    0  501  0.00000000000E+00  0.00000000000E+00 -0.22782892897E+04  0.22782892897E+04  0.25500000920E-02 0.  1.
    10030    2    1    2    0    0  0.00000000000E+00  0.00000000000E+00 -0.12263431473E+04  0.33302354320E+04  0.30962155154E+04 0.  0.
        5    1    3    3  502    0 -0.68048290260E+03  0.86978368498E+03 -0.17800844301E+04  0.20948277513E+04  0.46999998093E+01 0.  1.
       -5    1    3    3    0  502  0.68048290260E+03 -0.86978368498E+03  0.55374128280E+03  0.12354076808E+04  0.46999998093E+01 0. -1.
</event>
<event>
 5   0  0.1029922E-05  0.2681517E+04  0.7818609E-02  0.8341027E-01
       -2   -1    0    0    0  501  0.00000000000E+00  0.00000000000E+00  0.10271745676E+04  0.10271745676E+04  0.25500000920E-02 0.  1.
        2   -1    0    0  501    0  0.00000000000E+00  0.00000000000E+00 -0.17500759256E+04  0.17500759256E+04  0.25500000920E-02 0. -1.
    10030    2    1    2    0    0  0.00000000000E+00  0.00000000000E+00 -0.72290135800E+03  0.27772504933E+04  0.26815170947E+04 0.  0.
        1    1    3    3  502    0  0.87686666475E+03  0.70655143494E+03 -0.11151134499E+04  0.15847990674E+04  0.50400001928E-02 0. -1.
       -1    1    3    3    0  502 -0.87686666475E+03 -0.70655143494E+03  0.39221209191E+03  0.11924514259E+04  0.50400001928E-02 0.  1.
</event>
<event>
 5   0  0.3725232E-06  0.2903111E+04  0.7818609E-02  0.8271952E-01
        1   -1    0    0  501    0  0.00000000000E+00  0.00000000000E+00  0.14645459807E+04  0.14645459807E+04  0.50400001928E-02 0.  1.
       -1   -1    0    0    0  501  0.00000000000E+00  0.00000000000E+00 -0.14386807127E+04  0.14386807127E+04  0.50400001928E-02 0. -1.
    10030    2    1    2    0    0  0.00000000000E+00  0.00000000000E+00  0.25865267961E+02  0.29032266934E+04  0.29031114724E+04 0.  0.
        2    1    3    3  502    0 -0.40532453150E+03  0.11596979751E+04 -0.76029058145E+03  0.14447245888E+04  0.25500000920E-02 0. -1.
       -2    1    3    3    0  502  0.40532453150E+03 -0.11596979751E+04  0.78615584941E+03  0.14585021045E+04  0.25500000920E-02 0.  1.
</event>
<event>
 5   0  0.3725232E-06  0.2974586E+04  0.7818609E-02  0.8251025E-01
       -1   -1    0    0    0  501  0.00000000000E+00  0.00000000000E+00  0.10039212084E+04  0.10039212084E+04  0.50400001928E-02 0.  1.
        1   -1    0    0  501    0  0.00000000000E+00  0.00000000000E+00 -0.22034006715E+04  0.22034006715E+04  0.50400001928E-02 0. -1.
    10030    2    1    2    0    0  0.00000000000E+00  0.00000000000E+00 -0.11994794630E+04  0.32073218799E+04  0.29745861324E+04 0.  0.
        2    1    3    3  502    0  0.92725199030E+03  0.84979879718E+03  0.25614653207E+03  0.12835752004E+04  0.25500000920E-02 0.  1.
       -2    1    3    3    0  502 -0.92725199030E+03 -0.84979879718E+03 -0.14556259951E+04  0.19237466795E+04  0.25500000920E-02 0. -1.
</event>
<event>
 5   0  0.1029922E-05  0.3009558E+04  0.7818609E-02  0.8241007E-01
        2   -1    0    0  501    0  0.00000000000E+00  0.00000000000E+00  0.22987176468E+04  0.22987176468E+04  0.25500000920E-02 0. -1.
       -2   -1    0    0    0  501  0.00000000000E+00  0.00000000000E+00 -0.98505320017E+03  0.98505320017E+03  0.25500000920E-02 0.  1.
    10030    2    1    2    0    0  0.00000000000E+00  0.00000000000E+00  0.13136644466E+04  0.32837708470E+04  0.30095575584E+04 0.  0.
        1    1    3    3  502    0 -0.10383103442E+04  0.77336909172E+03  0.14936328793E+04  0.19766454667E+04  0.50400001928E-02 0. -1.
       -1    1    3    3    0  502  0.10383103442E+04 -0.77336909172E+03 -0.17996843273E+03  0.13071253802E+04  0.50400001928E-02 0.  1.
</event>
<event>
 5   0  0.1029922E-05  0.2856021E+04  0.7818609E-02  0.8286084E-01
       -2   -1    0    0    0  501  0.00000000000E+00  0.00000000000E+00  0.19225513518E+04  0.19225513518E+04  0.25500000920E-02 0.  1.
        2   -1    0    0  501    0  0.00000000000E+00  0.00000000000E+00 -0.10606812986E+04  0.10606812986E+04  0.25500000920E-02 0. -1.
    10030    2    1    2    0    0  0.00000000000E+00  0.00000000000E+00  0.86187005320E+03  0.29832326504E+04  0.28560211935E+04 0.  0.
        1    1    3    3  502    0  0.52101925012E+03 -0.12426632043E+04 -0.62925878439E+02  0.13489375688E+04  0.50400001928E-02 0.  1.
       -1    1    3    3    0  502 -0.52101925012E+03  0.12426632043E+04  0.92479593164E+03  0.16342950816E+04  0.50400001928E-02 0. -1.
</event>
<event>
 5   0  0.1028450E-05  0.3009759E+04  0.7818609E-02  0.8240950E-01
       -2   -1    0    0    0  501  0.00000000000E+00  0.00000000000E+00  0.11805909062E+04  0.11805909062E+04  0.25500000920E-02 0. -1.
        2   -1    0    0  501    0  0.00000000000E+00  0.00000000000E+00 -0.19182441786E+04  0.19182441786E+04  0.25500000920E-02 0.  1.
    10030    2    1    2    0    0  0.00000000000E+00  0.00000000000E+00 -0.73765327232E+03  0.30988350848E+04  0.30097585505E+04 0.  0.
        3    1    3    3  502    0 -0.19701252128E+03  0.13288645757E+04  0.32945395290E+03  0.13831973508E+04  0.10100000352E+00 0. -1.
       -3    1    3    3    0  502  0.19701252128E+03 -0.13288645757E+04 -0.10671072252E+04  0.17156377340E+04  0.10100000352E+00 0.  1.
</event>
<event>
 5   0  0.3636718E-06  0.2883933E+04  0.7818609E-02  0.8277674E-01
        1   -1    0    0  501    0  0.00000000000E+00  0.00000000000E+00  0.14289564989E+04  0.14289564989E+04  0.50400001928E-02 0. -1.
       -1   -1    0    0    0  501  0.00000000000E+00  0.00000000000E+00 -0.14550949618E+04  0.14550949619E+04  0.50400001928E-02 0.  1.
    10030    2    1    2    0    0  0.00000000000E+00  0.00000000000E+00 -0.26138462919E+02  0.28840514608E+04  0.28839330105E+04 0.  0.
        4    1    3    3  502    0 -0.51980839615E+03  0.53110960120E+03 -0.12488333874E+04  0.14532255914E+04  0.12699999809E+01 0.  1.
       -4    1    3    3    0  502  0.51980839615E+03 -0.53110960120E+03  0.12226949245E+04  0.14308258694E+04  0.12699999809E+01 0. -1.
</event>
<event>
 5   0  0.3636718E-06  0.3249344E+04  0.7818609E-02  0.8175906E-01
        1   -1    0    0  501    0  0.00000000000E+00  0.00000000000E+00  0.82505476845E+03  0.82505476847E+03  0.50400001928E-02 0.  1.
       -1   -1    0    0    0  501  0.00000000000E+00  0.00000000000E+00 -0.31992538304E+04  0.31992538304E+04  0.50400001928E-02 0. -1.
    10030    2    1    2    0    0  0.00000000000E+00  0.00000000000E+00 -0.23741990619E+04  0.40243085989E+04  0.32493443205E+04 0.  0.
        4    1    3    3  502    0  0.12429722378E+04  0.87422771013E+03 -0.18988904139E+04  0.24320856255E+04  0.12699999809E+01 0. -1.
       -4    1    3    3    0  502 -0.12429722378E+04 -0.87422771013E+03 -0.47530864801E+03  0.15922229733E+04  0.12699999809E+01 0.  1.
</event>
<event>
 5   0  0.3852126E-06  0.2990530E+04  0.7818609E-02  0.8246440E-01
        1   -1    0    0  501    0  0.00000000000E+00  0.00000000000E+00  0.20454522977E+04  0.20454522977E+04  0.50400001928E-02 0. -1.
       -1   -1    0    0    0  501  0.00000000000E+00  0.00000000000E+00 -0.10930677456E+04  0.10930677457E+04  0.50400001928E-02 0.  1.
    10030    2    1    2    0    0  0.00000000000E+00  0.00000000000E+00  0.95238455203E+03  0.31385200433E+04  0.29905303422E+04 0.  0.
        1    1    3    3  502    0  0.16316923576E+03  0.33148986604E+03 -0.10444070531E+04  0.11078338428E+04  0.50400001928E-02 0.  1.
       -1    1    3    3    0  502 -0.16316923576E+03 -0.33148986604E+03  0.19967916051E+04  0.20306862005E+04  0.50400001928E-02 0. -1.
</event>
<event>
 5   0  0.1089569E-05  0.3205437E+04  0.7818609E-02  0.8187383E-01
       -2   -1    0    0    0  501  0.00000000000E+00  0.00000000000E+00  0.10503037969E+04  0.10503037969E+04  0.25500000920E-02 0. -1.
        2   -1    0    0  501    0  0.00000000000E+00  0.00000000000E+00 -0.24456791766E+04  0.24456791766E+04  0.25500000920E-02 0.  1.
    10030    2    1    2    0    0  0.00000000000E+00  0.00000000000E+00 -0.13953753796E+04  0.34959829735E+04  0.32054367099E+04 0.  0.
        5    1    3    3  502    0 -0.12949282783E+03  0.81830930236E+03 -0.21940089761E+04  0.23452283436E+04  0.46999998093E+01 0.  1.
       -5    1    3    3    0  502  0.12949282783E+03 -0.81830930236E+03  0.79863359642E+03  0.11507546298E+04  0.46999998093E+01 0. -1.
</event>
<event>
 5   0  0.3592331E-06  0.2559150E+04  0.7818609E-02  0.8382211E-01
       -1   -1    0    0    0  501  0.00000000000E+00  0.00000000000E+00  0.12049824857E+04  0.12049824857E+04  0.50400001928E-02 0.  1.
        1   -1    0    0  501    0  0.00000000000E+00  0.00000000000E+00 -0.13587849308E+04  0.13587849308E+04  0.50400001928E-02 0. -1.
    10030    2    1    2    0    0  0.00000000000E+00  0.00000000000E+00 -0.15380244510E+03  0.25637674165E+04  0.25591498928E+04 0.  0.
        3    1    3    3  502    0  0.59516858394E+03  0.74926875241E+03  0.77415069612E+03  0.12308284272E+04  0.10100000352E+00 0.  1.
       -3    1    3    3    0  502 -0.59516858394E+03 -0.74926875241E+03 -0.92795314122E+03  0.13329389893E+04  0.10100000352E+00 0. -1.
</event>
<event>
 5   0  0.3725232E-06  0.2670966E+04  0.7818609E-02  0.8344487E-01
        1   -1    0    0  501    0  0.00000000000E+00  0.00000000000E+00  0.20115105024E+04  0.20115105024E+04  0.50400001928E-02 0.  1.
       -1   -1    0    0    0  501  0.00000000000E+00  0.00000000000E+00 -0.88665481311E+03  0.88665481313E+03  0.50400001928E-02 0. -1.
    10030    2    1    2    0    0  0.00000000000E+00  0.00000000000E+00  0.11248556893E+04  0.28981653155E+04  0.26709664682E+04 0.  0.
        2    1    3    3  502    0 -0.77408575863E+03 -0.35363417596E+02  0.17426326943E+04  0.19071518136E+04  0.25500000920E-02 0.  1.
       -2    1    3    3    0  502  0.77408575863E+03  0.35363417596E+02 -0.61777700500E+03  0.99101350190E+03  0.25500000920E-02 0. -1.
</event>
<event>
 5   0  0.1029922E-05  0.3005979E+04  0.7818609E-02  0.8242026E-01
       -2   -1    0    0    0  501  0.00000000000E+00  0.00000000000E+00  0.14736030772E+04  0.14736030772E+04  0.25500000920E-02 0.  1.
        2   -1    0    0  501    0  0.00000000000E+00  0.00000000000E+00 -0.15329614723E+04  0.15329614723E+04  0.25500000920E-02 0. -1.
    10030    2    1    2    0    0  0.00000000000E+00  0.00000000000E+00 -0.59358395092E+02  0.30065645495E+04  0.30059785381E+04 0.  0.
        1    1    3    3  502    0  0.13977095660E+03  0.60177183064E+03  0.13407380807E+04  0.14762262216E+04  0.50400001928E-02 0.  1.
       -1    1    3    3    0  502 -0.13977095660E+03 -0.60177183064E+03 -0.14000964758E+04  0.15303383279E+04  0.50400001928E-02 0. -1.
</event>
<event>
 5   0  0.1057036E-05  0.2910355E+04  0.7818609E-02  0.8269803E-01
        2   -1    0    0  501    0  0.00000000000E+00  0.00000000000E+00  0.33466569865E+04  0.33466569865E+04  0.25500000920E-02 0. -1.
       -2   -1    0    0    0  501  0.00000000000E+00  0.00000000000E+00 -0.63273354713E+03  0.63273354714E+03  0.25500000920E-02 0.  1.
    10030    2    1    2    0    0  0.00000000000E+00  0.00000000000E+00  0.27139234394E+04  0.39793905337E+04  0.29103554052E+04 0.  0.
        4    1    3    3  502    0  0.14417862002E+04  0.12536611576E+03  0.11492529737E+04  0.18480389932E+04  0.12699999809E+01 0. -1.
       -4    1    3    3    0  502 -0.14417862002E+04 -0.12536611576E+03  0.15646704657E+04  0.21313515405E+04  0.12699999809E+01 0.  1.
</event>
<event>
 5   0  0.1089569E-05  0.3018087E+04  0.7818609E-02  0.8238585E-01
        2   -1    0    0  501    0  0.00000000000E+00  0.00000000000E+00  0.13953120925E+04  0.13953120925E+04  0.25500000920E-02 0. -1.
       -2   -1    0    0    0  501  0.00000000000E+00  0.00000000000E+00 -0.16320450980E+04  0.16320450980E+04  0.25500000920E-02 0.  1.
    10030    2    1    2    0    0  0.00000000000E+00  0.00000000000E+00 -0.23673300548E+03  0.30273571905E+04  0.30180869840E+04 0.  0.
        5    1    3    3  502    0  0.63895895028E+03 -0.75874549281E+03 -0.12590608229E+04  0.16028785072E+04  0.46999998093E+01 0.  1.
       -5    1    3    3    0  502 -0.63895895028E+03  0.75874549281E+03  0.10223278174E+04  0.14244786833E+04  0.46999998093E+01 0. -1.
</event>
<event>
 5   0  0.3636718E-06  0.2937602E+04  0.7818609E-02  0.8261777E-01
       -1   -1    0    0    0  501  0.00000000000E+00  0.00000000000E+00  0.13677839088E+04  0.13677839088E+04  0.50400001928E-02 0.  1.
        1   -1    0    0  501    0  0.00000000000E+00  0.00000000000E+00 -0.15772783654E+04  0.15772783654E+04  0.50400001928E-02 0. -1.
    10030    2    1    2    0    0  0.00000000000E+00  0.00000000000E+00 -0.20949445659E+03  0.29450622743E+04  0.29376017211E+04 0.  0.
        4    1    3    3  502    0 -0.73176960494E+03  0.37749795384E+03  0.11146406264E+04  0.13857910372E+04  0.12699999809E+01 0.  1.
       -4    1    3    3    0  502  0.73176960494E+03 -0.37749795384E+03 -0.13241350830E+04  0.15592712371E+04  0.12699999809E+01 0. -1.
</event>
<event>
 5   0  0.1029922E-05  0.2969637E+04  0.7818609E-02  0.8252455E-01
        2   -1    0    0  501    0  0.00000000000E+00  0.00000000000E+00  0.11413375009E+04  0.11413375009E+04  0.25500000920E-02 0.  1.
       -2   -1    0    0    0  501  0.00000000000E+00  0.00000000000E+00 -0.19316687698E+04  0.19316687698E+04  0.25500000920E-02 0. -1.
    10030    2    1    2    0    0  0.00000000000E+00  0.00000000000E+00 -0.79033126886E+03  0.30730062707E+04  0.29696370191E+04 0.  0.
        1    1    3    3  502    0  0.82565137219E+03  0.10606973495E+04  0.25759031803E+03  0.13686240636E+04  0.50400001928E-02 0.  1.
       -1    1    3    3    0  502 -0.82565137219E+03 -0.10606973495E+04 -0.10479215869E+04  0.17043822071E+04  0.50400001928E-02 0. -1.
</event>
<event>
 5   0  0.3852126E-06  0.2670153E+04  0.7818609E-02  0.8344755E-01
       -1   -1    0    0    0  501  0.00000000000E+00  0.00000000000E+00  0.19647827698E+04  0.19647827698E+04  0.50400001928E-02 0.  1.
        1   -1    0    0  501    0  0.00000000000E+00  0.00000000000E+00 -0.90718875017E+03  0.90718875018E+03  0.50400001928E-02 0. -1.
    10030    2    1    2    0    0  0.00000000000E+00  0.00000000000E+00  0.10575940197E+04  0.28719715200E+04  0.26701526738E+04 0.  0.
        1    1    3    3  502    0 -0.89873849120E+03 -0.55459138445E+03  0.14073097840E+04  0.17594951854E+04  0.50400001928E-02 0.  1.
       -1    1    3    3    0  502  0.89873849120E+03  0.55459138445E+03 -0.34971576432E+03  0.11124763346E+04  0.50400001928E-02 0. -1.
</event>
<event>
 5   0  0.3636718E-06  0.2352809E+04  0.7818609E-02  0.8457386E-01
        1   -1    0    0  501    0  0.00000000000E+00  0.00000000000E+00  0.11779674751E+04  0.11779674751E+04  0.50400001928E-02 0. -1.
       -1   -1    0    0    0  501  0.00000000000E+00  0.00000000000E+00 -0.11748432308E+04  0.11748432309E+04  0.50400001928E-02 0.  1.
    10030    2    1    2    0    0  0.00000000000E+00  0.00000000000E+00  0.31242442711E+01  0.23528107060E+04  0.23528086317E+04 0.  0.
        4    1    3    3  502    0 -0.48894854861E+03  0.10273939304E+04  0.30042109807E+03  0.11768022011E+04  0.12699999809E+01 0. -1.
       -4    1    3    3    0  502  0.48894854861E+03 -0.10273939304E+04 -0.29729685380E+03  0.11760085049E+04  0.12699999809E+01 0.  1.
</event>
<event>
 5   0  0.3725232E-06  0.3043406E+04  0.7818609E-02  0.8231443E-01
        1   -1    0    0  501    0  0.00000000000E+00  0.00000000000E+00  0.24144612785E+04  0.24144612785E+04  0.50400001928E-02 0. -1.
       -1   -1    0    0    0  501  0.00000000000E+00  0.00000000000E+00 -0.95904651558E+03  0.95904651560E+03  0.50400001928E-02 0.  1.
    10030    2    1    2    0    0  0.00000000000E+00  0.00000000000E+00  0.14554147629E+04  0.33735077941E+04  0.30434064311E+04 0.  0.
        2    1    3    3  502    0 -0.66397581050E+03  0.73220045444E+03  0.20101769235E+04  0.22400430010E+04  0.25500000920E-02 0. -1.
       -2    1    3    3    0  502  0.66397581050E+03 -0.73220045444E+03 -0.55476216060E+03  0.11334647931E+04  0.25500000920E-02 0.  1.
</event>
<event>
 5   0  0.3852126E-06  0.3003484E+04  0.7818609E-02  0.8242737E-01
        1   -1    0    0  501    0  0.00000000000E+00  0.00000000000E+00  0.26008010974E+04  0.26008010974E+04  0.50400001928E-02 0.  1.
       -1   -1    0    0    0  501  0.00000000000E+00  0.00000000000E+00 -0.86712849402E+03  0.86712849403E+03  0.50400001928E-02 0. -1.
    10030    2    1    2    0    0  0.00000000000E+00  0.00000000000E+00  0.17336726033E+04  0.34679295914E+04  0.30034838031E+04 0.  0.
        1    1    3    3  502    0  0.28222108226E+03  0.24695045651E+03  0.25458669597E+04  0.25733386570E+04  0.50400001928E-02 0.  1.
       -1    1    3    3    0  502 -0.28222108226E+03 -0.24695045651E+03 -0.81219435638E+03  0.89459093434E+03  0.50400001928E-02 0. -1.
</event>
<event>
 5   0  0.3636718E-06  0.2919382E+04  0.7818609E-02  0.8267134E-01
       -1   -1    0    0    0  501  0.00000000000E+00  0.00000000000E+00  0.22497085491E+04  0.22497085491E+04  0.50400001928E-02 0.  1.
        1   -1    0    0  501    0  0.00000000000E+00  0.00000000000E+00 -0.94709952926E+03  0.94709952927E+03  0.50400001928E-02 0. -1.
    10030    2    1    2    0    0  0.00000000000E+00  0.00000000000E+00  0.13026090199E+04  0.31968080784E+04  0.29193820633E+04 0.  0.
        4    1    3    3  502    0 -0.36970252358E+03 -0.14113200007E+04  0.70257472883E+03  0.16192952056E+04  0.12699999809E+01 0.  1.
       -4    1    3    3    0  502  0.36970252358E+03  0.14113200007E+04  0.60003429103E+03  0.15775128728E+04  0.12699999809E+01 0. -1.
</event>
<event>
 5   0  0.1057036E-05  0.2965346E+04  0.7818609E-02  0.8253696E-01
       -2   -1    0    0    0  501  0.00000000000E+00  0.00000000000E+00  0.14476169959E+04  0.14476169959E+04  0.25500000920E-02 0.  1.
        2   -1    0    0  501    0  0.00000000000E+00  0.00000000000E+00 -0.15185781437E+04  0.15185781437E+04  0.25500000920E-02 0. -1.
    10030    2    1    2    0    0  0.00000000000E+00  0.00000000000E+00 -0.70961147752E+02  0.29661951396E+04  0.29653462060E+04 0.  0.
        4    1    3    3  502    0  0.12767757954E+04 -0.20333195488E+03  0.69054923598E+03  0.14657285478E+04  0.12699999809E+01 0.  1.
       -4    1    3    3    0  502 -0.12767757954E+04  0.20333195488E+03 -0.76151038373E+03  0.15004665918E+04  0.12699999809E+01 0. -1.
</event>
<event>
 5   0  0.9647945E-06  0.2976463E+04  0.7818609E-02  0.8250484E-01
        2   -1    0    0  501    0  0.00000000000E+00  0.00000000000E+00  0.17207820609E+04  0.17207820609E+04  0.25500000920E-02 0.  1.
       -2   -1    0    0    0  501  0.00000000000E+00  0.00000000000E+00 -0.12871080783E+04  0.12871080783E+04  0.25500000920E-02 0. -1.
    10030    2    1    2    0    0  0.00000000000E+00  0.00000000000E+00  0.43367398254E+03  0.30078901392E+04  0.29764626600E+04 0.  0.
        2    1    3    3  502    0 -0.95235437613E+02 -0.14812889185E+04  0.32542312069E+03  0.15196008871E+04  0.25500000920E-02 0.  1.
       -2    1    3    3    0  502  0.95235437613E+02  0.14812889185E+04  0.10825086185E+03  0.14882892521E+04  0.25500000920E-02 0. -1.
</event>
<event>
 5   0  0.3896630E-06  0.2979470E+04  0.7818609E-02  0.8249618E-01
       -1   -1    0    0    0  501  0.00000000000E+00  0.00000000000E+00  0.10190233807E+04  0.10190233807E+04  0.50400001928E-02 0.  1.
        1   -1    0    0  501    0  0.00000000000E+00  0.00000000000E+00 -0.21778797771E+04  0.21778797771E+04  0.50400001928E-02 0. -1.
    10030    2    1    2    0    0  0.00000000000E+00  0.00000000000E+00 -0.11588563964E+04  0.31969031579E+04  0.29794700289E+04 0.  0.
        5    1    3    3  502    0  0.43147929426E+03  0.12412744687E+04  0.17345594743E+03  0.13255360213E+04  0.46999998093E+01 0.  1.
       -5    1    3    3    0  502 -0.43147929426E+03 -0.12412744687E+04 -0.13323123439E+04  0.18713671365E+04  0.46999998093E+01 0. -1.
</event>
<event>
 5   0  0.9647945E-06  0.2039036E+04  0.7818609E-02  0.8588584E-01
       -2   -1    0    0    0  501  0.00000000000E+00  0.00000000000E+00  0.91813229187E+03  0.91813229187E+03  0.25500000920E-02 0.  1.
        2   -1    0    0  501    0  0.00000000000E+00  0.00000000000E+00 -0.11320995038E+04  0.11320995038E+04  0.25500000920E-02 0. -1.
    10030    2    1    2    0    0  0.00000000000E+00  0.00000000000E+00 -0.21396721195E+03  0.20502317957E+04  0.20390361567E+04 0.  0.
        2    1    3    3  502    0  0.38237611491E+03  0.94360708600E+03 -0.53670920666E+02  0.10195520554E+04  0.25500000920E-02 0.  1.
       -2    1    3    3    0  502 -0.38237611491E+03 -0.94360708600E+03 -0.16029629129E+03  0.10306797403E+04  0.25500000920E-02 0. -1.
</event>
<event>
 5   0  0.3313750E-06  0.2261424E+04  0.7818609E-02  0.8493288E-01
        3   -1    0    0  501    0  0.00000000000E+00  0.00000000000E+00  0.82132855313E+03  0.82132855934E+03  0.10100000352E+00 0.  1.
       -3   -1    0    0    0  501  0.00000000000E+00  0.00000000000E+00 -0.15566359332E+04  0.15566359365E+04  0.10100000352E+00 0. -1.
    10030    2    1    2    0    0  0.00000000000E+00  0.00000000000E+00 -0.73530738010E+03  0.23779644959E+04  0.22614239320E+04 0.  0.
        2    1    3    3  502    0 -0.21382441925E+02 -0.25935206879E+03 -0.15247182400E+04  0.15467664387E+04  0.25500000920E-02 0. -1.
       -2    1    3    3    0  502  0.21382441925E+02  0.25935206879E+03  0.78941085994E+03  0.83119805714E+03  0.25500000920E-02 0.  1.
</event>
<event>
 5   0  0.1029922E-05  0.3006260E+04  0.7818609E-02  0.8241946E-01
        2   -1    0    0  501    0  0.00000000000E+00  0.00000000000E+00  0.22482884397E+04  0.22482884397E+04  0.25500000920E-02 0.  1.
       -2   -1    0    0    0  501  0.00000000000E+00  0.00000000000E+00 -0.10049422027E+04  0.10049422027E+04  0.25500000920E-02 0. -1.
    10030    2    1    2    0    0  0.00000000000E+00  0.00000000000E+00  0.12433462370E+04  0.32532306424E+04  0.30062600931E+04 0.  0.
        1    1    3    3  502    0  0.81459648344E+02 -0.14997025959E+04  0.68710875738E+03  0.16516240477E+04  0.50400001928E-02 0.  1.
       -1    1    3    3    0  502 -0.81459648344E+02  0.14997025959E+04  0.55623747967E+03  0.16016065947E+04  0.50400001928E-02 0. -1.
</event>
<event>
 5   0  0.1057036E-05  0.2355682E+04  0.7818609E-02  0.8456284E-01
       -2   -1    0    0    0  501  0.00000000000E+00  0.00000000000E+00  0.11223537145E+04  0.11223537145E+04  0.25500000920E-02 0. -1.
        2   -1    0    0  501    0  0.00000000000E+00  0.00000000000E+00 -0.12360713587E+04  0.12360713587E+04  0.25500000920E-02 0.  1.
    10030    2    1    2    0    0  0.00000000000E+00  0.00000000000E+00 -0.11371764417E+03  0.23584250733E+04  0.23556818808E+04 0.  0.
        4    1    3    3  502    0  0.16137942582E+03  0.25831472925E+03  0.10822437127E+04  0.11242877234E+04  0.12699999809E+01 0. -1.
       -4    1    3    3    0  502 -0.16137942582E+03 -0.25831472925E+03 -0.11959613568E+04  0.12341373499E+04  0.12699999809E+01 0.  1.
</event>
<event>
 5   0  0.3896630E-06  0.2977590E+04  0.7818609E-02  0.8250159E-01
       -1   -1    0    0    0  501  0.00000000000E+00  0.00000000000E+00  0.23536761658E+04  0.23536761658E+04  0.50400001928E-02 0.  1.
        1   -1    0    0  501    0  0.00000000000E+00  0.00000000000E+00 -0.94172298437E+03  0.94172298439E+03  0.50400001928E-02 0. -1.
    10030    2    1    2    0    0  0.00000000000E+00  0.00000000000E+00  0.14119531814E+04  0.32953991501E+04  0.29775902627E+04 0.  0.
        5    1    3    3  502    0  0.10693978186E+04 -0.52370427023E+03  0.16950094772E+04  0.20714625449E+04  0.46999998093E+01 0. -1.
       -5    1    3    3    0  502 -0.10693978186E+04  0.52370427023E+03 -0.28305629585E+03  0.12239366052E+04  0.46999998093E+01 0.  1.
</event>
<event>
 5   0  0.1057036E-05  0.2977916E+04  0.7818609E-02  0.8250065E-01
       -2   -1    0    0    0  501  0.00000000000E+00  0.00000000000E+00  0.12582213938E+04  0.12582213938E+04  0.25500000920E-02 0. -1.
        2   -1    0    0  501    0  0.00000000000E+00  0.00000000000E+00 -0.17620075900E+04  0.17620075900E+04  0.25500000920E-02 0.  1.
    10030    2    1    2    0    0  0.00000000000E+00  0.00000000000E+00 -0.50378619620E+03  0.30202289838E+04  0.29779158119E+04 0.  0.
        4    1    3    3  502    0  0.75461931185E+03 -0.32531807065E+03 -0.15111926961E+04  0.17201706690E+04  0.12699999809E+01 0.  1.
       -4    1    3    3    0  502 -0.75461931185E+03  0.32531807065E+03  0.10074064999E+04  0.13000583148E+04  0.12699999809E+01 0. -1.
</event>
<event>
 5   0  0.1089569E-05  0.2425775E+04  0.7818609E-02  0.8429916E-01
       -2   -1    0    0    0  501  0.00000000000E+00  0.00000000000E+00  0.17506750059E+04  0.17506750059E+04  0.25500000920E-02 0.  1.
        2   -1    0    0  501    0  0.00000000000E+00  0.00000000000E+00 -0.84030246002E+03  0.84030246002E+03  0.25500000920E-02 0. -1.
    10030    2    1    2    0    0  0.00000000000E+00  0.00000000000E+00  0.91037254592E+03  0.25909774660E+04  0.24257753517E+04 0.  0.
        5    1    3    3  502    0  0.48712788275E+03 -0.99440299852E+03 -0.73436708953E+02  0.11097503944E+04  0.46999998093E+01 0. -1.
       -5    1    3    3    0  502 -0.48712788275E+03  0.99440299852E+03  0.98380925487E+03  0.14812270716E+04  0.46999998093E+01 0.  1.
</event>
<event>
 5   0  0.1029922E-05  0.2964662E+04  0.7818609E-02  0.8253895E-01
        2   -1    0    0  501    0  0.00000000000E+00  0.00000000000E+00  0.16309509723E+04  0.16309509723E+04  0.25500000920E-02 0. -1.
       -2   -1    0    0    0  501  0.00000000000E+00  0.00000000000E+00 -0.13472535820E+04  0.13472535820E+04  0.25500000920E-02 0.  1.
    10030    2    1    2    0    0  0.00000000000E+00  0.00000000000E+00  0.28369739031E+03  0.29782045543E+04  0.29646615588E+04 0.  0.
        1    1    3    3  502    0 -0.35232640807E+02  0.65790095252E+03 -0.11920837239E+04  0.13620347305E+04  0.50400001928E-02 0.  1.
       -1    1    3    3    0  502  0.35232640807E+02 -0.65790095252E+03  0.14757811142E+04  0.16161698238E+04  0.50400001928E-02 0. -1.
</event>
<event>
 5   0  0.3636718E-06  0.2591358E+04  0.7818609E-02  0.8371143E-01
       -1   -1    0    0    0  501  0.00000000000E+00  0.00000000000E+00  0.78418810916E+03  0.78418810917E+03  0.50400001928E-02 0. -1.
        1   -1    0    0  501    0  0.00000000000E+00  0.00000000000E+00 -0.21407922826E+04  0.21407922826E+04  0.50400001928E-02 0.  1.
    10030    2    1    2    0    0  0.00000000000E+00  0.00000000000E+00 -0.13566041734E+04  0.29249803918E+04  0.25913578311E+04 0.  0.
        4    1    3    3  502    0 -0.65371876705E+03  0.54634192065E+03  0.42356542946E+03  0.95144469444E+03  0.12699999809E+01 0. -1.
       -4    1    3    3    0  502  0.65371876705E+03 -0.54634192065E+03 -0.17801696029E+04  0.19735356973E+04  0.12699999809E+01 0.  1.
</event>
<event>
 5   0  0.1029922E-05  0.2960370E+04  0.7818609E-02  0.8255139E-01
        2   -1    0    0  501    0  0.00000000000E+00  0.00000000000E+00  0.10155409597E+04  0.10155409597E+04  0.25500000920E-02 0. -1.
       -2   -1    0    0    0  501  0.00000000000E+00  0.00000000000E+00 -0.21574193542E+04  0.21574193542E+04  0.25500000920E-02 0.  1.
    10030    2    1    2    0    0  0.00000000000E+00  0.00000000000E+00 -0.11418783945E+04  0.31729603139E+04  0.29603700589E+04 0.  0.
        1    1    3    3  502    0 -0.35885591865E+03  0.13936045271E+04 -0.94228235936E+03  0.17201183660E+04  0.50400001928E-02 0. -1.
       -1    1    3    3    0  502  0.35885591865E+03 -0.13936045271E+04 -0.19959603517E+03  0.14528419479E+04  0.50400001928E-02 0.  1.
</event>
<event>
 5   0  0.3636718E-06  0.3032049E+04  0.7818609E-02  0.8234638E-01
        1   -1    0    0  501    0  0.00000000000E+00  0.00000000000E+00  0.22542548082E+04  0.22542548082E+04  0.50400001928E-02 0. -1.
       -1   -1    0    0    0  501  0.00000000000E+00  0.00000000000E+00 -0.10195522382E+04  0.10195522382E+04  0.50400001928E-02 0.  1.
    10030    2    1    2    0    0  0.00000000000E+00  0.00000000000E+00  0.12347025700E+04  0.32738070464E+04  0.30320491653E+04 0.  0.
        4    1    3    3  502    0 -0.98166672139E+02  0.74053544097E+03 -0.80703845277E+03  0.10997009193E+04  0.12699999809E+01 0.  1.
       -4    1    3    3    0  502  0.98166672139E+02 -0.74053544097E+03  0.20417410228E+04  0.21741061271E+04  0.12699999809E+01 0. -1.
</event>
<event>
 5   0  0.1028450E-05  0.2926147E+04  0.7818609E-02  0.8265140E-01
        2   -1    0    0  501    0  0.00000000000E+00  0.00000000000E+00  0.17484434272E+04  0.17484434272E+04  0.25500000920E-02 0.  1.
       -2   -1    0    0    0  501  0.00000000000E+00  0.00000000000E+00 -0.12242796477E+04  0.12242796477E+04  0.25500000920E-02 0. -1.
    10030    2    1    2    0    0  0.00000000000E+00  0.00000000000E+00  0.52416377958E+03  0.29727230749E+04  0.29261467516E+04 0.  0.
        3    1    3    3  502    0 -0.75868436563E+02 -0.33223986592E+01 -0.12222760517E+04  0.12246329306E+04  0.10100000352E+00 0. -1.
       -3    1    3    3    0  502  0.75868436563E+02  0.33223986592E+01  0.17464398313E+04  0.17480901443E+04  0.10100000352E+00 0.  1.
</event>
<event>
 5   0  0.3636718E-06  0.3105583E+04  0.7818609E-02  0.8214207E-01
        1   -1    0    0  501    0  0.00000000000E+00  0.00000000000E+00  0.27660498765E+04  0.27660498766E+04  0.50400001928E-02 0.  1.
       -1   -1    0    0    0  501  0.00000000000E+00  0.00000000000E+00 -0.87169825904E+03  0.87169825905E+03  0.50400001928E-02 0. -1.
    10030    2    1    2    0    0  0.00000000000E+00  0.00000000000E+00  0.18943516175E+04  0.36377481356E+04  0.31055826261E+04 0.  0.
        4    1    3    3  502    0 -0.36453437154E+03 -0.14686533035E+04  0.13551908464E+04  0.20313472566E+04  0.12699999809E+01 0. -1.
       -4    1    3    3    0  502  0.36453437154E+03  0.14686533035E+04  0.53916077110E+03  0.16064008790E+04  0.12699999809E+01 0.  1.
</event>
<event>
 5   0  0.3852126E-06  0.2998529E+04  0.7818609E-02  0.8244151E-01
        1   -1    0    0  501    0  0.00000000000E+00  0.00000000000E+00  0.76348519497E+03  0.76348519499E+03  0.50400001928E-02 0.  1.
       -1   -1    0    0    0  501  0.00000000000E+00  0.00000000000E+00 -0.29441227102E+04  0.29441227102E+04  0.50400001928E-02 0. -1.
    10030    2    1    2    0    0  0.00000000000E+00  0.00000000000E+00 -0.21806375152E+04  0.37076079052E+04  0.29985290403E+04 0.  0.
        1    1    3    3  502    0  0.52750107757E+03  0.60562170524E+03 -0.26556983262E+04  0.27744852922E+04  0.50400001928E-02 0. -1.
       -1    1    3    3    0  502 -0.52750107757E+03 -0.60562170524E+03  0.47506081100E+03  0.93312261299E+03  0.50400001928E-02 0.  1.
</event>
<event>
 5   0  0.1029922E-05  0.2874791E+04  0.7818609E-02  0.8280418E-01
       -2   -1    0    0    0  501  0.00000000000E+00  0.00000000000E+00  0.15100738651E+04  0.15100738651E+04  0.25500000920E-02 0.  1.
        2   -1    0    0  501    0  0.00000000000E+00  0.00000000000E+00 -0.13682150929E+04  0.13682150930E+04  0.25500000920E-02 0. -1.
    10030    2    1    2    0    0  0.00000000000E+00  0.00000000000E+00  0.14185877213E+03  0.28782889580E+04  0.28747910210E+04 0.  0.
        1    1    3    3  502    0 -0.18662914132E+03  0.10977775698E+04 -0.83910991405E+03  0.13942924646E+04  0.50400001928E-02 0.  1.
       -1    1    3    3    0  502  0.18662914132E+03 -0.10977775698E+04  0.98096868618E+03  0.14839964934E+04  0.50400001928E-02 0. -1.
</event>
<event>
 5   0  0.1057036E-05  0.2972247E+04  0.7818609E-02  0.8251701E-01
       -2   -1    0    0    0  501  0.00000000000E+00  0.00000000000E+00  0.22789672011E+04  0.22789672011E+04  0.25500000920E-02 0.  1.
        2   -1    0    0  501    0  0.00000000000E+00  0.00000000000E+00 -0.96910691950E+03  0.96910691950E+03  0.25500000920E-02 0. -1.
    10030    2    1    2    0    0  0.00000000000E+00  0.00000000000E+00  0.13098602816E+04  0.32480741206E+04  0.29722468834E+04 0.  0.
        4    1    3    3  502    0  0.65333205181E+03 -0.72088981884E+03 -0.57272669480E+03  0.11289563236E+04  0.12699999809E+01 0. -1.
       -4    1    3    3    0  502 -0.65333205181E+03  0.72088981884E+03  0.18825869764E+04  0.21191177970E+04  0.12699999809E+01 0.  1.
</event>
<event>
 5   0  0.3313750E-06  0.2996694E+04  0.7818609E-02  0.8244675E-01
        3   -1    0    0  501    0  0.00000000000E+00  0.00000000000E+00  0.12609358741E+04  0.12609358782E+04  0.10100000352E+00 0. -1.
       -3   -1    0    0    0  501  0.00000000000E+00  0.00000000000E+00 -0.17804585329E+04  0.17804585357E+04  0.10100000352E+00 0.  1.
    10030    2    1    2    0    0  0.00000000000E+00  0.00000000000E+00 -0.51952265874E+03  0.30413944139E+04  0.29966942100E+04 0.  0.
        4    1    3    3  502    0  0.24531405592E+03  0.30410328441E+03  0.12083232500E+04  0.12699230224E+04  0.12699999809E+01 0. -1.
       -4    1    3    3    0  502 -0.24531405592E+03 -0.30410328441E+03 -0.17278459087E+04  0.17714713915E+04  0.12699999809E+01 0.  1.
</event>
<event>
 5   0  0.1029922E-05  0.2261498E+04  0.7818609E-02  0.8493259E-01
       -2   -1    0    0    0  501  0.00000000000E+00  0.00000000000E+00  0.16767822931E+04  0.16767822931E+04  0.25500000920E-02 0.  1.
        2   -1    0    0  501    0  0.00000000000E+00  0.00000000000E+00 -0.76252766428E+03  0.76252766429E+03  0.25500000920E-02 0. -1.
    10030    2    1    2    0    0  0.00000000000E+00  0.00000000000E+00  0.91425462878E+03  0.24393099573E+04  0.22614976325E+04 0.  0.
        1    1    3    3  502    0  0.27870641763E+03 -0.28152500694E+03 -0.68522832437E+03  0.79149949671E+03  0.50400001928E-02 0. -1.
       -1    1    3    3    0  502 -0.27870641763E+03  0.28152500694E+03  0.15994829531E+04  0.16478104606E+04  0.50400001928E-02 0.  1.
</event>
<event>
 5   0  0.1028450E-05  0.2120395E+04  0.7818609E-02  0.8552312E-01
        2   -1    0    0  501    0  0.00000000000E+00  0.00000000000E+00  0.31100113949E+04  0.31100113949E+04  0.25500000920E-02 0. -1.
       -2   -1    0    0    0  501  0.00000000000E+00  0.00000000000E+00 -0.36141947296E+03  0.36141947297E+03  0.25500000920E-02 0.  1.
    10030    2    1    2    0    0  0.00000000000E+00  0.00000000000E+00  0.27485919219E+04  0.34714308679E+04  0.21203949436E+04 0.  0.
        3    1    3    3  502    0  0.99399388108E+03  0.26102222934E+03  0.18007829846E+04  0.20733971660E+04  0.10100000352E+00 0. -1.
       -3    1    3    3    0  502 -0.99399388108E+03 -0.26102222934E+03  0.94780893731E+03  0.13980337019E+04  0.10100000352E+00 0.  1.
</event>
<event>
 5   0  0.3852126E-06  0.2996976E+04  0.7818609E-02  0.8244595E-01
       -1   -1    0    0    0  501  0.00000000000E+00  0.00000000000E+00  0.12234277840E+04  0.12234277840E+04  0.50400001928E-02 0. -1.
        1   -1    0    0  501    0  0.00000000000E+00  0.00000000000E+00 -0.18353897938E+04  0.18353897938E+04  0.50400001928E-02 0.  1.
    10030    2    1    2    0    0  0.00000000000E+00  0.00000000000E+00 -0.61196200984E+03  0.30588175778E+04  0.29969763885E+04 0.  0.
        1    1    3    3  502    0  0.79314770711E+03  0.71599201498E+03  0.76628726189E+03  0.13148855534E+04  0.50400001928E-02 0. -1.
       -1    1    3    3    0  502 -0.79314770711E+03 -0.71599201498E+03 -0.13782492717E+04  0.17439320244E+04  0.50400001928E-02 0.  1.
</event>
<event>
 5   0  0.3852126E-06  0.2999658E+04  0.7818609E-02  0.8243829E-01
        1   -1    0    0  501    0  0.00000000000E+00  0.00000000000E+00  0.24068761441E+04  0.24068761441E+04  0.50400001928E-02 0.  1.
       -1   -1    0    0    0  501  0.00000000000E+00  0.00000000000E+00 -0.93460825280E+03  0.93460825282E+03  0.50400001928E-02 0. -1.
    10030    2    1    2    0    0  0.00000000000E+00  0.00000000000E+00  0.14722678913E+04  0.33414843969E+04  0.29996575190E+04 0.  0.
        1    1    3    3  502    0 -0.99925169206E+03  0.11062180311E+04  0.55219961331E+03  0.15897001886E+04  0.50400001928E-02 0. -1.
       -1    1    3    3    0  502  0.99925169206E+03 -0.11062180311E+04  0.92006827800E+03  0.17517842084E+04  0.50400001928E-02 0.  1.
</event>
<event>
 5   0  0.3592331E-06  0.2985932E+04  0.7818609E-02  0.8247760E-01
        1   -1    0    0  501    0  0.00000000000E+00  0.00000000000E+00  0.14699923206E+04  0.14699923206E+04  0.50400001928E-02 0. -1.
       -1   -1    0    0    0  501  0.00000000000E+00  0.00000000000E+00 -0.15162983958E+04  0.15162983958E+04  0.50400001928E-02 0.  1.
    10030    2    1    2    0    0  0.00000000000E+00  0.00000000000E+00 -0.46306075183E+02  0.29862907164E+04  0.29859316788E+04 0.  0.
        3    1    3    3  502    0 -0.14594027169E+04  0.29830906764E+03  0.77369731951E+02  0.14915866302E+04  0.10100000352E+00 0.  1.
       -3    1    3    3    0  502  0.14594027169E+04 -0.29830906764E+03 -0.12367580713E+03  0.14947040862E+04  0.10100000352E+00 0. -1.
</event>
<event>
 5   0  0.3896630E-06  0.3043799E+04  0.7818609E-02  0.8231333E-01
       -1   -1    0    0    0  501  0.00000000000E+00  0.00000000000E+00  0.13687351363E+04  0.13687351363E+04  0.50400001928E-02 0. -1.
        1   -1    0    0  501    0  0.00000000000E+00  0.00000000000E+00 -0.16922037650E+04  0.16922037650E+04  0.50400001928E-02 0.  1.
    10030    2    1    2    0    0  0.00000000000E+00  0.00000000000E+00 -0.32346862865E+03  0.30609389013E+04  0.30437994355E+04 0.  0.
        5    1    3    3  502    0 -0.10503522758E+04 -0.53246667003E+03  0.80774607555E+03  0.14280183720E+04  0.46999998093E+01 0. -1.
       -5    1    3    3    0  502  0.10503522758E+04  0.53246667003E+03 -0.11312147042E+04  0.16329205293E+04  0.46999998093E+01 0.  1.
</event>
<event>
 5   0  0.3896630E-06  0.2974413E+04  0.7818609E-02  0.8251075E-01
        1   -1    0    0  501    0  0.00000000000E+00  0.00000000000E+00  0.11643242487E+04  0.11643242487E+04  0.50400001928E-02 0. -1.
       -1   -1    0    0    0  501  0.00000000000E+00  0.00000000000E+00 -0.18996287329E+04  0.18996287329E+04  0.50400001928E-02 0.  1.
    10030    2    1    2    0    0  0.00000000000E+00  0.00000000000E+00 -0.73530448418E+03  0.30639529815E+04  0.29744134193E+04 0.  0.
        5    1    3    3  502    0 -0.14094889189E+04 -0.47264468141E+03 -0.41024548378E+03  0.15421982539E+04  0.46999998093E+01 0. -1.
       -5    1    3    3    0  502  0.14094889189E+04  0.47264468141E+03 -0.32505900040E+03  0.15217547276E+04  0.46999998093E+01 0.  1.
</event>
<event>
 5   0  0.1057036E-05  0.2945470E+04  0.7818609E-02  0.8259476E-01
       -2   -1    0    0    0  501  0.00000000000E+00  0.00000000000E+00  0.13955229140E+04  0.13955229140E+04  0.25500000920E-02 0. -1.
        2   -1    0    0  501    0  0.00000000000E+00  0.00000000000E+00 -0.15542196220E+04  0.15542196220E+04  0.25500000920E-02 0.  1.
    10030    2    1    2    0    0  0.00000000000E+00  0.00000000000E+00 -0.15869670795E+03  0.29497425360E+04  0.29454704860E+04 0.  0.
        4    1    3    3  502    0  0.37390370311E+03 -0.19333899773E+03  0.13339970927E+04  0.13988330149E+04  0.12699999809E+01 0. -1.
       -4    1    3    3    0  502 -0.37390370311E+03  0.19333899773E+03 -0.14926938007E+04  0.15509095211E+04  0.12699999809E+01 0.  1.
</event>
<event>
 5   0  0.1029922E-05  0.1879426E+04  0.7818609E-02  0.8665166E-01
       -2   -1    0    0    0  501  0.00000000000E+00  0.00000000000E+00  0.12325568576E+04  0.12325568576E+04  0.25500000920E-02 0. -1.
        2   -1    0    0  501    0  0.00000000000E+00  0.00000000000E+00 -0.71644627701E+03  0.71644627702E+03  0.25500000920E-02 0.  1.
    10030    2    1    2    0    0  0.00000000000E+00  0.00000000000E+00  0.51611058054E+03  0.19490031346E+04  0.18794262654E+04 0.  0.
        1    1    3    3  502    0  0.85186451559E+03 -0.35878448493E+03  0.82491365589E+02  0.92801092934E+03  0.50400001928E-02 0.  1.
       -1    1    3    3    0  502 -0.85186451559E+03  0.35878448493E+03  0.43361921495E+03  0.10209922052E+04  0.50400001928E-02 0. -1.
</event>
<event>
 5   0  0.3636718E-06  0.2818524E+04  0.7818609E-02  0.8297540E-01
        1   -1    0    0  501    0  0.00000000000E+00  0.00000000000E+00  0.27541861852E+04  0.27541861852E+04  0.50400001928E-02 0. -1.
       -1   -1    0    0    0  501  0.00000000000E+00  0.00000000000E+00 -0.72109116060E+03  0.72109116062E+03  0.50400001928E-02 0.  1.
    10030    2    1    2    0    0  0.00000000000E+00  0.00000000000E+00  0.20330950246E+04  0.34752773458E+04  0.28185239491E+04 0.  0.
        4    1    3    3  502    0  0.13576111509E+03 -0.14810194203E+03  0.27364363222E+04  0.27438022202E+04  0.12699999809E+01 0. -1.
       -4    1    3    3    0  502 -0.13576111509E+03  0.14810194203E+03 -0.70334129756E+03  0.73147512560E+03  0.12699999809E+01 0.  1.
</event>
<event>
 5   0  0.1089569E-05  0.3010997E+04  0.7818609E-02  0.8240598E-01
       -2   -1    0    0    0  501  0.00000000000E+00  0.00000000000E+00  0.11727180197E+04  0.11727180197E+04  0.25500000920E-02 0. -1.
        2   -1    0    0  501    0  0.00000000000E+00  0.00000000000E+00 -0.19327115945E+04  0.19327115945E+04  0.25500000920E-02 0.  1.
    10030    2    1    2    0    0  0.00000000000E+00  0.00000000000E+00 -0.75999357479E+03  0.31054296142E+04  0.30109969869E+04 0.  0.
        5    1    3    3  502    0  0.95639496558E+03 -0.53070298139E+02 -0.15778860554E+04  0.18458749363E+04  0.46999998093E+01 0.  1.
       -5    1    3    3    0  502 -0.95639496558E+03  0.53070298139E+02  0.81789248059E+03  0.12595546779E+04  0.46999998093E+01 0. -1.
</event>
<event>
 5   0  0.3725232E-06  0.2282413E+04  0.7818609E-02  0.8484888E-01
       -1   -1    0    0    0  501  0.00000000000E+00  0.00000000000E+00  0.11054810560E+04  0.11054810560E+04  0.50400001928E-02 0. -1.
        1   -1    0    0  501    0  0.00000000000E+00  0.00000000000E+00 -0.11780865108E+04  0.11780865108E+04  0.50400001928E-02 0.  1.
    10030    2    1    2    0    0  0.00000000000E+00  0.00000000000E+00 -0.72605454793E+02  0.22835675669E+04  0.22824130390E+04 0.  0.
        2    1    3    3  502    0  0.30272480489E+03  0.11003198427E+04 -0.33800197249E+02  0.11417042161E+04  0.25500000920E-02 0. -1.
       -2    1    3    3    0  502 -0.30272480489E+03 -0.11003198427E+04 -0.38805257544E+02  0.11418633508E+04  0.25500000920E-02 0.  1.
</event>
<event>
 5   0  0.9647945E-06  0.2974410E+04  0.7818609E-02  0.8251076E-01
       -2   -1    0    0    0  501  0.00000000000E+00  0.00000000000E+00  0.91448341293E+03  0.91448341293E+03  0.25500000920E-02 0.  1.
        2   -1    0    0  501    0  0.00000000000E+00  0.00000000000E+00 -0.24186091982E+04  0.24186091982E+04  0.25500000920E-02 0. -1.
    10030    2    1    2    0    0  0.00000000000E+00  0.00000000000E+00 -0.15041257853E+04  0.33330926112E+04  0.29744095173E+04 0.  0.
        2    1    3    3  502    0 -0.13080137822E+04 -0.37033568756E+03 -0.14278903509E+04  0.19715271822E+04  0.25500000920E-02 0.  1.
       -2    1    3    3    0  502  0.13080137822E+04  0.37033568756E+03 -0.76235434401E+02  0.13615654290E+04  0.25500000920E-02 0. -1.
</event>
<event>
 5   0  0.1028450E-05  0.3012737E+04  0.7818609E-02  0.8240103E-01
        2   -1    0    0  501    0  0.00000000000E+00  0.00000000000E+00  0.20852301908E+04  0.20852301908E+04  0.25500000920E-02 0. -1.
       -2   -1    0    0    0  501  0.00000000000E+00  0.00000000000E+00 -0.10881995733E+04  0.10881995733E+04  0.25500000920E-02 0.  1.
    10030    2    1    2    0    0  0.00000000000E+00  0.00000000000E+00  0.99703061751E+03  0.31734297641E+04  0.30127373625E+04 0.  0.
        3    1    3    3  502    0  0.13787674836E+04  0.37103889144E+03 -0.71712109965E+01  0.14278379002E+04  0.10100000352E+00 0.  1.
       -3    1    3    3    0  502 -0.13787674836E+04 -0.37103889144E+03  0.10042018285E+04  0.17455918639E+04  0.10100000352E+00 0. -1.
</event>
<event>
 5   0  0.1029922E-05  0.3015384E+04  0.7818609E-02  0.8239352E-01
       -2   -1    0    0    0  501  0.00000000000E+00  0.00000000000E+00  0.10684353239E+04  0.10684353239E+04  0.25500000920E-02 0. -1.
        2   -1    0    0  501    0  0.00000000000E+00  0.00000000000E+00 -0.21275362970E+04  0.21275362970E+04  0.25500000920E-02 0.  1.
    10030    2    1    2    0    0  0.00000000000E+00  0.00000000000E+00 -0.10591009732E+04  0.31959716209E+04  0.30153838446E+04 0.  0.
        1    1    3    3  502    0  0.12485801053E+04  0.43304867077E+03 -0.12987198437E+04  0.18528779407E+04  0.50400001928E-02 0.  1.
       -1    1    3    3    0  502 -0.12485801053E+04 -0.43304867077E+03  0.23961887055E+03  0.13430936802E+04  0.50400001928E-02 0. -1.
</event>
<event>
 5   0  0.1057036E-05  0.3008697E+04  0.7818609E-02  0.8241252E-01
       -2   -1    0    0    0  501  0.00000000000E+00  0.00000000000E+00  0.84995775681E+03  0.84995775682E+03  0.25500000920E-02 0.  1.
        2   -1    0    0  501    0  0.00000000000E+00  0.00000000000E+00 -0.26625613041E+04  0.26625613041E+04  0.25500000920E-02 0. -1.
    10030    2    1    2    0    0  0.00000000000E+00  0.00000000000E+00 -0.18126035473E+04  0.35125190609E+04  0.30086971489E+04 0.  0.
        4    1    3    3  502    0 -0.12245358827E+04 -0.42289449437E+03 -0.17990311208E+04  0.22169443989E+04  0.12699999809E+01 0. -1.
       -4    1    3    3    0  502  0.12245358827E+04  0.42289449437E+03 -0.13572426533E+02  0.12955746621E+04  0.12699999809E+01 0.  1.
</event>
<event>
 5   0  0.3896630E-06  0.2345602E+04  0.7818609E-02  0.8460155E-01
        1   -1    0    0  501    0  0.00000000000E+00  0.00000000000E+00  0.13873761284E+04  0.13873761284E+04  0.50400001928E-02 0.  1.
       -1   -1    0    0    0  501  0.00000000000E+00  0.00000000000E+00 -0.99141227591E+03  0.99141227593E+03  0.50400001928E-02 0. -1.
    10030    2    1    2    0    0  0.00000000000E+00  0.00000000000E+00  0.39596385250E+03  0.23787884043E+04  0.23456016073E+04 0.  0.
        5    1    3    3  502    0  0.63098313022E+03  0.65347778138E+03 -0.55431308793E+03  0.10641701043E+04  0.46999998093E+01 0. -1.
       -5    1    3    3    0  502 -0.63098313022E+03 -0.65347778138E+03  0.95027694042E+03  0.13146183001E+04  0.46999998093E+01 0.  1.
</event>
<event>
 5   0  0.3636718E-06  0.2912546E+04  0.7818609E-02  0.8269155E-01
        1   -1    0    0  501    0  0.00000000000E+00  0.00000000000E+00  0.26494364511E+04  0.26494364511E+04  0.50400001928E-02 0.  1.
       -1   -1    0    0    0  501  0.00000000000E+00  0.00000000000E+00 -0.80044583674E+03  0.80044583676E+03  0.50400001928E-02 0. -1.
    10030    2    1    2    0    0  0.00000000000E+00  0.00000000000E+00  0.18489906143E+04  0.34498822878E+04  0.29125455375E+04 0.  0.
        4    1    3    3  502    0 -0.13215457726E+03 -0.14129796804E+04  0.13115036113E+04  0.19323611839E+04  0.12699999809E+01 0. -1.
       -4    1    3    3    0  502  0.13215457726E+03  0.14129796804E+04  0.53748700299E+03  0.15175211039E+04  0.12699999809E+01 0.  1.
</event>
<event>
 5   0  0.3313750E-06  0.3008480E+04  0.7818609E-02  0.8241314E-01
       -3   -1    0    0    0  501  0.00000000000E+00  0.00000000000E+00  0.65176742695E+03  0.65176743477E+03  0.10100000352E+00 0. -1.
        3   -1    0    0  501    0  0.00000000000E+00  0.00000000000E+00 -0.34716945219E+04  0.34716945234E+04  0.10100000352E+00 0.  1.
    10030    2    1    2    0    0  0.00000000000E+00  0.00000000000E+00 -0.28199270950E+04  0.41234619582E+04  0.30084796325E+04 0.  0.
        1    1    3    3  502    0  0.47195541882E+03 -0.67753932624E+03 -0.31333078664E+04  0.32402807967E+04  0.50400001928E-02 0.  1.
       -1    1    3    3    0  502 -0.47195541882E+03  0.67753932624E+03  0.31338077144E+03  0.88318116142E+03  0.50400001928E-02 0. -1.
</event>
<event>
 5   0  0.1028450E-05  0.2405855E+04  0.7818609E-02  0.8437315E-01
        2   -1    0    0  501    0  0.00000000000E+00  0.00000000000E+00  0.11710960802E+04  0.11710960802E+04  0.25500000920E-02 0. -1.
       -2   -1    0    0    0  501  0.00000000000E+00  0.00000000000E+00 -0.12356240316E+04  0.12356240316E+04  0.25500000920E-02 0.  1.
    10030    2    1    2    0    0  0.00000000000E+00  0.00000000000E+00 -0.64527951416E+02  0.24067201118E+04  0.24058549084E+04 0.  0.
        3    1    3    3  502    0  0.11204086264E+04  0.90351334050E+02 -0.46085193868E+03  0.12148511733E+04  0.10100000352E+00 0.  1.
       -3    1    3    3    0  502 -0.11204086264E+04 -0.90351334050E+02  0.39632398727E+03  0.11918689386E+04  0.10100000352E+00 0. -1.
</event>
<event>
 5   0  0.9647945E-06  0.3143827E+04  0.7818609E-02  0.8203812E-01
       -2   -1    0    0    0  501  0.00000000000E+00  0.00000000000E+00  0.15921306580E+04  0.15921306580E+04  0.25500000920E-02 0.  1.
        2   -1    0    0  501    0  0.00000000000E+00  0.00000000000E+00 -0.15519530607E+04  0.15519530607E+04  0.25500000920E-02 0. -1.
    10030    2    1    2    0    0  0.00000000000E+00  0.00000000000E+00  0.40177597281E+02  0.31440837187E+04  0.31438269976E+04 0.  0.
        2    1    3    3  502    0  0.20206324494E+03 -0.86113114896E+03 -0.12794539732E+04  0.15554352703E+04  0.25500000920E-02 0. -1.
       -2    1    3    3    0  502 -0.20206324494E+03  0.86113114896E+03  0.13196315705E+04  0.15886484483E+04  0.25500000920E-02 0.  1.
</event>
<event>
 5   0  0.1089569E-05  0.2993652E+04  0.7818609E-02  0.8245546E-01
       -2   -1    0    0    0  501  0.00000000000E+00  0.00000000000E+00  0.13878194233E+04  0.13878194233E+04  0.25500000920E-02 0. -1.
        2   -1    0    0  501    0  0.00000000000E+00  0.00000000000E+00 -0.16143948497E+04  0.16143948497E+04  0.25500000920E-02 0.  1.
    10030    2    1    2    0    0  0.00000000000E+00  0.00000000000E+00 -0.22657542642E+03  0.30022142730E+04  0.29936523040E+04 0.  0.
        5    1    3    3  502    0 -0.12775398409E+04  0.55608684524E+03 -0.66177589530E+03  0.15425012318E+04  0.46999998093E+01 0.  1.
       -5    1    3    3    0  502  0.12775398409E+04 -0.55608684524E+03  0.43520046888E+03  0.14597130412E+04  0.46999998093E+01 0. -1.
</event>
<event>
 5   0  0.3636718E-06  0.2950809E+04  0.7818609E-02  0.8257919E-01
       -1   -1    0    0    0  501  0.00000000000E+00  0.00000000000E+00  0.11644121270E+04  0.11644121270E+04  0.50400001928E-02 0.  1.
        1   -1    0    0  501    0  0.00000000000E+00  0.00000000000E+00 -0.18694574200E+04  0.18694574200E+04  0.50400001928E-02 0. -1.
    10030    2    1    2    0    0  0.00000000000E+00  0.00000000000E+00 -0.70504529307E+03  0.30338695470E+04  0.29508093064E+04 0.  0.
        4    1    3    3  502    0  0.72750035644E+03 -0.12723514274E+04 -0.17839683342E+03  0.14764694262E+04  0.12699999809E+01 0.  1.
       -4    1    3    3    0  502 -0.72750035644E+03  0.12723514274E+04 -0.52664845964E+03  0.15574001208E+04  0.12699999809E+01 0. -1.
</event>
<event>
 5   0  0.3592331E-06  0.2869520E+04  0.7818609E-02  0.8282004E-01
        1   -1    0    0  501    0  0.00000000000E+00  0.00000000000E+00  0.16195516500E+04  0.16195516500E+04  0.50400001928E-02 0.  1.
       -1   -1    0    0    0  501  0.00000000000E+00  0.00000000000E+00 -0.12710529248E+04  0.12710529248E+04  0.50400001928E-02 0. -1.
    10030    2    1    2    0    0  0.00000000000E+00  0.00000000000E+00  0.34849872518E+03  0.28906045749E+04  0.28695197241E+04 0.  0.
        3    1    3    3  502    0  0.35782744184E+03 -0.77782703696E+03 -0.98550533045E+03  0.13054792775E+04  0.10100000352E+00 0. -1.
       -3    1    3    3    0  502 -0.35782744184E+03  0.77782703696E+03  0.13340040556E+04  0.15851252973E+04  0.10100000352E+00 0.  1.
</event>
<event>
 5   0  0.9647945E-06  0.3063110E+04  0.7818609E-02  0.8225936E-01
       -2   -1    0    0    0  501  0.00000000000E+00  0.00000000000E+00  0.14124235398E+04  0.14124235398E+04  0.25500000920E-02 0.  1.
        2   -1    0    0  501    0  0.00000000000E+00  0.00000000000E+00 -0.16607342634E+04  0.16607342634E+04  0.25500000920E-02 0. -1.
    10030    2    1    2    0    0  0.00000000000E+00  0.00000000000E+00 -0.24831072365E+03  0.30731578032E+04  0.30631096402E+04 0.  0.
        2    1    3    3  502    0 -0.97227134164E+03  0.11480168505E+04  0.16385062495E+03  0.15133080579E+04  0.25500000920E-02 0.  1.
       -2    1    3    3    0  502  0.97227134164E+03 -0.11480168505E+04 -0.41216134860E+03  0.15598497453E+04  0.25500000920E-02 0. -1.
</event>
<event>
 5   0  0.3636718E-06  0.3008546E+04  0.7818609E-02  0.8241295E-01
       -1   -1    0    0    0  501  0.00000000000E+00  0.00000000000E+00  0.12858781880E+04  0.12858781881E+04  0.50400001928E-02 0. -1.
        1   -1    0    0  501    0  0.00000000000E+00  0.00000000000E+00 -0.17597602240E+04  0.17597602240E+04  0.50400001928E-02 0.  1.
    10030    2    1    2    0    0  0.00000000000E+00  0.00000000000E+00 -0.47388203597E+03  0.30456384121E+04  0.30085460198E+04 0.  0.
        4    1    3    3  502    0 -0.10122113368E+04 -0.98771268970E+03 -0.75579052529E+03  0.16035489013E+04  0.12699999809E+01 0.  1.
       -4    1    3    3    0  502  0.10122113368E+04  0.98771268970E+03  0.28190848932E+03  0.14420895108E+04  0.12699999809E+01 0. -1.
</event>
<event>
 5   0  0.1057036E-05  0.2736709E+04  0.7818609E-02  0.8323191E-01
        2   -1    0    0  501    0  0.00000000000E+00  0.00000000000E+00  0.23496549729E+04  0.23496549729E+04  0.25500000920E-02 0.  1.
       -2   -1    0    0    0  501  0.00000000000E+00  0.00000000000E+00 -0.79688053643E+03  0.79688053643E+03  0.25500000920E-02 0. -1.
    10030    2    1    2    0    0  0.00000000000E+00  0.00000000000E+00  0.15527744364E+04  0.31465355093E+04  0.27367092028E+04 0.  0.
        4    1    3    3  502    0 -0.99356481937E+03 -0.31491586566E+03 -0.24297603514E+03  0.10702252190E+04  0.12699999809E+01 0. -1.
       -4    1    3    3    0  502  0.99356481937E+03  0.31491586566E+03  0.17957504716E+04  0.20763102903E+04  0.12699999809E+01 0.  1.
</event>
<event>
 5   0  0.3896630E-06  0.3000144E+04  0.7818609E-02  0.8243690E-01
       -1   -1    0    0    0  501  0.00000000000E+00  0.00000000000E+00  0.90834374036E+03  0.90834374038E+03  0.50400001928E-02 0. -1.
        1   -1    0    0  501    0  0.00000000000E+00  0.00000000000E+00 -0.24772743996E+04  0.24772743996E+04  0.50400001928E-02 0.  1.
    10030    2    1    2    0    0  0.00000000000E+00  0.00000000000E+00 -0.15689306592E+04  0.33856181400E+04  0.30001444592E+04 0.  0.
        5    1    3    3  502    0 -0.10011898349E+04 -0.10620559215E+04 -0.39378984218E+03  0.15117659858E+04  0.46999998093E+01 0.  1.
       -5    1    3    3    0  502  0.10011898349E+04  0.10620559215E+04 -0.11751408170E+04  0.18738521542E+04  0.46999998093E+01 0. -1.
</event>
<event>
 5   0  0.1089569E-05  0.2784694E+04  0.7818609E-02  0.8308036E-01
        2   -1    0    0  501    0  0.00000000000E+00  0.00000000000E+00  0.25474686950E+04  0.25474686950E+04  0.25500000920E-02 0.  1.
       -2   -1    0    0    0  501  0.00000000000E+00  0.00000000000E+00 -0.76100233064E+03  0.76100233065E+03  0.25500000920E-02 0. -1.
    10030    2    1    2    0    0  0.00000000000E+00  0.00000000000E+00  0.17864663643E+04  0.33084710256E+04  0.27846936019E+04 0.  0.
        5    1    3    3  502    0 -0.74855371473E+03  0.92930555095E+03  0.40893554555E+02  0.11939999345E+04  0.46999998093E+01 0. -1.
       -5    1    3    3    0  502  0.74855371473E+03 -0.92930555095E+03  0.17455728098E+04  0.21144710911E+04  0.46999998093E+01 0.  1.
</event>
<event>
 5   0  0.1029922E-05  0.2984665E+04  0.7818609E-02  0.8248124E-01
       -2   -1    0    0    0  501  0.00000000000E+00  0.00000000000E+00  0.12833002332E+04  0.12833002332E+04  0.25500000920E-02 0.  1.
        2   -1    0    0  501    0  0.00000000000E+00  0.00000000000E+00 -0.17354129991E+04  0.17354129991E+04  0.25500000920E-02 0. -1.
    10030    2    1    2    0    0  0.00000000000E+00  0.00000000000E+00 -0.45211276586E+03  0.30187132323E+04  0.29846647426E+04 0.  0.
        1    1    3    3  502    0 -0.37638599991E+03  0.12836785161E+04  0.44297207328E+03  0.14091562054E+04  0.50400001928E-02 0.  1.
       -1    1    3    3    0  502  0.37638599991E+03 -0.12836785161E+04 -0.89508483914E+03  0.16095570269E+04  0.50400001928E-02 0. -1.
</event>
<event>
 5   0  0.3592331E-06  0.2763099E+04  0.7818609E-02  0.8314817E-01
        1   -1    0    0  501    0  0.00000000000E+00  0.00000000000E+00  0.16813436580E+04  0.16813436580E+04  0.50400001928E-02 0.  1.
       -1   -1    0    0    0  501  0.00000000000E+00  0.00000000000E+00 -0.11352106236E+04  0.11352106237E+04  0.50400001928E-02 0. -1.
    10030    2    1    2    0    0  0.00000000000E+00  0.00000000000E+00  0.54613303438E+03  0.28165542817E+04  0.27630991170E+04 0.  0.
        3    1    3    3  502    0  0.88804787042E+03 -0.11848435507E+03  0.13450831023E+04  0.16161423591E+04  0.10100000352E+00 0.  1.
       -3    1    3    3    0  502 -0.88804787042E+03  0.11848435507E+03 -0.79895006796E+03  0.12004119226E+04  0.10100000352E+00 0. -1.
</event>
<event>
 5   0  0.3636718E-06  0.3048529E+04  0.7818609E-02  0.8230007E-01
       -1   -1    0    0    0  501  0.00000000000E+00  0.00000000000E+00  0.10246951332E+04  0.10246951332E+04  0.50400001928E-02 0. -1.
        1   -1    0    0  501    0  0.00000000000E+00  0.00000000000E+00 -0.22673892224E+04  0.22673892224E+04  0.50400001928E-02 0.  1.
    10030    2    1    2    0    0  0.00000000000E+00  0.00000000000E+00 -0.12426940893E+04  0.32920843556E+04  0.30485292856E+04 0.  0.
        4    1    3    3  502    0  0.50000943864E+02 -0.98927662316E+03  0.62975076754E+03  0.11737785028E+04  0.12699999809E+01 0. -1.
       -4    1    3    3    0  502 -0.50000943864E+02  0.98927662316E+03 -0.18724448568E+04  0.21183058528E+04  0.12699999809E+01 0.  1.
</event>
<event>
 5   0  0.3636718E-06  0.3015425E+04  0.7818609E-02  0.8239340E-01
        1   -1    0    0  501    0  0.00000000000E+00  0.00000000000E+00  0.22555280238E+04  0.22555280238E+04  0.50400001928E-02 0.  1.
       -1   -1    0    0    0  501  0.00000000000E+00  0.00000000000E+00 -0.10078337879E+04  0.10078337879E+04  0.50400001928E-02 0. -1.
    10030    2    1    2    0    0  0.00000000000E+00  0.00000000000E+00  0.12476942359E+04  0.32633618118E+04  0.30154252450E+04 0.  0.
        4    1    3    3  502    0  0.74269569768E+03 -0.10086336412E+04  0.15320486962E+04  0.19789172651E+04  0.12699999809E+01 0.  1.
       -4    1    3    3    0  502 -0.74269569768E+03  0.10086336412E+04 -0.28435446031E+03  0.12844445467E+04  0.12699999809E+01 0. -1.
</event>
<event>
 5   0  0.3636718E-06  0.2894567E+04  0.7818609E-02  0.8274496E-01
        1   -1    0    0  501    0  0.00000000000E+00  0.00000000000E+00  0.19528485969E+04  0.19528485969E+04  0.50400001928E-02 0.  1.
       -1   -1    0    0    0  501  0.00000000000E+00  0.00000000000E+00 -0.10726017872E+04  0.10726017872E+04  0.50400001928E-02 0. -1.
    10030    2    1    2    0    0  0.00000000000E+00  0.00000000000E+00  0.88024680972E+03  0.30254503841E+04  0.28945665618E+04 0.  0.
        4    1    3    3  502    0 -0.10484899586E+04 -0.95345442833E+03  0.13321246277E+03  0.14234302629E+04  0.12699999809E+01 0. -1.
       -4    1    3    3    0  502  0.10484899586E+04  0.95345442833E+03  0.74703434695E+03  0.16020201212E+04  0.12699999809E+01 0.  1.
</event>
<event>
 5   0  0.3592331E-06  0.2972672E+04  0.7818609E-02  0.8251578E-01
       -1   -1    0    0    0  501  0.00000000000E+00  0.00000000000E+00  0.14015247442E+04  0.14015247442E+04  0.50400001928E-02 0.  1.
        1   -1    0    0  501    0  0.00000000000E+00  0.00000000000E+00 -0.15762796237E+04  0.15762796237E+04  0.50400001928E-02 0. -1.
    10030    2    1    2    0    0  0.00000000000E+00  0.00000000000E+00 -0.17475487943E+03  0.29778043679E+04  0.29726721289E+04 0.  0.
        3    1    3    3  502    0 -0.68288739780E+03  0.11180727748E+04 -0.79056727608E+03  0.15301694534E+04  0.10100000352E+00 0. -1.
       -3    1    3    3    0  502  0.68288739780E+03 -0.11180727748E+04  0.61581239665E+03  0.14476349146E+04  0.10100000352E+00 0.  1.
</event>
<event>
 5   0  0.1089569E-05  0.1989276E+04  0.7818609E-02  0.8611651E-01
        2   -1    0    0  501    0  0.00000000000E+00  0.00000000000E+00  0.64932540705E+03  0.64932540706E+03  0.25500000920E-02 0. -1.
       -2   -1    0    0    0  501  0.00000000000E+00  0.00000000000E+00 -0.15235890651E+04  0.15235890651E+04  0.25500000920E-02 0.  1.
    10030    2    1    2    0    0  0.00000000000E+00  0.00000000000E+00 -0.87426365803E+03  0.21729144721E+04  0.19892763407E+04 0.  0.
        5    1    3    3  502    0  0.31500167908E+03  0.93542469306E+03 -0.30318372456E+03  0.10325637390E+04  0.46999998093E+01 0.  1.
       -5    1    3    3    0  502 -0.31500167908E+03 -0.93542469306E+03 -0.57107993347E+03  0.11403507332E+04  0.46999998093E+01 0. -1.
</event>
<event>
 5   0  0.9647945E-06  0.2922725E+04  0.7818609E-02  0.8266148E-01
        2   -1    0    0  501    0  0.00000000000E+00  0.00000000000E+00  0.20686391873E+04  0.20686391873E+04  0.25500000920E-02 0.  1.
       -2   -1    0    0    0  501  0.00000000000E+00  0.00000000000E+00 -0.10323603508E+04  0.10323603508E+04  0.25500000920E-02 0. -1.
    10030    2    1    2    0    0  0.00000000000E+00  0.00000000000E+00  0.10362788365E+04  0.31009995381E+04  0.29227254932E+04 0.  0.
        2    1    3    3  502    0  0.11971636666E+04  0.91857788131E+02 -0.36570409587E+03  0.12551407027E+04  0.25500000920E-02 0. -1.
       -2    1    3    3    0  502 -0.11971636666E+04 -0.91857788131E+02  0.14019829323E+04  0.18458588354E+04  0.25500000920E-02 0.  1.
</event>
<event>
 5   0  0.3725232E-06  0.2992947E+04  0.7818609E-02  0.8245748E-01
       -1   -1    0    0    0  501  0.00000000000E+00  0.00000000000E+00  0.10170314860E+04  0.10170314860E+04  0.50400001928E-02 0.  1.
        1   -1    0    0  501    0  0.00000000000E+00  0.00000000000E+00 -0.22019306366E+04  0.22019306366E+04  0.50400001928E-02 0. -1.
    10030    2    1    2    0    0  0.00000000000E+00  0.00000000000E+00 -0.11848991506E+04  0.32189621226E+04  0.29929469006E+04 0.  0.
        2    1    3    3  502    0 -0.32649435448E+03 -0.10171344296E+04 -0.17195737535E+04  0.20243751888E+04  0.25500000920E-02 0. -1.
       -2    1    3    3    0  502  0.32649435448E+03  0.10171344296E+04  0.53467460287E+03  0.11945869338E+04  0.25500000920E-02 0.  1.
</event>
<event>
 5   0  0.3852126E-06  0.3277027E+04  0.7818609E-02  0.8168766E-01
        1   -1    0    0  501    0  0.00000000000E+00  0.00000000000E+00  0.16930313754E+04  0.16930313754E+04  0.50400001928E-02 0. -1.
       -1   -1    0    0    0  501  0.00000000000E+00  0.00000000000E+00 -0.15857508473E+04  0.15857508473E+04  0.50400001928E-02 0.  1.
    10030    2    1    2    0    0  0.00000000000E+00  0.00000000000E+00  0.10728052815E+03  0.32787822227E+04  0.32770266633E+04 0.  0.
        1    1    3    3  502    0  0.10841447980E+03  0.13736777384E+04  0.94067130234E+03  0.16684144352E+04  0.50400001928E-02 0.  1.
       -1    1    3    3    0  502 -0.10841447980E+03 -0.13736777384E+04 -0.83339077420E+03  0.16103677875E+04  0.50400001928E-02 0. -1.
</event>
<event>
 5   0  0.3592331E-06  0.2666091E+04  0.7818609E-02  0.8346092E-01
        1   -1    0    0  501    0  0.00000000000E+00  0.00000000000E+00  0.19636156695E+04  0.19636156695E+04  0.50400001928E-02 0. -1.
       -1   -1    0    0    0  501  0.00000000000E+00  0.00000000000E+00 -0.90496868026E+03  0.90496868027E+03  0.50400001928E-02 0.  1.
    10030    2    1    2    0    0  0.00000000000E+00  0.00000000000E+00  0.10586469893E+04  0.28685843498E+04  0.26660912820E+04 0.  0.
        3    1    3    3  502    0 -0.13537269623E+03  0.12900679392E+04  0.19872511110E+03  0.13122853099E+04  0.10100000352E+00 0.  1.
       -3    1    3    3    0  502  0.13537269623E+03 -0.12900679392E+04  0.85992187818E+03  0.15562990399E+04  0.10100000352E+00 0. -1.
</event>
<event>
 5   0  0.3852126E-06  0.2992409E+04  0.7818609E-02  0.8245902E-01
        1   -1    0    0  501    0  0.00000000000E+00  0.00000000000E+00  0.19891678490E+04  0.19891678490E+04  0.50400001928E-02 0. -1.
       -1   -1    0    0    0  501  0.00000000000E+00  0.00000000000E+00 -0.11254091709E+04  0.11254091709E+04  0.50400001928E-02 0.  1.
    10030    2    1    2    0    0  0.00000000000E+00  0.00000000000E+00  0.86375867816E+03  0.31145770199E+04  0.29924088890E+04 0.  0.
        1    1    3    3  502    0  0.48804869249E+03  0.10915423043E+04  0.13680279118E+04  0.18169084996E+04  0.50400001928E-02 0. -1.
       -1    1    3    3    0  502 -0.48804869249E+03 -0.10915423043E+04 -0.50426923368E+03  0.12976685203E+04  0.50400001928E-02 0.  1.
</event>
<event>
 5   0  0.3636718E-06  0.3042567E+04  0.7818609E-02  0.8231679E-01
        1   -1    0    0  501    0  0.00000000000E+00  0.00000000000E+00  0.15540742049E+04  0.15540742049E+04  0.50400001928E-02 0. -1.
       -1   -1    0    0    0  501  0.00000000000E+00  0.00000000000E+00 -0.14891850598E+04  0.14891850599E+04  0.50400001928E-02 0.  1.
    10030    2    1    2    0    0  0.00000000000E+00  0.00000000000E+00  0.64889145077E+02  0.30432592648E+04  0.30425673947E+04 0.  0.
        4    1    3    3  502    0  0.72716912600E+03  0.13321454624E+04 -0.72058869232E+02  0.15194013835E+04  0.12699999809E+01 0.  1.
       -4    1    3    3    0  502 -0.72716912600E+03 -0.13321454624E+04  0.13694801431E+03  0.15238578813E+04  0.12699999809E+01 0. -1.
</event>
<event>
 5   0  0.3636718E-06  0.2953127E+04  0.7818609E-02  0.8257244E-01
        1   -1    0    0  501    0  0.00000000000E+00  0.00000000000E+00  0.17340222727E+04  0.17340222727E+04  0.50400001928E-02 0. -1.
       -1   -1    0    0    0  501  0.00000000000E+00  0.00000000000E+00 -0.12573306376E+04  0.12573306376E+04  0.50400001928E-02 0.  1.
    10030    2    1    2    0    0  0.00000000000E+00  0.00000000000E+00  0.47669163507E+03  0.29913529103E+04  0.29531267021E+04 0.  0.
        4    1    3    3  502    0  0.10457632193E+04  0.19180575186E+03 -0.79952800191E+03  0.13302844794E+04  0.12699999809E+01 0.  1.
       -4    1    3    3    0  502 -0.10457632193E+04 -0.19180575186E+03  0.12762196370E+04  0.16610684309E+04  0.12699999809E+01 0. -1.
</event>
<event>
 5   0  0.3592331E-06  0.3023700E+04  0.7818609E-02  0.8236996E-01
       -1   -1    0    0    0  501  0.00000000000E+00  0.00000000000E+00  0.10262556851E+04  0.10262556851E+04  0.50400001928E-02 0.  1.
        1   -1    0    0  501    0  0.00000000000E+00  0.00000000000E+00 -0.22272128474E+04  0.22272128474E+04  0.50400001928E-02 0. -1.
    10030    2    1    2    0    0  0.00000000000E+00  0.00000000000E+00 -0.12009571623E+04  0.32534685325E+04  0.30236996191E+04 0.  0.
        3    1    3    3  502    0  0.96555050534E+03  0.72963261078E+03  0.37448788108E+03  0.12668436006E+04  0.10100000352E+00 0.  1.
       -3    1    3    3    0  502 -0.96555050534E+03 -0.72963261078E+03 -0.15754450434E+04  0.19866249319E+04  0.10100000352E+00 0. -1.
</event>
<event>
 5   0  0.9647945E-06  0.3004304E+04  0.7818609E-02  0.8242503E-01
        2   -1    0    0  501    0  0.00000000000E+00  0.00000000000E+00  0.19693453714E+04  0.19693453714E+04  0.25500000920E-02 0.  1.
       -2   -1    0    0    0  501  0.00000000000E+00  0.00000000000E+00 -0.11457919423E+04  0.11457919423E+04  0.25500000920E-02 0. -1.
    10030    2    1    2    0    0  0.00000000000E+00  0.00000000000E+00  0.82355342917E+03  0.31151373137E+04  0.30043036186E+04 0.  0.
        2    1    3    3  502    0 -0.34330627112E+03 -0.43211658151E+03 -0.10368600394E+04  0.11745904295E+04  0.25500000920E-02 0. -1.
       -2    1    3    3    0  502  0.34330627112E+03  0.43211658151E+03  0.18604134685E+04  0.19405468842E+04  0.25500000920E-02 0.  1.
</event>
<event>
 5   0  0.3313750E-06  0.2013333E+04  0.7818609E-02  0.8600412E-01
        3   -1    0    0  501    0  0.00000000000E+00  0.00000000000E+00  0.92635203772E+03  0.92635204323E+03  0.10100000352E+00 0.  1.
       -3   -1    0    0    0  501  0.00000000000E+00  0.00000000000E+00 -0.10939446909E+04  0.10939446955E+04  0.10100000352E+00 0. -1.
    10030    2    1    2    0    0  0.00000000000E+00  0.00000000000E+00 -0.16759265314E+03  0.20202967387E+04  0.20133334585E+04 0.  0.
        1    1    3    3  502    0 -0.20910341526E+03  0.78550339640E+03  0.51209087236E+03  0.96071686027E+03  0.50400001928E-02 0.  1.
       -1    1    3    3    0  502  0.20910341526E+03 -0.78550339640E+03 -0.67968352550E+03  0.10595798785E+04  0.50400001928E-02 0. -1.
</event>
<event>
 5   0  0.1029922E-05  0.2990664E+04  0.7818609E-02  0.8246402E-01
       -2   -1    0    0    0  501  0.00000000000E+00  0.00000000000E+00  0.90134671489E+03  0.90134671489E+03  0.25500000920E-02 0. -1.
        2   -1    0    0  501    0  0.00000000000E+00  0.00000000000E+00 -0.24807520288E+04  0.24807520288E+04  0.25500000920E-02 0.  1.
    10030    2    1    2    0    0  0.00000000000E+00  0.00000000000E+00 -0.15794053139E+04  0.33820987437E+04  0.29906639341E+04 0.  0.
        1    1    3    3  502    0  0.52405592504E+03  0.60528939426E+03 -0.22179389974E+04  0.23580210473E+04  0.50400001928E-02 0.  1.
       -1    1    3    3    0  502 -0.52405592504E+03 -0.60528939426E+03  0.63853368345E+03  0.10240776964E+04  0.50400001928E-02 0. -1.
</event>
<event>
 5   0  0.3592331E-06  0.3180318E+04  0.7818609E-02  0.8194035E-01
        1   -1    0    0  501    0  0.00000000000E+00  0.00000000000E+00  0.15809306793E+04  0.15809306793E+04  0.50400001928E-02 0.  1.
       -1   -1    0    0    0  501  0.00000000000E+00  0.00000000000E+00 -0.15994412333E+04  0.15994412333E+04  0.50400001928E-02 0. -1.
    10030    2    1    2    0    0  0.00000000000E+00  0.00000000000E+00 -0.18510554050E+02  0.31803719126E+04  0.31803180441E+04 0.  0.
        3    1    3    3  502    0  0.71627063235E+03  0.60325144784E+03  0.12759317635E+04  0.15827058487E+04  0.10100000352E+00 0.  1.
       -3    1    3    3    0  502 -0.71627063235E+03 -0.60325144784E+03 -0.12944423176E+04  0.15976660639E+04  0.10100000352E+00 0. -1.
</event>
<event>
 5   0  0.1029922E-05  0.2966812E+04  0.7818609E-02  0.8253272E-01
        2   -1    0    0  501    0  0.00000000000E+00  0.00000000000E+00  0.19143151100E+04  0.19143151100E+04  0.25500000920E-02 0.  1.
       -2   -1    0    0    0  501  0.00000000000E+00  0.00000000000E+00 -0.11494938365E+04  0.11494938365E+04  0.25500000920E-02 0. -1.
    10030    2    1    2    0    0  0.00000000000E+00  0.00000000000E+00  0.76482127349E+03  0.30638089465E+04  0.29668120399E+04 0.  0.
        1    1    3    3  502    0 -0.53438423765E+02  0.14475218674E+04  0.52080582131E+02  0.14494438964E+04  0.50400001928E-02 0. -1.
       -1    1    3    3    0  502  0.53438423765E+02 -0.14475218674E+04  0.71274069136E+03  0.16143650501E+04  0.50400001928E-02 0.  1.
</event>
<event>
 5   0  0.3852126E-06  0.2934784E+04  0.7818609E-02  0.8262603E-01
        1   -1    0    0  501    0  0.00000000000E+00  0.00000000000E+00  0.21670303100E+04  0.21670303101E+04  0.50400001928E-02 0.  1.
       -1   -1    0    0    0  501  0.00000000000E+00  0.00000000000E+00 -0.99363565128E+03  0.99363565129E+03  0.50400001928E-02 0. -1.
    10030    2    1    2    0    0  0.00000000000E+00  0.00000000000E+00  0.11733946588E+04  0.31606659613E+04  0.29347835174E+04 0.  0.
        1    1    3    3  502    0 -0.65406989217E+03  0.84905048435E+02 -0.82500197741E+03  0.10562407651E+04  0.50400001928E-02 0. -1.
       -1    1    3    3    0  502  0.65406989217E+03 -0.84905048435E+02  0.19983966362E+04  0.21044251963E+04  0.50400001928E-02 0.  1.
</event>
<event>
 5   0  0.1089569E-05  0.2958263E+04  0.7818609E-02  0.8255751E-01
        2   -1    0    0  501    0  0.00000000000E+00  0.00000000000E+00  0.98472907913E+03  0.98472907913E+03  0.25500000920E-02 0. -1.
       -2   -1    0    0    0  501  0.00000000000E+00  0.00000000000E+00 -0.22217584514E+04  0.22217584514E+04  0.25500000920E-02 0.  1.
    10030    2    1    2    0    0  0.00000000000E+00  0.00000000000E+00 -0.12370293723E+04  0.32064875306E+04  0.29582631079E+04 0.  0.
        5    1    3    3  502    0  0.70252038798E+03  0.11194614437E+04 -0.13383797031E+04  0.18809601642E+04  0.46999998093E+01 0. -1.
       -5    1    3    3    0  502 -0.70252038798E+03 -0.11194614437E+04  0.10135033076E+03  0.13255273664E+04  0.46999998093E+01 0.  1.
</event>
<event>
 5   0  0.3725232E-06  0.2505468E+04  0.7818609E-02  0.8401040E-01
        1   -1    0    0  501    0  0.00000000000E+00  0.00000000000E+00  0.12069558240E+04  0.12069558240E+04  0.50400001928E-02 0.  1.
       -1   -1    0    0    0  501  0.00000000000E+00  0.00000000000E+00 -0.13002484127E+04  0.13002484127E+04  0.50400001928E-02 0. -1.
    10030    2    1    2    0    0  0.00000000000E+00  0.00000000000E+00 -0.93292588756E+02  0.25072042367E+04  0.25054679358E+04 0.  0.
        2    1    3    3  502    0 -0.18889029755E+03 -0.11557832673E+04  0.39844041084E+03  0.12370405274E+04  0.25500000920E-02 0.  1.
       -2    1    3    3    0  502  0.18889029755E+03  0.11557832673E+04 -0.49173299960E+03  0.12701637093E+04  0.25500000920E-02 0. -1.
</event>
<event>
 5   0  0.1028450E-05  0.3082831E+04  0.7818609E-02  0.8220466E-01
        2   -1    0    0  501    0  0.00000000000E+00  0.00000000000E+00  0.18726144881E+04  0.18726144881E+04  0.25500000920E-02 0. -1.
       -2   -1    0    0    0  501  0.00000000000E+00  0.00000000000E+00 -0.12687941013E+04  0.12687941013E+04  0.25500000920E-02 0.  1.
    10030    2    1    2    0    0  0.00000000000E+00  0.00000000000E+00  0.60382038681E+03  0.31414085894E+04  0.30828313068E+04 0.  0.
        3    1    3    3  502    0 -0.48753666093E+03  0.12574975807E+04  0.10623950764E+04  0.17168795735E+04  0.10100000352E+00 0. -1.
       -3    1    3    3    0  502  0.48753666093E+03 -0.12574975807E+04 -0.45857468960E+03  0.14245290160E+04  0.10100000352E+00 0.  1.
</event>
<event>
 5   0  0.9647945E-06  0.3051986E+04  0.7818609E-02  0.8229040E-01
       -2   -1    0    0    0  501  0.00000000000E+00  0.00000000000E+00  0.15903315252E+04  0.15903315252E+04  0.25500000920E-02 0.  1.
        2   -1    0    0  501    0  0.00000000000E+00  0.00000000000E+00 -0.14642577121E+04  0.14642577121E+04  0.25500000920E-02 0. -1.
    10030    2    1    2    0    0  0.00000000000E+00  0.00000000000E+00  0.12607381308E+03  0.30545892373E+04  0.30519863700E+04 0.  0.
        2    1    3    3  502    0  0.29569250476E+03 -0.13943728274E+04  0.60842875988E+03  0.15498048894E+04  0.25500000920E-02 0. -1.
       -2    1    3    3    0  502 -0.29569250476E+03  0.13943728274E+04 -0.48235494680E+03  0.15047843480E+04  0.25500000920E-02 0.  1.
</event>
<event>
 5   0  0.3725232E-06  0.3006150E+04  0.7818609E-02  0.8241977E-01
        1   -1    0    0  501    0  0.00000000000E+00  0.00000000000E+00  0.11194804488E+04  0.11194804488E+04  0.50400001928E-02 0.  1.
       -1   -1    0    0    0  501  0.00000000000E+00  0.00000000000E+00 -0.20181099868E+04  0.20181099868E+04  0.50400001928E-02 0. -1.
    10030    2    1    2    0    0  0.00000000000E+00  0.00000000000E+00 -0.89862953805E+03  0.31375904356E+04  0.30061501452E+04 0.  0.
        2    1    3    3  502    0  0.67577597151E+02 -0.48888617684E+03 -0.19311299318E+04  0.19931982438E+04  0.25500000920E-02 0. -1.
       -2    1    3    3    0  502 -0.67577597151E+02  0.48888617684E+03  0.10325003938E+04  0.11443921918E+04  0.25500000920E-02 0.  1.
</event>
<event>
 5   0  0.3725232E-06  0.3012070E+04  0.7818609E-02  0.8240293E-01
        1   -1    0    0  501    0  0.00000000000E+00  0.00000000000E+00  0.23174663993E+04  0.23174663993E+04  0.50400001928E-02 0. -1.
       -1   -1    0    0    0  501  0.00000000000E+00  0.00000000000E+00 -0.97871612792E+03  0.97871612793E+03  0.50400001928E-02 0.  1.
    10030    2    1    2    0    0  0.00000000000E+00  0.00000000000E+00  0.13387502714E+04  0.32961825273E+04  0.30120702123E+04 0.  0.
        2    1    3    3  502    0  0.43069857440E+03  0.10385671507E+04  0.17658964398E+04  0.20934453001E+04  0.25500000920E-02 0. -1.
       -2    1    3    3    0  502 -0.43069857440E+03 -0.10385671507E+04 -0.42714616833E+03  0.12027372272E+04  0.25500000920E-02 0.  1.
</event>
<event>
 5   0  0.1089569E-05  0.2913625E+04  0.7818609E-02  0.8268835E-01
        2   -1    0    0  501    0  0.00000000000E+00  0.00000000000E+00  0.16361891612E+04  0.16361891612E+04  0.25500000920E-02 0. -1.
       -2   -1    0    0    0  501  0.00000000000E+00  0.00000000000E+00 -0.12971013275E+04  0.12971013275E+04  0.25500000920E-02 0.  1.
    10030    2    1    2    0    0  0.00000000000E+00  0.00000000000E+00  0.33908783373E+03  0.29332904888E+04  0.29136253247E+04 0.  0.
        5    1    3    3  502    0 -0.85212865459E+03 -0.11482156371E+04  0.45027837751E+03  0.14990980957E+04  0.46999998093E+01 0.  1.
       -5    1    3    3    0  502  0.85212865459E+03  0.11482156371E+04 -0.11119054378E+03  0.14341923931E+04  0.46999998093E+01 0. -1.
</event>
<event>
 5   0  0.1028450E-05  0.2950508E+04  0.7818609E-02  0.8258006E-01
        2   -1    0    0  501    0  0.00000000000E+00  0.00000000000E+00  0.22928658198E+04  0.22928658198E+04  0.25500000920E-02 0.  1.
       -2   -1    0    0    0  501  0.00000000000E+00  0.00000000000E+00 -0.94919413118E+03  0.94919413119E+03  0.25500000920E-02 0. -1.
    10030    2    1    2    0    0  0.00000000000E+00  0.00000000000E+00  0.13436716886E+04  0.32420599510E+04  0.29505082815E+04 0.  0.
        3    1    3    3  502    0  0.10679538086E+04  0.10170265990E+04  0.71448241658E+03  0.16387048466E+04  0.10100000352E+00 0. -1.
       -3    1    3    3    0  502 -0.10679538086E+04 -0.10170265990E+04  0.62918927204E+03  0.16033551044E+04  0.10100000352E+00 0.  1.
</event>
<event>
 5   0  0.1029922E-05  0.2147169E+04  0.7818609E-02  0.8540745E-01
       -2   -1    0    0    0  501  0.00000000000E+00  0.00000000000E+00  0.51643735350E+03  0.51643735351E+03  0.25500000920E-02 0.  1.
        2   -1    0    0  501    0  0.00000000000E+00  0.00000000000E+00 -0.22317973957E+04  0.22317973957E+04  0.25500000920E-02 0. -1.
    10030    2    1    2    0    0  0.00000000000E+00  0.00000000000E+00 -0.17153600422E+04  0.27482347492E+04  0.21471688714E+04 0.  0.
        1    1    3    3  502    0  0.32217703230E+03 -0.29779011928E+03 -0.21118238326E+04  0.21569137431E+04  0.50400001928E-02 0. -1.
       -1    1    3    3    0  502 -0.32217703230E+03  0.29779011928E+03  0.39646379032E+03  0.59132100618E+03  0.50400001928E-02 0.  1.
</event>
<event>
 5   0  0.3896630E-06  0.2954504E+04  0.7818609E-02  0.8256843E-01
       -1   -1    0    0    0  501  0.00000000000E+00  0.00000000000E+00  0.12294071358E+04  0.12294071358E+04  0.50400001928E-02 0.  1.
        1   -1    0    0  501    0  0.00000000000E+00  0.00000000000E+00 -0.17750619858E+04  0.17750619858E+04  0.50400001928E-02 0. -1.
    10030    2    1    2    0    0  0.00000000000E+00  0.00000000000E+00 -0.54565485001E+03  0.30044691215E+04  0.29545042709E+04 0.  0.
        5    1    3    3  502    0  0.85982244224E+03 -0.10182098162E+04  0.37529380399E+03  0.13845264141E+04  0.46999998093E+01 0.  1.
       -5    1    3    3    0  502 -0.85982244224E+03  0.10182098162E+04 -0.92094865399E+03  0.16199427074E+04  0.46999998093E+01 0. -1.
</event>
<event>
 5   0  0.3852126E-06  0.2969743E+04  0.7818609E-02  0.8252424E-01
        1   -1    0    0  501    0  0.00000000000E+00  0.00000000000E+00  0.11228806758E+04  0.11228806758E+04  0.50400001928E-02 0.  1.
       -1   -1    0    0    0  501  0.00000000000E+00  0.00000000000E+00 -0.19635592974E+04  0.19635592974E+04  0.50400001928E-02 0. -1.
    10030    2    1    2    0    0  0.00000000000E+00  0.00000000000E+00 -0.84067862159E+03  0.30864399731E+04  0.29697426089E+04 0.  0.
        1    1    3    3  502    0 -0.14531999462E+04 -0.30495974381E+03 -0.42785261521E+03  0.15452664461E+04  0.50400001928E-02 0. -1.
       -1    1    3    3    0  502  0.14531999462E+04  0.30495974381E+03 -0.41282600637E+03  0.15411735271E+04  0.50400001928E-02 0.  1.
</event>
<event>
 5   0  0.9647945E-06  0.3022094E+04  0.7818609E-02  0.8237450E-01
       -2   -1    0    0    0  501  0.00000000000E+00  0.00000000000E+00  0.18767435519E+04  0.18767435519E+04  0.25500000920E-02 0.  1.
        2   -1    0    0  501    0  0.00000000000E+00  0.00000000000E+00 -0.12166093663E+04  0.12166093663E+04  0.25500000920E-02 0. -1.
    10030    2    1    2    0    0  0.00000000000E+00  0.00000000000E+00  0.66013418560E+03  0.30933529182E+04  0.30220944945E+04 0.  0.
        2    1    3    3  502    0 -0.83143325939E+03  0.79637195618E+03  0.13318024535E+04  0.17604508890E+04  0.25500000920E-02 0.  1.
       -2    1    3    3    0  502  0.83143325939E+03 -0.79637195618E+03 -0.67166826786E+03  0.13329020292E+04  0.25500000920E-02 0. -1.
</event>
<event>
 5   0  0.3725232E-06  0.3012851E+04  0.7818609E-02  0.8240071E-01
        1   -1    0    0  501    0  0.00000000000E+00  0.00000000000E+00  0.22943797697E+04  0.22943797697E+04  0.50400001928E-02 0. -1.
       -1   -1    0    0    0  501  0.00000000000E+00  0.00000000000E+00 -0.98907679259E+03  0.98907679260E+03  0.50400001928E-02 0.  1.
    10030    2    1    2    0    0  0.00000000000E+00  0.00000000000E+00  0.13053029771E+04  0.32834565623E+04  0.30128509977E+04 0.  0.
        2    1    3    3  502    0 -0.14303765614E+04 -0.36527154642E+03  0.97944650698E+03  0.17716421394E+04  0.25500000920E-02 0. -1.
       -2    1    3    3    0  502  0.14303765614E+04  0.36527154642E+03  0.32585647015E+03  0.15118144229E+04  0.25500000920E-02 0.  1.
</event>
<event>
 5   0  0.1028450E-05  0.3024545E+04  0.7818609E-02  0.8236757E-01
       -2   -1    0    0    0  501  0.00000000000E+00  0.00000000000E+00  0.10470436971E+04  0.10470436971E+04  0.25500000920E-02 0. -1.
        2   -1    0    0  501    0  0.00000000000E+00  0.00000000000E+00 -0.21842140076E+04  0.21842140076E+04  0.25500000920E-02 0.  1.
    10030    2    1    2    0    0  0.00000000000E+00  0.00000000000E+00 -0.11371703105E+04  0.32312577047E+04  0.30245446002E+04 0.  0.
        3    1    3    3  502    0  0.31069240549E+03  0.13250975307E+04  0.13567579793E+03  0.13677796493E+04  0.10100000352E+00 0. -1.
       -3    1    3    3    0  502 -0.31069240549E+03 -0.13250975307E+04 -0.12728461085E+04  0.18634780553E+04  0.10100000352E+00 0.  1.
</event>
<event>
 5   0  0.1089569E-05  0.3049018E+04  0.7818609E-02  0.8229870E-01
        2   -1    0    0  501    0  0.00000000000E+00  0.00000000000E+00  0.22104841530E+04  0.22104841530E+04  0.25500000920E-02 0. -1.
       -2   -1    0    0    0  501  0.00000000000E+00  0.00000000000E+00 -0.10514113458E+04  0.10514113458E+04  0.25500000920E-02 0.  1.
    10030    2    1    2    0    0  0.00000000000E+00  0.00000000000E+00  0.11590728072E+04  0.32618954989E+04  0.30490182802E+04 0.  0.
        5    1    3    3  502    0 -0.67495710256E+03 -0.10235104524E+04 -0.38979529196E+03  0.12865081407E+04  0.46999998093E+01 0.  1.
       -5    1    3    3    0  502  0.67495710256E+03  0.10235104524E+04  0.15488680992E+04  0.19753873582E+04  0.46999998093E+01 0. -1.
</event>
<event>
 5   0  0.3896630E-06  0.2884109E+04  0.7818609E-02  0.8277621E-01
       -1   -1    0    0    0  501  0.00000000000E+00  0.00000000000E+00  0.12470277780E+04  0.12470277780E+04  0.50400001928E-02 0. -1.
        1   -1    0    0  501    0  0.00000000000E+00  0.00000000000E+00 -0.16675815676E+04  0.16675815676E+04  0.50400001928E-02 0.  1.
    10030    2    1    2    0    0  0.00000000000E+00  0.00000000000E+00 -0.42055378961E+03  0.29146093457E+04  0.28841085534E+04 0.  0.
        5    1    3    3  502    0  0.46520395072E+03 -0.53788401381E+02  0.11680348797E+04  0.12584257936E+04  0.46999998093E+01 0. -1.
       -5    1    3    3    0  502 -0.46520395072E+03  0.53788401381E+02 -0.15885886693E+04  0.16561835521E+04  0.46999998093E+01 0.  1.
</event>
<event>
 5   0  0.3896630E-06  0.2999827E+04  0.7818609E-02  0.8243780E-01
        1   -1    0    0  501    0  0.00000000000E+00  0.00000000000E+00  0.26849954133E+04  0.26849954133E+04  0.50400001928E-02 0.  1.
       -1   -1    0    0    0  501  0.00000000000E+00  0.00000000000E+00 -0.83789368663E+03  0.83789368665E+03  0.50400001928E-02 0. -1.
    10030    2    1    2    0    0  0.00000000000E+00  0.00000000000E+00  0.18471017267E+04  0.35228891000E+04  0.29998271320E+04 0.  0.
        5    1    3    3  502    0 -0.23929448159E+03 -0.12657376213E+04  0.21225720012E+02  0.12883424219E+04  0.46999998093E+01 0. -1.
       -5    1    3    3    0  502  0.23929448159E+03  0.12657376213E+04  0.18258760067E+04  0.22345466781E+04  0.46999998093E+01 0.  1.
</event>
<event>
 5   0  0.1029922E-05  0.2951545E+04  0.7818609E-02  0.8257704E-01
       -2   -1    0    0    0  501  0.00000000000E+00  0.00000000000E+00  0.14496016525E+04  0.14496016525E+04  0.25500000920E-02 0.  1.
        2   -1    0    0  501    0  0.00000000000E+00  0.00000000000E+00 -0.15024161460E+04  0.15024161460E+04  0.25500000920E-02 0. -1.
    10030    2    1    2    0    0  0.00000000000E+00  0.00000000000E+00 -0.52814493528E+02  0.29520177985E+04  0.29515453092E+04 0.  0.
        1    1    3    3  502    0 -0.33646650015E+03  0.63325338683E+03 -0.13164530077E+04  0.14990890831E+04  0.50400001928E-02 0. -1.
       -1    1    3    3    0  502  0.33646650015E+03 -0.63325338683E+03  0.12636385141E+04  0.14529287154E+04  0.50400001928E-02 0.  1.
</event>
<event>
 5   0  0.1057036E-05  0.2897027E+04  0.7818609E-02  0.8273763E-01
       -2   -1    0    0    0  501  0.00000000000E+00  0.00000000000E+00  0.11652288048E+04  0.11652288048E+04  0.25500000920E-02 0. -1.
        2   -1    0    0  501    0  0.00000000000E+00  0.00000000000E+00 -0.18006691919E+04  0.18006691919E+04  0.25500000920E-02 0.  1.
    10030    2    1    2    0    0  0.00000000000E+00  0.00000000000E+00 -0.63544038718E+03  0.29658979967E+04  0.28970271730E+04 0.  0.
        4    1    3    3  502    0 -0.11973798402E+03  0.10781042896E+04 -0.13005123208E+04  0.16935111318E+04  0.12699999809E+01 0.  1.
       -4    1    3    3    0  502  0.11973798402E+03 -0.10781042896E+04  0.66507193366E+03  0.12723868649E+04  0.12699999809E+01 0. -1.
</event>
<event>
 5   0  0.3725232E-06  0.2994435E+04  0.7818609E-02  0.8245322E-01
        1   -1    0    0  501    0  0.00000000000E+00  0.00000000000E+00  0.19191465660E+04  0.19191465660E+04  0.50400001928E-02 0.  1.
       -1   -1    0    0    0  501  0.00000000000E+00  0.00000000000E+00 -0.11680502301E+04  0.11680502301E+04  0.50400001928E-02 0. -1.
    10030    2    1    2    0    0  0.00000000000E+00  0.00000000000E+00  0.75109633595E+03  0.30871967961E+04  0.29944345629E+04 0.  0.
        2    1    3    3  502    0 -0.53293294687E+03 -0.12468234539E+04 -0.27899986685E+03  0.13843508142E+04  0.25500000920E-02 0. -1.
       -2    1    3    3    0  502  0.53293294687E+03  0.12468234539E+04  0.10300962028E+04  0.17028459819E+04  0.25500000920E-02 0.  1.
</event>
<event>
 5   0  0.3636718E-06  0.2994338E+04  0.7818609E-02  0.8245350E-01
       -1   -1    0    0    0  501  0.00000000000E+00  0.00000000000E+00  0.12835687162E+04  0.12835687162E+04  0.50400001928E-02 0.  1.
        1   -1    0    0  501    0  0.00000000000E+00  0.00000000000E+00 -0.17463146371E+04  0.17463146371E+04  0.50400001928E-02 0. -1.
    10030    2    1    2    0    0  0.00000000000E+00  0.00000000000E+00 -0.46274592094E+03  0.30298833533E+04  0.29943378813E+04 0.  0.
        4    1    3    3  502    0 -0.88498661598E+03  0.11780493361E+03 -0.14474859922E+04  0.17006753433E+04  0.12699999809E+01 0. -1.
       -4    1    3    3    0  502  0.88498661598E+03 -0.11780493361E+03  0.98474007130E+03  0.13292080100E+04  0.12699999809E+01 0.  1.
</event>
<event>
 5   0  0.1089569E-05  0.3275570E+04  0.7818609E-02  0.8169140E-01
       -2   -1    0    0    0  501  0.00000000000E+00  0.00000000000E+00  0.19344603190E+04  0.19344603190E+04  0.25500000920E-02 0. -1.
        2   -1    0    0  501    0  0.00000000000E+00  0.00000000000E+00 -0.13866087068E+04  0.13866087068E+04  0.25500000920E-02 0.  1.
    10030    2    1    2    0    0  0.00000000000E+00  0.00000000000E+00  0.54785161227E+03  0.33210690258E+04  0.32755698870E+04 0.  0.
        5    1    3    3  502    0 -0.59434824643E+02  0.13622698965E+04  0.11937237697E+04  0.18122666189E+04  0.46999998093E+01 0. -1.
       -5    1    3    3    0  502  0.59434824643E+02 -0.13622698965E+04 -0.64587215747E+03  0.15088024069E+04  0.46999998093E+01 0.  1.
</event>
<event>
 5   0  0.3852126E-06  0.3023224E+04  0.7818609E-02  0.8237130E-01
        1   -1    0    0  501    0  0.00000000000E+00  0.00000000000E+00  0.17909981126E+04  0.17909981126E+04  0.50400001928E-02 0. -1.
       -1   -1    0    0    0  501  0.00000000000E+00  0.00000000000E+00 -0.12758086752E+04  0.12758086752E+04  0.50400001928E-02 0.  1.
    10030    2    1    2    0    0  0.00000000000E+00  0.00000000000E+00  0.51518943739E+03  0.30668067878E+04  0.30232240600E+04 0.  0.
        1    1    3    3  502    0 -0.31837087840E+03 -0.14776587488E+04  0.26940450653E+03  0.15353873069E+04  0.50400001928E-02 0.  1.
       -1    1    3    3    0  502  0.31837087840E+03  0.14776587488E+04  0.24578493086E+03  0.15314194809E+04  0.50400001928E-02 0. -1.
</event>
<event>
 5   0  0.1089569E-05  0.2979268E+04  0.7818609E-02  0.8249676E-01
       -2   -1    0    0    0  501  0.00000000000E+00  0.00000000000E+00  0.96409470064E+03  0.96409470064E+03  0.25500000920E-02 0.  1.
        2   -1    0    0  501    0  0.00000000000E+00  0.00000000000E+00 -0.23016503647E+04  0.23016503647E+04  0.25500000920E-02 0. -1.
    10030    2    1    2    0    0  0.00000000000E+00  0.00000000000E+00 -0.13375556640E+04  0.32657450653E+04  0.29792676411E+04 0.  0.
        5    1    3    3  502    0  0.79268146275E+03  0.12410048854E+04 -0.91522991380E+03  0.17338122482E+04  0.46999998093E+01 0. -1.
       -5    1    3    3    0  502 -0.79268146275E+03 -0.12410048854E+04 -0.42232575023E+03  0.15319328171E+04  0.46999998093E+01 0.  1.
</event>
<event>
 5   0  0.3725232E-06  0.3034154E+04  0.7818609E-02  0.8234045E-01
       -1   -1    0    0    0  501  0.00000000000E+00  0.00000000000E+00  0.10687026848E+04  0.10687026848E+04  0.50400001928E-02 0. -1.
        1   -1    0    0  501    0  0.00000000000E+00  0.00000000000E+00 -0.21535668836E+04  0.21535668836E+04  0.50400001928E-02 0.  1.
    10030    2    1    2    0    0  0.00000000000E+00  0.00000000000E+00 -0.10848641988E+04  0.32222695684E+04  0.30341540570E+04 0.  0.
        2    1    3    3  502    0  0.36460305289E+03 -0.14591524277E+04 -0.75339744910E+03  0.16821619749E+04  0.25500000920E-02 0. -1.
       -2    1    3    3    0  502 -0.36460305289E+03  0.14591524277E+04 -0.33146674970E+03  0.15401075935E+04  0.25500000920E-02 0.  1.
</event>
<event>
 5   0  0.1029922E-05  0.2937539E+04  0.7818609E-02  0.8261795E-01
       -2   -1    0    0    0  501  0.00000000000E+00  0.00000000000E+00  0.13610452968E+04  0.13610452968E+04  0.25500000920E-02 0.  1.
        2   -1    0    0  501    0  0.00000000000E+00  0.00000000000E+00 -0.15850197088E+04  0.15850197088E+04  0.25500000920E-02 0. -1.
    10030    2    1    2    0    0  0.00000000000E+00  0.00000000000E+00 -0.22397441206E+03  0.29460650056E+04  0.29375388474E+04 0.  0.
        1    1    3    3  502    0 -0.11495952920E+04  0.50624376684E+03  0.65142617842E+03  0.14149940469E+04  0.50400001928E-02 0.  1.
       -1    1    3    3    0  502  0.11495952920E+04 -0.50624376684E+03 -0.87540059048E+03  0.15310709587E+04  0.50400001928E-02 0. -1.
</event>
<event>
 5   0  0.9647945E-06  0.3026140E+04  0.7818609E-02  0.8236306E-01
        2   -1    0    0  501    0  0.00000000000E+00  0.00000000000E+00  0.15554603420E+04  0.15554603420E+04  0.25500000920E-02 0.  1.
       -2   -1    0    0    0  501  0.00000000000E+00  0.00000000000E+00 -0.14718347456E+04  0.14718347456E+04  0.25500000920E-02 0. -1.
    10030    2    1    2    0    0  0.00000000000E+00  0.00000000000E+00  0.83625596351E+02  0.30272950876E+04  0.30261398360E+04 0.  0.
        2    1    3    3  502    0 -0.14278555899E+04 -0.31720467651E+03 -0.34562071323E+03  0.15029451321E+04  0.25500000920E-02 0. -1.
       -2    1    3    3    0  502  0.14278555899E+04  0.31720467651E+03  0.42924630958E+03  0.15243499555E+04  0.25500000920E-02 0.  1.
</event>
<event>
 5   0  0.3636718E-06  0.3060592E+04  0.7818609E-02  0.8226637E-01
       -1   -1    0    0    0  501  0.00000000000E+00  0.00000000000E+00  0.87542951397E+03  0.87542951398E+03  0.50400001928E-02 0. -1.
        1   -1    0    0  501    0  0.00000000000E+00  0.00000000000E+00 -0.26750359335E+04  0.26750359335E+04  0.50400001928E-02 0.  1.
    10030    2    1    2    0    0  0.00000000000E+00  0.00000000000E+00 -0.17996064195E+04  0.35504654474E+04  0.30605917121E+04 0.  0.
        4    1    3    3  502    0 -0.39355781483E+03 -0.12313833179E+04  0.50178584624E+02  0.12937202683E+04  0.12699999809E+01 0. -1.
       -4    1    3    3    0  502  0.39355781483E+03  0.12313833179E+04 -0.18497850041E+04  0.22567451792E+04  0.12699999809E+01 0.  1.
</event>
<event>
 5   0  0.1057036E-05  0.3007934E+04  0.7818609E-02  0.8241469E-01
        2   -1    0    0  501    0  0.00000000000E+00  0.00000000000E+00  0.21608941107E+04  0.21608941107E+04  0.25500000920E-02 0.  1.
       -2   -1    0    0    0  501  0.00000000000E+00  0.00000000000E+00 -0.10467506196E+04  0.10467506196E+04  0.25500000920E-02 0. -1.
    10030    2    1    2    0    0  0.00000000000E+00  0.00000000000E+00  0.11141434911E+04  0.32076447303E+04  0.30079343406E+04 0.  0.
        4    1    3    3  502    0 -0.34744548962E+03  0.61068663109E+03  0.19751195142E+04  0.20963671525E+04  0.12699999809E+01 0.  1.
       -4    1    3    3    0  502  0.34744548962E+03 -0.61068663109E+03 -0.86097602315E+03  0.11112775778E+04  0.12699999809E+01 0. -1.
</event>
<event>
 5   0  0.1089569E-05  0.2805697E+04  0.7818609E-02  0.8301502E-01
        2   -1    0    0  501    0  0.00000000000E+00  0.00000000000E+00  0.10556101709E+04  0.10556101709E+04  0.25500000920E-02 0. -1.
       -2   -1    0    0    0  501  0.00000000000E+00  0.00000000000E+00 -0.18643092887E+04  0.18643092887E+04  0.25500000920E-02 0.  1.
    10030    2    1    2    0    0  0.00000000000E+00  0.00000000000E+00 -0.80869911777E+03  0.29199194595E+04  0.28056969521E+04 0.  0.
        5    1    3    3  502    0  0.18235740631E+03  0.13887105710E+04 -0.32246681587E+03  0.14372815351E+04  0.46999998093E+01 0. -1.
       -5    1    3    3    0  502 -0.18235740631E+03 -0.13887105710E+04 -0.48623230190E+03  0.14826379245E+04  0.46999998093E+01 0.  1.
</event>
<event>
 5   0  0.3852126E-06  0.3010897E+04  0.7818609E-02  0.8240626E-01
        1   -1    0    0  501    0  0.00000000000E+00  0.00000000000E+00  0.27407856130E+04  0.27407856130E+04  0.50400001928E-02 0.  1.
       -1   -1    0    0    0  501  0.00000000000E+00  0.00000000000E+00 -0.82690712871E+03  0.82690712873E+03  0.50400001928E-02 0. -1.
    10030    2    1    2    0    0  0.00000000000E+00  0.00000000000E+00  0.19138784843E+04  0.35676927417E+04  0.30108969837E+04 0.  0.
        1    1    3    3  502    0 -0.89188779453E+03 -0.10371628905E+04  0.17018469497E+04  0.21834499628E+04  0.50400001928E-02 0.  1.
       -1    1    3    3    0  502  0.89188779453E+03  0.10371628905E+04  0.21203153452E+03  0.13842427790E+04  0.50400001928E-02 0. -1.
</event>
<event>
 5   0  0.1057036E-05  0.3032457E+04  0.7818609E-02  0.8234523E-01
        2   -1    0    0  501    0  0.00000000000E+00  0.00000000000E+00  0.89866957698E+03  0.89866957698E+03  0.25500000920E-02 0. -1.
       -2   -1    0    0    0  501  0.00000000000E+00  0.00000000000E+00 -0.25581689180E+04  0.25581689181E+04  0.25500000920E-02 0.  1.
    10030    2    1    2    0    0  0.00000000000E+00  0.00000000000E+00 -0.16594993411E+04  0.34568384950E+04  0.30324568122E+04 0.  0.
        4    1    3    3  502    0 -0.61749301010E+03 -0.31013909495E+03 -0.23682395824E+04  0.24669909218E+04  0.12699999809E+01 0.  1.
       -4    1    3    3    0  502  0.61749301010E+03  0.31013909495E+03  0.70874024130E+03  0.98984757325E+03  0.12699999809E+01 0. -1.
</event>
<event>
 5   0  0.3592331E-06  0.2528159E+04  0.7818609E-02  0.8393022E-01
        1   -1    0    0  501    0  0.00000000000E+00  0.00000000000E+00  0.11442562004E+04  0.11442562004E+04  0.50400001928E-02 0. -1.
       -1   -1    0    0    0  501  0.00000000000E+00  0.00000000000E+00 -0.13964504401E+04  0.13964504401E+04  0.50400001928E-02 0.  1.
    10030    2    1    2    0    0  0.00000000000E+00  0.00000000000E+00 -0.25219423967E+03  0.25407066405E+04  0.25281590730E+04 0.  0.
        3    1    3    3  502    0 -0.74343092964E+03  0.95977738727E+03  0.22783668831E+03  0.12352213352E+04  0.10100000352E+00 0.  1.
       -3    1    3    3    0  502  0.74343092964E+03 -0.95977738727E+03 -0.48003092798E+03  0.13054853053E+04  0.10100000352E+00 0. -1.
</event>
<event>
 5   0  0.3725232E-06  0.2816925E+04  0.7818609E-02  0.8298033E-01
        1   -1    0    0  501    0  0.00000000000E+00  0.00000000000E+00  0.31293785910E+04  0.31293785910E+04  0.50400001928E-02 0.  1.
       -1   -1    0    0    0  501  0.00000000000E+00  0.00000000000E+00 -0.63391728006E+03  0.63391728008E+03  0.50400001928E-02 0. -1.
    10030    2    1    2    0    0  0.00000000000E+00  0.00000000000E+00  0.24954613110E+04  0.37632958711E+04  0.28169253911E+04 0.  0.
        2    1    3    3  502    0 -0.78284226279E+03 -0.11126051966E+04  0.76045389007E+03  0.15585321462E+04  0.25500000920E-02 0. -1.
       -2    1    3    3    0  502  0.78284226279E+03  0.11126051966E+04  0.17350074209E+04  0.22047637249E+04  0.25500000920E-02 0.  1.
</event>
<event>
 5   0  0.3725232E-06  0.2997592E+04  0.7818609E-02  0.8244419E-01
       -1   -1    0    0    0  501  0.00000000000E+00  0.00000000000E+00  0.13441127871E+04  0.13441127871E+04  0.50400001928E-02 0.  1.
        1   -1    0    0  501    0  0.00000000000E+00  0.00000000000E+00 -0.16712809919E+04  0.16712809919E+04  0.50400001928E-02 0. -1.
    10030    2    1    2    0    0  0.00000000000E+00  0.00000000000E+00 -0.32716820480E+03  0.30153937791E+04  0.29975924687E+04 0.  0.
        2    1    3    3  502    0  0.49796844125E+03  0.13140820353E+04  0.36066912881E+03  0.14508157652E+04  0.25500000920E-02 0.  1.
       -2    1    3    3    0  502 -0.49796844125E+03 -0.13140820353E+04 -0.68783733361E+03  0.15645780139E+04  0.25500000920E-02 0. -1.
</event>
<event>
 5   0  0.3852126E-06  0.3104066E+04  0.7818609E-02  0.8214623E-01
        1   -1    0    0  501    0  0.00000000000E+00  0.00000000000E+00  0.24571009629E+04  0.24571009629E+04  0.50400001928E-02 0. -1.
       -1   -1    0    0    0  501  0.00000000000E+00  0.00000000000E+00 -0.98034516674E+03  0.98034516676E+03  0.50400001928E-02 0.  1.
    10030    2    1    2    0    0  0.00000000000E+00  0.00000000000E+00  0.14767557962E+04  0.34374461297E+04  0.31040663996E+04 0.  0.
        1    1    3    3  502    0 -0.66155171381E+02 -0.14134410192E+04  0.14445273279E+04  0.20220908048E+04  0.50400001928E-02 0. -1.
       -1    1    3    3    0  502  0.66155171381E+02  0.14134410192E+04  0.32228468267E+02  0.14153553249E+04  0.50400001928E-02 0.  1.
</event>
<event>
 5   0  0.3896630E-06  0.2997890E+04  0.7818609E-02  0.8244334E-01
       -1   -1    0    0    0  501  0.00000000000E+00  0.00000000000E+00  0.15361466342E+04  0.15361466342E+04  0.50400001928E-02 0.  1.
        1   -1    0    0  501    0  0.00000000000E+00  0.00000000000E+00 -0.14626446372E+04  0.14626446372E+04  0.50400001928E-02 0. -1.
    10030    2    1    2    0    0  0.00000000000E+00  0.00000000000E+00  0.73501997067E+02  0.29987912714E+04  0.29978903492E+04 0.  0.
        5    1    3    3  502    0 -0.97817088448E+03  0.11017069587E+04 -0.23944435459E+03  0.14926259381E+04  0.46999998093E+01 0. -1.
       -5    1    3    3    0  502  0.97817088448E+03 -0.11017069587E+04  0.31294635166E+03  0.15061653333E+04  0.46999998093E+01 0.  1.
</event>
<event>
 5   0  0.3725232E-06  0.3024143E+04  0.7818609E-02  0.8236870E-01
       -1   -1    0    0    0  501  0.00000000000E+00  0.00000000000E+00  0.15452131389E+04  0.15452131389E+04  0.50400001928E-02 0. -1.
        1   -1    0    0  501    0  0.00000000000E+00  0.00000000000E+00 -0.14796408926E+04  0.14796408926E+04  0.50400001928E-02 0.  1.
    10030    2    1    2    0    0  0.00000000000E+00  0.00000000000E+00  0.65572246245E+02  0.30248540315E+04  0.30241432163E+04 0.  0.
        2    1    3    3  502    0 -0.13012003306E+04  0.58112622321E+03 -0.47283300020E+03  0.15014662946E+04  0.25500000920E-02 0.  1.
       -2    1    3    3    0  502  0.13012003306E+04 -0.58112622321E+03  0.53840524644E+03  0.15233877369E+04  0.25500000920E-02 0. -1.
</event>
<event>
 5   0  0.1057036E-05  0.3074473E+04  0.7818609E-02  0.8222779E-01
       -2   -1    0    0    0  501  0.00000000000E+00  0.00000000000E+00  0.16564380489E+04  0.16564380489E+04  0.25500000920E-02 0. -1.
        2   -1    0    0  501    0  0.00000000000E+00  0.00000000000E+00 -0.14266130643E+04  0.14266130643E+04  0.25500000920E-02 0.  1.
    10030    2    1    2    0    0  0.00000000000E+00  0.00000000000E+00  0.22982498458E+03  0.30830511132E+04  0.30744730676E+04 0.  0.
        4    1    3    3  502    0 -0.57116506562E+03 -0.47442398400E+02 -0.13154663290E+04  0.14348984595E+04  0.12699999809E+01 0.  1.
       -4    1    3    3    0  502  0.57116506562E+03  0.47442398400E+02  0.15452913136E+04  0.16481526538E+04  0.12699999809E+01 0. -1.
</event>
<event>
 5   0  0.1057036E-05  0.2975010E+04  0.7818609E-02  0.8250903E-01
       -2   -1    0    0    0  501  0.00000000000E+00  0.00000000000E+00  0.20735945656E+04  0.20735945656E+04  0.25500000920E-02 0.  1.
        2   -1    0    0  501    0  0.00000000000E+00  0.00000000000E+00 -0.10670702737E+04  0.10670702737E+04  0.25500000920E-02 0. -1.
    10030    2    1    2    0    0  0.00000000000E+00  0.00000000000E+00  0.10065242919E+04  0.31406648393E+04  0.29750099971E+04 0.  0.
        4    1    3    3  502    0 -0.25805190317E+03 -0.10069359100E+04  0.16265390662E+04  0.19303216463E+04  0.12699999809E+01 0.  1.
       -4    1    3    3    0  502  0.25805190317E+03  0.10069359100E+04 -0.62001477428E+03  0.12103431930E+04  0.12699999809E+01 0. -1.
</event>
<event>
 5   0  0.1029922E-05  0.2999570E+04  0.7818609E-02  0.8243854E-01
       -2   -1    0    0    0  501  0.00000000000E+00  0.00000000000E+00  0.14205073637E+04  0.14205073637E+04  0.25500000920E-02 0.  1.
        2   -1    0    0  501    0  0.00000000000E+00  0.00000000000E+00 -0.15834872766E+04  0.15834872766E+04  0.25500000920E-02 0. -1.
    10030    2    1    2    0    0  0.00000000000E+00  0.00000000000E+00 -0.16297991296E+03  0.30039946403E+04  0.29995701937E+04 0.  0.
        1    1    3    3  502    0 -0.71068447613E+03  0.11011452547E+04 -0.81178573470E+03  0.15416190760E+04  0.50400001928E-02 0. -1.
       -1    1    3    3    0  502  0.71068447613E+03 -0.11011452547E+04  0.64880582173E+03  0.14623755642E+04  0.50400001928E-02 0.  1.
</event>
<event>
 5   0  0.3636718E-06  0.2981236E+04  0.7818609E-02  0.8249109E-01
       -1   -1    0    0    0  501  0.00000000000E+00  0.00000000000E+00  0.18791654231E+04  0.18791654231E+04  0.50400001928E-02 0. -1.
        1   -1    0    0  501    0  0.00000000000E+00  0.00000000000E+00 -0.11824092814E+04  0.11824092815E+04  0.50400001928E-02 0.  1.
    10030    2    1    2    0    0  0.00000000000E+00  0.00000000000E+00  0.69675614161E+03  0.30615747045E+04  0.29812364130E+04 0.  0.
        4    1    3    3  502    0  0.11793941029E+04 -0.44114680227E+03  0.11675968621E+04  0.17172259596E+04  0.12699999809E+01 0. -1.
       -4    1    3    3    0  502 -0.11793941029E+04  0.44114680227E+03 -0.47084072048E+03  0.13443487449E+04  0.12699999809E+01 0.  1.
</event>
<event>
 5   0  0.3636718E-06  0.3020681E+04  0.7818609E-02  0.8237850E-01
        1   -1    0    0  501    0  0.00000000000E+00  0.00000000000E+00  0.13144488186E+04  0.13144488186E+04  0.50400001928E-02 0. -1.
       -1   -1    0    0    0  501  0.00000000000E+00  0.00000000000E+00 -0.17354263496E+04  0.17354263496E+04  0.50400001928E-02 0.  1.
    10030    2    1    2    0    0  0.00000000000E+00  0.00000000000E+00 -0.42097753102E+03  0.30498751683E+04  0.30206814563E+04 0.  0.
        4    1    3    3  502    0  0.28135788295E+03 -0.38094969950E+03  0.12375415715E+04  0.13250644082E+04  0.12699999809E+01 0. -1.
       -4    1    3    3    0  502 -0.28135788295E+03  0.38094969950E+03 -0.16585191025E+04  0.17248107601E+04  0.12699999809E+01 0.  1.
</event>
<event>
 5   0  0.1089569E-05  0.3022719E+04  0.7818609E-02  0.8237273E-01
        2   -1    0    0  501    0  0.00000000000E+00  0.00000000000E+00  0.25182061286E+04  0.25182061286E+04  0.25500000920E-02 0. -1.
       -2   -1    0    0    0  501  0.00000000000E+00  0.00000000000E+00 -0.90707740881E+03  0.90707740881E+03  0.25500000920E-02 0.  1.
    10030    2    1    2    0    0  0.00000000000E+00  0.00000000000E+00  0.16111287198E+04  0.34252835374E+04  0.30227192327E+04 0.  0.
        5    1    3    3  502    0 -0.80324179026E+03 -0.12535801671E+02 -0.64509632196E+03  0.10303037778E+04  0.46999998093E+01 0.  1.
       -5    1    3    3    0  502  0.80324179026E+03  0.12535801671E+02  0.22562250417E+04  0.23949797596E+04  0.46999998093E+01 0. -1.
</event>
<event>
 5   0  0.3896630E-06  0.2009409E+04  0.7818609E-02  0.8602234E-01
       -1   -1    0    0    0  501  0.00000000000E+00  0.00000000000E+00  0.90376957004E+03  0.90376957005E+03  0.50400001928E-02 0. -1.
        1   -1    0    0  501    0  0.00000000000E+00  0.00000000000E+00 -0.11169122775E+04  0.11169122775E+04  0.50400001928E-02 0.  1.
    10030    2    1    2    0    0  0.00000000000E+00  0.00000000000E+00 -0.21314270747E+03  0.20206818476E+04  0.20094091956E+04 0.  0.
        5    1    3    3  502    0 -0.31208676307E+02  0.28477652376E+03 -0.10749573191E+04  0.11124868439E+04  0.46999998093E+01 0.  1.
       -5    1    3    3    0  502  0.31208676307E+02 -0.28477652376E+03  0.86181461161E+03  0.90819500370E+03  0.46999998093E+01 0. -1.
</event>
<event>
 5   0  0.3313750E-06  0.3052243E+04  0.7818609E-02  0.8228968E-01
       -3   -1    0    0    0  501  0.00000000000E+00  0.00000000000E+00  0.14059800817E+04  0.14059800853E+04  0.10100000352E+00 0.  1.
        3   -1    0    0  501    0  0.00000000000E+00  0.00000000000E+00 -0.16565292270E+04  0.16565292300E+04  0.10100000352E+00 0. -1.
    10030    2    1    2    0    0  0.00000000000E+00  0.00000000000E+00 -0.25054914525E+03  0.30625093154E+04  0.30522431805E+04 0.  0.
        1    1    3    3  502    0 -0.18738122801E+03  0.75329664587E+03 -0.14436497128E+04  0.16391131915E+04  0.50400001928E-02 0. -1.
       -1    1    3    3    0  502  0.18738122801E+03 -0.75329664587E+03  0.11931005675E+04  0.14233961239E+04  0.50400001928E-02 0.  1.
</event>
<event>
 5   0  0.9647945E-06  0.2998650E+04  0.7818609E-02  0.8244117E-01
        2   -1    0    0  501    0  0.00000000000E+00  0.00000000000E+00  0.18385572582E+04  0.18385572582E+04  0.25500000920E-02 0. -1.
       -2   -1    0    0    0  501  0.00000000000E+00  0.00000000000E+00 -0.12226843802E+04  0.12226843802E+04  0.25500000920E-02 0.  1.
    10030    2    1    2    0    0  0.00000000000E+00  0.00000000000E+00  0.61587287796E+03  0.30612416384E+04  0.29986498573E+04 0.  0.
        2    1    3    3  502    0  0.33978501934E+03  0.46560205955E+03 -0.11050555396E+04  0.12463494224E+04  0.25500000920E-02 0.  1.
       -2    1    3    3    0  502 -0.33978501934E+03 -0.46560205955E+03  0.17209284175E+04  0.18148922160E+04  0.25500000920E-02 0. -1.
</event>
<event>
 5   0  0.3592331E-06  0.2979988E+04  0.7818609E-02  0.8249469E-01
       -1   -1    0    0    0  501  0.00000000000E+00  0.00000000000E+00  0.12640497375E+04  0.12640497375E+04  0.50400001928E-02 0.  1.
        1   -1    0    0  501    0  0.00000000000E+00  0.00000000000E+00 -0.17563244854E+04  0.17563244854E+04  0.50400001928E-02 0. -1.
    10030    2    1    2    0    0  0.00000000000E+00  0.00000000000E+00 -0.49227474790E+03  0.30203742229E+04  0.29799875870E+04 0.  0.
        3    1    3    3  502    0 -0.87183154966E+03  0.11972804086E+04 -0.41116561185E+03  0.15370841872E+04  0.10100000352E+00 0. -1.
       -3    1    3    3    0  502  0.87183154966E+03 -0.11972804086E+04 -0.81109136048E+02  0.14832900357E+04  0.10100000352E+00 0.  1.
</event>
<event>
 5   0  0.1028450E-05  0.3067095E+04  0.7818609E-02  0.8224827E-01
        2   -1    0    0  501    0  0.00000000000E+00  0.00000000000E+00  0.10171035449E+04  0.10171035449E+04  0.25500000920E-02 0.  1.
       -2   -1    0    0    0  501  0.00000000000E+00  0.00000000000E+00 -0.23122205267E+04  0.23122205267E+04  0.25500000920E-02 0. -1.
    10030    2    1    2    0    0  0.00000000000E+00  0.00000000000E+00 -0.12951169817E+04  0.33293240716E+04  0.30670948432E+04 0.  0.
        3    1    3    3  502    0  0.21968938417E+02 -0.81035859976E+03 -0.20606262166E+04  0.22143495906E+04  0.10100000352E+00 0. -1.
       -3    1    3    3    0  502 -0.21968938417E+02  0.81035859976E+03  0.76550923488E+03  0.11149744810E+04  0.10100000352E+00 0.  1.
</event>
<event>
 5   0  0.1057036E-05  0.1982390E+04  0.7818609E-02  0.8614898E-01
        2   -1    0    0  501    0  0.00000000000E+00  0.00000000000E+00  0.10456715815E+04  0.10456715815E+04  0.25500000920E-02 0. -1.
       -2   -1    0    0    0  501  0.00000000000E+00  0.00000000000E+00 -0.93955689497E+03  0.93955689497E+03  0.25500000920E-02 0.  1.
    10030    2    1    2    0    0  0.00000000000E+00  0.00000000000E+00  0.10611468655E+03  0.19852284765E+04  0.19823904200E+04 0.  0.
        4    1    3    3  502    0  0.86915401520E+02 -0.66895125084E+03 -0.67421666489E+03  0.95373989490E+03  0.12699999809E+01 0.  1.
       -4    1    3    3    0  502 -0.86915401520E+02  0.66895125084E+03  0.78033135143E+03  0.10314885816E+04  0.12699999809E+01 0. -1.
</event>
<event>
 5   0  0.1057036E-05  0.2997757E+04  0.7818609E-02  0.8244372E-01
        2   -1    0    0  501    0  0.00000000000E+00  0.00000000000E+00  0.19031476806E+04  0.19031476806E+04  0.25500000920E-02 0.  1.
       -2   -1    0    0    0  501  0.00000000000E+00  0.00000000000E+00 -0.11804843739E+04  0.11804843739E+04  0.25500000920E-02 0. -1.
    10030    2    1    2    0    0  0.00000000000E+00  0.00000000000E+00  0.72266330673E+03  0.30836320544E+04  0.29977565599E+04 0.  0.
        4    1    3    3  502    0 -0.67084941761E+03 -0.45833524439E+02  0.17392938256E+04  0.18647477786E+04  0.12699999809E+01 0.  1.
       -4    1    3    3    0  502  0.67084941761E+03  0.45833524439E+02 -0.10166305189E+04  0.12188842758E+04  0.12699999809E+01 0. -1.
</event>
<event>
 5   0  0.3636718E-06  0.2998706E+04  0.7818609E-02  0.8244101E-01
        1   -1    0    0  501    0  0.00000000000E+00  0.00000000000E+00  0.17507968270E+04  0.17507968270E+04  0.50400001928E-02 0. -1.
       -1   -1    0    0    0  501  0.00000000000E+00  0.00000000000E+00 -0.12840205959E+04  0.12840205959E+04  0.50400001928E-02 0.  1.
    10030    2    1    2    0    0  0.00000000000E+00  0.00000000000E+00  0.46677623108E+03  0.30348174229E+04  0.29987058443E+04 0.  0.
        4    1    3    3  502    0  0.52016392360E+03 -0.42836913923E+03  0.15889156441E+04  0.17258983643E+04  0.12699999809E+01 0. -1.
       -4    1    3    3    0  502 -0.52016392360E+03  0.42836913923E+03 -0.11221394130E+04  0.13089190586E+04  0.12699999809E+01 0.  1.
</event>
<event>
 5   0  0.1029922E-05  0.3020080E+04  0.7818609E-02  0.8238020E-01
       -2   -1    0    0    0  501  0.00000000000E+00  0.00000000000E+00  0.15557069586E+04  0.15557069586E+04  0.25500000920E-02 0.  1.
        2   -1    0    0  501    0  0.00000000000E+00  0.00000000000E+00 -0.14657131150E+04  0.14657131150E+04  0.25500000920E-02 0. -1.
    10030    2    1    2    0    0  0.00000000000E+00  0.00000000000E+00  0.89993843555E+02  0.30214200736E+04  0.30200795303E+04 0.  0.
        1    1    3    3  502    0  0.11313412173E+03  0.14752242813E+04 -0.25702129820E+03  0.15017143395E+04  0.50400001928E-02 0. -1.
       -1    1    3    3    0  502 -0.11313412173E+03 -0.14752242813E+04  0.34701514176E+03  0.15197057341E+04  0.50400001928E-02 0.  1.
</event>
<event>
 5   0  0.3852126E-06  0.2990577E+04  0.7818609E-02  0.8246427E-01
        1   -1    0    0  501    0  0.00000000000E+00  0.00000000000E+00  0.15289349302E+04  0.15289349302E+04  0.50400001928E-02 0. -1.
       -1   -1    0    0    0  501  0.00000000000E+00  0.00000000000E+00 -0.14623826881E+04  0.14623826882E+04  0.50400001928E-02 0.  1.
    10030    2    1    2    0    0  0.00000000000E+00  0.00000000000E+00  0.66552242035E+02  0.29913176183E+04  0.29905771839E+04 0.  0.
        1    1    3    3  502    0 -0.12450911364E+04  0.37714411175E+03 -0.70406197411E+03  0.14792541643E+04  0.50400001928E-02 0.  1.
       -1    1    3    3    0  502  0.12450911364E+04 -0.37714411175E+03  0.77061421615E+03  0.15120634541E+04  0.50400001928E-02 0. -1.
</event>
<event>
 5   0  0.3896630E-06  0.2983995E+04  0.7818609E-02  0.8248316E-01
       -1   -1    0    0    0  501  0.00000000000E+00  0.00000000000E+00  0.10729035315E+04  0.10729035315E+04  0.50400001928E-02 0.  1.
        1   -1    0    0  501    0  0.00000000000E+00  0.00000000000E+00 -0.20747967845E+04  0.20747967845E+04  0.50400001928E-02 0. -1.
    10030    2    1    2    0    0  0.00000000000E+00  0.00000000000E+00 -0.10018932530E+04  0.31477003160E+04  0.29839951724E+04 0.  0.
        5    1    3    3  502    0 -0.12001997130E+04  0.88289015689E+03 -0.58306555845E+03  0.15999880986E+04  0.46999998093E+01 0.  1.
       -5    1    3    3    0  502  0.12001997130E+04 -0.88289015689E+03 -0.41882769453E+03  0.15477122174E+04  0.46999998093E+01 0. -1.
</event>
<event>
 5   0  0.1029922E-05  0.3156994E+04  0.7818609E-02  0.8200268E-01
        2   -1    0    0  501    0  0.00000000000E+00  0.00000000000E+00  0.26065024791E+04  0.26065024791E+04  0.25500000920E-02 0. -1.
       -2   -1    0    0    0  501  0.00000000000E+00  0.00000000000E+00 -0.95593710389E+03  0.95593710390E+03  0.25500000920E-02 0.  1.
    10030    2    1    2    0    0  0.00000000000E+00  0.00000000000E+00  0.16505653752E+04  0.35624395830E+04  0.31569937797E+04 0.  0.
        1    1    3    3  502    0 -0.14263502333E+04  0.24905823073E+03  0.11594445544E+03  0.14525660423E+04  0.50400001928E-02 0.  1.
       -1    1    3    3    0  502  0.14263502333E+04 -0.24905823073E+03  0.15346209198E+04  0.21098735407E+04  0.50400001928E-02 0. -1.
</event>
<event>
 5   0  0.3896630E-06  0.2347147E+04  0.7818609E-02  0.8459560E-01
        1   -1    0    0  501    0  0.00000000000E+00  0.00000000000E+00  0.14957354294E+04  0.14957354294E+04  0.50400001928E-02 0. -1.
       -1   -1    0    0    0  501  0.00000000000E+00  0.00000000000E+00 -0.92080069782E+03  0.92080069783E+03  0.50400001928E-02 0.  1.
    10030    2    1    2    0    0  0.00000000000E+00  0.00000000000E+00  0.57493473161E+03  0.24165361273E+04  0.23471465461E+04 0.  0.
        5    1    3    3  502    0 -0.16697652359E+03 -0.96425346649E+03 -0.37943721400E+03  0.10496002079E+04  0.46999998093E+01 0.  1.
       -5    1    3    3    0  502  0.16697652359E+03  0.96425346649E+03  0.95437194561E+03  0.13669359194E+04  0.46999998093E+01 0. -1.
</event>
<event>
 5   0  0.3896630E-06  0.2975688E+04  0.7818609E-02  0.8250708E-01
       -1   -1    0    0    0  501  0.00000000000E+00  0.00000000000E+00  0.79591894485E+03  0.79591894487E+03  0.50400001928E-02 0.  1.
        1   -1    0    0  501    0  0.00000000000E+00  0.00000000000E+00 -0.27812878264E+04  0.27812878264E+04  0.50400001928E-02 0. -1.
    10030    2    1    2    0    0  0.00000000000E+00  0.00000000000E+00 -0.19853688815E+04  0.35772067712E+04  0.29756879353E+04 0.  0.
        5    1    3    3  502    0 -0.10605946513E+04 -0.31101509532E+03  0.20468172463E+03  0.11240587628E+04  0.46999998093E+01 0.  1.
       -5    1    3    3    0  502  0.10605946513E+04  0.31101509532E+03 -0.21900506061E+04  0.24531480084E+04  0.46999998093E+01 0. -1.
</event>
<event>
 5   0  0.3852126E-06  0.2970708E+04  0.7818609E-02  0.8252145E-01
       -1   -1    0    0    0  501  0.00000000000E+00  0.00000000000E+00  0.13471778853E+04  0.13471778853E+04  0.50400001928E-02 0.  1.
        1   -1    0    0  501    0  0.00000000000E+00  0.00000000000E+00 -0.16377023222E+04  0.16377023222E+04  0.50400001928E-02 0. -1.
    10030    2    1    2    0    0  0.00000000000E+00  0.00000000000E+00 -0.29052443693E+03  0.29848802075E+04  0.29707078962E+04 0.  0.
        1    1    3    3  502    0  0.13544451338E+04 -0.43563780216E+03  0.28335749990E+03  0.14507216783E+04  0.50400001928E-02 0.  1.
       -1    1    3    3    0  502 -0.13544451338E+04  0.43563780216E+03 -0.57388193683E+03  0.15341585292E+04  0.50400001928E-02 0. -1.
</event>
<event>
 5   0  0.1089569E-05  0.2973067E+04  0.7818609E-02  0.8251464E-01
        2   -1    0    0  501    0  0.00000000000E+00  0.00000000000E+00  0.20966575000E+04  0.20966575000E+04  0.25500000920E-02 0.  1.
       -2   -1    0    0    0  501  0.00000000000E+00  0.00000000000E+00 -0.10539547524E+04  0.10539547524E+04  0.25500000920E-02 0. -1.
    10030    2    1    2    0    0  0.00000000000E+00  0.00000000000E+00  0.10427027476E+04  0.31506122524E+04  0.29730671949E+04 0.  0.
        5    1    3    3  502    0 -0.11626516139E+04 -0.58921471003E+03  0.12787548269E+04  0.18259706315E+04  0.46999998093E+01 0.  1.
       -5    1    3    3    0  502  0.11626516139E+04  0.58921471003E+03 -0.23605207930E+03  0.13246416209E+04  0.46999998093E+01 0. -1.
</event>
<event>
 5   0  0.1029922E-05  0.3046305E+04  0.7818609E-02  0.8230630E-01
       -2   -1    0    0    0  501  0.00000000000E+00  0.00000000000E+00  0.16524511822E+04  0.16524511822E+04  0.25500000920E-02 0. -1.
        2   -1    0    0  501    0  0.00000000000E+00  0.00000000000E+00 -0.14039714462E+04  0.14039714462E+04  0.25500000920E-02 0.  1.
    10030    2    1    2    0    0  0.00000000000E+00  0.00000000000E+00  0.24847973595E+03  0.30564226284E+04  0.30463054844E+04 0.  0.
        1    1    3    3  502    0  0.21133408904E+03  0.11989801288E+04 -0.79410255022E+03  0.14535523062E+04  0.50400001928E-02 0.  1.
       -1    1    3    3    0  502 -0.21133408904E+03 -0.11989801288E+04  0.10425822862E+04  0.16028703222E+04  0.50400001928E-02 0. -1.
</event>
<event>
 5   0  0.3725232E-06  0.3038085E+04  0.7818609E-02  0.8232938E-01
       -1   -1    0    0    0  501  0.00000000000E+00  0.00000000000E+00  0.11031889762E+04  0.11031889762E+04  0.50400001928E-02 0. -1.
        1   -1    0    0  501    0  0.00000000000E+00  0.00000000000E+00 -0.20916538712E+04  0.20916538712E+04  0.50400001928E-02 0.  1.
    10030    2    1    2    0    0  0.00000000000E+00  0.00000000000E+00 -0.98846489501E+03  0.31948428475E+04  0.30380845892E+04 0.  0.
        2    1    3    3  502    0  0.27689479154E+02 -0.14389329847E+04  0.16842588175E+02  0.14392979242E+04  0.25500000920E-02 0.  1.
       -2    1    3    3    0  502 -0.27689479154E+02  0.14389329847E+04 -0.10053074832E+04  0.17555449233E+04  0.25500000920E-02 0. -1.
</event>
<event>
 5   0  0.3896630E-06  0.2961972E+04  0.7818609E-02  0.8254674E-01
        1   -1    0    0  501    0  0.00000000000E+00  0.00000000000E+00  0.14049066118E+04  0.14049066118E+04  0.50400001928E-02 0.  1.
       -1   -1    0    0    0  501  0.00000000000E+00  0.00000000000E+00 -0.15611853498E+04  0.15611853498E+04  0.50400001928E-02 0. -1.
    10030    2    1    2    0    0  0.00000000000E+00  0.00000000000E+00 -0.15627873806E+03  0.29660919616E+04  0.29619720594E+04 0.  0.
        5    1    3    3  502    0 -0.11558181354E+04 -0.91669572131E+03 -0.20890017696E+03  0.14899355629E+04  0.46999998093E+01 0. -1.
       -5    1    3    3    0  502  0.11558181354E+04  0.91669572131E+03  0.52621438895E+02  0.14761563987E+04  0.46999998093E+01 0.  1.
</event>
<event>
 5   0  0.1028450E-05  0.2998066E+04  0.7818609E-02  0.8244283E-01
        2   -1    0    0  501    0  0.00000000000E+00  0.00000000000E+00  0.20255727548E+04  0.20255727548E+04  0.25500000920E-02 0. -1.
       -2   -1    0    0    0  501  0.00000000000E+00  0.00000000000E+00 -0.11093650710E+04  0.11093650710E+04  0.25500000920E-02 0.  1.
    10030    2    1    2    0    0  0.00000000000E+00  0.00000000000E+00  0.91620768380E+03  0.31349378257E+04  0.29980658184E+04 0.  0.
        3    1    3    3  502    0 -0.13704406725E+04 -0.30192957721E+03 -0.93056251903E+02  0.14063884893E+04  0.10100000352E+00 0.  1.
       -3    1    3    3    0  502  0.13704406725E+04  0.30192957721E+03  0.10092639357E+04  0.17285493365E+04  0.10100000352E+00 0. -1.
</event>
<event>
 5   0  0.1029922E-05  0.3005820E+04  0.7818609E-02  0.8242071E-01
       -2   -1    0    0    0  501  0.00000000000E+00  0.00000000000E+00  0.11363639906E+04  0.11363639906E+04  0.25500000920E-02 0.  1.
        2   -1    0    0  501    0  0.00000000000E+00  0.00000000000E+00 -0.19876886067E+04  0.19876886067E+04  0.25500000920E-02 0. -1.
    10030    2    1    2    0    0  0.00000000000E+00  0.00000000000E+00 -0.85132461605E+03  0.31240525973E+04  0.30058195270E+04 0.  0.
        1    1    3    3  502    0 -0.14135220885E+04  0.23942688416E+03  0.43039428464E+02  0.14343020323E+04  0.50400001928E-02 0.  1.
       -1    1    3    3    0  502  0.14135220885E+04 -0.23942688416E+03 -0.89436404452E+03  0.16897505649E+04  0.50400001928E-02 0. -1.
</event>
<event>
 5   0  0.3313750E-06  0.2992010E+04  0.7818609E-02  0.8246016E-01
        3   -1    0    0  501    0  0.00000000000E+00  0.00000000000E+00  0.20798419469E+04  0.20798419493E+04  0.10100000352E+00 0.  1.
       -3   -1    0    0    0  501  0.00000000000E+00  0.00000000000E+00 -0.10760580146E+04  0.10760580194E+04  0.10100000352E+00 0. -1.
    10030    2    1    2    0    0  0.00000000000E+00  0.00000000000E+00  0.10037839322E+04  0.31558999687E+04  0.29920097643E+04 0.  0.
        5    1    3    3  502    0 -0.73272412602E+03 -0.95285465660E+03  0.14412893606E+04  0.18767401931E+04  0.46999998093E+01 0. -1.
       -5    1    3    3    0  502  0.73272412602E+03  0.95285465660E+03 -0.43750542842E+03  0.12791597755E+04  0.46999998093E+01 0.  1.
</event>
<event>
 5   0  0.3725232E-06  0.2952576E+04  0.7818609E-02  0.8257404E-01
        1   -1    0    0  501    0  0.00000000000E+00  0.00000000000E+00  0.15760758749E+04  0.15760758749E+04  0.50400001928E-02 0. -1.
       -1   -1    0    0    0  501  0.00000000000E+00  0.00000000000E+00 -0.13828182154E+04  0.13828182154E+04  0.50400001928E-02 0.  1.
    10030    2    1    2    0    0  0.00000000000E+00  0.00000000000E+00  0.19325765948E+03  0.29588940903E+04  0.29525761150E+04 0.  0.
        2    1    3    3  502    0  0.41286430103E+03  0.55733791584E+03  0.14026227100E+04  0.15647469284E+04  0.25500000920E-02 0. -1.
       -2    1    3    3    0  502 -0.41286430103E+03 -0.55733791584E+03 -0.12093650505E+04  0.13941471618E+04  0.25500000920E-02 0.  1.
</event>
<event>
 5   0  0.3896630E-06  0.2154068E+04  0.7818609E-02  0.8537793E-01
       -1   -1    0    0    0  501  0.00000000000E+00  0.00000000000E+00  0.66560439357E+03  0.66560439359E+03  0.50400001928E-02 0. -1.
        1   -1    0    0  501    0  0.00000000000E+00  0.00000000000E+00 -0.17427796250E+04  0.17427796250E+04  0.50400001928E-02 0.  1.
    10030    2    1    2    0    0  0.00000000000E+00  0.00000000000E+00 -0.10771752314E+04  0.24083840186E+04  0.21540675713E+04 0.  0.
        5    1    3    3  502    0  0.10184384222E+04 -0.28845263337E+03 -0.76096123759E+03  0.13036509642E+04  0.46999998093E+01 0.  1.
       -5    1    3    3    0  502 -0.10184384222E+04  0.28845263337E+03 -0.31621399384E+03  0.11047330543E+04  0.46999998093E+01 0. -1.
</event>
<event>
 5   0  0.3725232E-06  0.3020914E+04  0.7818609E-02  0.8237784E-01
       -1   -1    0    0    0  501  0.00000000000E+00  0.00000000000E+00  0.17097822552E+04  0.17097822552E+04  0.50400001928E-02 0. -1.
        1   -1    0    0  501    0  0.00000000000E+00  0.00000000000E+00 -0.13343688242E+04  0.13343688242E+04  0.50400001928E-02 0.  1.
    10030    2    1    2    0    0  0.00000000000E+00  0.00000000000E+00  0.37541343104E+03  0.30441510794E+04  0.30209138600E+04 0.  0.
        2    1    3    3  502    0  0.26942510411E+03 -0.11290893049E+04  0.11616022249E+04  0.16421791236E+04  0.25500000920E-02 0. -1.
       -2    1    3    3    0  502 -0.26942510411E+03  0.11290893049E+04 -0.78618879383E+03  0.14019719558E+04  0.25500000920E-02 0.  1.
</event>
<event>
 5   0  0.3896630E-06  0.1998443E+04  0.7818609E-02  0.8607349E-01
        1   -1    0    0  501    0  0.00000000000E+00  0.00000000000E+00  0.14744551046E+04  0.14744551046E+04  0.50400001928E-02 0.  1.
       -1   -1    0    0    0  501  0.00000000000E+00  0.00000000000E+00 -0.67716096559E+03  0.67716096561E+03  0.50400001928E-02 0. -1.
    10030    2    1    2    0    0  0.00000000000E+00  0.00000000000E+00  0.79729413898E+03  0.21516160702E+04  0.19984428362E+04 0.  0.
        5    1    3    3  502    0 -0.50278792015E+03 -0.85852661752E+03  0.29904881009E+03  0.10389013074E+04  0.46999998093E+01 0.  1.
       -5    1    3    3    0  502  0.50278792015E+03  0.85852661752E+03  0.49824532889E+03  0.11127147628E+04  0.46999998093E+01 0. -1.
</event>
<event>
 5   0  0.3725232E-06  0.2996554E+04  0.7818609E-02  0.8244716E-01
        1   -1    0    0  501    0  0.00000000000E+00  0.00000000000E+00  0.10909027032E+04  0.10909027032E+04  0.50400001928E-02 0.  1.
       -1   -1    0    0    0  501  0.00000000000E+00  0.00000000000E+00 -0.20577763087E+04  0.20577763087E+04  0.50400001928E-02 0. -1.
    10030    2    1    2    0    0  0.00000000000E+00  0.00000000000E+00 -0.96687360552E+03  0.31486790119E+04  0.29965538459E+04 0.  0.
        2    1    3    3  502    0 -0.11067636958E+04  0.76048439245E+03 -0.11816800532E+04  0.17887509994E+04  0.25500000920E-02 0.  1.
       -2    1    3    3    0  502  0.11067636958E+04 -0.76048439245E+03  0.21480644773E+03  0.13599280126E+04  0.25500000920E-02 0. -1.
</event>
<event>
 5   0  0.1028450E-05  0.2918631E+04  0.7818609E-02  0.8267356E-01
        2   -1    0    0  501    0  0.00000000000E+00  0.00000000000E+00  0.13732367464E+04  0.13732367464E+04  0.25500000920E-02 0.  1.
       -2   -1    0    0    0  501  0.00000000000E+00  0.00000000000E+00 -0.15507895692E+04  0.15507895692E+04  0.25500000920E-02 0. -1.
    10030    2    1    2    0    0  0.00000000000E+00  0.00000000000E+00 -0.17755282272E+03  0.29240263156E+04  0.29186306531E+04 0.  0.
        3    1    3    3  502    0 -0.64233018861E+03  0.38047960339E+02  0.12234409780E+04  0.13823326501E+04  0.10100000352E+00 0.  1.
       -3    1    3    3    0  502  0.64233018861E+03 -0.38047960339E+02 -0.14009938007E+04  0.15416936656E+04  0.10100000352E+00 0. -1.
</event>
<event>
 5   0  0.9647945E-06  0.2611911E+04  0.7818609E-02  0.8364167E-01
       -2   -1    0    0    0  501  0.00000000000E+00  0.00000000000E+00  0.10454670904E+04  0.10454670904E+04  0.25500000920E-02 0. -1.
        2   -1    0    0  501    0  0.00000000000E+00  0.00000000000E+00 -0.16313465771E+04  0.16313465771E+04  0.25500000920E-02 0.  1.
    10030    2    1    2    0    0  0.00000000000E+00  0.00000000000E+00 -0.58587948673E+03  0.26768136675E+04  0.26119105340E+04 0.  0.
        2    1    3    3  502    0 -0.12998358130E+03  0.32644947259E+03  0.99611250001E+03  0.10562694269E+04  0.25500000920E-02 0. -1.
       -2    1    3    3    0  502  0.12998358130E+03 -0.32644947259E+03 -0.15819919867E+04  0.16205442406E+04  0.25500000920E-02 0.  1.
</event>
<event>
 5   0  0.1029922E-05  0.2972789E+04  0.7818609E-02  0.8251544E-01
        2   -1    0    0  501    0  0.00000000000E+00  0.00000000000E+00  0.22197119304E+04  0.22197119304E+04  0.25500000920E-02 0. -1.
       -2   -1    0    0    0  501  0.00000000000E+00  0.00000000000E+00 -0.99534015352E+03  0.99534015353E+03  0.25500000920E-02 0.  1.
    10030    2    1    2    0    0  0.00000000000E+00  0.00000000000E+00  0.12243717769E+04  0.32150520840E+04  0.29727888681E+04 0.  0.
        1    1    3    3  502    0  0.19520393564E+03 -0.13113540390E+03  0.21994660384E+04  0.22120017914E+04  0.50400001928E-02 0. -1.
       -1    1    3    3    0  502 -0.19520393564E+03  0.13113540390E+03 -0.97509426152E+03  0.10030502926E+04  0.50400001928E-02 0.  1.
</event>
<event>
 5   0  0.3725232E-06  0.3080454E+04  0.7818609E-02  0.8221123E-01
        1   -1    0    0  501    0  0.00000000000E+00  0.00000000000E+00  0.17517489000E+04  0.17517489000E+04  0.50400001928E-02 0.  1.
       -1   -1    0    0    0  501  0.00000000000E+00  0.00000000000E+00 -0.13542462373E+04  0.13542462374E+04  0.50400001928E-02 0. -1.
    10030    2    1    2    0    0  0.00000000000E+00  0.00000000000E+00  0.39750266270E+03  0.31059951374E+04  0.30804540942E+04 0.  0.
        2    1    3    3  502    0 -0.76080185598E+03 -0.10313566930E+04  0.10601079202E+04  0.16632332653E+04  0.25500000920E-02 0.  1.
       -2    1    3    3    0  502  0.76080185598E+03  0.10313566930E+04 -0.66260525753E+03  0.14427618721E+04  0.25500000920E-02 0. -1.
</event>
<event>
 5   0  0.1057036E-05  0.3008584E+04  0.7818609E-02  0.8241284E-01
        2   -1    0    0  501    0  0.00000000000E+00  0.00000000000E+00  0.12068004703E+04  0.12068004703E+04  0.25500000920E-02 0. -1.
       -2   -1    0    0    0  501  0.00000000000E+00  0.00000000000E+00 -0.18751190540E+04  0.18751190540E+04  0.25500000920E-02 0.  1.
    10030    2    1    2    0    0  0.00000000000E+00  0.00000000000E+00 -0.66831858369E+03  0.30819195243E+04  0.30085840897E+04 0.  0.
        4    1    3    3  502    0 -0.12792744343E+04 -0.15956342606E+03  0.45990634646E+03  0.13687655116E+04  0.12699999809E+01 0. -1.
       -4    1    3    3    0  502  0.12792744343E+04  0.15956342606E+03 -0.11282249302E+04  0.17131540127E+04  0.12699999809E+01 0.  1.
</event>
<event>
 5   0  0.3852126E-06  0.3034707E+04  0.7818609E-02  0.8233889E-01
        1   -1    0    0  501    0  0.00000000000E+00  0.00000000000E+00  0.19727098326E+04  0.19727098326E+04  0.50400001928E-02 0.  1.
       -1   -1    0    0    0  501  0.00000000000E+00  0.00000000000E+00 -0.11671058132E+04  0.11671058132E+04  0.50400001928E-02 0. -1.
    10030    2    1    2    0    0  0.00000000000E+00  0.00000000000E+00  0.80560401936E+03  0.31398156458E+04  0.30347066504E+04 0.  0.
        1    1    3    3  502    0  0.10613596930E+03 -0.13375666105E+04  0.11358702584E+04  0.17579961676E+04  0.50400001928E-02 0.  1.
       -1    1    3    3    0  502 -0.10613596930E+03  0.13375666105E+04 -0.33026623899E+03  0.13818194782E+04  0.50400001928E-02 0. -1.
</event>
<event>
 5   0  0.3636718E-06  0.2487951E+04  0.7818609E-02  0.8407291E-01
        1   -1    0    0  501    0  0.00000000000E+00  0.00000000000E+00  0.13487091566E+04  0.13487091566E+04  0.50400001928E-02 0.  1.
       -1   -1    0    0    0  501  0.00000000000E+00  0.00000000000E+00 -0.11473750573E+04  0.11473750573E+04  0.50400001928E-02 0. -1.
    10030    2    1    2    0    0  0.00000000000E+00  0.00000000000E+00  0.20133409927E+03  0.24960842139E+04  0.24879511618E+04 0.  0.
        4    1    3    3  502    0  0.40250219107E+01  0.58629538064E+03 -0.10000590077E+04  0.11592575667E+04  0.12699999809E+01 0. -1.
       -4    1    3    3    0  502 -0.40250219107E+01 -0.58629538064E+03  0.12013931070E+04  0.13368266472E+04  0.12699999809E+01 0.  1.
</event>
<event>
 5   0  0.1028450E-05  0.3061500E+04  0.7818609E-02  0.8226384E-01
        2   -1    0    0  501    0  0.00000000000E+00  0.00000000000E+00  0.80981504851E+03  0.80981504851E+03  0.25500000920E-02 0.  1.
       -2   -1    0    0    0  501  0.00000000000E+00  0.00000000000E+00 -0.28934940126E+04  0.28934940126E+04  0.25500000920E-02 0. -1.
    10030    2    1    2    0    0  0.00000000000E+00  0.00000000000E+00 -0.20836789641E+04  0.37033090611E+04  0.30614996287E+04 0.  0.
        3    1    3    3  502    0  0.50917021927E+03  0.61879455198E+03 -0.26194952171E+04  0.27393276935E+04  0.10100000352E+00 0. -1.
       -3    1    3    3    0  502 -0.50917021927E+03 -0.61879455198E+03  0.53581625306E+03  0.96398136756E+03  0.10100000352E+00 0.  1.
</event>
<event>
 5   0  0.3896630E-06  0.2382718E+04  0.7818609E-02  0.8446002E-01
        1   -1    0    0  501    0  0.00000000000E+00  0.00000000000E+00  0.12285569773E+04  0.12285569774E+04  0.50400001928E-02 0.  1.
       -1   -1    0    0    0  501  0.00000000000E+00  0.00000000000E+00 -0.11552873297E+04  0.11552873297E+04  0.50400001928E-02 0. -1.
    10030    2    1    2    0    0  0.00000000000E+00  0.00000000000E+00  0.73269647650E+02  0.23838443071E+04  0.23827180360E+04 0.  0.
        5    1    3    3  502    0 -0.67083624222E+03  0.42806031800E+03 -0.85038299337E+03  0.11646588450E+04  0.46999998093E+01 0. -1.
       -5    1    3    3    0  502  0.67083624222E+03 -0.42806031800E+03  0.92365264102E+03  0.12191854621E+04  0.46999998093E+01 0.  1.
</event>
<event>
 5   0  0.1028450E-05  0.3007107E+04  0.7818609E-02  0.8241704E-01
        2   -1    0    0  501    0  0.00000000000E+00  0.00000000000E+00  0.12437779136E+04  0.12437779136E+04  0.25500000920E-02 0.  1.
       -2   -1    0    0    0  501  0.00000000000E+00  0.00000000000E+00 -0.18175863657E+04  0.18175863657E+04  0.25500000920E-02 0. -1.
    10030    2    1    2    0    0  0.00000000000E+00  0.00000000000E+00 -0.57380845208E+03  0.30613642792E+04  0.30071074325E+04 0.  0.
        3    1    3    3  502    0  0.21718919479E+02 -0.80865332856E+03  0.10033549087E+04  0.12888417282E+04  0.10100000352E+00 0.  1.
       -3    1    3    3    0  502 -0.21718919479E+02  0.80865332856E+03 -0.15771633608E+04  0.17725225511E+04  0.10100000352E+00 0. -1.
</event>
<event>
 5   0  0.3852126E-06  0.2957799E+04  0.7818609E-02  0.8255885E-01
        1   -1    0    0  501    0  0.00000000000E+00  0.00000000000E+00  0.20287851907E+04  0.20287851907E+04  0.50400001928E-02 0. -1.
       -1   -1    0    0    0  501  0.00000000000E+00  0.00000000000E+00 -0.10780558606E+04  0.10780558606E+04  0.50400001928E-02 0.  1.
    10030    2    1    2    0    0  0.00000000000E+00  0.00000000000E+00  0.95072933005E+03  0.31068410513E+04  0.29577990228E+04 0.  0.
        1    1    3    3  502    0 -0.29021995393E+03  0.12258507982E+04  0.12891325132E+04  0.18024429083E+04  0.50400001928E-02 0. -1.
       -1    1    3    3    0  502  0.29021995393E+03 -0.12258507982E+04 -0.33840318319E+03  0.13043981430E+04  0.50400001928E-02 0.  1.
</event>
<event>
 5   0  0.3896630E-06  0.2957845E+04  0.7818609E-02  0.8255872E-01
       -1   -1    0    0    0  501  0.00000000000E+00  0.00000000000E+00  0.14030819054E+04  0.14030819054E+04  0.50400001928E-02 0. -1.
        1   -1    0    0  501    0  0.00000000000E+00  0.00000000000E+00 -0.15588623193E+04  0.15588623193E+04  0.50400001928E-02 0.  1.
    10030    2    1    2    0    0  0.00000000000E+00  0.00000000000E+00 -0.15578041385E+03  0.29619442247E+04  0.29578448325E+04 0.  0.
        5    1    3    3  502    0  0.60757781038E+03  0.11802123074E+04  0.57503917887E+03  0.14466319620E+04  0.46999998093E+01 0. -1.
       -5    1    3    3    0  502 -0.60757781038E+03 -0.11802123074E+04 -0.73081959272E+03  0.15153122627E+04  0.46999998093E+01 0.  1.
</event>
<event>
 5   0  0.1089569E-05  0.2998526E+04  0.7818609E-02  0.8244152E-01
       -2   -1    0    0    0  501  0.00000000000E+00  0.00000000000E+00  0.12452728105E+04  0.12452728105E+04  0.25500000920E-02 0.  1.
        2   -1    0    0  501    0  0.00000000000E+00  0.00000000000E+00 -0.18050576029E+04  0.18050576029E+04  0.25500000920E-02 0. -1.
    10030    2    1    2    0    0  0.00000000000E+00  0.00000000000E+00 -0.55978479241E+03  0.30503304134E+04  0.29985257406E+04 0.  0.
        5    1    3    3  502    0 -0.38542574517E+03 -0.12781344711E+04  0.41423504718E+03  0.13977816337E+04  0.46999998093E+01 0.  1.
       -5    1    3    3    0  502  0.38542574517E+03  0.12781344711E+04 -0.97401983959E+03  0.16525487797E+04  0.46999998093E+01 0. -1.
</event>
<event>
 5   0  0.3852126E-06  0.3004258E+04  0.7818609E-02  0.8242516E-01
       -1   -1    0    0    0  501  0.00000000000E+00  0.00000000000E+00  0.12859285945E+04  0.12859285945E+04  0.50400001928E-02 0. -1.
        1   -1    0    0  501    0  0.00000000000E+00  0.00000000000E+00 -0.17546782629E+04  0.17546782629E+04  0.50400001928E-02 0.  1.
    10030    2    1    2    0    0  0.00000000000E+00  0.00000000000E+00 -0.46874966842E+03  0.30406068574E+04  0.30042576137E+04 0.  0.
        1    1    3    3  502    0  0.10770613480E+04  0.38913916460E+03  0.74944628949E+03  0.13686344208E+04  0.50400001928E-02 0. -1.
       -1    1    3    3    0  502 -0.10770613480E+04 -0.38913916460E+03 -0.12181959579E+04  0.16719724366E+04  0.50400001928E-02 0.  1.
</event>
<event>
 5   0  0.1089569E-05  0.2834737E+04  0.7818609E-02  0.8292564E-01
       -2   -1    0    0    0  501  0.00000000000E+00  0.00000000000E+00  0.16377712473E+04  0.16377712473E+04  0.25500000920E-02 0.  1.
        2   -1    0    0  501    0  0.00000000000E+00  0.00000000000E+00 -0.12266260851E+04  0.12266260851E+04  0.25500000920E-02 0. -1.
    10030    2    1    2    0    0  0.00000000000E+00  0.00000000000E+00  0.41114516218E+03  0.28643973324E+04  0.28347366251E+04 0.  0.
        5    1    3    3  502    0  0.65733473973E+03 -0.11431705760E+04  0.73060810498E+03  0.15075603533E+04  0.46999998093E+01 0.  1.
       -5    1    3    3    0  502 -0.65733473973E+03  0.11431705760E+04 -0.31946294280E+03  0.13568369791E+04  0.46999998093E+01 0. -1.
</event>
<event>
 5   0  0.3725232E-06  0.3084070E+04  0.7818609E-02  0.8220123E-01
       -1   -1    0    0    0  501  0.00000000000E+00  0.00000000000E+00  0.14846751120E+04  0.14846751120E+04  0.50400001928E-02 0.  1.
        1   -1    0    0  501    0  0.00000000000E+00  0.00000000000E+00 -0.16016114727E+04  0.16016114727E+04  0.50400001928E-02 0. -1.
    10030    2    1    2    0    0  0.00000000000E+00  0.00000000000E+00 -0.11693636066E+03  0.30862865848E+04  0.30840704873E+04 0.  0.
        2    1    3    3  502    0  0.12901304138E+04 -0.48400752452E+03  0.63425240045E+03  0.15168967915E+04  0.25500000920E-02 0.  1.
       -2    1    3    3    0  502 -0.12901304138E+04  0.48400752452E+03 -0.75118876111E+03  0.15693897933E+04  0.25500000920E-02 0. -1.
</event>
<event>
 5   0  0.3592331E-06  0.1946140E+04  0.7818609E-02  0.8632224E-01
        1   -1    0    0  501    0  0.00000000000E+00  0.00000000000E+00  0.12934562302E+04  0.12934562302E+04  0.50400001928E-02 0.  1.
       -1   -1    0    0    0  501  0.00000000000E+00  0.00000000000E+00 -0.73204303950E+03  0.73204303952E+03  0.50400001928E-02 0. -1.
    10030    2    1    2    0    0  0.00000000000E+00  0.00000000000E+00  0.56141319072E+03  0.20254992698E+04  0.19461404166E+04 0.  0.
        3    1    3    3  502    0  0.61723197068E+03 -0.37758555528E+02 -0.50123852993E+03  0.79601575879E+03  0.10100000352E+00 0.  1.
       -3    1    3    3    0  502 -0.61723197068E+03  0.37758555528E+02  0.10626517207E+04  0.12294835110E+04  0.10100000352E+00 0. -1.
</event>
<event>
 5   0  0.3896630E-06  0.3017914E+04  0.7818609E-02  0.8238634E-01
        1   -1    0    0  501    0  0.00000000000E+00  0.00000000000E+00  0.15009850427E+04  0.15009850427E+04  0.50400001928E-02 0.  1.
       -1   -1    0    0    0  501  0.00000000000E+00  0.00000000000E+00 -0.15169710620E+04  0.15169710620E+04  0.50400001928E-02 0. -1.
    10030    2    1    2    0    0  0.00000000000E+00  0.00000000000E+00 -0.15986019266E+02  0.30179561047E+04  0.30179137657E+04 0.  0.
        5    1    3    3  502    0  0.29756517453E+03  0.19739189785E+03 -0.14741036807E+04  0.15167439948E+04  0.46999998093E+01 0. -1.
       -5    1    3    3    0  502 -0.29756517453E+03 -0.19739189785E+03  0.14581176614E+04  0.15012121099E+04  0.46999998093E+01 0.  1.
</event>
<event>
 5   0  0.9647945E-06  0.3072578E+04  0.7818609E-02  0.8223304E-01
        2   -1    0    0  501    0  0.00000000000E+00  0.00000000000E+00  0.23426673137E+04  0.23426673137E+04  0.25500000920E-02 0.  1.
       -2   -1    0    0    0  501  0.00000000000E+00  0.00000000000E+00 -0.10074768720E+04  0.10074768720E+04  0.25500000920E-02 0. -1.
    10030    2    1    2    0    0  0.00000000000E+00  0.00000000000E+00  0.13351904417E+04  0.33501441857E+04  0.30725775091E+04 0.  0.
        2    1    3    3  502    0 -0.13660361991E+03  0.14814724425E+04  0.24989236138E+03  0.15085978056E+04  0.25500000920E-02 0.  1.
       -2    1    3    3    0  502  0.13660361991E+03 -0.14814724425E+04  0.10852980803E+04  0.18415463801E+04  0.25500000920E-02 0. -1.
</event>
<event>
 5   0  0.1029922E-05  0.3006149E+04  0.7818609E-02  0.8241977E-01
        2   -1    0    0  501    0  0.00000000000E+00  0.00000000000E+00  0.21010961508E+04  0.21010961508E+04  0.25500000920E-02 0. -1.
       -2   -1    0    0    0  501  0.00000000000E+00  0.00000000000E+00 -0.10752640827E+04  0.10752640827E+04  0.25500000920E-02 0.  1.
    10030    2    1    2    0    0  0.00000000000E+00  0.00000000000E+00  0.10258320681E+04  0.31763602336E+04  0.30061491815E+04 0.  0.
        1    1    3    3  502    0  0.82399653993E+03 -0.77299257299E+03  0.15603815477E+04  0.19264678534E+04  0.50400001928E-02 0. -1.
       -1    1    3    3    0  502 -0.82399653993E+03  0.77299257299E+03 -0.53454947963E+03  0.12498923801E+04  0.50400001928E-02 0.  1.
</event>
<event>
 5   0  0.3852126E-06  0.3019756E+04  0.7818609E-02  0.8238112E-01
        1   -1    0    0  501    0  0.00000000000E+00  0.00000000000E+00  0.16734912376E+04  0.16734912376E+04  0.50400001928E-02 0.  1.
       -1   -1    0    0    0  501  0.00000000000E+00  0.00000000000E+00 -0.13622605753E+04  0.13622605753E+04  0.50400001928E-02 0. -1.
    10030    2    1    2    0    0  0.00000000000E+00  0.00000000000E+00  0.31123066232E+03  0.30357518129E+04  0.30197557094E+04 0.  0.
        1    1    3    3  502    0 -0.82600898387E+03  0.11867610264E+02  0.14261532286E+04  0.16481337061E+04  0.50400001928E-02 0.  1.
       -1    1    3    3    0  502  0.82600898387E+03 -0.11867610264E+02 -0.11149225663E+04  0.13876181069E+04  0.50400001928E-02 0. -1.
</event>
<event>
 5   0  0.3592331E-06  0.2515988E+04  0.7818609E-02  0.8397312E-01
       -1   -1    0    0    0  501  0.00000000000E+00  0.00000000000E+00  0.11933127910E+04  0.11933127910E+04  0.50400001928E-02 0.  1.
        1   -1    0    0  501    0  0.00000000000E+00  0.00000000000E+00 -0.13261807408E+04  0.13261807408E+04  0.50400001928E-02 0. -1.
    10030    2    1    2    0    0  0.00000000000E+00  0.00000000000E+00 -0.13286794986E+03  0.25194935318E+04  0.25159876320E+04 0.  0.
        3    1    3    3  502    0  0.12527306088E+04 -0.87384663803E+02  0.83586077810E+01  0.12558025061E+04  0.10100000352E+00 0. -1.
       -3    1    3    3    0  502 -0.12527306088E+04  0.87384663803E+02 -0.14122655764E+03  0.12636910257E+04  0.10100000352E+00 0.  1.
</event>
<event>
 5   0  0.3592331E-06  0.2595109E+04  0.7818609E-02  0.8369865E-01
        1   -1    0    0  501    0  0.00000000000E+00  0.00000000000E+00  0.25583086770E+04  0.25583086770E+04  0.50400001928E-02 0. -1.
       -1   -1    0    0    0  501  0.00000000000E+00  0.00000000000E+00 -0.65810945118E+03  0.65810945120E+03  0.50400001928E-02 0.  1.
    10030    2    1    2    0    0  0.00000000000E+00  0.00000000000E+00  0.19001992258E+04  0.32164181282E+04  0.25951085676E+04 0.  0.
        3    1    3    3  502    0  0.80593531100E+03 -0.13087996733E+03 -0.29979794067E+03  0.86979314024E+03  0.10100000352E+00 0.  1.
       -3    1    3    3    0  502 -0.80593531100E+03  0.13087996733E+03  0.21999971665E+04  0.23466249879E+04  0.10100000352E+00 0. -1.
</event>
<event>
 5   0  0.3636718E-06  0.2203869E+04  0.7818609E-02  0.8516820E-01
       -1   -1    0    0    0  501  0.00000000000E+00  0.00000000000E+00  0.93074438726E+03  0.93074438728E+03  0.50400001928E-02 0.  1.
        1   -1    0    0  501    0  0.00000000000E+00  0.00000000000E+00 -0.13046110169E+04  0.13046110169E+04  0.50400001928E-02 0. -1.
    10030    2    1    2    0    0  0.00000000000E+00  0.00000000000E+00 -0.37386662963E+03  0.22353554042E+04  0.22038687634E+04 0.  0.
        4    1    3    3  502    0  0.56669362131E+03  0.93112925476E+03 -0.23024979962E+02  0.10902637810E+04  0.12699999809E+01 0.  1.
       -4    1    3    3    0  502 -0.56669362131E+03 -0.93112925476E+03 -0.35084164967E+03  0.11450916232E+04  0.12699999809E+01 0. -1.
</event>
<event>
 5   0  0.1029922E-05  0.3079799E+04  0.7818609E-02  0.8221304E-01
        2   -1    0    0  501    0  0.00000000000E+00  0.00000000000E+00  0.19255835829E+04  0.19255835829E+04  0.25500000920E-02 0. -1.
       -2   -1    0    0    0  501  0.00000000000E+00  0.00000000000E+00 -0.12314658154E+04  0.12314658154E+04  0.25500000920E-02 0.  1.
    10030    2    1    2    0    0  0.00000000000E+00  0.00000000000E+00  0.69411776747E+03  0.31570493983E+04  0.30797989265E+04 0.  0.
        1    1    3    3  502    0  0.11090611985E+04 -0.90123222593E+03 -0.24096187841E+03  0.14492407991E+04  0.50400001928E-02 0.  1.
       -1    1    3    3    0  502 -0.11090611985E+04  0.90123222593E+03  0.93507964588E+03  0.17078085991E+04  0.50400001928E-02 0. -1.
</event>
<event>
 5   0  0.1028450E-05  0.2966907E+04  0.7818609E-02  0.8253244E-01
        2   -1    0    0  501    0  0.00000000000E+00  0.00000000000E+00  0.12139005000E+04  0.12139005000E+04  0.25500000920E-02 0.  1.
       -2   -1    0    0    0  501  0.00000000000E+00  0.00000000000E+00 -0.18128623317E+04  0.18128623317E+04  0.25500000920E-02 0. -1.
    10030    2    1    2    0    0  0.00000000000E+00  0.00000000000E+00 -0.59896183166E+03  0.30267628317E+04  0.29669071377E+04 0.  0.
        3    1    3    3  502    0 -0.70867277496E+02 -0.10833349071E+02 -0.18110940610E+04  0.18125124111E+04  0.10100000352E+00 0. -1.
       -3    1    3    3    0  502  0.70867277496E+02  0.10833349071E+02  0.12121322293E+04  0.12142504206E+04  0.10100000352E+00 0.  1.
</event>
<event>
 5   0  0.3592331E-06  0.2914697E+04  0.7818609E-02  0.8268518E-01
       -1   -1    0    0    0  501  0.00000000000E+00  0.00000000000E+00  0.11598019855E+04  0.11598019855E+04  0.50400001928E-02 0. -1.
        1   -1    0    0  501    0  0.00000000000E+00  0.00000000000E+00 -0.18312299607E+04  0.18312299607E+04  0.50400001928E-02 0.  1.
    10030    2    1    2    0    0  0.00000000000E+00  0.00000000000E+00 -0.67142797522E+03  0.29910319462E+04  0.29146966527E+04 0.  0.
        3    1    3    3  502    0  0.11604079705E+04  0.77992727965E+03  0.86187211938E+02  0.14008074333E+04  0.10100000352E+00 0. -1.
       -3    1    3    3    0  502 -0.11604079705E+04 -0.77992727965E+03 -0.75761518715E+03  0.15902245129E+04  0.10100000352E+00 0.  1.
</event>
<event>
 5   0  0.1057036E-05  0.3101881E+04  0.7818609E-02  0.8215222E-01
        2   -1    0    0  501    0  0.00000000000E+00  0.00000000000E+00  0.14514757611E+04  0.14514757611E+04  0.25500000920E-02 0. -1.
       -2   -1    0    0    0  501  0.00000000000E+00  0.00000000000E+00 -0.16572207669E+04  0.16572207669E+04  0.25500000920E-02 0.  1.
    10030    2    1    2    0    0  0.00000000000E+00  0.00000000000E+00 -0.20574500572E+03  0.31086965280E+04  0.31018805741E+04 0.  0.
        4    1    3    3  502    0 -0.14292861847E+04 -0.48918633007E+03 -0.45471643264E+03  0.15776345934E+04  0.12699999809E+01 0.  1.
       -4    1    3    3    0  502  0.14292861847E+04  0.48918633007E+03  0.24897142692E+03  0.15310619346E+04  0.12699999809E+01 0. -1.
</event>
<event>
 5   0  0.3592331E-06  0.3039457E+04  0.7818609E-02  0.8232553E-01
        1   -1    0    0  501    0  0.00000000000E+00  0.00000000000E+00  0.11286399497E+04  0.11286399497E+04  0.50400001928E-02 0. -1.
       -1   -1    0    0    0  501  0.00000000000E+00  0.00000000000E+00 -0.20463337258E+04  0.20463337258E+04  0.50400001928E-02 0.  1.
    10030    2    1    2    0    0  0.00000000000E+00  0.00000000000E+00 -0.91769377616E+03  0.31749736755E+04  0.30394565260E+04 0.  0.
        3    1    3    3  502    0  0.81160550882E+02  0.54120364137E+02 -0.20430599162E+04  0.20453874645E+04  0.10100000352E+00 0.  1.
       -3    1    3    3    0  502 -0.81160550882E+02 -0.54120364137E+02  0.11253661400E+04  0.11295862110E+04  0.10100000352E+00 0. -1.
</event>
<event>
 5   0  0.3592331E-06  0.2875226E+04  0.7818609E-02  0.8280287E-01
       -1   -1    0    0    0  501  0.00000000000E+00  0.00000000000E+00  0.16470877533E+04  0.16470877533E+04  0.50400001928E-02 0. -1.
        1   -1    0    0  501    0  0.00000000000E+00  0.00000000000E+00 -0.12547794413E+04  0.12547794413E+04  0.50400001928E-02 0.  1.
    10030    2    1    2    0    0  0.00000000000E+00  0.00000000000E+00  0.39230831198E+03  0.29018671946E+04  0.28752264960E+04 0.  0.
        3    1    3    3  502    0 -0.71982867189E+03  0.84229996354E+03  0.11206708059E+04  0.15759205598E+04  0.10100000352E+00 0. -1.
       -3    1    3    3    0  502  0.71982867189E+03 -0.84229996354E+03 -0.72836249394E+03  0.13259466348E+04  0.10100000352E+00 0.  1.
</event>
<event>
 5   0  0.1089569E-05  0.3041604E+04  0.7818609E-02  0.8231949E-01
       -2   -1    0    0    0  501  0.00000000000E+00  0.00000000000E+00  0.20443568057E+04  0.20443568057E+04  0.25500000920E-02 0.  1.
        2   -1    0    0  501    0  0.00000000000E+00  0.00000000000E+00 -0.11313284715E+04  0.11313284715E+04  0.25500000920E-02 0. -1.
    10030    2    1    2    0    0  0.00000000000E+00  0.00000000000E+00  0.91302833423E+03  0.31756852772E+04  0.30416042216E+04 0.  0.
        5    1    3    3  502    0 -0.12939257908E+04  0.65842775170E+03  0.92929549151E+03  0.17237700708E+04  0.46999998093E+01 0.  1.
       -5    1    3    3    0  502  0.12939257908E+04 -0.65842775170E+03 -0.16267157282E+02  0.14519152065E+04  0.46999998093E+01 0. -1.
</event>
<event>
 5   0  0.3636718E-06  0.2997523E+04  0.7818609E-02  0.8244439E-01
        1   -1    0    0  501    0  0.00000000000E+00  0.00000000000E+00  0.17985365206E+04  0.17985365206E+04  0.50400001928E-02 0. -1.
       -1   -1    0    0    0  501  0.00000000000E+00  0.00000000000E+00 -0.12489521191E+04  0.12489521191E+04  0.50400001928E-02 0.  1.
    10030    2    1    2    0    0  0.00000000000E+00  0.00000000000E+00  0.54958440152E+03  0.30474886398E+04  0.29975229766E+04 0.  0.
        4    1    3    3  502    0  0.98157202943E+03  0.10562903135E+04  0.69032449160E+03  0.15986814542E+04  0.12699999809E+01 0. -1.
       -4    1    3    3    0  502 -0.98157202943E+03 -0.10562903135E+04 -0.14074009008E+03  0.14488071856E+04  0.12699999809E+01 0.  1.
</event>
<event>
 5   0  0.3592331E-06  0.2988706E+04  0.7818609E-02  0.8246963E-01
        1   -1    0    0  501    0  0.00000000000E+00  0.00000000000E+00  0.21978775569E+04  0.21978775569E+04  0.50400001928E-02 0. -1.
       -1   -1    0    0    0  501  0.00000000000E+00  0.00000000000E+00 -0.10160216856E+04  0.10160216856E+04  0.50400001928E-02 0.  1.
    10030    2    1    2    0    0  0.00000000000E+00  0.00000000000E+00  0.11818558713E+04  0.32138992425E+04  0.29887062486E+04 0.  0.
        3    1    3    3  502    0 -0.19049203453E+03 -0.19317157534E+03  0.21711732141E+04  0.21880574966E+04  0.10100000352E+00 0. -1.
       -3    1    3    3    0  502  0.19049203453E+03  0.19317157534E+03 -0.98931734276E+03  0.10258417459E+04  0.10100000352E+00 0.  1.
</event>
<event>
 5   0  0.9647945E-06  0.3053302E+04  0.7818609E-02  0.8228672E-01
        2   -1    0    0  501    0  0.00000000000E+00  0.00000000000E+00  0.18138549267E+04  0.18138549267E+04  0.25500000920E-02 0.  1.
       -2   -1    0    0    0  501  0.00000000000E+00  0.00000000000E+00 -0.12849224336E+04  0.12849224336E+04  0.25500000920E-02 0. -1.
    10030    2    1    2    0    0  0.00000000000E+00  0.00000000000E+00  0.52893249312E+03  0.30987773603E+04  0.30533017451E+04 0.  0.
        2    1    3    3  502    0  0.10430305788E+02 -0.72722497165E+03 -0.10977988797E+04  0.13168626850E+04  0.25500000920E-02 0. -1.
       -2    1    3    3    0  502 -0.10430305788E+02  0.72722497165E+03  0.16267313729E+04  0.17819146753E+04  0.25500000920E-02 0.  1.
</event>
<event>
 5   0  0.3852126E-06  0.3069514E+04  0.7818609E-02  0.8224155E-01
        1   -1    0    0  501    0  0.00000000000E+00  0.00000000000E+00  0.18994081768E+04  0.18994081768E+04  0.50400001928E-02 0. -1.
       -1   -1    0    0    0  501  0.00000000000E+00  0.00000000000E+00 -0.12401124116E+04  0.12401124116E+04  0.50400001928E-02 0.  1.
    10030    2    1    2    0    0  0.00000000000E+00  0.00000000000E+00  0.65929576519E+03  0.31395205884E+04  0.30695143946E+04 0.  0.
        1    1    3    3  502    0 -0.94151251078E+03 -0.74851840317E+03  0.13046753268E+04  0.17745149524E+04  0.50400001928E-02 0. -1.
       -1    1    3    3    0  502  0.94151251078E+03  0.74851840317E+03 -0.64537956158E+03  0.13650056360E+04  0.50400001928E-02 0.  1.
</event>
<event>
 5   0  0.1029922E-05  0.2404823E+04  0.7818609E-02  0.8437700E-01
       -2   -1    0    0    0  501  0.00000000000E+00  0.00000000000E+00  0.68749043034E+03  0.68749043034E+03  0.25500000920E-02 0. -1.
        2   -1    0    0  501    0  0.00000000000E+00  0.00000000000E+00 -0.21030011520E+04  0.21030011520E+04  0.25500000920E-02 0.  1.
    10030    2    1    2    0    0  0.00000000000E+00  0.00000000000E+00 -0.14155107217E+04  0.27904915823E+04  0.24048227935E+04 0.  0.
        1    1    3    3  502    0  0.50122335701E+02 -0.22424582349E+02 -0.21015455442E+04  0.21022627773E+04  0.50400001928E-02 0.  1.
       -1    1    3    3    0  502 -0.50122335701E+02  0.22424582349E+02  0.68603482251E+03  0.68822880508E+03  0.50400001928E-02 0. -1.
</event>
<event>
 5   0  0.3725232E-06  0.2025214E+04  0.7818609E-02  0.8594922E-01
       -1   -1    0    0    0  501  0.00000000000E+00  0.00000000000E+00  0.62838232014E+03  0.62838232016E+03  0.50400001928E-02 0. -1.
        1   -1    0    0  501    0  0.00000000000E+00  0.00000000000E+00 -0.16317658103E+04  0.16317658103E+04  0.50400001928E-02 0.  1.
    10030    2    1    2    0    0  0.00000000000E+00  0.00000000000E+00 -0.10033834901E+04  0.22601481304E+04  0.20252138512E+04 0.  0.
        2    1    3    3  502    0  0.67433497783E+03  0.14478531532E+03 -0.13291039168E+04  0.14974003043E+04  0.25500000920E-02 0.  1.
       -2    1    3    3    0  502 -0.67433497783E+03 -0.14478531532E+03  0.32572042665E+03  0.76274782609E+03  0.25500000920E-02 0. -1.
</event>
<event>
 5   0  0.3636718E-06  0.2983891E+04  0.7818609E-02  0.8248346E-01
        1   -1    0    0  501    0  0.00000000000E+00  0.00000000000E+00  0.97656913304E+03  0.97656913305E+03  0.50400001928E-02 0.  1.
       -1   -1    0    0    0  501  0.00000000000E+00  0.00000000000E+00 -0.22793077587E+04  0.22793077587E+04  0.50400001928E-02 0. -1.
    10030    2    1    2    0    0  0.00000000000E+00  0.00000000000E+00 -0.13027386256E+04  0.32558768917E+04  0.29838911521E+04 0.  0.
        4    1    3    3  502    0 -0.11612648534E+04 -0.70024781566E+02 -0.16705656997E+04  0.20357384163E+04  0.12699999809E+01 0. -1.
       -4    1    3    3    0  502  0.11612648534E+04  0.70024781566E+02  0.36782707406E+03  0.12201384754E+04  0.12699999809E+01 0.  1.
</event>
<event>
 5   0  0.1028450E-05  0.2684719E+04  0.7818609E-02  0.8339980E-01
       -2   -1    0    0    0  501  0.00000000000E+00  0.00000000000E+00  0.79708079093E+03  0.79708079093E+03  0.25500000920E-02 0.  1.
        2   -1    0    0  501    0  0.00000000000E+00  0.00000000000E+00 -0.22606602691E+04  0.22606602691E+04  0.25500000920E-02 0. -1.
    10030    2    1    2    0    0  0.00000000000E+00  0.00000000000E+00 -0.14635794781E+04  0.30577410600E+04  0.26847188868E+04 0.  0.
        3    1    3    3  502    0 -0.43167010445E+03  0.65383442425E+03 -0.19732322642E+04  0.21230836329E+04  0.10100000352E+00 0. -1.
       -3    1    3    3    0  502  0.43167010445E+03 -0.65383442425E+03  0.50965278612E+03  0.93465742709E+03  0.10100000352E+00 0.  1.
</event>
<event>
 5   0  0.3592331E-06  0.2991784E+04  0.7818609E-02  0.8246081E-01
       -1   -1    0    0    0  501  0.00000000000E+00  0.00000000000E+00  0.12272686838E+04  0.12272686838E+04  0.50400001928E-02 0.  1.
        1   -1    0    0  501    0  0.00000000000E+00  0.00000000000E+00 -0.18233110464E+04  0.18233110464E+04  0.50400001928E-02 0. -1.
    10030    2    1    2    0    0  0.00000000000E+00  0.00000000000E+00 -0.59604236261E+03  0.30505797301E+04  0.29917837809E+04 0.  0.
        3    1    3    3  502    0 -0.43240438056E+03 -0.10948145978E+04 -0.12392548543E+04  0.17091943002E+04  0.10100000352E+00 0. -1.
       -3    1    3    3    0  502  0.43240438056E+03  0.10948145978E+04  0.64321249165E+03  0.13413854299E+04  0.10100000352E+00 0.  1.
</event>
<event>
 5   0  0.9647945E-06  0.3067609E+04  0.7818609E-02  0.8224684E-01
       -2   -1    0    0    0  501  0.00000000000E+00  0.00000000000E+00  0.15279787843E+04  0.15279787843E+04  0.25500000920E-02 0.  1.
        2   -1    0    0  501    0  0.00000000000E+00  0.00000000000E+00 -0.15396520459E+04  0.15396520459E+04  0.25500000920E-02 0. -1.
    10030    2    1    2    0    0  0.00000000000E+00  0.00000000000E+00 -0.11673261622E+02  0.30676308303E+04  0.30676086201E+04 0.  0.
        2    1    3    3  502    0  0.96497330256E+01  0.13854095005E+04 -0.66394705586E+03  0.15363197240E+04  0.25500000920E-02 0. -1.
       -2    1    3    3    0  502 -0.96497330256E+01 -0.13854095005E+04  0.65227379424E+03  0.15313111062E+04  0.25500000920E-02 0.  1.
</event>
<event>
 5   0  0.1028450E-05  0.3050569E+04  0.7818609E-02  0.8229436E-01
        2   -1    0    0  501    0  0.00000000000E+00  0.00000000000E+00  0.20893201909E+04  0.20893201909E+04  0.25500000920E-02 0.  1.
       -2   -1    0    0    0  501  0.00000000000E+00  0.00000000000E+00 -0.11135163340E+04  0.11135163340E+04  0.25500000920E-02 0. -1.
    10030    2    1    2    0    0  0.00000000000E+00  0.00000000000E+00  0.97580385692E+03  0.32028365249E+04  0.30505685762E+04 0.  0.
        3    1    3    3  502    0  0.15213809276E+04 -0.10194915495E+03  0.52854586068E+03  0.16138011941E+04  0.10100000352E+00 0.  1.
       -3    1    3    3    0  502 -0.15213809276E+04  0.10194915495E+03  0.44725799623E+03  0.15890353308E+04  0.10100000352E+00 0. -1.
</event>
<event>
 5   0  0.9647945E-06  0.2995223E+04  0.7818609E-02  0.8245096E-01
       -2   -1    0    0    0  501  0.00000000000E+00  0.00000000000E+00  0.13646625883E+04  0.13646625884E+04  0.25500000920E-02 0.  1.
        2   -1    0    0  501    0  0.00000000000E+00  0.00000000000E+00 -0.16435131237E+04  0.16435131237E+04  0.25500000920E-02 0. -1.
    10030    2    1    2    0    0  0.00000000000E+00  0.00000000000E+00 -0.27885053535E+03  0.30081757121E+04  0.29952234463E+04 0.  0.
        2    1    3    3  502    0  0.14802524347E+04 -0.62017424754E+01 -0.36768576055E+03  0.15252470458E+04  0.25500000920E-02 0. -1.
       -2    1    3    3    0  502 -0.14802524347E+04  0.62017424754E+01  0.88835225193E+02  0.14829286663E+04  0.25500000920E-02 0.  1.
</event>
<event>
 5   0  0.9647945E-06  0.2929852E+04  0.7818609E-02  0.8264051E-01
        2   -1    0    0  501    0  0.00000000000E+00  0.00000000000E+00  0.21081640459E+04  0.21081640459E+04  0.25500000920E-02 0. -1.
       -2   -1    0    0    0  501  0.00000000000E+00  0.00000000000E+00 -0.10179512999E+04  0.10179512999E+04  0.25500000920E-02 0.  1.
    10030    2    1    2    0    0  0.00000000000E+00  0.00000000000E+00  0.10902127460E+04  0.31261153458E+04  0.29298520992E+04 0.  0.
        2    1    3    3  502    0  0.13775952493E+04 -0.15798413228E+03  0.10492855070E+04  0.17388869234E+04  0.25500000920E-02 0. -1.
       -2    1    3    3    0  502 -0.13775952493E+04  0.15798413228E+03  0.40927239076E+02  0.13872284224E+04  0.25500000920E-02 0.  1.
</event>
<event>
 5   0  0.3896630E-06  0.2837634E+04  0.7818609E-02  0.8291679E-01
        1   -1    0    0  501    0  0.00000000000E+00  0.00000000000E+00  0.15563082026E+04  0.15563082026E+04  0.50400001928E-02 0.  1.
       -1   -1    0    0    0  501  0.00000000000E+00  0.00000000000E+00 -0.12934722338E+04  0.12934722338E+04  0.50400001928E-02 0. -1.
    10030    2    1    2    0    0  0.00000000000E+00  0.00000000000E+00  0.26283596880E+03  0.28497804364E+04  0.28376338363E+04 0.  0.
        5    1    3    3  502    0 -0.40595381569E+03 -0.56605841345E+03  0.13727504640E+04  0.15393786260E+04  0.46999998093E+01 0.  1.
       -5    1    3    3    0  502  0.40595381569E+03  0.56605841345E+03 -0.11099144952E+04  0.13104018103E+04  0.46999998093E+01 0. -1.
</event>
<event>
 5   0  0.3852126E-06  0.3076315E+04  0.7818609E-02  0.8222268E-01
       -1   -1    0    0    0  501  0.00000000000E+00  0.00000000000E+00  0.15582067268E+04  0.15582067268E+04  0.50400001928E-02 0. -1.
        1   -1    0    0  501    0  0.00000000000E+00  0.00000000000E+00 -0.15183659254E+04  0.15183659254E+04  0.50400001928E-02 0.  1.
    10030    2    1    2    0    0  0.00000000000E+00  0.00000000000E+00  0.39840801424E+02  0.30765726523E+04  0.30763146775E+04 0.  0.
        1    1    3    3  502    0 -0.63718112771E+03 -0.60273213280E+03 -0.12437686355E+04  0.15219218876E+04  0.50400001928E-02 0.  1.
       -1    1    3    3    0  502  0.63718112771E+03  0.60273213280E+03  0.12836094369E+04  0.15546507646E+04  0.50400001928E-02 0. -1.
</event>
<event>
 5   0  0.9647945E-06  0.3027864E+04  0.7818609E-02  0.8235819E-01
       -2   -1    0    0    0  501  0.00000000000E+00  0.00000000000E+00  0.14707153105E+04  0.14707153105E+04  0.25500000920E-02 0.  1.
        2   -1    0    0  501    0  0.00000000000E+00  0.00000000000E+00 -0.15584183358E+04  0.15584183358E+04  0.25500000920E-02 0. -1.
    10030    2    1    2    0    0  0.00000000000E+00  0.00000000000E+00 -0.87703025233E+02  0.30291336463E+04  0.30278637398E+04 0.  0.
        2    1    3    3  502    0  0.95512655558E+03 -0.11712181417E+04 -0.13316960520E+03  0.15171528652E+04  0.25500000920E-02 0. -1.
       -2    1    3    3    0  502 -0.95512655558E+03  0.11712181417E+04  0.45466579965E+02  0.15119807811E+04  0.25500000920E-02 0.  1.
</event>
<event>
 5   0  0.9647945E-06  0.2728248E+04  0.7818609E-02  0.8325897E-01
       -2   -1    0    0    0  501  0.00000000000E+00  0.00000000000E+00  0.12611243936E+04  0.12611243936E+04  0.25500000920E-02 0.  1.
        2   -1    0    0  501    0  0.00000000000E+00  0.00000000000E+00 -0.14755359936E+04  0.14755359936E+04  0.25500000920E-02 0. -1.
    10030    2    1    2    0    0  0.00000000000E+00  0.00000000000E+00 -0.21441160006E+03  0.27366603872E+04  0.27282481083E+04 0.  0.
        2    1    3    3  502    0 -0.69291262742E+03  0.10447304087E+03  0.10667840484E+04  0.12763505519E+04  0.25500000920E-02 0.  1.
       -2    1    3    3    0  502  0.69291262742E+03 -0.10447304087E+03 -0.12811956484E+04  0.14603098353E+04  0.25500000920E-02 0. -1.
</event>
<event>
 5   0  0.1028450E-05  0.2835677E+04  0.7818609E-02  0.8292277E-01
       -2   -1    0    0    0  501  0.00000000000E+00  0.00000000000E+00  0.17659202802E+04  0.17659202802E+04  0.25500000920E-02 0. -1.
        2   -1    0    0  501    0  0.00000000000E+00  0.00000000000E+00 -0.11383675407E+04  0.11383675407E+04  0.25500000920E-02 0.  1.
    10030    2    1    2    0    0  0.00000000000E+00  0.00000000000E+00  0.62755273950E+03  0.29042878210E+04  0.28356772218E+04 0.  0.
        3    1    3    3  502    0 -0.70409801658E+03  0.11628387311E+04  0.72641199006E+03  0.15413053951E+04  0.10100000352E+00 0.  1.
       -3    1    3    3    0  502  0.70409801658E+03 -0.11628387311E+04 -0.98859250553E+02  0.13629824258E+04  0.10100000352E+00 0. -1.
</event>
<event>
 5   0  0.3725232E-06  0.3010805E+04  0.7818609E-02  0.8240652E-01
       -1   -1    0    0    0  501  0.00000000000E+00  0.00000000000E+00  0.10544856403E+04  0.10544856403E+04  0.50400001928E-02 0. -1.
        1   -1    0    0  501    0  0.00000000000E+00  0.00000000000E+00 -0.21491392975E+04  0.21491392975E+04  0.50400001928E-02 0.  1.
    10030    2    1    2    0    0  0.00000000000E+00  0.00000000000E+00 -0.10946536571E+04  0.32036249378E+04  0.30108048946E+04 0.  0.
        2    1    3    3  502    0 -0.44657578000E+02 -0.37298598796E+03 -0.20984674015E+04  0.21318251058E+04  0.25500000920E-02 0.  1.
       -2    1    3    3    0  502  0.44657578000E+02  0.37298598796E+03  0.10038137444E+04  0.10717998320E+04  0.25500000920E-02 0. -1.
</event>
<event>
 5   0  0.3852126E-06  0.2836749E+04  0.7818609E-02  0.8291949E-01
       -1   -1    0    0    0  501  0.00000000000E+00  0.00000000000E+00  0.12563773916E+04  0.12563773917E+04  0.50400001928E-02 0.  1.
        1   -1    0    0  501    0  0.00000000000E+00  0.00000000000E+00 -0.16012595632E+04  0.16012595632E+04  0.50400001928E-02 0. -1.
    10030    2    1    2    0    0  0.00000000000E+00  0.00000000000E+00 -0.34488217157E+03  0.28576369549E+04  0.28367490643E+04 0.  0.
        1    1    3    3  502    0  0.79076637010E+03  0.55969616113E+03 -0.12160301372E+04  0.15547670370E+04  0.50400001928E-02 0. -1.
       -1    1    3    3    0  502 -0.79076637010E+03 -0.55969616113E+03  0.87114796560E+03  0.13028699179E+04  0.50400001928E-02 0.  1.
</event>
<event>
 5   0  0.9647945E-06  0.3040561E+04  0.7818609E-02  0.8232242E-01
        2   -1    0    0  501    0  0.00000000000E+00  0.00000000000E+00  0.21779155030E+04  0.21779155030E+04  0.25500000920E-02 0.  1.
       -2   -1    0    0    0  501  0.00000000000E+00  0.00000000000E+00 -0.10612226964E+04  0.10612226964E+04  0.25500000920E-02 0. -1.
    10030    2    1    2    0    0  0.00000000000E+00  0.00000000000E+00  0.11166928066E+04  0.32391381994E+04  0.30405613710E+04 0.  0.
        2    1    3    3  502    0 -0.56842203392E+03  0.54866484533E+03  0.19420665325E+04  0.20966065768E+04  0.25500000920E-02 0.  1.
       -2    1    3    3    0  502  0.56842203392E+03 -0.54866484533E+03 -0.82537372597E+03  0.11425316226E+04  0.25500000920E-02 0. -1.
</event>
<event>
 5   0  0.1089569E-05  0.2955326E+04  0.7818609E-02  0.8256604E-01
        2   -1    0    0  501    0  0.00000000000E+00  0.00000000000E+00  0.19902588248E+04  0.19902588248E+04  0.25500000920E-02 0.  1.
       -2   -1    0    0    0  501  0.00000000000E+00  0.00000000000E+00 -0.10970872721E+04  0.10970872721E+04  0.25500000920E-02 0. -1.
    10030    2    1    2    0    0  0.00000000000E+00  0.00000000000E+00  0.89317155271E+03  0.30873460970E+04  0.29553257858E+04 0.  0.
        5    1    3    3  502    0  0.38874412874E+03 -0.99689385598E+03  0.15112014606E+04  0.18516671683E+04  0.46999998093E+01 0.  1.
       -5    1    3    3    0  502 -0.38874412874E+03  0.99689385598E+03 -0.61802990788E+03  0.12356789287E+04  0.46999998093E+01 0. -1.
</event>
<event>
 5   0  0.3725232E-06  0.3028406E+04  0.7818609E-02  0.8235666E-01
        1   -1    0    0  501    0  0.00000000000E+00  0.00000000000E+00  0.14859810989E+04  0.14859810989E+04  0.50400001928E-02 0. -1.
       -1   -1    0    0    0  501  0.00000000000E+00  0.00000000000E+00 -0.15429605692E+04  0.15429605692E+04  0.50400001928E-02 0.  1.
    10030    2    1    2    0    0  0.00000000000E+00  0.00000000000E+00 -0.56979470362E+02  0.30289416681E+04  0.30284056810E+04 0.  0.
        2    1    3    3  502    0 -0.46566706682E+03 -0.13830265318E+04  0.37556448341E+03  0.15068698969E+04  0.25500000920E-02 0. -1.
       -2    1    3    3    0  502  0.46566706682E+03  0.13830265318E+04 -0.43254395377E+03  0.15220717712E+04  0.25500000920E-02 0.  1.
</event>
<event>
 5   0  0.3896630E-06  0.2971019E+04  0.7818609E-02  0.8252055E-01
        1   -1    0    0  501    0  0.00000000000E+00  0.00000000000E+00  0.17858388291E+04  0.17858388291E+04  0.50400001928E-02 0.  1.
       -1   -1    0    0    0  501  0.00000000000E+00  0.00000000000E+00 -0.12356870221E+04  0.12356870221E+04  0.50400001928E-02 0. -1.
    10030    2    1    2    0    0  0.00000000000E+00  0.00000000000E+00  0.55015180696E+03  0.30215258512E+04  0.29710185894E+04 0.  0.
        5    1    3    3  502    0  0.14343296365E+04  0.36255704211E+03  0.41139434604E+03  0.15355834438E+04  0.46999998093E+01 0. -1.
       -5    1    3    3    0  502 -0.14343296365E+04 -0.36255704211E+03  0.13875746093E+03  0.14859424073E+04  0.46999998093E+01 0.  1.
</event>
<event>
 5   0  0.1057036E-05  0.3101082E+04  0.7818609E-02  0.8215441E-01
       -2   -1    0    0    0  501  0.00000000000E+00  0.00000000000E+00  0.11636202689E+04  0.11636202689E+04  0.25500000920E-02 0. -1.
        2   -1    0    0  501    0  0.00000000000E+00  0.00000000000E+00 -0.20661188428E+04  0.20661188428E+04  0.25500000920E-02 0.  1.
    10030    2    1    2    0    0  0.00000000000E+00  0.00000000000E+00 -0.90249857395E+03  0.32297391117E+04  0.31010822391E+04 0.  0.
        4    1    3    3  502    0 -0.14589536624E+04 -0.24604899867E+03 -0.93426863031E+03  0.17498415315E+04  0.12699999809E+01 0.  1.
       -4    1    3    3    0  502  0.14589536624E+04  0.24604899867E+03  0.31770056354E+02  0.14798975803E+04  0.12699999809E+01 0. -1.
</event>
<event>
 5   0  0.3592331E-06  0.2971047E+04  0.7818609E-02  0.8252047E-01
        1   -1    0    0  501    0  0.00000000000E+00  0.00000000000E+00  0.16778826375E+04  0.16778826375E+04  0.50400001928E-02 0.  1.
       -1   -1    0    0    0  501  0.00000000000E+00  0.00000000000E+00 -0.13152167874E+04  0.13152167874E+04  0.50400001928E-02 0. -1.
    10030    2    1    2    0    0  0.00000000000E+00  0.00000000000E+00  0.36266585011E+03  0.29930994250E+04  0.29710465579E+04 0.  0.
        3    1    3    3  502    0 -0.11409822148E+04 -0.60029663809E+03  0.92476911709E+03  0.15866298870E+04  0.10100000352E+00 0.  1.
       -3    1    3    3    0  502  0.11409822148E+04  0.60029663809E+03 -0.56210326698E+03  0.14064695380E+04  0.10100000352E+00 0. -1.
</event>
<event>
 5   0  0.3725232E-06  0.2988517E+04  0.7818609E-02  0.8247017E-01
        1   -1    0    0  501    0  0.00000000000E+00  0.00000000000E+00  0.23892949366E+04  0.23892949366E+04  0.50400001928E-02 0.  1.
       -1   -1    0    0    0  501  0.00000000000E+00  0.00000000000E+00 -0.93450542759E+03  0.93450542760E+03  0.50400001928E-02 0. -1.
    10030    2    1    2    0    0  0.00000000000E+00  0.00000000000E+00  0.14547895090E+04  0.33238003642E+04  0.29885174160E+04 0.  0.
        2    1    3    3  502    0 -0.64967899855E+03 -0.95547989613E+03  0.17812117060E+04  0.21231438422E+04  0.25500000920E-02 0.  1.
       -2    1    3    3    0  502  0.64967899855E+03  0.95547989613E+03 -0.32642219702E+03  0.12006565220E+04  0.25500000920E-02 0. -1.
</event>
<event>
 5   0  0.9647945E-06  0.2979419E+04  0.7818609E-02  0.8249632E-01
        2   -1    0    0  501    0  0.00000000000E+00  0.00000000000E+00  0.17984579444E+04  0.17984579444E+04  0.25500000920E-02 0.  1.
       -2   -1    0    0    0  501  0.00000000000E+00  0.00000000000E+00 -0.12339655321E+04  0.12339655321E+04  0.25500000920E-02 0. -1.
    10030    2    1    2    0    0  0.00000000000E+00  0.00000000000E+00  0.56449241225E+03  0.30324234765E+04  0.29794194833E+04 0.  0.
        2    1    3    3  502    0  0.95698510939E+03  0.18665309867E+03 -0.86410135495E+03  0.13028165759E+04  0.25500000920E-02 0. -1.
       -2    1    3    3    0  502 -0.95698510939E+03 -0.18665309867E+03  0.14285937672E+04  0.17296069006E+04  0.25500000920E-02 0.  1.
</event>
<event>
 5   0  0.1089569E-05  0.2101909E+04  0.7818609E-02  0.8560403E-01
       -2   -1    0    0    0  501  0.00000000000E+00  0.00000000000E+00  0.59210450527E+03  0.59210450527E+03  0.25500000920E-02 0.  1.
        2   -1    0    0  501    0  0.00000000000E+00  0.00000000000E+00 -0.18653900220E+04  0.18653900220E+04  0.25500000920E-02 0. -1.
    10030    2    1    2    0    0  0.00000000000E+00  0.00000000000E+00 -0.12732855168E+04  0.24574945273E+04  0.21019094520E+04 0.  0.
        5    1    3    3  502    0  0.78516828689E+03  0.27032230867E+03 -0.13897571166E+04  0.16189534652E+04  0.46999998093E+01 0. -1.
       -5    1    3    3    0  502 -0.78516828689E+03 -0.27032230867E+03  0.11647159984E+03  0.83854106212E+03  0.46999998093E+01 0.  1.
</event>
<event>
 5   0  0.3636718E-06  0.2930189E+04  0.7818609E-02  0.8263952E-01
        1   -1    0    0  501    0  0.00000000000E+00  0.00000000000E+00  0.16201847262E+04  0.16201847262E+04  0.50400001928E-02 0.  1.
       -1   -1    0    0    0  501  0.00000000000E+00  0.00000000000E+00 -0.13248502579E+04  0.13248502579E+04  0.50400001928E-02 0. -1.
    10030    2    1    2    0    0  0.00000000000E+00  0.00000000000E+00  0.29533446835E+03  0.29450349841E+04  0.29301891764E+04 0.  0.
        4    1    3    3  502    0  0.90416023669E+03 -0.87429583279E+02 -0.10076569819E+04  0.13566590846E+04  0.12699999809E+01 0. -1.
       -4    1    3    3    0  502 -0.90416023669E+03  0.87429583279E+02  0.13029914503E+04  0.15883758995E+04  0.12699999809E+01 0.  1.
</event>
<event>
 5   0  0.1089569E-05  0.2709163E+04  0.7818609E-02  0.8332038E-01
       -2   -1    0    0    0  501  0.00000000000E+00  0.00000000000E+00  0.83001324387E+03  0.83001324388E+03  0.25500000920E-02 0.  1.
        2   -1    0    0  501    0  0.00000000000E+00  0.00000000000E+00 -0.22106770954E+04  0.22106770954E+04  0.25500000920E-02 0. -1.
    10030    2    1    2    0    0  0.00000000000E+00  0.00000000000E+00 -0.13806638515E+04  0.30406903393E+04  0.27091631675E+04 0.  0.
        5    1    3    3  502    0  0.12641703197E+04 -0.47470818706E+03 -0.81014075004E+03  0.15747458794E+04  0.46999998093E+01 0. -1.
       -5    1    3    3    0  502 -0.12641703197E+04  0.47470818706E+03 -0.57052310147E+03  0.14659444598E+04  0.46999998093E+01 0.  1.
</event>
<event>
 5   0  0.3592331E-06  0.2962003E+04  0.7818609E-02  0.8254665E-01
        1   -1    0    0  501    0  0.00000000000E+00  0.00000000000E+00  0.14282392037E+04  0.14282392038E+04  0.50400001928E-02 0.  1.
       -1   -1    0    0    0  501  0.00000000000E+00  0.00000000000E+00 -0.15357132592E+04  0.15357132592E+04  0.50400001928E-02 0. -1.
    10030    2    1    2    0    0  0.00000000000E+00  0.00000000000E+00 -0.10747405541E+03  0.29639524629E+04  0.29620032967E+04 0.  0.
        3    1    3    3  502    0 -0.41940165918E+03  0.98038368254E+03  0.97471163149E+03  0.14446842878E+04  0.10100000352E+00 0.  1.
       -3    1    3    3    0  502  0.41940165918E+03 -0.98038368254E+03 -0.10821856869E+04  0.15192681751E+04  0.10100000352E+00 0. -1.
</event>
<event>
 5   0  0.9647945E-06  0.2703649E+04  0.7818609E-02  0.8333822E-01
       -2   -1    0    0    0  501  0.00000000000E+00  0.00000000000E+00  0.99310538890E+03  0.99310538890E+03  0.25500000920E-02 0. -1.
        2   -1    0    0  501    0  0.00000000000E+00  0.00000000000E+00 -0.18401163032E+04  0.18401163032E+04  0.25500000920E-02 0.  1.
    10030    2    1    2    0    0  0.00000000000E+00  0.00000000000E+00 -0.84701091429E+03  0.28332216921E+04  0.27036489542E+04 0.  0.
        2    1    3    3  502    0  0.11515967922E+04 -0.34063409158E+03  0.22690298553E+03  0.12221668139E+04  0.25500000920E-02 0. -1.
       -2    1    3    3    0  502 -0.11515967922E+04  0.34063409158E+03 -0.10739138998E+04  0.16110548782E+04  0.25500000920E-02 0.  1.
</event>
<event>
 5   0  0.1028450E-05  0.2907632E+04  0.7818609E-02  0.8270610E-01
       -2   -1    0    0    0  501  0.00000000000E+00  0.00000000000E+00  0.10488378750E+04  0.10488378750E+04  0.25500000920E-02 0.  1.
        2   -1    0    0  501    0  0.00000000000E+00  0.00000000000E+00 -0.20151641160E+04  0.20151641160E+04  0.25500000920E-02 0. -1.
    10030    2    1    2    0    0  0.00000000000E+00  0.00000000000E+00 -0.96632624107E+03  0.30640019910E+04  0.29076316474E+04 0.  0.
        3    1    3    3  502    0 -0.56825806745E+03  0.43164394591E+03  0.85158331653E+03  0.11110481009E+04  0.10100000352E+00 0.  1.
       -3    1    3    3    0  502  0.56825806745E+03 -0.43164394591E+03 -0.18179095576E+04  0.19529538902E+04  0.10100000352E+00 0. -1.
</event>
<event>
 5   0  0.1029922E-05  0.3013074E+04  0.7818609E-02  0.8240007E-01
       -2   -1    0    0    0  501  0.00000000000E+00  0.00000000000E+00  0.17560786796E+04  0.17560786796E+04  0.25500000920E-02 0. -1.
        2   -1    0    0  501    0  0.00000000000E+00  0.00000000000E+00 -0.12924558375E+04  0.12924558375E+04  0.25500000920E-02 0.  1.
    10030    2    1    2    0    0  0.00000000000E+00  0.00000000000E+00  0.46362284205E+03  0.30485345171E+04  0.30130742709E+04 0.  0.
        1    1    3    3  502    0 -0.86085829424E+03  0.67306592332E+01  0.14826997025E+04  0.17145030511E+04  0.50400001928E-02 0. -1.
       -1    1    3    3    0  502  0.86085829424E+03 -0.67306592332E+01 -0.10190768605E+04  0.13340314659E+04  0.50400001928E-02 0.  1.
</event>
<event>
 5   0  0.3852126E-06  0.2857453E+04  0.7818609E-02  0.8285650E-01
        1   -1    0    0  501    0  0.00000000000E+00  0.00000000000E+00  0.11601319692E+04  0.11601319692E+04  0.50400001928E-02 0.  1.
       -1   -1    0    0    0  501  0.00000000000E+00  0.00000000000E+00 -0.17595067014E+04  0.17595067014E+04  0.50400001928E-02 0. -1.
    10030    2    1    2    0    0  0.00000000000E+00  0.00000000000E+00 -0.59937473217E+03  0.29196386706E+04  0.28574533937E+04 0.  0.
        1    1    3    3  502    0 -0.33736394716E+03  0.55771047962E+03 -0.15987347285E+04  0.17265017069E+04  0.50400001928E-02 0. -1.
       -1    1    3    3    0  502  0.33736394716E+03 -0.55771047962E+03  0.99935999630E+03  0.11931369637E+04  0.50400001928E-02 0.  1.
</event>
<event>
 5   0  0.1028450E-05  0.2834044E+04  0.7818609E-02  0.8292776E-01
        2   -1    0    0  501    0  0.00000000000E+00  0.00000000000E+00  0.23069608773E+04  0.23069608773E+04  0.25500000920E-02 0.  1.
       -2   -1    0    0    0  501  0.00000000000E+00  0.00000000000E+00 -0.87038804973E+03  0.87038804973E+03  0.25500000920E-02 0. -1.
    10030    2    1    2    0    0  0.00000000000E+00  0.00000000000E+00  0.14365728276E+04  0.31773489271E+04  0.28340438803E+04 0.  0.
        3    1    3    3  502    0 -0.32731431799E+03  0.96933194901E+03  0.18174642175E+04  0.20856450518E+04  0.10100000352E+00 0.  1.
       -3    1    3    3    0  502  0.32731431799E+03 -0.96933194901E+03 -0.38089138989E+03  0.10917038752E+04  0.10100000352E+00 0. -1.
</event>
<event>
 5   0  0.3636718E-06  0.3008328E+04  0.7818609E-02  0.8241357E-01
       -1   -1    0    0    0  501  0.00000000000E+00  0.00000000000E+00  0.11297179505E+04  0.11297179505E+04  0.50400001928E-02 0.  1.
        1   -1    0    0  501    0  0.00000000000E+00  0.00000000000E+00 -0.20027208596E+04  0.20027208596E+04  0.50400001928E-02 0. -1.
    10030    2    1    2    0    0  0.00000000000E+00  0.00000000000E+00 -0.87300290912E+03  0.31324388101E+04  0.30083282433E+04 0.  0.
        4    1    3    3  502    0  0.21459586269E+03  0.10479608466E+04 -0.15375941241E+04  0.18730911947E+04  0.12699999809E+01 0. -1.
       -4    1    3    3    0  502 -0.21459586269E+03 -0.10479608466E+04  0.66459121497E+03  0.12593476153E+04  0.12699999809E+01 0.  1.
</event>
<event>
 5   0  0.1089569E-05  0.3064177E+04  0.7818609E-02  0.8225639E-01
       -2   -1    0    0    0  501  0.00000000000E+00  0.00000000000E+00  0.96765003576E+03  0.96765003576E+03  0.25500000920E-02 0. -1.
        2   -1    0    0  501    0  0.00000000000E+00  0.00000000000E+00 -0.24257679560E+04  0.24257679560E+04  0.25500000920E-02 0.  1.
    10030    2    1    2    0    0  0.00000000000E+00  0.00000000000E+00 -0.14581179203E+04  0.33934179918E+04  0.30641765285E+04 0.  0.
        5    1    3    3  502    0  0.56614745157E+03  0.76523104189E+03  0.60041952923E+03  0.11254453276E+04  0.46999998093E+01 0.  1.
       -5    1    3    3    0  502 -0.56614745157E+03 -0.76523104189E+03 -0.20585374495E+04  0.22679726641E+04  0.46999998093E+01 0. -1.
</event>
<event>
 5   0  0.3636718E-06  0.2938521E+04  0.7818609E-02  0.8261508E-01
       -1   -1    0    0    0  501  0.00000000000E+00  0.00000000000E+00  0.10662488617E+04  0.10662488617E+04  0.50400001928E-02 0. -1.
        1   -1    0    0  501    0  0.00000000000E+00  0.00000000000E+00 -0.20245991766E+04  0.20245991766E+04  0.50400001928E-02 0.  1.
    10030    2    1    2    0    0  0.00000000000E+00  0.00000000000E+00 -0.95835031492E+03  0.30908480383E+04  0.29385211025E+04 0.  0.
        4    1    3    3  502    0 -0.77151657668E+03  0.11462982782E+04 -0.10045546711E+04  0.17083235264E+04  0.12699999809E+01 0.  1.
       -4    1    3    3    0  502  0.77151657668E+03 -0.11462982782E+04  0.46204356211E+02  0.13825245119E+04  0.12699999809E+01 0. -1.
</event>
<event>
 5   0  0.3896630E-06  0.2433247E+04  0.7818609E-02  0.8427160E-01
        1   -1    0    0  501    0  0.00000000000E+00  0.00000000000E+00  0.20289122557E+04  0.20289122557E+04  0.50400001928E-02 0. -1.
       -1   -1    0    0    0  501  0.00000000000E+00  0.00000000000E+00 -0.72953984020E+03  0.72953984022E+03  0.50400001928E-02 0.  1.
    10030    2    1    2    0    0  0.00000000000E+00  0.00000000000E+00  0.12993724155E+04  0.27584520960E+04  0.24332466565E+04 0.  0.
        5    1    3    3  502    0 -0.67981299694E+02  0.11881826791E+04  0.93592057626E+03  0.15140571162E+04  0.46999998093E+01 0. -1.
       -5    1    3    3    0  502  0.67981299694E+02 -0.11881826791E+04  0.36345183926E+03  0.12443949797E+04  0.46999998093E+01 0.  1.
</event>
<event>
 5   0  0.1029922E-05  0.2987234E+04  0.7818609E-02  0.8247386E-01
       -2   -1    0    0    0  501  0.00000000000E+00  0.00000000000E+00  0.78960292282E+03  0.78960292282E+03  0.25500000920E-02 0. -1.
        2   -1    0    0  501    0  0.00000000000E+00  0.00000000000E+00 -0.28253336054E+04  0.28253336054E+04  0.25500000920E-02 0.  1.
    10030    2    1    2    0    0  0.00000000000E+00  0.00000000000E+00 -0.20357306826E+04  0.36149365282E+04  0.29872339532E+04 0.  0.
        1    1    3    3  502    0 -0.92310073447E+03 -0.59628019091E+03  0.20623595784E+03  0.11181226688E+04  0.50400001928E-02 0. -1.
       -1    1    3    3    0  502  0.92310073447E+03  0.59628019091E+03 -0.22419666404E+04  0.24968138595E+04  0.50400001928E-02 0.  1.
</event>
<event>
 5   0  0.1057036E-05  0.2989264E+04  0.7818609E-02  0.8246803E-01
       -2   -1    0    0    0  501  0.00000000000E+00  0.00000000000E+00  0.90373456638E+03  0.90373456638E+03  0.25500000920E-02 0. -1.
        2   -1    0    0  501    0  0.00000000000E+00  0.00000000000E+00 -0.24718816182E+04  0.24718816182E+04  0.25500000920E-02 0.  1.
    10030    2    1    2    0    0  0.00000000000E+00  0.00000000000E+00 -0.15681470518E+04  0.33756161846E+04  0.29892640314E+04 0.  0.
        4    1    3    3  502    0 -0.27541643323E+03 -0.21374228826E+03  0.85717800357E+03  0.92536248043E+03  0.12699999809E+01 0. -1.
       -4    1    3    3    0  502  0.27541643323E+03  0.21374228826E+03 -0.24253250554E+04  0.24502537041E+04  0.12699999809E+01 0.  1.
</event>
<event>
 5   0  0.1028450E-05  0.2983984E+04  0.7818609E-02  0.8248319E-01
       -2   -1    0    0    0  501  0.00000000000E+00  0.00000000000E+00  0.82762928456E+03  0.82762928456E+03  0.25500000920E-02 0.  1.
        2   -1    0    0  501    0  0.00000000000E+00  0.00000000000E+00 -0.26896584522E+04  0.26896584522E+04  0.25500000920E-02 0. -1.
    10030    2    1    2    0    0  0.00000000000E+00  0.00000000000E+00 -0.18620291677E+04  0.35172877368E+04  0.29839839816E+04 0.  0.
        3    1    3    3  502    0  0.13155499260E+04  0.12442836701E+03 -0.11446891511E+03  0.13263699216E+04  0.10100000352E+00 0.  1.
       -3    1    3    3    0  502 -0.13155499260E+04 -0.12442836701E+03 -0.17475602526E+04  0.21909178152E+04  0.10100000352E+00 0. -1.
</event>
<event>
 5   0  0.3636718E-06  0.3024402E+04  0.7818609E-02  0.8236797E-01
        1   -1    0    0  501    0  0.00000000000E+00  0.00000000000E+00  0.89741431058E+03  0.89741431059E+03  0.50400001928E-02 0. -1.
       -1   -1    0    0    0  501  0.00000000000E+00  0.00000000000E+00 -0.25481569784E+04  0.25481569784E+04  0.50400001928E-02 0.  1.
    10030    2    1    2    0    0  0.00000000000E+00  0.00000000000E+00 -0.16507426679E+04  0.34455712890E+04  0.30244024455E+04 0.  0.
        4    1    3    3  502    0  0.50032360572E+03 -0.11042510044E+04 -0.18551593165E+04  0.22161479403E+04  0.12699999809E+01 0.  1.
       -4    1    3    3    0  502 -0.50032360572E+03  0.11042510044E+04  0.20441664860E+03  0.12294233487E+04  0.12699999809E+01 0. -1.
</event>
<event>
 5   0  0.3725232E-06  0.3047444E+04  0.7818609E-02  0.8230311E-01
        1   -1    0    0  501    0  0.00000000000E+00  0.00000000000E+00  0.15219962137E+04  0.15219962137E+04  0.50400001928E-02 0.  1.
       -1   -1    0    0    0  501  0.00000000000E+00  0.00000000000E+00 -0.15254501845E+04  0.15254501845E+04  0.50400001928E-02 0. -1.
    10030    2    1    2    0    0  0.00000000000E+00  0.00000000000E+00 -0.34539708203E+01  0.30474463982E+04  0.30474444408E+04 0.  0.
        2    1    3    3  502    0  0.20381481389E+03 -0.16439141099E+03  0.14993284050E+04  0.15220219053E+04  0.25500000920E-02 0.  1.
       -2    1    3    3    0  502 -0.20381481389E+03  0.16439141099E+03 -0.15027823758E+04  0.15254244928E+04  0.25500000920E-02 0. -1.
</event>
<event>
 5   0  0.1089569E-05  0.2703817E+04  0.7818609E-02  0.8333768E-01
        2   -1    0    0  501    0  0.00000000000E+00  0.00000000000E+00  0.10373466283E+04  0.10373466283E+04  0.25500000920E-02 0. -1.
       -2   -1    0    0    0  501  0.00000000000E+00  0.00000000000E+00 -0.17618567857E+04  0.17618567857E+04  0.25500000920E-02 0.  1.
    10030    2    1    2    0    0  0.00000000000E+00  0.00000000000E+00 -0.72451015745E+03  0.27992034140E+04  0.27038167069E+04 0.  0.
        5    1    3    3  502    0 -0.41992711831E+03  0.34971026369E+03  0.91789438352E+03  0.10682641258E+04  0.46999998093E+01 0. -1.
       -5    1    3    3    0  502  0.41992711831E+03 -0.34971026369E+03 -0.16424045410E+04  0.17309392882E+04  0.46999998093E+01 0.  1.
</event>
<event>
 5   0  0.3852126E-06  0.2190828E+04  0.7818609E-02  0.8522255E-01
        1   -1    0    0  501    0  0.00000000000E+00  0.00000000000E+00  0.13183888104E+04  0.13183888104E+04  0.50400001928E-02 0.  1.
       -1   -1    0    0    0  501  0.00000000000E+00  0.00000000000E+00 -0.91015039714E+03  0.91015039715E+03  0.50400001928E-02 0. -1.
    10030    2    1    2    0    0  0.00000000000E+00  0.00000000000E+00  0.40823841327E+03  0.22285392076E+04  0.21908282447E+04 0.  0.
        1    1    3    3  502    0  0.72493830228E+02 -0.88605452503E+02 -0.90404837334E+03  0.91126820585E+03  0.50400001928E-02 0. -1.
       -1    1    3    3    0  502 -0.72493830228E+02  0.88605452503E+02  0.13122867866E+04  0.13172710017E+04  0.50400001928E-02 0.  1.
</event>
<event>
 5   0  0.1028450E-05  0.3026446E+04  0.7818609E-02  0.8236219E-01
        2   -1    0    0  501    0  0.00000000000E+00  0.00000000000E+00  0.18039570193E+04  0.18039570193E+04  0.25500000920E-02 0.  1.
       -2   -1    0    0    0  501  0.00000000000E+00  0.00000000000E+00 -0.12693449261E+04  0.12693449261E+04  0.25500000920E-02 0. -1.
    10030    2    1    2    0    0  0.00000000000E+00  0.00000000000E+00  0.53461209314E+03  0.30733019454E+04  0.30264458954E+04 0.  0.
        3    1    3    3  502    0 -0.10315198689E+04 -0.28024185033E+03  0.13549983892E+04  0.17258590266E+04  0.10100000352E+00 0.  1.
       -3    1    3    3    0  502  0.10315198689E+04  0.28024185033E+03 -0.82038629609E+03  0.13474429189E+04  0.10100000352E+00 0. -1.
</event>
<event>
 5   0  0.3725232E-06  0.2588363E+04  0.7818609E-02  0.8372165E-01
        1   -1    0    0  501    0  0.00000000000E+00  0.00000000000E+00  0.10721504634E+04  0.10721504634E+04  0.50400001928E-02 0.  1.
       -1   -1    0    0    0  501  0.00000000000E+00  0.00000000000E+00 -0.15621930557E+04  0.15621930557E+04  0.50400001928E-02 0. -1.
    10030    2    1    2    0    0  0.00000000000E+00  0.00000000000E+00 -0.49004259231E+03  0.26343435191E+04  0.25883631960E+04 0.  0.
        2    1    3    3  502    0  0.10520188103E+03 -0.91436076433E+03 -0.11710094547E+04  0.14894247836E+04  0.25500000920E-02 0. -1.
       -2    1    3    3    0  502 -0.10520188103E+03  0.91436076433E+03  0.68096686241E+03  0.11449187355E+04  0.25500000920E-02 0.  1.
</event>
<event>
 5   0  0.3636718E-06  0.2954535E+04  0.7818609E-02  0.8256834E-01
       -1   -1    0    0    0  501  0.00000000000E+00  0.00000000000E+00  0.13777156308E+04  0.13777156309E+04  0.50400001928E-02 0.  1.
        1   -1    0    0  501    0  0.00000000000E+00  0.00000000000E+00 -0.15840126348E+04  0.15840126348E+04  0.50400001928E-02 0. -1.
    10030    2    1    2    0    0  0.00000000000E+00  0.00000000000E+00 -0.20629700397E+03  0.29617282657E+04  0.29545347969E+04 0.  0.
        4    1    3    3  502    0 -0.63923783286E+03 -0.55667517292E+03  0.11096753478E+04  0.13963857796E+04  0.12699999809E+01 0.  1.
       -4    1    3    3    0  502  0.63923783286E+03  0.55667517292E+03 -0.13159723518E+04  0.15653424861E+04  0.12699999809E+01 0. -1.
</event>
<event>
 5   0  0.1057036E-05  0.3026253E+04  0.7818609E-02  0.8236274E-01
       -2   -1    0    0    0  501  0.00000000000E+00  0.00000000000E+00  0.12460853123E+04  0.12460853123E+04  0.25500000920E-02 0. -1.
        2   -1    0    0  501    0  0.00000000000E+00  0.00000000000E+00 -0.18373957917E+04  0.18373957917E+04  0.25500000920E-02 0.  1.
    10030    2    1    2    0    0  0.00000000000E+00  0.00000000000E+00 -0.59131047935E+03  0.30834811040E+04  0.30262530687E+04 0.  0.
        4    1    3    3  502    0 -0.52087200532E+03  0.13724337246E+04  0.78256217380E+02  0.14700366059E+04  0.12699999809E+01 0. -1.
       -4    1    3    3    0  502  0.52087200532E+03 -0.13724337246E+04 -0.66956669673E+03  0.16134444981E+04  0.12699999809E+01 0.  1.
</event>
<event>
 5   0  0.3896630E-06  0.2940353E+04  0.7818609E-02  0.8260972E-01
       -1   -1    0    0    0  501  0.00000000000E+00  0.00000000000E+00  0.14272177330E+04  0.14272177330E+04  0.50400001928E-02 0. -1.
        1   -1    0    0  501    0  0.00000000000E+00  0.00000000000E+00 -0.15144283100E+04  0.15144283100E+04  0.50400001928E-02 0.  1.
    10030    2    1    2    0    0  0.00000000000E+00  0.00000000000E+00 -0.87210577011E+02  0.29416460430E+04  0.29403529988E+04 0.  0.
        5    1    3    3  502    0  0.60118365075E+03 -0.10050188728E+04 -0.93276614353E+03  0.14971838515E+04  0.46999998093E+01 0.  1.
       -5    1    3    3    0  502 -0.60118365075E+03  0.10050188728E+04  0.84555556652E+03  0.14444621915E+04  0.46999998093E+01 0. -1.
</event>
<event>
 5   0  0.9647945E-06  0.2585925E+04  0.7818609E-02  0.8372998E-01
       -2   -1    0    0    0  501  0.00000000000E+00  0.00000000000E+00  0.10431188393E+04  0.10431188393E+04  0.25500000920E-02 0. -1.
        2   -1    0    0  501    0  0.00000000000E+00  0.00000000000E+00 -0.16026472624E+04  0.16026472624E+04  0.25500000920E-02 0.  1.
    10030    2    1    2    0    0  0.00000000000E+00  0.00000000000E+00 -0.55952842306E+03  0.26457661017E+04  0.25859246333E+04 0.  0.
        2    1    3    3  502    0  0.37868420494E+03 -0.56542604528E+03  0.84505996768E+03  0.10850044649E+04  0.25500000920E-02 0. -1.
       -2    1    3    3    0  502 -0.37868420494E+03  0.56542604528E+03 -0.14045883907E+04  0.15607616369E+04  0.25500000920E-02 0.  1.
</event>
<event>
 5   0  0.3636718E-06  0.2591634E+04  0.7818609E-02  0.8371049E-01
       -1   -1    0    0    0  501  0.00000000000E+00  0.00000000000E+00  0.14017901355E+04  0.14017901355E+04  0.50400001928E-02 0.  1.
        1   -1    0    0  501    0  0.00000000000E+00  0.00000000000E+00 -0.11978551593E+04  0.11978551593E+04  0.50400001928E-02 0. -1.
    10030    2    1    2    0    0  0.00000000000E+00  0.00000000000E+00  0.20393497618E+03  0.25996452949E+04  0.25916338832E+04 0.  0.
        4    1    3    3  502    0  0.77240275218E+03 -0.34869053825E+03 -0.88134278666E+03  0.12226846787E+04  0.12699999809E+01 0. -1.
       -4    1    3    3    0  502 -0.77240275218E+03  0.34869053825E+03  0.10852777628E+04  0.13769606162E+04  0.12699999809E+01 0.  1.
</event>
<event>
 5   0  0.3852126E-06  0.2992910E+04  0.7818609E-02  0.8245759E-01
       -1   -1    0    0    0  501  0.00000000000E+00  0.00000000000E+00  0.12787682841E+04  0.12787682842E+04  0.50400001928E-02 0. -1.
        1   -1    0    0  501    0  0.00000000000E+00  0.00000000000E+00 -0.17511983272E+04  0.17511983272E+04  0.50400001928E-02 0.  1.
    10030    2    1    2    0    0  0.00000000000E+00  0.00000000000E+00 -0.47243004304E+03  0.30299666113E+04  0.29929095409E+04 0.  0.
        1    1    3    3  502    0 -0.59747099318E+03  0.12531573140E+04  0.32927242457E+03  0.14268129418E+04  0.50400001928E-02 0.  1.
       -1    1    3    3    0  502  0.59747099318E+03 -0.12531573140E+04 -0.80170246761E+03  0.16031536695E+04  0.50400001928E-02 0. -1.
</event>
<event>
 5   0  0.9647945E-06  0.2995920E+04  0.7818609E-02  0.8244897E-01
        2   -1    0    0  501    0  0.00000000000E+00  0.00000000000E+00  0.26372297379E+04  0.26372297379E+04  0.25500000920E-02 0. -1.
       -2   -1    0    0    0  501  0.00000000000E+00  0.00000000000E+00 -0.85084898179E+03  0.85084898180E+03  0.25500000920E-02 0.  1.
    10030    2    1    2    0    0  0.00000000000E+00  0.00000000000E+00  0.17863807561E+04  0.34880787197E+04  0.29959200505E+04 0.  0.
        2    1    3    3  502    0  0.87531400695E+03 -0.11555443084E+04  0.13325824208E+04  0.19690691119E+04  0.25500000920E-02 0. -1.
       -2    1    3    3    0  502 -0.87531400695E+03  0.11555443084E+04  0.45379833536E+03  0.15190096078E+04  0.25500000920E-02 0.  1.
</event>
<event>
 5   0  0.1029922E-05  0.2752208E+04  0.7818609E-02  0.8318261E-01
       -2   -1    0    0    0  501  0.00000000000E+00  0.00000000000E+00  0.21481436727E+04  0.21481436727E+04  0.25500000920E-02 0. -1.
        2   -1    0    0  501    0  0.00000000000E+00  0.00000000000E+00 -0.88153430636E+03  0.88153430636E+03  0.25500000920E-02 0.  1.
    10030    2    1    2    0    0  0.00000000000E+00  0.00000000000E+00  0.12666093664E+04  0.30296779791E+04  0.27522080899E+04 0.  0.
        1    1    3    3  502    0  0.12925915178E+04 -0.46713039705E+03  0.70844062054E+03  0.15462508698E+04  0.50400001928E-02 0.  1.
       -1    1    3    3    0  502 -0.12925915178E+04  0.46713039705E+03  0.55816874582E+03  0.14834271092E+04  0.50400001928E-02 0. -1.
</event>
<event>
 5   0  0.3725232E-06  0.3042189E+04  0.7818609E-02  0.8231785E-01
        1   -1    0    0  501    0  0.00000000000E+00  0.00000000000E+00  0.15892569545E+04  0.15892569545E+04  0.50400001928E-02 0. -1.
       -1   -1    0    0    0  501  0.00000000000E+00  0.00000000000E+00 -0.14558552524E+04  0.14558552524E+04  0.50400001928E-02 0.  1.
    10030    2    1    2    0    0  0.00000000000E+00  0.00000000000E+00  0.13340170207E+03  0.30451122069E+04  0.30421887415E+04 0.  0.
        2    1    3    3  502    0  0.99130694955E+03 -0.78560915814E+03 -0.77901158392E+03  0.14855067369E+04  0.25500000920E-02 0.  1.
       -2    1    3    3    0  502 -0.99130694955E+03  0.78560915814E+03  0.91241328599E+03  0.15596054700E+04  0.25500000920E-02 0. -1.
</event>
<event>
 5   0  0.3592331E-06  0.2840976E+04  0.7818609E-02  0.8290659E-01
       -1   -1    0    0    0  501  0.00000000000E+00  0.00000000000E+00  0.13392814235E+04  0.13392814235E+04  0.50400001928E-02 0. -1.
        1   -1    0    0  501    0  0.00000000000E+00  0.00000000000E+00 -0.15066183201E+04  0.15066183201E+04  0.50400001928E-02 0.  1.
    10030    2    1    2    0    0  0.00000000000E+00  0.00000000000E+00 -0.16733689667E+03  0.28458997436E+04  0.28409758383E+04 0.  0.
        3    1    3    3  502    0 -0.10639940176E+04 -0.74319432801E+03  0.49470980108E+03  0.13889416389E+04  0.10100000352E+00 0. -1.
       -3    1    3    3    0  502  0.10639940176E+04  0.74319432801E+03 -0.66204669775E+03  0.14569581047E+04  0.10100000352E+00 0.  1.
</event>
<event>
 5   0  0.3852126E-06  0.2426761E+04  0.7818609E-02  0.8429552E-01
       -1   -1    0    0    0  501  0.00000000000E+00  0.00000000000E+00  0.12147093593E+04  0.12147093594E+04  0.50400001928E-02 0. -1.
        1   -1    0    0  501    0  0.00000000000E+00  0.00000000000E+00 -0.12120528260E+04  0.12120528260E+04  0.50400001928E-02 0.  1.
    10030    2    1    2    0    0  0.00000000000E+00  0.00000000000E+00  0.26565333163E+01  0.24267621854E+04  0.24267607314E+04 0.  0.
        1    1    3    3  502    0 -0.60969802402E+03  0.42900822759E+03 -0.95601872909E+03  0.12123331020E+04  0.50400001928E-02 0.  1.
       -1    1    3    3    0  502  0.60969802402E+03 -0.42900822759E+03  0.95867526240E+03  0.12144290834E+04  0.50400001928E-02 0. -1.
</event>
<event>
 5   0  0.1057036E-05  0.2997616E+04  0.7818609E-02  0.8244412E-01
       -2   -1    0    0    0  501  0.00000000000E+00  0.00000000000E+00  0.75756847270E+03  0.75756847270E+03  0.25500000920E-02 0. -1.
        2   -1    0    0  501    0  0.00000000000E+00  0.00000000000E+00 -0.29653104387E+04  0.29653104387E+04  0.25500000920E-02 0.  1.
    10030    2    1    2    0    0  0.00000000000E+00  0.00000000000E+00 -0.22077419660E+04  0.37228789114E+04  0.29976161863E+04 0.  0.
        4    1    3    3  502    0  0.41982321842E+03 -0.54196917881E+03 -0.27591773945E+04  0.28430694034E+04  0.12699999809E+01 0.  1.
       -4    1    3    3    0  502 -0.41982321842E+03  0.54196917881E+03  0.55143542853E+03  0.87980950793E+03  0.12699999809E+01 0. -1.
</event>
<event>
 5   0  0.3592331E-06  0.3060406E+04  0.7818609E-02  0.8226689E-01
       -1   -1    0    0    0  501  0.00000000000E+00  0.00000000000E+00  0.24055885929E+04  0.24055885929E+04  0.50400001928E-02 0.  1.
        1   -1    0    0  501    0  0.00000000000E+00  0.00000000000E+00 -0.97336727662E+03  0.97336727663E+03  0.50400001928E-02 0. -1.
    10030    2    1    2    0    0  0.00000000000E+00  0.00000000000E+00  0.14322213162E+04  0.33789558695E+04  0.30604059975E+04 0.  0.
        3    1    3    3  502    0  0.11256342447E+04  0.34095875333E+03 -0.36466401270E+03  0.12313753192E+04  0.10100000352E+00 0.  1.
       -3    1    3    3    0  502 -0.11256342447E+04 -0.34095875333E+03  0.17968853289E+04  0.21475805503E+04  0.10100000352E+00 0. -1.
</event>
<event>
 5   0  0.3852126E-06  0.2994274E+04  0.7818609E-02  0.8245368E-01
       -1   -1    0    0    0  501  0.00000000000E+00  0.00000000000E+00  0.13333177256E+04  0.13333177256E+04  0.50400001928E-02 0. -1.
        1   -1    0    0  501    0  0.00000000000E+00  0.00000000000E+00 -0.16810836120E+04  0.16810836120E+04  0.50400001928E-02 0.  1.
    10030    2    1    2    0    0  0.00000000000E+00  0.00000000000E+00 -0.34776588642E+03  0.30144013376E+04  0.29942735868E+04 0.  0.
        1    1    3    3  502    0  0.25348074766E+03 -0.12789374259E+04 -0.91468617731E+03  0.15926657627E+04  0.50400001928E-02 0.  1.
       -1    1    3    3    0  502 -0.25348074766E+03  0.12789374259E+04  0.56692029089E+03  0.14217355749E+04  0.50400001928E-02 0. -1.
</event>
<event>
 5   0  0.3852126E-06  0.3044287E+04  0.7818609E-02  0.8231196E-01
       -1   -1    0    0    0  501  0.00000000000E+00  0.00000000000E+00  0.10976965948E+04  0.10976965948E+04  0.50400001928E-02 0.  1.
        1   -1    0    0  501    0  0.00000000000E+00  0.00000000000E+00 -0.21107110289E+04  0.21107110289E+04  0.50400001928E-02 0. -1.
    10030    2    1    2    0    0  0.00000000000E+00  0.00000000000E+00 -0.10130144341E+04  0.32084076237E+04  0.30442866547E+04 0.  0.
        1    1    3    3  502    0  0.90822082433E+03 -0.79903499729E+03  0.46720533988E+03  0.12967662944E+04  0.50400001928E-02 0.  1.
       -1    1    3    3    0  502 -0.90822082433E+03  0.79903499729E+03 -0.14802197740E+04  0.19116413293E+04  0.50400001928E-02 0. -1.
</event>
<event>
 5   0  0.1057036E-05  0.3076484E+04  0.7818609E-02  0.8222221E-01
        2   -1    0    0  501    0  0.00000000000E+00  0.00000000000E+00  0.24818384210E+04  0.24818384210E+04  0.25500000920E-02 0. -1.
       -2   -1    0    0    0  501  0.00000000000E+00  0.00000000000E+00 -0.95340172179E+03  0.95340172179E+03  0.25500000920E-02 0.  1.
    10030    2    1    2    0    0  0.00000000000E+00  0.00000000000E+00  0.15284366992E+04  0.34352401428E+04  0.30764843726E+04 0.  0.
        4    1    3    3  502    0 -0.65973627599E+03 -0.89546295035E+02 -0.78417981887E+03  0.10286933917E+04  0.12699999809E+01 0.  1.
       -4    1    3    3    0  502  0.65973627599E+03  0.89546295035E+02  0.23126165181E+04  0.24065467511E+04  0.12699999809E+01 0. -1.
</event>
<event>
 5   0  0.1028450E-05  0.2958192E+04  0.7818609E-02  0.8255771E-01
        2   -1    0    0  501    0  0.00000000000E+00  0.00000000000E+00  0.17131175859E+04  0.17131175859E+04  0.25500000920E-02 0. -1.
       -2   -1    0    0    0  501  0.00000000000E+00  0.00000000000E+00 -0.12770432244E+04  0.12770432244E+04  0.25500000920E-02 0.  1.
    10030    2    1    2    0    0  0.00000000000E+00  0.00000000000E+00  0.43607436155E+03  0.29901608103E+04  0.29581921544E+04 0.  0.
        3    1    3    3  502    0 -0.26740380585E+03 -0.81645230681E+03  0.14350528050E+04  0.16725656125E+04  0.10100000352E+00 0. -1.
       -3    1    3    3    0  502  0.26740380585E+03  0.81645230681E+03 -0.99897844343E+03  0.13175951978E+04  0.10100000352E+00 0.  1.
</event>
<event>
 5   0  0.1089569E-05  0.2868646E+04  0.7818609E-02  0.8282268E-01
       -2   -1    0    0    0  501  0.00000000000E+00  0.00000000000E+00  0.19504048673E+04  0.19504048673E+04  0.25500000920E-02 0.  1.
        2   -1    0    0  501    0  0.00000000000E+00  0.00000000000E+00 -0.10547973502E+04  0.10547973502E+04  0.25500000920E-02 0. -1.
    10030    2    1    2    0    0  0.00000000000E+00  0.00000000000E+00  0.89560751711E+03  0.30052022175E+04  0.28686455939E+04 0.  0.
        5    1    3    3  502    0 -0.30181651764E+02  0.12295499204E+04 -0.32526481802E+03  0.12722119441E+04  0.46999998093E+01 0.  1.
       -5    1    3    3    0  502  0.30181651764E+02 -0.12295499204E+04  0.12208723351E+04  0.17329902734E+04  0.46999998093E+01 0. -1.
</event>
<event>
 5   0  0.1028450E-05  0.3034104E+04  0.7818609E-02  0.8234059E-01
        2   -1    0    0  501    0  0.00000000000E+00  0.00000000000E+00  0.18162162224E+04  0.18162162224E+04  0.25500000920E-02 0.  1.
       -2   -1    0    0    0  501  0.00000000000E+00  0.00000000000E+00 -0.12671656195E+04  0.12671656195E+04  0.25500000920E-02 0. -1.
    10030    2    1    2    0    0  0.00000000000E+00  0.00000000000E+00  0.54905060290E+03  0.30833818419E+04  0.30341039894E+04 0.  0.
        3    1    3    3  502    0 -0.29160192077E+03  0.10110811086E+04 -0.83598518468E+03  0.13439449124E+04  0.10100000352E+00 0. -1.
       -3    1    3    3    0  502  0.29160192077E+03 -0.10110811086E+04  0.13850357876E+04  0.17394369295E+04  0.10100000352E+00 0.  1.
</event>
<event>
 5   0  0.3896630E-06  0.2961824E+04  0.7818609E-02  0.8254717E-01
        1   -1    0    0  501    0  0.00000000000E+00  0.00000000000E+00  0.24232203670E+04  0.24232203670E+04  0.50400001928E-02 0.  1.
       -1   -1    0    0    0  501  0.00000000000E+00  0.00000000000E+00 -0.90503561982E+03  0.90503561983E+03  0.50400001928E-02 0. -1.
    10030    2    1    2    0    0  0.00000000000E+00  0.00000000000E+00  0.15181847471E+04  0.33282559868E+04  0.29618242668E+04 0.  0.
        5    1    3    3  502    0 -0.62167782640E+03 -0.13848641476E+03  0.22614397353E+04  0.23494240940E+04  0.46999998093E+01 0.  1.
       -5    1    3    3    0  502  0.62167782640E+03  0.13848641476E+03 -0.74325498819E+03  0.97883189280E+03  0.46999998093E+01 0. -1.
</event>
<event>
 5   0  0.1089569E-05  0.2975585E+04  0.7818609E-02  0.8250737E-01
        2   -1    0    0  501    0  0.00000000000E+00  0.00000000000E+00  0.16583746685E+04  0.16583746685E+04  0.25500000920E-02 0. -1.
       -2   -1    0    0    0  501  0.00000000000E+00  0.00000000000E+00 -0.13347565984E+04  0.13347565984E+04  0.25500000920E-02 0.  1.
    10030    2    1    2    0    0  0.00000000000E+00  0.00000000000E+00  0.32361807019E+03  0.29931312669E+04  0.29755850056E+04 0.  0.
        5    1    3    3  502    0 -0.10422529494E+04  0.27068122268E+03  0.11944809284E+04  0.16082183661E+04  0.46999998093E+01 0. -1.
       -5    1    3    3    0  502  0.10422529494E+04 -0.27068122268E+03 -0.87086285819E+03  0.13849129008E+04  0.46999998093E+01 0.  1.
</event>
<event>
 5   0  0.9647945E-06  0.2922801E+04  0.7818609E-02  0.8266126E-01
        2   -1    0    0  501    0  0.00000000000E+00  0.00000000000E+00  0.17954959751E+04  0.17954959751E+04  0.25500000920E-02 0.  1.
       -2   -1    0    0    0  501  0.00000000000E+00  0.00000000000E+00 -0.11894712838E+04  0.11894712838E+04  0.25500000920E-02 0. -1.
    10030    2    1    2    0    0  0.00000000000E+00  0.00000000000E+00  0.60602469132E+03  0.29849672590E+04  0.29228006450E+04 0.  0.
        2    1    3    3  502    0  0.11684261779E+04  0.86711202087E+03  0.16377501452E+03  0.14642148904E+04  0.25500000920E-02 0. -1.
       -2    1    3    3    0  502 -0.11684261779E+04 -0.86711202087E+03  0.44224967680E+03  0.15207523686E+04  0.25500000920E-02 0.  1.
</event>
<event>
 5   0  0.1089569E-05  0.2920272E+04  0.7818609E-02  0.8266871E-01
       -2   -1    0    0    0  501  0.00000000000E+00  0.00000000000E+00  0.79404826539E+03  0.79404826540E+03  0.25500000920E-02 0.  1.
        2   -1    0    0  501    0  0.00000000000E+00  0.00000000000E+00 -0.26849717494E+04  0.26849717494E+04  0.25500000920E-02 0. -1.
    10030    2    1    2    0    0  0.00000000000E+00  0.00000000000E+00 -0.18909234840E+04  0.34790200148E+04  0.29202720149E+04 0.  0.
        5    1    3    3  502    0 -0.59195951143E+03  0.12939724487E+04 -0.13355110262E+04  0.19515103260E+04  0.46999998093E+01 0. -1.
       -5    1    3    3    0  502  0.59195951143E+03 -0.12939724487E+04 -0.55541245786E+03  0.15275096889E+04  0.46999998093E+01 0.  1.
</event>
<event>
 5   0  0.3852126E-06  0.2996011E+04  0.7818609E-02  0.8244871E-01
       -1   -1    0    0    0  501  0.00000000000E+00  0.00000000000E+00  0.11523777734E+04  0.11523777734E+04  0.50400001928E-02 0.  1.
        1   -1    0    0  501    0  0.00000000000E+00  0.00000000000E+00 -0.19472964883E+04  0.19472964883E+04  0.50400001928E-02 0. -1.
    10030    2    1    2    0    0  0.00000000000E+00  0.00000000000E+00 -0.79491871489E+03  0.30996742617E+04  0.29960114762E+04 0.  0.
        1    1    3    3  502    0  0.61972519257E+03 -0.20156613622E+03 -0.17929556257E+04  0.19077154131E+04  0.50400001928E-02 0. -1.
       -1    1    3    3    0  502 -0.61972519257E+03  0.20156613622E+03  0.99803691078E+03  0.11919588486E+04  0.50400001928E-02 0.  1.
</event>
<event>
 5   0  0.9647945E-06  0.3021120E+04  0.7818609E-02  0.8237725E-01
       -2   -1    0    0    0  501  0.00000000000E+00  0.00000000000E+00  0.12514809389E+04  0.12514809389E+04  0.25500000920E-02 0.  1.
        2   -1    0    0  501    0  0.00000000000E+00  0.00000000000E+00 -0.18232735615E+04  0.18232735615E+04  0.25500000920E-02 0. -1.
    10030    2    1    2    0    0  0.00000000000E+00  0.00000000000E+00 -0.57179262260E+03  0.30747545003E+04  0.30211203938E+04 0.  0.
        2    1    3    3  502    0 -0.11843291472E+04 -0.88162020335E+03 -0.61078501573E+03  0.15977947451E+04  0.25500000920E-02 0. -1.
       -2    1    3    3    0  502  0.11843291472E+04  0.88162020335E+03  0.38992393133E+02  0.14769597553E+04  0.25500000920E-02 0.  1.
</event>
<event>
 5   0  0.3896630E-06  0.3033496E+04  0.7818609E-02  0.8234230E-01
        1   -1    0    0  501    0  0.00000000000E+00  0.00000000000E+00  0.26077381951E+04  0.26077381951E+04  0.50400001928E-02 0.  1.
       -1   -1    0    0    0  501  0.00000000000E+00  0.00000000000E+00 -0.88219152596E+03  0.88219152598E+03  0.50400001928E-02 0. -1.
    10030    2    1    2    0    0  0.00000000000E+00  0.00000000000E+00  0.17255466691E+04  0.34899297210E+04  0.30334960278E+04 0.  0.
        5    1    3    3  502    0  0.60016233046E+03 -0.47800186576E+03  0.23680021802E+04  0.24892040941E+04  0.46999998093E+01 0.  1.
       -5    1    3    3    0  502 -0.60016233046E+03  0.47800186576E+03 -0.64245551114E+03  0.10007256269E+04  0.46999998093E+01 0. -1.
</event>
<event>
 5   0  0.3592331E-06  0.2685057E+04  0.7818609E-02  0.8339870E-01
        1   -1    0    0  501    0  0.00000000000E+00  0.00000000000E+00  0.14808802832E+04  0.14808802832E+04  0.50400001928E-02 0. -1.
       -1   -1    0    0    0  501  0.00000000000E+00  0.00000000000E+00 -0.12171018640E+04  0.12171018640E+04  0.50400001928E-02 0.  1.
    10030    2    1    2    0    0  0.00000000000E+00  0.00000000000E+00  0.26377841918E+03  0.26979821472E+04  0.26850565380E+04 0.  0.
        3    1    3    3  502    0  0.33288985178E+02 -0.45877501395E+03 -0.11354514136E+04  0.12250847288E+04  0.10100000352E+00 0.  1.
       -3    1    3    3    0  502 -0.33288985178E+02  0.45877501395E+03  0.13992298328E+04  0.14728974184E+04  0.10100000352E+00 0. -1.
</event>
<event>
 5   0  0.1057036E-05  0.3017491E+04  0.7818609E-02  0.8238754E-01
        2   -1    0    0  501    0  0.00000000000E+00  0.00000000000E+00  0.99993191461E+03  0.99993191462E+03  0.25500000920E-02 0.  1.
       -2   -1    0    0    0  501  0.00000000000E+00  0.00000000000E+00 -0.22764678501E+04  0.22764678501E+04  0.25500000920E-02 0. -1.
    10030    2    1    2    0    0  0.00000000000E+00  0.00000000000E+00 -0.12765359355E+04  0.32763997647E+04  0.30174909153E+04 0.  0.
        4    1    3    3  502    0  0.11120981640E+04  0.67507407554E+03 -0.14679121137E+04  0.19614420512E+04  0.12699999809E+01 0. -1.
       -4    1    3    3    0  502 -0.11120981640E+04 -0.67507407554E+03  0.19137617817E+03  0.13149577135E+04  0.12699999809E+01 0.  1.
</event>
<event>
 5   0  0.3896630E-06  0.2729238E+04  0.7818609E-02  0.8325580E-01
        1   -1    0    0  501    0  0.00000000000E+00  0.00000000000E+00  0.14382441155E+04  0.14382441155E+04  0.50400001928E-02 0.  1.
       -1   -1    0    0    0  501  0.00000000000E+00  0.00000000000E+00 -0.12947626240E+04  0.12947626240E+04  0.50400001928E-02 0. -1.
    10030    2    1    2    0    0  0.00000000000E+00  0.00000000000E+00  0.14348149144E+03  0.27330067395E+04  0.27292377874E+04 0.  0.
        5    1    3    3  502    0  0.13503213640E+04  0.19451572216E+03  0.10274287324E+03  0.13681309660E+04  0.46999998093E+01 0. -1.
       -5    1    3    3    0  502 -0.13503213640E+04 -0.19451572216E+03  0.40738618201E+02  0.13648757735E+04  0.46999998093E+01 0.  1.
</event>
<event>
 5   0  0.3852126E-06  0.3070675E+04  0.7818609E-02  0.8223832E-01
       -1   -1    0    0    0  501  0.00000000000E+00  0.00000000000E+00  0.11483596891E+04  0.11483596891E+04  0.50400001928E-02 0.  1.
        1   -1    0    0  501    0  0.00000000000E+00  0.00000000000E+00 -0.20527206841E+04  0.20527206841E+04  0.50400001928E-02 0. -1.
    10030    2    1    2    0    0  0.00000000000E+00  0.00000000000E+00 -0.90436099507E+03  0.32010803732E+04  0.30706752916E+04 0.  0.
        1    1    3    3  502    0  0.20889576215E+03 -0.85231348006E+03 -0.17655187487E+04  0.19715811319E+04  0.50400001928E-02 0. -1.
       -1    1    3    3    0  502 -0.20889576215E+03  0.85231348006E+03  0.86115775360E+03  0.12294992413E+04  0.50400001928E-02 0.  1.
</event>
<event>
 5   0  0.3896630E-06  0.2943869E+04  0.7818609E-02  0.8259943E-01
       -1   -1    0    0    0  501  0.00000000000E+00  0.00000000000E+00  0.16887965543E+04  0.16887965543E+04  0.50400001928E-02 0.  1.
        1   -1    0    0  501    0  0.00000000000E+00  0.00000000000E+00 -0.12829203443E+04  0.12829203443E+04  0.50400001928E-02 0. -1.
    10030    2    1    2    0    0  0.00000000000E+00  0.00000000000E+00  0.40587621001E+03  0.29717168985E+04  0.29438691933E+04 0.  0.
        5    1    3    3  502    0  0.66846168360E+03  0.17099436272E+03  0.15154254801E+04  0.16651175845E+04  0.46999998093E+01 0.  1.
       -5    1    3    3    0  502 -0.66846168360E+03 -0.17099436272E+03 -0.11095492701E+04  0.13065993140E+04  0.46999998093E+01 0. -1.
</event>
<event>
 5   0  0.1089569E-05  0.2969480E+04  0.7818609E-02  0.8252500E-01
       -2   -1    0    0    0  501  0.00000000000E+00  0.00000000000E+00  0.12365772501E+04  0.12365772501E+04  0.25500000920E-02 0. -1.
        2   -1    0    0  501    0  0.00000000000E+00  0.00000000000E+00 -0.17827051156E+04  0.17827051156E+04  0.25500000920E-02 0.  1.
    10030    2    1    2    0    0  0.00000000000E+00  0.00000000000E+00 -0.54612786554E+03  0.30192823657E+04  0.29694798127E+04 0.  0.
        5    1    3    3  502    0 -0.35178449076E+03 -0.68324806027E+03  0.10186161755E+04  0.12760020544E+04  0.46999998093E+01 0. -1.
       -5    1    3    3    0  502  0.35178449076E+03  0.68324806027E+03 -0.15647440410E+04  0.17432803113E+04  0.46999998093E+01 0.  1.
</event>
<event>
 5   0  0.3852126E-06  0.2945833E+04  0.7818609E-02  0.8259370E-01
       -1   -1    0    0    0  501  0.00000000000E+00  0.00000000000E+00  0.14198020491E+04  0.14198020491E+04  0.50400001928E-02 0.  1.
        1   -1    0    0  501    0  0.00000000000E+00  0.00000000000E+00 -0.15280174367E+04  0.15280174367E+04  0.50400001928E-02 0. -1.
    10030    2    1    2    0    0  0.00000000000E+00  0.00000000000E+00 -0.10821538758E+03  0.29478194858E+04  0.29458325056E+04 0.  0.
        1    1    3    3  502    0 -0.33958828340E+03  0.13391055855E+04 -0.56529305239E+03  0.14926755194E+04  0.50400001928E-02 0. -1.
       -1    1    3    3    0  502  0.33958828340E+03 -0.13391055855E+04  0.45707766481E+03  0.14551439664E+04  0.50400001928E-02 0.  1.
</event>
<event>
 5   0  0.3313750E-06  0.2997045E+04  0.7818609E-02  0.8244575E-01
       -3   -1    0    0    0  501  0.00000000000E+00  0.00000000000E+00  0.18248600327E+04  0.18248600355E+04  0.10100000352E+00 0. -1.
        3   -1    0    0  501    0  0.00000000000E+00  0.00000000000E+00 -0.12305437192E+04  0.12305437233E+04  0.10100000352E+00 0.  1.
    10030    2    1    2    0    0  0.00000000000E+00  0.00000000000E+00  0.59431631356E+03  0.30554037588E+04  0.29970452531E+04 0.  0.
        3    1    3    3  502    0  0.15271444527E+03  0.75510821457E+03  0.16075108556E+04  0.17825827550E+04  0.10100000352E+00 0. -1.
       -3    1    3    3    0  502 -0.15271444527E+03 -0.75510821457E+03 -0.10131945420E+04  0.12728210038E+04  0.10100000352E+00 0.  1.
</event>
<event>
 5   0  0.1089569E-05  0.1891713E+04  0.7818609E-02  0.8658992E-01
        2   -1    0    0  501    0  0.00000000000E+00  0.00000000000E+00  0.77526016184E+03  0.77526016184E+03  0.25500000920E-02 0. -1.
       -2   -1    0    0    0  501  0.00000000000E+00  0.00000000000E+00 -0.11539930976E+04  0.11539930976E+04  0.25500000920E-02 0.  1.
    10030    2    1    2    0    0  0.00000000000E+00  0.00000000000E+00 -0.37873293572E+03  0.19292532594E+04  0.18917133774E+04 0.  0.
        5    1    3    3  502    0  0.41964779555E+03 -0.58990485880E+03  0.43142544061E+03  0.84275857489E+03  0.46999998093E+01 0. -1.
       -5    1    3    3    0  502 -0.41964779555E+03  0.58990485880E+03 -0.81015837633E+03  0.10864946845E+04  0.46999998093E+01 0.  1.
</event>
<event>
 5   0  0.3896630E-06  0.2162564E+04  0.7818609E-02  0.8534173E-01
        1   -1    0    0  501    0  0.00000000000E+00  0.00000000000E+00  0.17335771845E+04  0.17335771845E+04  0.50400001928E-02 0.  1.
       -1   -1    0    0    0  501  0.00000000000E+00  0.00000000000E+00 -0.67442660616E+03  0.67442660618E+03  0.50400001928E-02 0. -1.
    10030    2    1    2    0    0  0.00000000000E+00  0.00000000000E+00  0.10591505783E+04  0.24080037907E+04  0.21625638276E+04 0.  0.
        5    1    3    3  502    0 -0.10453218360E+03 -0.98458792767E+03  0.45738855316E+02  0.99118842690E+03  0.46999998093E+01 0.  1.
       -5    1    3    3    0  502  0.10453218360E+03  0.98458792767E+03  0.10134117230E+04  0.14168153638E+04  0.46999998093E+01 0. -1.
</event>
<event>
 5   0  0.1057036E-05  0.2881328E+04  0.7818609E-02  0.8278455E-01
        2   -1    0    0  501    0  0.00000000000E+00  0.00000000000E+00  0.23937671243E+04  0.23937671243E+04  0.25500000920E-02 0.  1.
       -2   -1    0    0    0  501  0.00000000000E+00  0.00000000000E+00 -0.86704866522E+03  0.86704866522E+03  0.25500000920E-02 0. -1.
    10030    2    1    2    0    0  0.00000000000E+00  0.00000000000E+00  0.15267184590E+04  0.32608157895E+04  0.28813278813E+04 0.  0.
        4    1    3    3  502    0  0.30273128466E+03  0.11902958501E+04 -0.88854046415E+02  0.12314004612E+04  0.12699999809E+01 0. -1.
       -4    1    3    3    0  502 -0.30273128466E+03 -0.11902958501E+04  0.16155725055E+04  0.20294153283E+04  0.12699999809E+01 0.  1.
</event>
<event>
 5   0  0.3636718E-06  0.3110734E+04  0.7818609E-02  0.8212798E-01
        1   -1    0    0  501    0  0.00000000000E+00  0.00000000000E+00  0.20105620185E+04  0.20105620186E+04  0.50400001928E-02 0. -1.
       -1   -1    0    0    0  501  0.00000000000E+00  0.00000000000E+00 -0.12032288066E+04  0.12032288066E+04  0.50400001928E-02 0.  1.
    10030    2    1    2    0    0  0.00000000000E+00  0.00000000000E+00  0.80733321198E+03  0.32137908251E+04  0.31107337643E+04 0.  0.
        4    1    3    3  502    0 -0.49102185751E+03 -0.13310108532E+04 -0.25500686374E+03  0.14414307022E+04  0.12699999809E+01 0. -1.
       -4    1    3    3    0  502  0.49102185751E+03  0.13310108532E+04  0.10623400757E+04  0.17723601229E+04  0.12699999809E+01 0.  1.
</event>
<event>
 5   0  0.3725232E-06  0.3325648E+04  0.7818609E-02  0.8156400E-01
       -1   -1    0    0    0  501  0.00000000000E+00  0.00000000000E+00  0.15174004800E+04  0.15174004800E+04  0.50400001928E-02 0.  1.
        1   -1    0    0  501    0  0.00000000000E+00  0.00000000000E+00 -0.18221842438E+04  0.18221842438E+04  0.50400001928E-02 0. -1.
    10030    2    1    2    0    0  0.00000000000E+00  0.00000000000E+00 -0.30478376378E+03  0.33395847237E+04  0.33256477541E+04 0.  0.
        2    1    3    3  502    0 -0.78989310700E+03  0.15835728212E+03 -0.16131270797E+04  0.18031048568E+04  0.25500000920E-02 0. -1.
       -2    1    3    3    0  502  0.78989310700E+03 -0.15835728212E+03  0.13083433159E+04  0.15364798670E+04  0.25500000920E-02 0.  1.
</event>
<event>
 5   0  0.3592331E-06  0.3091894E+04  0.7818609E-02  0.8217966E-01
        1   -1    0    0  501    0  0.00000000000E+00  0.00000000000E+00  0.16691764024E+04  0.16691764024E+04  0.50400001928E-02 0.  1.
       -1   -1    0    0    0  501  0.00000000000E+00  0.00000000000E+00 -0.14318150545E+04  0.14318150545E+04  0.50400001928E-02 0. -1.
    10030    2    1    2    0    0  0.00000000000E+00  0.00000000000E+00  0.23736134787E+03  0.31009914569E+04  0.30918938543E+04 0.  0.
        3    1    3    3  502    0  0.11357082073E+04  0.74432955005E+03 -0.62247427412E+03  0.14937649893E+04  0.10100000352E+00 0. -1.
       -3    1    3    3    0  502 -0.11357082073E+04 -0.74432955005E+03  0.85983562200E+03  0.16072264676E+04  0.10100000352E+00 0.  1.
</event>
<event>
 5   0  0.1028450E-05  0.3120385E+04  0.7818609E-02  0.8210166E-01
        2   -1    0    0  501    0  0.00000000000E+00  0.00000000000E+00  0.27187427423E+04  0.27187427423E+04  0.25500000920E-02 0. -1.
       -2   -1    0    0    0  501  0.00000000000E+00  0.00000000000E+00 -0.89534047196E+03  0.89534047196E+03  0.25500000920E-02 0.  1.
    10030    2    1    2    0    0  0.00000000000E+00  0.00000000000E+00  0.18234022703E+04  0.36140832142E+04  0.31203848545E+04 0.  0.
        3    1    3    3  502    0 -0.14761258088E+04  0.91203095964E+02  0.14872488111E+04  0.20974209030E+04  0.10100000352E+00 0. -1.
       -3    1    3    3    0  502  0.14761258088E+04 -0.91203095964E+02  0.33615345920E+03  0.15166623112E+04  0.10100000352E+00 0.  1.
</event>
<event>
 5   0  0.3725232E-06  0.3043316E+04  0.7818609E-02  0.8231469E-01
        1   -1    0    0  501    0  0.00000000000E+00  0.00000000000E+00  0.14207854648E+04  0.14207854648E+04  0.50400001928E-02 0. -1.
       -1   -1    0    0    0  501  0.00000000000E+00  0.00000000000E+00 -0.16296920276E+04  0.16296920276E+04  0.50400001928E-02 0.  1.
    10030    2    1    2    0    0  0.00000000000E+00  0.00000000000E+00 -0.20890656277E+03  0.30504774924E+04  0.30433157871E+04 0.  0.
        2    1    3    3  502    0 -0.20665942920E+03  0.38417770012E+03  0.13567639856E+04  0.14251698627E+04  0.25500000920E-02 0. -1.
       -2    1    3    3    0  502  0.20665942920E+03 -0.38417770012E+03 -0.15656705484E+04  0.16253076297E+04  0.25500000920E-02 0.  1.
</event>
<event>
 5   0  0.3636718E-06  0.2324182E+04  0.7818609E-02  0.8468447E-01
        1   -1    0    0  501    0  0.00000000000E+00  0.00000000000E+00  0.78693752747E+03  0.78693752748E+03  0.50400001928E-02 0. -1.
       -1   -1    0    0    0  501  0.00000000000E+00  0.00000000000E+00 -0.17160893940E+04  0.17160893940E+04  0.50400001928E-02 0.  1.
    10030    2    1    2    0    0  0.00000000000E+00  0.00000000000E+00 -0.92915186655E+03  0.25030269215E+04  0.23241817009E+04 0.  0.
        4    1    3    3  502    0 -0.70435277428E+03 -0.48028257619E+03 -0.13150726536E+04  0.15672274502E+04  0.12699999809E+01 0.  1.
       -4    1    3    3    0  502  0.70435277428E+03  0.48028257619E+03  0.38592078706E+03  0.93579947126E+03  0.12699999809E+01 0. -1.
</event>
<event>
 5   0  0.1089569E-05  0.2967557E+04  0.7818609E-02  0.8253056E-01
       -2   -1    0    0    0  501  0.00000000000E+00  0.00000000000E+00  0.97098066894E+03  0.97098066894E+03  0.25500000920E-02 0. -1.
        2   -1    0    0  501    0  0.00000000000E+00  0.00000000000E+00 -0.22673968698E+04  0.22673968698E+04  0.25500000920E-02 0.  1.
    10030    2    1    2    0    0  0.00000000000E+00  0.00000000000E+00 -0.12964162009E+04  0.32383775388E+04  0.29675569275E+04 0.  0.
        5    1    3    3  502    0  0.13027151698E+04 -0.62604778454E+03 -0.28206818442E+03  0.14726123702E+04  0.46999998093E+01 0. -1.
       -5    1    3    3    0  502 -0.13027151698E+04  0.62604778454E+03 -0.10143480165E+04  0.17657651686E+04  0.46999998093E+01 0.  1.
</event>
<event>
 5   0  0.1057036E-05  0.3108517E+04  0.7818609E-02  0.8213404E-01
       -2   -1    0    0    0  501  0.00000000000E+00  0.00000000000E+00  0.14079005639E+04  0.14079005639E+04  0.25500000920E-02 0. -1.
        2   -1    0    0  501    0  0.00000000000E+00  0.00000000000E+00 -0.17158310339E+04  0.17158310339E+04  0.25500000920E-02 0.  1.
    10030    2    1    2    0    0  0.00000000000E+00  0.00000000000E+00 -0.30793047001E+03  0.31237315977E+04  0.31085169970E+04 0.  0.
        4    1    3    3  502    0 -0.24778093049E+02  0.20273040797E+03  0.13943565146E+04  0.14092357059E+04  0.12699999809E+01 0. -1.
       -4    1    3    3    0  502  0.24778093049E+02 -0.20273040797E+03 -0.17022869846E+04  0.17144958918E+04  0.12699999809E+01 0.  1.
</event>
<event>
 5   0  0.3725232E-06  0.3013588E+04  0.7818609E-02  0.8239861E-01
        1   -1    0    0  501    0  0.00000000000E+00  0.00000000000E+00  0.18428401464E+04  0.18428401464E+04  0.50400001928E-02 0. -1.
       -1   -1    0    0    0  501  0.00000000000E+00  0.00000000000E+00 -0.12320269467E+04  0.12320269468E+04  0.50400001928E-02 0.  1.
    10030    2    1    2    0    0  0.00000000000E+00  0.00000000000E+00  0.61081319965E+03  0.30748670932E+04  0.30135883720E+04 0.  0.
        2    1    3    3  502    0 -0.11664530679E+04  0.28902209433E+03  0.12328909980E+04  0.17216755628E+04  0.25500000920E-02 0. -1.
       -2    1    3    3    0  502  0.11664530679E+04 -0.28902209433E+03 -0.62207779835E+03  0.13531915304E+04  0.25500000920E-02 0.  1.
</event>
<event>
 5   0  0.3592331E-06  0.3019777E+04  0.7818609E-02  0.8238106E-01
        1   -1    0    0  501    0  0.00000000000E+00  0.00000000000E+00  0.15855469520E+04  0.15855469520E+04  0.50400001928E-02 0. -1.
       -1   -1    0    0    0  501  0.00000000000E+00  0.00000000000E+00 -0.14378403737E+04  0.14378403737E+04  0.50400001928E-02 0.  1.
    10030    2    1    2    0    0  0.00000000000E+00  0.00000000000E+00  0.14770657837E+03  0.30233873257E+04  0.30197770924E+04 0.  0.
        3    1    3    3  502    0 -0.14338741879E+04 -0.46683613727E+03 -0.26071548791E+01  0.15079582134E+04  0.10100000352E+00 0. -1.
       -3    1    3    3    0  502  0.14338741879E+04  0.46683613727E+03  0.15031373325E+03  0.15154291123E+04  0.10100000352E+00 0.  1.
</event>
<event>
 5   0  0.3896630E-06  0.3004739E+04  0.7818609E-02  0.8242379E-01
        1   -1    0    0  501    0  0.00000000000E+00  0.00000000000E+00  0.19823094733E+04  0.19823094733E+04  0.50400001928E-02 0.  1.
       -1   -1    0    0    0  501  0.00000000000E+00  0.00000000000E+00 -0.11386282165E+04  0.11386282165E+04  0.50400001928E-02 0. -1.
    10030    2    1    2    0    0  0.00000000000E+00  0.00000000000E+00  0.84368125678E+03  0.31209376899E+04  0.30047385911E+04 0.  0.
        5    1    3    3  502    0  0.99101807706E+03 -0.10262930687E+04  0.91089644341E+03  0.16926750168E+04  0.46999998093E+01 0. -1.
       -5    1    3    3    0  502 -0.99101807706E+03  0.10262930687E+04 -0.67215186623E+02  0.14282626731E+04  0.46999998093E+01 0.  1.
</event>
<event>
 5   0  0.9647945E-06  0.2896215E+04  0.7818609E-02  0.8274004E-01
       -2   -1    0    0    0  501  0.00000000000E+00  0.00000000000E+00  0.74798606766E+03  0.74798606767E+03  0.25500000920E-02 0.  1.
        2   -1    0    0  501    0  0.00000000000E+00  0.00000000000E+00 -0.28035493558E+04  0.28035493558E+04  0.25500000920E-02 0. -1.
    10030    2    1    2    0    0  0.00000000000E+00  0.00000000000E+00 -0.20555632881E+04  0.35515354234E+04  0.28962153636E+04 0.  0.
        2    1    3    3  502    0  0.74084227486E+03  0.12487160244E+03  0.49030395463E+03  0.89712772850E+03  0.25500000920E-02 0.  1.
       -2    1    3    3    0  502 -0.74084227486E+03 -0.12487160244E+03 -0.25458672427E+04  0.26544076949E+04  0.25500000920E-02 0. -1.
</event>
<event>
 5   0  0.3852126E-06  0.2988881E+04  0.7818609E-02  0.8246913E-01
       -1   -1    0    0    0  501  0.00000000000E+00  0.00000000000E+00  0.15983168364E+04  0.15983168364E+04  0.50400001928E-02 0. -1.
        1   -1    0    0  501    0  0.00000000000E+00  0.00000000000E+00 -0.13973147926E+04  0.13973147926E+04  0.50400001928E-02 0.  1.
    10030    2    1    2    0    0  0.00000000000E+00  0.00000000000E+00  0.20100204385E+03  0.29956316290E+04  0.29888805655E+04 0.  0.
        1    1    3    3  502    0  0.32066661621E+03 -0.13379014296E+04 -0.48437894474E+03  0.14585713134E+04  0.50400001928E-02 0. -1.
       -1    1    3    3    0  502 -0.32066661621E+03  0.13379014296E+04  0.68538098859E+03  0.15370603156E+04  0.50400001928E-02 0.  1.
</event>
<event>
 5   0  0.1089569E-05  0.2996309E+04  0.7818609E-02  0.8244786E-01
        2   -1    0    0  501    0  0.00000000000E+00  0.00000000000E+00  0.20747758512E+04  0.20747758512E+04  0.25500000920E-02 0.  1.
       -2   -1    0    0    0  501  0.00000000000E+00  0.00000000000E+00 -0.10817877821E+04  0.10817877821E+04  0.25500000920E-02 0. -1.
    10030    2    1    2    0    0  0.00000000000E+00  0.00000000000E+00  0.99298806909E+03  0.31565636333E+04  0.29963091739E+04 0.  0.
        5    1    3    3  502    0 -0.71865206321E+03 -0.12474325389E+04  0.93327253347E+03  0.17156830823E+04  0.46999998093E+01 0. -1.
       -5    1    3    3    0  502  0.71865206321E+03  0.12474325389E+04  0.59715535624E+02  0.14408805510E+04  0.46999998093E+01 0.  1.
</event>
<event>
 5   0  0.3592331E-06  0.3050233E+04  0.7818609E-02  0.8229530E-01
       -1   -1    0    0    0  501  0.00000000000E+00  0.00000000000E+00  0.10987436359E+04  0.10987436359E+04  0.50400001928E-02 0.  1.
        1   -1    0    0  501    0  0.00000000000E+00  0.00000000000E+00 -0.21169460630E+04  0.21169460630E+04  0.50400001928E-02 0. -1.
    10030    2    1    2    0    0  0.00000000000E+00  0.00000000000E+00 -0.10182024271E+04  0.32156896989E+04  0.30502334431E+04 0.  0.
        3    1    3    3  502    0 -0.10903827930E+04 -0.10470895191E+04 -0.72165597582E+03  0.16751472931E+04  0.10100000352E+00 0. -1.
       -3    1    3    3    0  502  0.10903827930E+04  0.10470895191E+04 -0.29654645126E+03  0.15405424058E+04  0.10100000352E+00 0.  1.
</event>
<event>
 5   0  0.9647945E-06  0.2991965E+04  0.7818609E-02  0.8246029E-01
       -2   -1    0    0    0  501  0.00000000000E+00  0.00000000000E+00  0.93032804099E+03  0.93032804100E+03  0.25500000920E-02 0. -1.
        2   -1    0    0  501    0  0.00000000000E+00  0.00000000000E+00 -0.24055647483E+04  0.24055647483E+04  0.25500000920E-02 0.  1.
    10030    2    1    2    0    0  0.00000000000E+00  0.00000000000E+00 -0.14752367073E+04  0.33358927893E+04  0.29919654675E+04 0.  0.
        2    1    3    3  502    0 -0.43510868960E+03 -0.85106529735E+03  0.54546256776E+03  0.11005276575E+04  0.25500000920E-02 0. -1.
       -2    1    3    3    0  502  0.43510868960E+03  0.85106529735E+03 -0.20206992750E+04  0.22353651318E+04  0.25500000920E-02 0.  1.
</event>
<event>
 5   0  0.1089569E-05  0.3184322E+04  0.7818609E-02  0.8192970E-01
       -2   -1    0    0    0  501  0.00000000000E+00  0.00000000000E+00  0.12545333367E+04  0.12545333367E+04  0.25500000920E-02 0. -1.
        2   -1    0    0  501    0  0.00000000000E+00  0.00000000000E+00 -0.20206532730E+04  0.20206532730E+04  0.25500000920E-02 0.  1.
    10030    2    1    2    0    0  0.00000000000E+00  0.00000000000E+00 -0.76611993627E+03  0.32751866096E+04  0.31843221526E+04 0.  0.
        5    1    3    3  502    0 -0.11462818670E+04 -0.43628715382E+03 -0.14272363256E+04  0.18818433033E+04  0.46999998093E+01 0.  1.
       -5    1    3    3    0  502  0.11462818670E+04  0.43628715382E+03  0.66111638929E+03  0.13933433063E+04  0.46999998093E+01 0. -1.
</event>
<event>
 5   0  0.3852126E-06  0.2383915E+04  0.7818609E-02  0.8445550E-01
       -1   -1    0    0    0  501  0.00000000000E+00  0.00000000000E+00  0.63962782598E+03  0.63962782600E+03  0.50400001928E-02 0.  1.
        1   -1    0    0  501    0  0.00000000000E+00  0.00000000000E+00 -0.22212333190E+04  0.22212333190E+04  0.50400001928E-02 0. -1.
    10030    2    1    2    0    0  0.00000000000E+00  0.00000000000E+00 -0.15816054930E+04  0.28608611450E+04  0.23839149640E+04 0.  0.
        1    1    3    3  502    0  0.88368826777E+03  0.20436370874E+03  0.13728798815E+03  0.91734261417E+03  0.50400001928E-02 0.  1.
       -1    1    3    3    0  502 -0.88368826777E+03 -0.20436370874E+03 -0.17188934812E+04  0.19435185308E+04  0.50400001928E-02 0. -1.
</event>
<event>
 5   0  0.3636718E-06  0.2924267E+04  0.7818609E-02  0.8265694E-01
       -1   -1    0    0    0  501  0.00000000000E+00  0.00000000000E+00  0.19785940353E+04  0.19785940353E+04  0.50400001928E-02 0. -1.
        1   -1    0    0  501    0  0.00000000000E+00  0.00000000000E+00 -0.10804815114E+04  0.10804815114E+04  0.50400001928E-02 0.  1.
    10030    2    1    2    0    0  0.00000000000E+00  0.00000000000E+00  0.89811252390E+03  0.30590755466E+04  0.29242669328E+04 0.  0.
        4    1    3    3  502    0 -0.13935867053E+04  0.41752154174E+03  0.29593739155E+03  0.14845836775E+04  0.12699999809E+01 0.  1.
       -4    1    3    3    0  502  0.13935867053E+04 -0.41752154174E+03  0.60217513235E+03  0.15744918691E+04  0.12699999809E+01 0. -1.
</event>
<event>
 5   0  0.1028450E-05  0.2991958E+04  0.7818609E-02  0.8246031E-01
        2   -1    0    0  501    0  0.00000000000E+00  0.00000000000E+00  0.24711429858E+04  0.24711429858E+04  0.25500000920E-02 0.  1.
       -2   -1    0    0    0  501  0.00000000000E+00  0.00000000000E+00 -0.90563490841E+03  0.90563490842E+03  0.25500000920E-02 0. -1.
    10030    2    1    2    0    0  0.00000000000E+00  0.00000000000E+00  0.15655080774E+04  0.33767778942E+04  0.29919581225E+04 0.  0.
        3    1    3    3  502    0 -0.14918476039E+04  0.11066237351E+03  0.77158657583E+03  0.16832115994E+04  0.10100000352E+00 0. -1.
       -3    1    3    3    0  502  0.14918476039E+04 -0.11066237351E+03  0.79392150156E+03  0.16935662948E+04  0.10100000352E+00 0.  1.
</event>
<event>
 5   0  0.3896630E-06  0.3005805E+04  0.7818609E-02  0.8242075E-01
        1   -1    0    0  501    0  0.00000000000E+00  0.00000000000E+00  0.20226494970E+04  0.20226494970E+04  0.50400001928E-02 0.  1.
       -1   -1    0    0    0  501  0.00000000000E+00  0.00000000000E+00 -0.11167117289E+04  0.11167117290E+04  0.50400001928E-02 0. -1.
    10030    2    1    2    0    0  0.00000000000E+00  0.00000000000E+00  0.90593776807E+03  0.31393612260E+04  0.30058053276E+04 0.  0.
        5    1    3    3  502    0 -0.83139141978E+03  0.52923220077E+03 -0.73208064757E+03  0.12277062270E+04  0.46999998093E+01 0. -1.
       -5    1    3    3    0  502  0.83139141978E+03 -0.52923220077E+03  0.16380184156E+04  0.19116549990E+04  0.46999998093E+01 0.  1.
</event>
<event>
 5   0  0.1029922E-05  0.2968955E+04  0.7818609E-02  0.8252652E-01
        2   -1    0    0  501    0  0.00000000000E+00  0.00000000000E+00  0.13449389092E+04  0.13449389092E+04  0.25500000920E-02 0. -1.
       -2   -1    0    0    0  501  0.00000000000E+00  0.00000000000E+00 -0.16384935575E+04  0.16384935575E+04  0.25500000920E-02 0.  1.
    10030    2    1    2    0    0  0.00000000000E+00  0.00000000000E+00 -0.29355464825E+03  0.29834324667E+04  0.29689551953E+04 0.  0.
        1    1    3    3  502    0  0.30828930621E+03 -0.82017013979E+03 -0.13509328619E+04  0.16101990411E+04  0.50400001928E-02 0.  1.
       -1    1    3    3    0  502 -0.30828930621E+03  0.82017013979E+03  0.10573782137E+04  0.13732334256E+04  0.50400001928E-02 0. -1.
</event>
<event>
 5   0  0.3852126E-06  0.2961199E+04  0.7818609E-02  0.8254898E-01
        1   -1    0    0  501    0  0.00000000000E+00  0.00000000000E+00  0.20120733404E+04  0.20120733404E+04  0.50400001928E-02 0.  1.
       -1   -1    0    0    0  501  0.00000000000E+00  0.00000000000E+00 -0.10895102360E+04  0.10895102360E+04  0.50400001928E-02 0. -1.
    10030    2    1    2    0    0  0.00000000000E+00  0.00000000000E+00  0.92256310440E+03  0.31015835764E+04  0.29611987437E+04 0.  0.
        1    1    3    3  502    0  0.93130361299E+03 -0.25210105632E+03 -0.71503429629E+03  0.12008977505E+04  0.50400001928E-02 0. -1.
       -1    1    3    3    0  502 -0.93130361299E+03  0.25210105632E+03  0.16375974007E+04  0.19006858259E+04  0.50400001928E-02 0.  1.
</event>
<event>
 5   0  0.9647945E-06  0.3010633E+04  0.7818609E-02  0.8240701E-01
        2   -1    0    0  501    0  0.00000000000E+00  0.00000000000E+00  0.18454724445E+04  0.18454724445E+04  0.25500000920E-02 0. -1.
       -2   -1    0    0    0  501  0.00000000000E+00  0.00000000000E+00 -0.12278579435E+04  0.12278579435E+04  0.25500000920E-02 0.  1.
    10030    2    1    2    0    0  0.00000000000E+00  0.00000000000E+00  0.61761450100E+03  0.30733303881E+04  0.30106331564E+04 0.  0.
        2    1    3    3  502    0  0.19248548290E+02 -0.61179036790E+03  0.17126999706E+04  0.18187905734E+04  0.25500000920E-02 0. -1.
       -2    1    3    3    0  502 -0.19248548290E+02  0.61179036790E+03 -0.10950854696E+04  0.12545398146E+04  0.25500000920E-02 0.  1.
</event>
<event>
 5   0  0.3592331E-06  0.2887121E+04  0.7818609E-02  0.8276720E-01
       -1   -1    0    0    0  501  0.00000000000E+00  0.00000000000E+00  0.12029793078E+04  0.12029793078E+04  0.50400001928E-02 0. -1.
        1   -1    0    0  501    0  0.00000000000E+00  0.00000000000E+00 -0.17322551419E+04  0.17322551419E+04  0.50400001928E-02 0.  1.
    10030    2    1    2    0    0  0.00000000000E+00  0.00000000000E+00 -0.52927583415E+03  0.29352344497E+04  0.28871211208E+04 0.  0.
        3    1    3    3  502    0 -0.55169693262E+03 -0.10139019936E+04 -0.11459756781E+04  0.16265383559E+04  0.10100000352E+00 0.  1.
       -3    1    3    3    0  502  0.55169693262E+03  0.10139019936E+04  0.61669984396E+03  0.13086960938E+04  0.10100000352E+00 0. -1.
</event>
<event>
 5   0  0.1057036E-05  0.2338269E+04  0.7818609E-02  0.8462983E-01
        2   -1    0    0  501    0  0.00000000000E+00  0.00000000000E+00  0.17988925532E+04  0.17988925532E+04  0.25500000920E-02 0. -1.
       -2   -1    0    0    0  501  0.00000000000E+00  0.00000000000E+00 -0.75984276301E+03  0.75984276301E+03  0.25500000920E-02 0.  1.
    10030    2    1    2    0    0  0.00000000000E+00  0.00000000000E+00  0.10390497902E+04  0.25587353162E+04  0.23382690076E+04 0.  0.
        4    1    3    3  502    0 -0.88291868116E+03  0.29481051588E+03 -0.25457347424E+03  0.96502223006E+03  0.12699999809E+01 0. -1.
       -4    1    3    3    0  502  0.88291868116E+03 -0.29481051588E+03  0.12936232644E+04  0.15937130862E+04  0.12699999809E+01 0.  1.
</event>
<event>
 5   0  0.1029922E-05  0.3009341E+04  0.7818609E-02  0.8241069E-01
        2   -1    0    0  501    0  0.00000000000E+00  0.00000000000E+00  0.19218812316E+04  0.19218812316E+04  0.25500000920E-02 0. -1.
       -2   -1    0    0    0  501  0.00000000000E+00  0.00000000000E+00 -0.11780296902E+04  0.11780296902E+04  0.25500000920E-02 0.  1.
    10030    2    1    2    0    0  0.00000000000E+00  0.00000000000E+00  0.74385154143E+03  0.30999109218E+04  0.30093408925E+04 0.  0.
        1    1    3    3  502    0 -0.79373899715E+02 -0.93123677615E+03 -0.84277180775E+03  0.12584778382E+04  0.50400001928E-02 0.  1.
       -1    1    3    3    0  502  0.79373899715E+02  0.93123677615E+03  0.15866233492E+04  0.18414330836E+04  0.50400001928E-02 0. -1.
</event>
<event>
 5   0  0.3592331E-06  0.2987208E+04  0.7818609E-02  0.8247393E-01
        1   -1    0    0  501    0  0.00000000000E+00  0.00000000000E+00  0.15514741103E+04  0.15514741103E+04  0.50400001928E-02 0. -1.
       -1   -1    0    0    0  501  0.00000000000E+00  0.00000000000E+00 -0.14378928689E+04  0.14378928689E+04  0.50400001928E-02 0.  1.
    10030    2    1    2    0    0  0.00000000000E+00  0.00000000000E+00  0.11358124142E+03  0.29893669792E+04  0.29872084357E+04 0.  0.
        3    1    3    3  502    0  0.12868218918E+04  0.61814032719E+03 -0.38266848254E+03  0.14779862053E+04  0.10100000352E+00 0.  1.
       -3    1    3    3    0  502 -0.12868218918E+04 -0.61814032719E+03  0.49624972397E+03  0.15113807740E+04  0.10100000352E+00 0. -1.
</event>
<event>
 5   0  0.3896630E-06  0.2514326E+04  0.7818609E-02  0.8397899E-01
       -1   -1    0    0    0  501  0.00000000000E+00  0.00000000000E+00  0.91794637203E+03  0.91794637204E+03  0.50400001928E-02 0. -1.
        1   -1    0    0  501    0  0.00000000000E+00  0.00000000000E+00 -0.17217339481E+04  0.17217339481E+04  0.50400001928E-02 0.  1.
    10030    2    1    2    0    0  0.00000000000E+00  0.00000000000E+00 -0.80378757604E+03  0.26396803201E+04  0.25143264953E+04 0.  0.
        5    1    3    3  502    0 -0.93924710240E+03  0.68341712488E+03 -0.90669134305E+03  0.14735519562E+04  0.46999998093E+01 0.  1.
       -5    1    3    3    0  502  0.93924710240E+03 -0.68341712488E+03  0.10290376701E+03  0.11661283640E+04  0.46999998093E+01 0. -1.
</event>
<event>
 5   0  0.3592331E-06  0.2986879E+04  0.7818609E-02  0.8247488E-01
       -1   -1    0    0    0  501  0.00000000000E+00  0.00000000000E+00  0.12270668153E+04  0.12270668153E+04  0.50400001928E-02 0. -1.
        1   -1    0    0  501    0  0.00000000000E+00  0.00000000000E+00 -0.18176360269E+04  0.18176360269E+04  0.50400001928E-02 0.  1.
    10030    2    1    2    0    0  0.00000000000E+00  0.00000000000E+00 -0.59056921159E+03  0.30447028422E+04  0.29868785385E+04 0.  0.
        3    1    3    3  502    0 -0.14149587048E+04  0.35523531185E+03  0.30369352582E+02  0.14591855847E+04  0.10100000352E+00 0. -1.
       -3    1    3    3    0  502  0.14149587048E+04 -0.35523531185E+03 -0.62093856418E+03  0.15855172574E+04  0.10100000352E+00 0.  1.
</event>
<event>
 5   0  0.3313750E-06  0.3124141E+04  0.7818609E-02  0.8209144E-01
       -3   -1    0    0    0  501  0.00000000000E+00  0.00000000000E+00  0.12443286160E+04  0.12443286201E+04  0.10100000352E+00 0.  1.
        3   -1    0    0  501    0  0.00000000000E+00  0.00000000000E+00 -0.19609485618E+04  0.19609485644E+04  0.10100000352E+00 0. -1.
    10030    2    1    2    0    0  0.00000000000E+00  0.00000000000E+00 -0.71661994580E+03  0.32052771845E+04  0.31241411112E+04 0.  0.
        1    1    3    3  502    0 -0.35604509940E+03 -0.37102861551E+03 -0.18716198838E+04  0.19409769024E+04  0.50400001928E-02 0. -1.
       -1    1    3    3    0  502  0.35604509940E+03  0.37102861551E+03  0.11549999380E+04  0.12643002820E+04  0.50400001928E-02 0.  1.
</event>
<event>
 5   0  0.9647945E-06  0.3065203E+04  0.7818609E-02  0.8225353E-01
       -2   -1    0    0    0  501  0.00000000000E+00  0.00000000000E+00  0.98125176240E+03  0.98125176241E+03  0.25500000920E-02 0.  1.
        2   -1    0    0  501    0  0.00000000000E+00  0.00000000000E+00 -0.23937465277E+04  0.23937465277E+04  0.25500000920E-02 0. -1.
    10030    2    1    2    0    0  0.00000000000E+00  0.00000000000E+00 -0.14124947653E+04  0.33749982901E+04  0.30652034184E+04 0.  0.
        2    1    3    3  502    0 -0.44919897481E+03 -0.32025960960E+03  0.86813476532E+03  0.10285931690E+04  0.25500000920E-02 0.  1.
       -2    1    3    3    0  502  0.44919897481E+03  0.32025960960E+03 -0.22806295306E+04  0.23464051211E+04  0.25500000920E-02 0. -1.
</event>
<event>
 5   0  0.3592331E-06  0.2291403E+04  0.7818609E-02  0.8481318E-01
        1   -1    0    0  501    0  0.00000000000E+00  0.00000000000E+00  0.14984486016E+04  0.14984486016E+04  0.50400001928E-02 0.  1.
       -1   -1    0    0    0  501  0.00000000000E+00  0.00000000000E+00 -0.87599426099E+03  0.87599426100E+03  0.50400001928E-02 0. -1.
    10030    2    1    2    0    0  0.00000000000E+00  0.00000000000E+00  0.62245434057E+03  0.23744428626E+04  0.22914033913E+04 0.  0.
        3    1    3    3  502    0 -0.31919660712E+03 -0.28182249625E+03 -0.79095475002E+03  0.89828715908E+03  0.10100000352E+00 0. -1.
       -3    1    3    3    0  502  0.31919660712E+03  0.28182249625E+03  0.14134090906E+04  0.14761557035E+04  0.10100000352E+00 0.  1.
</event>
<event>
 5   0  0.1029922E-05  0.2964942E+04  0.7818609E-02  0.8253813E-01
       -2   -1    0    0    0  501  0.00000000000E+00  0.00000000000E+00  0.16525278936E+04  0.16525278936E+04  0.25500000920E-02 0. -1.
        2   -1    0    0  501    0  0.00000000000E+00  0.00000000000E+00 -0.13299139610E+04  0.13299139610E+04  0.25500000920E-02 0.  1.
    10030    2    1    2    0    0  0.00000000000E+00  0.00000000000E+00  0.32261393259E+03  0.29824418546E+04  0.29649417645E+04 0.  0.
        1    1    3    3  502    0  0.10197445972E+04  0.10500337499E+04  0.39779029997E+03  0.15168015830E+04  0.50400001928E-02 0.  1.
       -1    1    3    3    0  502 -0.10197445972E+04 -0.10500337499E+04 -0.75176367385E+02  0.14656402716E+04  0.50400001928E-02 0. -1.
</event>
<event>
 5   0  0.1057036E-05  0.3018927E+04  0.7818609E-02  0.8238347E-01
       -2   -1    0    0    0  501  0.00000000000E+00  0.00000000000E+00  0.10138742472E+04  0.10138742472E+04  0.25500000920E-02 0. -1.
        2   -1    0    0  501    0  0.00000000000E+00  0.00000000000E+00 -0.22473004873E+04  0.22473004873E+04  0.25500000920E-02 0.  1.
    10030    2    1    2    0    0  0.00000000000E+00  0.00000000000E+00 -0.12334262401E+04  0.32611747345E+04  0.30189270211E+04 0.  0.
        4    1    3    3  502    0  0.10058230660E+04  0.31852740914E+03  0.54941842586E+03  0.11895385534E+04  0.12699999809E+01 0. -1.
       -4    1    3    3    0  502 -0.10058230660E+04 -0.31852740914E+03 -0.17828446660E+04  0.20716361810E+04  0.12699999809E+01 0.  1.
</event>
<event>
 5   0  0.3896630E-06  0.2306464E+04  0.7818609E-02  0.8475377E-01
        1   -1    0    0  501    0  0.00000000000E+00  0.00000000000E+00  0.65393897681E+03  0.65393897683E+03  0.50400001928E-02 0.  1.
       -1   -1    0    0    0  501  0.00000000000E+00  0.00000000000E+00 -0.20337433540E+04  0.20337433540E+04  0.50400001928E-02 0. -1.
    10030    2    1    2    0    0  0.00000000000E+00  0.00000000000E+00 -0.13798043772E+04  0.26876823308E+04  0.23064640019E+04 0.  0.
        5    1    3    3  502    0  0.17438404576E+03  0.16996793581E+03  0.62362668117E+03  0.66950072597E+03  0.46999998093E+01 0.  1.
       -5    1    3    3    0  502 -0.17438404576E+03 -0.16996793581E+03 -0.20034310583E+04  0.20181816048E+04  0.46999998093E+01 0. -1.
</event>
<event>
 5   0  0.1028450E-05  0.2967520E+04  0.7818609E-02  0.8253067E-01
       -2   -1    0    0    0  501  0.00000000000E+00  0.00000000000E+00  0.88148431834E+03  0.88148431834E+03  0.25500000920E-02 0. -1.
        2   -1    0    0  501    0  0.00000000000E+00  0.00000000000E+00 -0.24975421548E+04  0.24975421548E+04  0.25500000920E-02 0.  1.
    10030    2    1    2    0    0  0.00000000000E+00  0.00000000000E+00 -0.16160578364E+04  0.33790264731E+04  0.29675203412E+04 0.  0.
        3    1    3    3  502    0 -0.81166400423E+03 -0.63105276873E+03 -0.20262026707E+04  0.22721186865E+04  0.10100000352E+00 0.  1.
       -3    1    3    3    0  502  0.81166400423E+03  0.63105276873E+03  0.41014483429E+03  0.11069077866E+04  0.10100000352E+00 0. -1.
</event>
<event>
 5   0  0.1028450E-05  0.2929225E+04  0.7818609E-02  0.8264235E-01
        2   -1    0    0  501    0  0.00000000000E+00  0.00000000000E+00  0.17732070369E+04  0.17732070369E+04  0.25500000920E-02 0. -1.
       -2   -1    0    0    0  501  0.00000000000E+00  0.00000000000E+00 -0.12097232003E+04  0.12097232003E+04  0.25500000920E-02 0.  1.
    10030    2    1    2    0    0  0.00000000000E+00  0.00000000000E+00  0.56348383654E+03  0.29829302372E+04  0.29292249429E+04 0.  0.
        3    1    3    3  502    0 -0.97768180275E+03 -0.91191455472E+03 -0.32725249141E+03  0.13764243771E+04  0.10100000352E+00 0. -1.
       -3    1    3    3    0  502  0.97768180275E+03  0.91191455472E+03  0.89073632796E+03  0.16065058601E+04  0.10100000352E+00 0.  1.
</event>
<event>
 5   0  0.3725232E-06  0.2920729E+04  0.7818609E-02  0.8266737E-01
        1   -1    0    0  501    0  0.00000000000E+00  0.00000000000E+00  0.21661071363E+04  0.21661071363E+04  0.50400001928E-02 0. -1.
       -1   -1    0    0    0  501  0.00000000000E+00  0.00000000000E+00 -0.98456078764E+03  0.98456078765E+03  0.50400001928E-02 0.  1.
    10030    2    1    2    0    0  0.00000000000E+00  0.00000000000E+00  0.11815463486E+04  0.31506679239E+04  0.29207287777E+04 0.  0.
        2    1    3    3  502    0 -0.10642230881E+04 -0.16960114724E+03 -0.47237681386E+03  0.11766372358E+04  0.25500000920E-02 0.  1.
       -2    1    3    3    0  502  0.10642230881E+04  0.16960114724E+03  0.16539231625E+04  0.19740306881E+04  0.25500000920E-02 0. -1.
</event>
<event>
 5   0  0.3896630E-06  0.2912738E+04  0.7818609E-02  0.8269098E-01
        1   -1    0    0  501    0  0.00000000000E+00  0.00000000000E+00  0.25934366050E+04  0.25934366050E+04  0.50400001928E-02 0. -1.
       -1   -1    0    0    0  501  0.00000000000E+00  0.00000000000E+00 -0.81783788855E+03  0.81783788857E+03  0.50400001928E-02 0.  1.
    10030    2    1    2    0    0  0.00000000000E+00  0.00000000000E+00  0.17755987164E+04  0.34112744936E+04  0.29127380364E+04 0.  0.
        5    1    3    3  502    0  0.10132272085E+04  0.92713481412E+03  0.14552734717E+04  0.20010125704E+04  0.46999998093E+01 0. -1.
       -5    1    3    3    0  502 -0.10132272085E+04 -0.92713481412E+03  0.32032524475E+03  0.14102619232E+04  0.46999998093E+01 0.  1.
</event>
<event>
 5   0  0.3852126E-06  0.2982120E+04  0.7818609E-02  0.8248855E-01
       -1   -1    0    0    0  501  0.00000000000E+00  0.00000000000E+00  0.13706874062E+04  0.13706874062E+04  0.50400001928E-02 0. -1.
        1   -1    0    0  501    0  0.00000000000E+00  0.00000000000E+00 -0.16220035209E+04  0.16220035209E+04  0.50400001928E-02 0.  1.
    10030    2    1    2    0    0  0.00000000000E+00  0.00000000000E+00 -0.25131611470E+03  0.29926909270E+04  0.29821199163E+04 0.  0.
        1    1    3    3  502    0 -0.98348520853E+03 -0.30298353850E+03 -0.12084720205E+04  0.15872765369E+04  0.50400001928E-02 0.  1.
       -1    1    3    3    0  502  0.98348520853E+03  0.30298353850E+03  0.95715590583E+03  0.14054143902E+04  0.50400001928E-02 0. -1.
</event>
<event>
 5   0  0.1089569E-05  0.2955016E+04  0.7818609E-02  0.8256694E-01
        2   -1    0    0  501    0  0.00000000000E+00  0.00000000000E+00  0.21343395622E+04  0.21343395622E+04  0.25500000920E-02 0. -1.
       -2   -1    0    0    0  501  0.00000000000E+00  0.00000000000E+00 -0.10228130075E+04  0.10228130075E+04  0.25500000920E-02 0.  1.
    10030    2    1    2    0    0  0.00000000000E+00  0.00000000000E+00  0.11115265547E+04  0.31571525697E+04  0.29550162549E+04 0.  0.
        5    1    3    3  502    0  0.11293959634E+04  0.44681283503E+03  0.14546408693E+04  0.18950406593E+04  0.46999998093E+01 0. -1.
       -5    1    3    3    0  502 -0.11293959634E+04 -0.44681283503E+03 -0.34311431457E+03  0.12621119105E+04  0.46999998093E+01 0.  1.
</event>
<event>
 5   0  0.1028450E-05  0.3020649E+04  0.7818609E-02  0.8237859E-01
        2   -1    0    0  501    0  0.00000000000E+00  0.00000000000E+00  0.13961687561E+04  0.13961687561E+04  0.25500000920E-02 0.  1.
       -2   -1    0    0    0  501  0.00000000000E+00  0.00000000000E+00 -0.16338140020E+04  0.16338140020E+04  0.25500000920E-02 0. -1.
    10030    2    1    2    0    0  0.00000000000E+00  0.00000000000E+00 -0.23764524588E+03  0.30299827582E+04  0.30206489786E+04 0.  0.
        3    1    3    3  502    0 -0.10628248218E+04 -0.52324058092E+03  0.82093017101E+03  0.14412854205E+04  0.10100000352E+00 0.  1.
       -3    1    3    3    0  502  0.10628248218E+04  0.52324058092E+03 -0.10585754169E+04  0.15886973377E+04  0.10100000352E+00 0. -1.
</event>
<event>
 5   0  0.1057036E-05  0.2968462E+04  0.7818609E-02  0.8252795E-01
       -2   -1    0    0    0  501  0.00000000000E+00  0.00000000000E+00  0.18990468374E+04  0.18990468374E+04  0.25500000920E-02 0. -1.
        2   -1    0    0  501    0  0.00000000000E+00  0.00000000000E+00 -0.11600245480E+04  0.11600245480E+04  0.25500000920E-02 0.  1.
    10030    2    1    2    0    0  0.00000000000E+00  0.00000000000E+00  0.73902228933E+03  0.30590713854E+04  0.29684615202E+04 0.  0.
        4    1    3    3  502    0  0.17186905905E+02 -0.11629563243E+04  0.13197061539E+04  0.17590874758E+04  0.12699999809E+01 0. -1.
       -4    1    3    3    0  502 -0.17186905905E+02  0.11629563243E+04 -0.58068386454E+03  0.12999839096E+04  0.12699999809E+01 0.  1.
</event>
<event>
 5   0  0.1028450E-05  0.2991549E+04  0.7818609E-02  0.8246148E-01
        2   -1    0    0  501    0  0.00000000000E+00  0.00000000000E+00  0.14421410350E+04  0.14421410350E+04  0.25500000920E-02 0. -1.
       -2   -1    0    0    0  501  0.00000000000E+00  0.00000000000E+00 -0.15514023968E+04  0.15514023968E+04  0.25500000920E-02 0.  1.
    10030    2    1    2    0    0  0.00000000000E+00  0.00000000000E+00 -0.10926136183E+03  0.29935434318E+04  0.29915488017E+04 0.  0.
        3    1    3    3  502    0  0.13042436157E+04 -0.66855102948E+03  0.24444844037E+03  0.14858556250E+04  0.10100000352E+00 0. -1.
       -3    1    3    3    0  502 -0.13042436157E+04  0.66855102948E+03 -0.35370980220E+03  0.15076878067E+04  0.10100000352E+00 0.  1.
</event>
<event>
 5   0  0.3896630E-06  0.3153317E+04  0.7818609E-02  0.8201256E-01
       -1   -1    0    0    0  501  0.00000000000E+00  0.00000000000E+00  0.95030767569E+03  0.95030767571E+03  0.50400001928E-02 0. -1.
        1   -1    0    0  501    0  0.00000000000E+00  0.00000000000E+00 -0.26158387354E+04  0.26158387354E+04  0.50400001928E-02 0.  1.
    10030    2    1    2    0    0  0.00000000000E+00  0.00000000000E+00 -0.16655310597E+04  0.35661464111E+04  0.31533167482E+04 0.  0.
        5    1    3    3  502    0  0.89739477954E+03 -0.40737206590E+03 -0.22245591285E+04  0.24330957229E+04  0.46999998093E+01 0.  1.
       -5    1    3    3    0  502 -0.89739477954E+03  0.40737206590E+03  0.55902806880E+03  0.11330506882E+04  0.46999998093E+01 0. -1.
</event>
<event>
 5   0  0.3636718E-06  0.2949560E+04  0.7818609E-02  0.8258283E-01
        1   -1    0    0  501    0  0.00000000000E+00  0.00000000000E+00  0.15284560361E+04  0.15284560361E+04  0.50400001928E-02 0.  1.
       -1   -1    0    0    0  501  0.00000000000E+00  0.00000000000E+00 -0.14229893666E+04  0.14229893666E+04  0.50400001928E-02 0. -1.
    10030    2    1    2    0    0  0.00000000000E+00  0.00000000000E+00  0.10546666953E+03  0.29514454027E+04  0.29495604328E+04 0.  0.
        4    1    3    3  502    0  0.12949845353E+04 -0.21447293983E+03 -0.61999943277E+03  0.14516833326E+04  0.12699999809E+01 0. -1.
       -4    1    3    3    0  502 -0.12949845353E+04  0.21447293983E+03  0.72546610231E+03  0.14997620701E+04  0.12699999809E+01 0.  1.
</event>
<event>
 5   0  0.3896630E-06  0.2749079E+04  0.7818609E-02  0.8319254E-01
       -1   -1    0    0    0  501  0.00000000000E+00  0.00000000000E+00  0.10049431106E+04  0.10049431106E+04  0.50400001928E-02 0. -1.
        1   -1    0    0  501    0  0.00000000000E+00  0.00000000000E+00 -0.18800655580E+04  0.18800655580E+04  0.50400001928E-02 0.  1.
    10030    2    1    2    0    0  0.00000000000E+00  0.00000000000E+00 -0.87512244739E+03  0.28850086687E+04  0.27490790677E+04 0.  0.
        5    1    3    3  502    0 -0.11342200167E+04  0.56428969896E+02 -0.12502533164E+04  0.16890218235E+04  0.46999998093E+01 0.  1.
       -5    1    3    3    0  502  0.11342200167E+04 -0.56428969896E+02  0.37513086903E+03  0.11959868452E+04  0.46999998093E+01 0. -1.
</event>
<event>
 5   0  0.3636718E-06  0.2978339E+04  0.7818609E-02  0.8249944E-01
       -1   -1    0    0    0  501  0.00000000000E+00  0.00000000000E+00  0.19789629990E+04  0.19789629990E+04  0.50400001928E-02 0. -1.
        1   -1    0    0  501    0  0.00000000000E+00  0.00000000000E+00 -0.11205996464E+04  0.11205996464E+04  0.50400001928E-02 0.  1.
    10030    2    1    2    0    0  0.00000000000E+00  0.00000000000E+00  0.85836335263E+03  0.30995626454E+04  0.29783386221E+04 0.  0.
        4    1    3    3  502    0 -0.95991166036E+03 -0.78705948133E+03 -0.42693755462E+03  0.13126958183E+04  0.12699999809E+01 0.  1.
       -4    1    3    3    0  502  0.95991166036E+03  0.78705948133E+03  0.12853009072E+04  0.17868668271E+04  0.12699999809E+01 0. -1.
</event>
<event>
 5   0  0.1028450E-05  0.3024856E+04  0.7818609E-02  0.8236669E-01
        2   -1    0    0  501    0  0.00000000000E+00  0.00000000000E+00  0.19028901309E+04  0.19028901309E+04  0.25500000920E-02 0.  1.
       -2   -1    0    0    0  501  0.00000000000E+00  0.00000000000E+00 -0.12020864918E+04  0.12020864918E+04  0.25500000920E-02 0. -1.
    10030    2    1    2    0    0  0.00000000000E+00  0.00000000000E+00  0.70080363904E+03  0.31049766227E+04  0.30248560440E+04 0.  0.
        3    1    3    3  502    0 -0.12616815907E+04  0.35812525209E+03 -0.42277175439E+03  0.13779804422E+04  0.10100000352E+00 0. -1.
       -3    1    3    3    0  502  0.12616815907E+04 -0.35812525209E+03  0.11235753934E+04  0.17269961805E+04  0.10100000352E+00 0.  1.
</event>
<event>
 5   0  0.3592331E-06  0.2974078E+04  0.7818609E-02  0.8251172E-01
       -1   -1    0    0    0  501  0.00000000000E+00  0.00000000000E+00  0.14578506128E+04  0.14578506128E+04  0.50400001928E-02 0.  1.
        1   -1    0    0  501    0  0.00000000000E+00  0.00000000000E+00 -0.15168117969E+04  0.15168117969E+04  0.50400001928E-02 0. -1.
    10030    2    1    2    0    0  0.00000000000E+00  0.00000000000E+00 -0.58961184093E+02  0.29746624097E+04  0.29740780135E+04 0.  0.
        3    1    3    3  502    0  0.73463371820E+03  0.10807036173E+04 -0.73932279321E+03  0.15014010827E+04  0.10100000352E+00 0. -1.
       -3    1    3    3    0  502 -0.73463371820E+03 -0.10807036173E+04  0.68036160912E+03  0.14732613270E+04  0.10100000352E+00 0.  1.
</event>
<event>
 5   0  0.3725232E-06  0.2967111E+04  0.7818609E-02  0.8253185E-01
       -1   -1    0    0    0  501  0.00000000000E+00  0.00000000000E+00  0.24886764226E+04  0.24886764226E+04  0.50400001928E-02 0.  1.
        1   -1    0    0  501    0  0.00000000000E+00  0.00000000000E+00 -0.88438029499E+03  0.88438029501E+03  0.50400001928E-02 0. -1.
    10030    2    1    2    0    0  0.00000000000E+00  0.00000000000E+00  0.16042961276E+04  0.33730567176E+04  0.29671106409E+04 0.  0.
        2    1    3    3  502    0 -0.71394381411E+03 -0.12973759147E+04  0.70023743910E+03  0.16380575401E+04  0.25500000920E-02 0. -1.
       -2    1    3    3    0  502  0.71394381411E+03  0.12973759147E+04  0.90405868850E+03  0.17349991775E+04  0.25500000920E-02 0.  1.
</event>
<event>
 5   0  0.1028450E-05  0.2901464E+04  0.7818609E-02  0.8272442E-01
       -2   -1    0    0    0  501  0.00000000000E+00  0.00000000000E+00  0.89242644432E+03  0.89242644432E+03  0.25500000920E-02 0.  1.
        2   -1    0    0  501    0  0.00000000000E+00  0.00000000000E+00 -0.23583163460E+04  0.23583163460E+04  0.25500000920E-02 0. -1.
    10030    2    1    2    0    0  0.00000000000E+00  0.00000000000E+00 -0.14658899017E+04  0.32507427903E+04  0.29014643691E+04 0.  0.
        3    1    3    3  502    0 -0.48461924351E+03 -0.40045152176E+03 -0.21977777584E+04  0.22859230779E+04  0.10100000352E+00 0. -1.
       -3    1    3    3    0  502  0.48461924351E+03  0.40045152176E+03  0.73188785673E+03  0.96481971243E+03  0.10100000352E+00 0.  1.
</event>
<event>
 5   0  0.3592331E-06  0.3044731E+04  0.7818609E-02  0.8231072E-01
        1   -1    0    0  501    0  0.00000000000E+00  0.00000000000E+00  0.15437072193E+04  0.15437072193E+04  0.50400001928E-02 0.  1.
       -1   -1    0    0    0  501  0.00000000000E+00  0.00000000000E+00 -0.15013192726E+04  0.15013192726E+04  0.50400001928E-02 0. -1.
    10030    2    1    2    0    0  0.00000000000E+00  0.00000000000E+00  0.42387946683E+02  0.30450264919E+04  0.30447314493E+04 0.  0.
        3    1    3    3  502    0  0.41882423460E+03 -0.14008442287E+04  0.44528588383E+03  0.15284167694E+04  0.10100000352E+00 0. -1.
       -3    1    3    3    0  502 -0.41882423460E+03  0.14008442287E+04 -0.40289793715E+03  0.15166097225E+04  0.10100000352E+00 0.  1.
</event>
<event>
 5   0  0.1057036E-05  0.2456149E+04  0.7818609E-02  0.8418776E-01
        2   -1    0    0  501    0  0.00000000000E+00  0.00000000000E+00  0.11948157117E+04  0.11948157117E+04  0.25500000920E-02 0.  1.
       -2   -1    0    0    0  501  0.00000000000E+00  0.00000000000E+00 -0.12622587465E+04  0.12622587465E+04  0.25500000920E-02 0. -1.
    10030    2    1    2    0    0  0.00000000000E+00  0.00000000000E+00 -0.67443034758E+02  0.24570744582E+04  0.24561486784E+04 0.  0.
        4    1    3    3  502    0 -0.62898697545E+03 -0.88055169528E+03  0.54715995763E+03  0.12125928977E+04  0.12699999809E+01 0.  1.
       -4    1    3    3    0  502  0.62898697545E+03  0.88055169528E+03 -0.61460299239E+03  0.12444815605E+04  0.12699999809E+01 0. -1.
</event>
<event>
 5   0  0.3725232E-06  0.1875836E+04  0.7818609E-02  0.8666979E-01
        1   -1    0    0  501    0  0.00000000000E+00  0.00000000000E+00  0.18762807982E+04  0.18762807982E+04  0.50400001928E-02 0.  1.
       -1   -1    0    0    0  501  0.00000000000E+00  0.00000000000E+00 -0.46884785598E+03  0.46884785601E+03  0.50400001928E-02 0. -1.
    10030    2    1    2    0    0  0.00000000000E+00  0.00000000000E+00  0.14074329422E+04  0.23451286542E+04  0.18758360584E+04 0.  0.
        2    1    3    3  502    0 -0.14475912423E+03 -0.91687263699E+03  0.87181585343E+03  0.12734494567E+04  0.25500000920E-02 0. -1.
       -2    1    3    3    0  502  0.14475912423E+03  0.91687263699E+03  0.53561708875E+03  0.10716791975E+04  0.25500000920E-02 0.  1.
</event>
<event>
 5   0  0.3725232E-06  0.2763336E+04  0.7818609E-02  0.8314742E-01
       -1   -1    0    0    0  501  0.00000000000E+00  0.00000000000E+00  0.97168304756E+03  0.97168304757E+03  0.50400001928E-02 0.  1.
        1   -1    0    0  501    0  0.00000000000E+00  0.00000000000E+00 -0.19646392119E+04  0.19646392119E+04  0.50400001928E-02 0. -1.
    10030    2    1    2    0    0  0.00000000000E+00  0.00000000000E+00 -0.99295616438E+03  0.29363222595E+04  0.27633361119E+04 0.  0.
        2    1    3    3  502    0  0.13697339605E+04  0.94544634894E+01 -0.30419111702E+03  0.14031367521E+04  0.25500000920E-02 0.  1.
       -2    1    3    3    0  502 -0.13697339605E+04 -0.94544634894E+01 -0.68876504736E+03  0.15331855074E+04  0.25500000920E-02 0. -1.
</event>
<event>
 5   0  0.3636718E-06  0.2974283E+04  0.7818609E-02  0.8251113E-01
        1   -1    0    0  501    0  0.00000000000E+00  0.00000000000E+00  0.19824836257E+04  0.19824836257E+04  0.50400001928E-02 0. -1.
       -1   -1    0    0    0  501  0.00000000000E+00  0.00000000000E+00 -0.11155653382E+04  0.11155653383E+04  0.50400001928E-02 0.  1.
    10030    2    1    2    0    0  0.00000000000E+00  0.00000000000E+00  0.86691828741E+03  0.30980489639E+04  0.29742831180E+04 0.  0.
        4    1    3    3  502    0 -0.44275386766E+03  0.80677741504E+02  0.19098494460E+04  0.19621586084E+04  0.12699999809E+01 0. -1.
       -4    1    3    3    0  502  0.44275386766E+03 -0.80677741504E+02 -0.10429311586E+04  0.11358903555E+04  0.12699999809E+01 0.  1.
</event>
<event>
 5   0  0.3592331E-06  0.2253855E+04  0.7818609E-02  0.8496341E-01
       -1   -1    0    0    0  501  0.00000000000E+00  0.00000000000E+00  0.84783419902E+03  0.84783419904E+03  0.50400001928E-02 0. -1.
        1   -1    0    0  501    0  0.00000000000E+00  0.00000000000E+00 -0.14978942271E+04  0.14978942271E+04  0.50400001928E-02 0.  1.
    10030    2    1    2    0    0  0.00000000000E+00  0.00000000000E+00 -0.65006002807E+03  0.23457284261E+04  0.22538553212E+04 0.  0.
        3    1    3    3  502    0  0.34898863252E+03  0.10316607974E+04 -0.62640022185E+03  0.12563814368E+04  0.10100000352E+00 0.  1.
       -3    1    3    3    0  502 -0.34898863252E+03 -0.10316607974E+04 -0.23659806220E+02  0.10893469893E+04  0.10100000352E+00 0. -1.
</event>
<event>
 5   0  0.3896630E-06  0.2968160E+04  0.7818609E-02  0.8252882E-01
        1   -1    0    0  501    0  0.00000000000E+00  0.00000000000E+00  0.80511690974E+03  0.80511690975E+03  0.50400001928E-02 0. -1.
       -1   -1    0    0    0  501  0.00000000000E+00  0.00000000000E+00 -0.27356194392E+04  0.27356194393E+04  0.50400001928E-02 0.  1.
    10030    2    1    2    0    0  0.00000000000E+00  0.00000000000E+00 -0.19305025295E+04  0.35407363490E+04  0.29681600154E+04 0.  0.
        5    1    3    3  502    0 -0.13606473914E+04 -0.46376688327E+03 -0.52528015442E+03  0.15304843600E+04  0.46999998093E+01 0. -1.
       -5    1    3    3    0  502  0.13606473914E+04  0.46376688327E+03 -0.14052223751E+04  0.20102519890E+04  0.46999998093E+01 0.  1.
</event>
<event>
 5   0  0.1028450E-05  0.2999079E+04  0.7818609E-02  0.8243994E-01
        2   -1    0    0  501    0  0.00000000000E+00  0.00000000000E+00  0.11246155542E+04  0.11246155542E+04  0.25500000920E-02 0. -1.
       -2   -1    0    0    0  501  0.00000000000E+00  0.00000000000E+00 -0.19994554817E+04  0.19994554817E+04  0.25500000920E-02 0.  1.
    10030    2    1    2    0    0  0.00000000000E+00  0.00000000000E+00 -0.87483992750E+03  0.31240710359E+04  0.29990790151E+04 0.  0.
        3    1    3    3  502    0  0.14906161142E+04 -0.24438228182E+02 -0.60565995003E+03  0.16091481014E+04  0.10100000352E+00 0. -1.
       -3    1    3    3    0  502 -0.14906161142E+04  0.24438228182E+02 -0.26917997746E+03  0.15149229345E+04  0.10100000352E+00 0.  1.
</event>
<event>
 5   0  0.3852126E-06  0.2900597E+04  0.7818609E-02  0.8272700E-01
       -1   -1    0    0    0  501  0.00000000000E+00  0.00000000000E+00  0.11073001101E+04  0.11073001101E+04  0.50400001928E-02 0.  1.
        1   -1    0    0  501    0  0.00000000000E+00  0.00000000000E+00 -0.18995442343E+04  0.18995442343E+04  0.50400001928E-02 0. -1.
    10030    2    1    2    0    0  0.00000000000E+00  0.00000000000E+00 -0.79224412419E+03  0.30068443445E+04  0.29005968626E+04 0.  0.
        1    1    3    3  502    0 -0.16085122182E+03  0.34262220177E+03  0.10551972007E+04  0.11210281982E+04  0.50400001928E-02 0.  1.
       -1    1    3    3    0  502  0.16085122182E+03 -0.34262220177E+03 -0.18474413249E+04  0.18858161463E+04  0.50400001928E-02 0. -1.
</event>
<event>
 5   0  0.1029922E-05  0.2156135E+04  0.7818609E-02  0.8536911E-01
       -2   -1    0    0    0  501  0.00000000000E+00  0.00000000000E+00  0.74041834809E+03  0.74041834810E+03  0.25500000920E-02 0. -1.
        2   -1    0    0  501    0  0.00000000000E+00  0.00000000000E+00 -0.15696936479E+04  0.15696936479E+04  0.25500000920E-02 0.  1.
    10030    2    1    2    0    0  0.00000000000E+00  0.00000000000E+00 -0.82927529984E+03  0.23101119960E+04  0.21561354112E+04 0.  0.
        1    1    3    3  502    0 -0.84761152973E+03 -0.44829697103E+03  0.11331419317E+03  0.96553383471E+03  0.50400001928E-02 0.  1.
       -1    1    3    3    0  502  0.84761152973E+03  0.44829697103E+03 -0.94258949301E+03  0.13445781613E+04  0.50400001928E-02 0. -1.
</event>
<event>
 5   0  0.3592331E-06  0.2472038E+04  0.7818609E-02  0.8413015E-01
       -1   -1    0    0    0  501  0.00000000000E+00  0.00000000000E+00  0.10100625761E+04  0.10100625761E+04  0.50400001928E-02 0.  1.
        1   -1    0    0  501    0  0.00000000000E+00  0.00000000000E+00 -0.15125233331E+04  0.15125233331E+04  0.50400001928E-02 0. -1.
    10030    2    1    2    0    0  0.00000000000E+00  0.00000000000E+00 -0.50246075701E+03  0.25225859092E+04  0.24720381989E+04 0.  0.
        3    1    3    3  502    0  0.47887840148E+03 -0.91028509235E+03 -0.95066507151E+03  0.14006097105E+04  0.10100000352E+00 0. -1.
       -3    1    3    3    0  502 -0.47887840148E+03  0.91028509235E+03  0.44820431450E+03  0.11219761987E+04  0.10100000352E+00 0.  1.
</event>
<event>
 5   0  0.3725232E-06  0.3016520E+04  0.7818609E-02  0.8239029E-01
       -1   -1    0    0    0  501  0.00000000000E+00  0.00000000000E+00  0.15069681738E+04  0.15069681738E+04  0.50400001928E-02 0.  1.
        1   -1    0    0  501    0  0.00000000000E+00  0.00000000000E+00 -0.15095527940E+04  0.15095527940E+04  0.50400001928E-02 0. -1.
    10030    2    1    2    0    0  0.00000000000E+00  0.00000000000E+00 -0.25846201913E+01  0.30165209678E+04  0.30165198605E+04 0.  0.
        2    1    3    3  502    0 -0.98114117568E+03 -0.83854550526E+03  0.77912545839E+03  0.15075918051E+04  0.25500000920E-02 0.  1.
       -2    1    3    3    0  502  0.98114117568E+03  0.83854550526E+03 -0.78171007858E+03  0.15089291627E+04  0.25500000920E-02 0. -1.
</event>
<event>
 5   0  0.3313750E-06  0.2998806E+04  0.7818609E-02  0.8244072E-01
        3   -1    0    0  501    0  0.00000000000E+00  0.00000000000E+00  0.78983794795E+03  0.78983795441E+03  0.10100000352E+00 0. -1.
       -3   -1    0    0    0  501  0.00000000000E+00  0.00000000000E+00 -0.28464184188E+04  0.28464184206E+04  0.10100000352E+00 0.  1.
    10030    2    1    2    0    0  0.00000000000E+00  0.00000000000E+00 -0.20565804709E+04  0.36362563750E+04  0.29988059610E+04 0.  0.
        2    1    3    3  502    0  0.79963683774E+03  0.95947086815E+03 -0.22365889602E+02  0.12492012056E+04  0.25500000920E-02 0. -1.
       -2    1    3    3    0  502 -0.79963683774E+03 -0.95947086815E+03 -0.20342145813E+04  0.23870551694E+04  0.25500000920E-02 0.  1.
</event>
<event>
 5   0  0.1089569E-05  0.3025695E+04  0.7818609E-02  0.8236431E-01
        2   -1    0    0  501    0  0.00000000000E+00  0.00000000000E+00  0.17859151578E+04  0.17859151578E+04  0.25500000920E-02 0. -1.
       -2   -1    0    0    0  501  0.00000000000E+00  0.00000000000E+00 -0.12815323750E+04  0.12815323750E+04  0.25500000920E-02 0.  1.
    10030    2    1    2    0    0  0.00000000000E+00  0.00000000000E+00  0.50438278284E+03  0.30674475328E+04  0.30256953539E+04 0.  0.
        5    1    3    3  502    0  0.77032145153E+03  0.29032554287E+03  0.15389585761E+04  0.17453078951E+04  0.46999998093E+01 0. -1.
       -5    1    3    3    0  502 -0.77032145153E+03 -0.29032554287E+03 -0.10345757933E+04  0.13221396377E+04  0.46999998093E+01 0.  1.
</event>
<event>
 5   0  0.1089569E-05  0.2888213E+04  0.7818609E-02  0.8276393E-01
       -2   -1    0    0    0  501  0.00000000000E+00  0.00000000000E+00  0.73651833281E+03  0.73651833281E+03  0.25500000920E-02 0. -1.
        2   -1    0    0  501    0  0.00000000000E+00  0.00000000000E+00 -0.28314889806E+04  0.28314889806E+04  0.25500000920E-02 0.  1.
    10030    2    1    2    0    0  0.00000000000E+00  0.00000000000E+00 -0.20949706478E+04  0.35680073134E+04  0.28882129723E+04 0.  0.
        5    1    3    3  502    0 -0.12982971957E+04 -0.57915003022E+03 -0.73390828650E+03  0.15998855674E+04  0.46999998093E+01 0.  1.
       -5    1    3    3    0  502  0.12982971957E+04  0.57915003022E+03 -0.13610623613E+04  0.19681217460E+04  0.46999998093E+01 0. -1.
</event>
<event>
 5   0  0.1089569E-05  0.2973651E+04  0.7818609E-02  0.8251295E-01
        2   -1    0    0  501    0  0.00000000000E+00  0.00000000000E+00  0.14633034728E+04  0.14633034728E+04  0.25500000920E-02 0.  1.
       -2   -1    0    0    0  501  0.00000000000E+00  0.00000000000E+00 -0.15107256202E+04  0.15107256202E+04  0.25500000920E-02 0. -1.
    10030    2    1    2    0    0  0.00000000000E+00  0.00000000000E+00 -0.47422147376E+02  0.29740290930E+04  0.29736509859E+04 0.  0.
        5    1    3    3  502    0  0.90634937276E+03 -0.10300513576E+04  0.54920814217E+03  0.14778791081E+04  0.46999998093E+01 0. -1.
       -5    1    3    3    0  502 -0.90634937276E+03  0.10300513576E+04 -0.59663028955E+03  0.14961499849E+04  0.46999998093E+01 0.  1.
</event>
<event>
 5   0  0.3636718E-06  0.3151069E+04  0.7818609E-02  0.8201861E-01
        1   -1    0    0  501    0  0.00000000000E+00  0.00000000000E+00  0.24062186053E+04  0.24062186053E+04  0.50400001928E-02 0. -1.
       -1   -1    0    0    0  501  0.00000000000E+00  0.00000000000E+00 -0.10316221622E+04  0.10316221623E+04  0.50400001928E-02 0.  1.
    10030    2    1    2    0    0  0.00000000000E+00  0.00000000000E+00  0.13745964431E+04  0.34378407676E+04  0.31510686698E+04 0.  0.
        4    1    3    3  502    0 -0.98860571586E+03  0.12264566569E+04  0.71756528111E+03  0.17310224546E+04  0.12699999809E+01 0. -1.
       -4    1    3    3    0  502  0.98860571586E+03 -0.12264566569E+04  0.65703116197E+03  0.17068183130E+04  0.12699999809E+01 0.  1.
</event>
<event>
 5   0  0.9647945E-06  0.2909500E+04  0.7818609E-02  0.8270057E-01
       -2   -1    0    0    0  501  0.00000000000E+00  0.00000000000E+00  0.97819623574E+03  0.97819623574E+03  0.25500000920E-02 0. -1.
        2   -1    0    0  501    0  0.00000000000E+00  0.00000000000E+00 -0.21634691186E+04  0.21634691186E+04  0.25500000920E-02 0.  1.
    10030    2    1    2    0    0  0.00000000000E+00  0.00000000000E+00 -0.11852728828E+04  0.31416653543E+04  0.29094998525E+04 0.  0.
        2    1    3    3  502    0 -0.13297453269E+04 -0.58527485509E+03 -0.51235265211E+03  0.15405435828E+04  0.25500000920E-02 0.  1.
       -2    1    3    3    0  502  0.13297453269E+04  0.58527485509E+03 -0.67292023073E+03  0.16011217715E+04  0.25500000920E-02 0. -1.
</event>
<event>
 5   0  0.1028450E-05  0.2972538E+04  0.7818609E-02  0.8251616E-01
        2   -1    0    0  501    0  0.00000000000E+00  0.00000000000E+00  0.14202043198E+04  0.14202043198E+04  0.25500000920E-02 0.  1.
       -2   -1    0    0    0  501  0.00000000000E+00  0.00000000000E+00 -0.15554071765E+04  0.15554071765E+04  0.25500000920E-02 0. -1.
    10030    2    1    2    0    0  0.00000000000E+00  0.00000000000E+00 -0.13520285667E+03  0.29756114963E+04  0.29725383033E+04 0.  0.
        3    1    3    3  502    0 -0.50250404577E+03  0.20417366688E+03  0.13175917347E+04  0.14248667277E+04  0.10100000352E+00 0.  1.
       -3    1    3    3    0  502  0.50250404577E+03 -0.20417366688E+03 -0.14527945914E+04  0.15507447685E+04  0.10100000352E+00 0. -1.
</event>
<event>
 5   0  0.3592331E-06  0.3013756E+04  0.7818609E-02  0.8239814E-01
       -1   -1    0    0    0  501  0.00000000000E+00  0.00000000000E+00  0.10702005036E+04  0.10702005036E+04  0.50400001928E-02 0.  1.
        1   -1    0    0  501    0  0.00000000000E+00  0.00000000000E+00 -0.21217342652E+04  0.21217342652E+04  0.50400001928E-02 0. -1.
    10030    2    1    2    0    0  0.00000000000E+00  0.00000000000E+00 -0.10515337616E+04  0.31919347688E+04  0.30137558488E+04 0.  0.
        3    1    3    3  502    0  0.82631940555E+03 -0.57532071180E+03  0.66162324819E+03  0.12047999893E+04  0.10100000352E+00 0.  1.
       -3    1    3    3    0  502 -0.82631940555E+03  0.57532071180E+03 -0.17131570098E+04  0.19871347795E+04  0.10100000352E+00 0. -1.
</event>
<event>
 5   0  0.1028450E-05  0.2931868E+04  0.7818609E-02  0.8263459E-01
       -2   -1    0    0    0  501  0.00000000000E+00  0.00000000000E+00  0.12570589294E+04  0.12570589294E+04  0.25500000920E-02 0. -1.
        2   -1    0    0  501    0  0.00000000000E+00  0.00000000000E+00 -0.17095155739E+04  0.17095155739E+04  0.25500000920E-02 0.  1.
    10030    2    1    2    0    0  0.00000000000E+00  0.00000000000E+00 -0.45245664448E+03  0.29665745033E+04  0.29318675394E+04 0.  0.
        3    1    3    3  502    0 -0.12289849515E+04  0.71272938888E+03  0.13940038795E+03  0.14275222139E+04  0.10100000352E+00 0.  1.
       -3    1    3    3    0  502  0.12289849515E+04 -0.71272938888E+03 -0.59185703243E+03  0.15390522895E+04  0.10100000352E+00 0. -1.
</event>
<event>
 5   0  0.3852126E-06  0.2371333E+04  0.7818609E-02  0.8450315E-01
       -1   -1    0    0    0  501  0.00000000000E+00  0.00000000000E+00  0.58419721799E+03  0.58419721801E+03  0.50400001928E-02 0.  1.
        1   -1    0    0  501    0  0.00000000000E+00  0.00000000000E+00 -0.24063869878E+04  0.24063869878E+04  0.50400001928E-02 0. -1.
    10030    2    1    2    0    0  0.00000000000E+00  0.00000000000E+00 -0.18221897698E+04  0.29905842058E+04  0.23713326074E+04 0.  0.
        1    1    3    3  502    0  0.89442079326E+03  0.11968092372E+02 -0.18925774627E+04  0.20933182374E+04  0.50400001928E-02 0. -1.
       -1    1    3    3    0  502 -0.89442079326E+03 -0.11968092372E+02  0.70387692943E+02  0.89726596837E+03  0.50400001928E-02 0.  1.
</event>
<event>
 5   0  0.1089569E-05  0.2428232E+04  0.7818609E-02  0.8429009E-01
       -2   -1    0    0    0  501  0.00000000000E+00  0.00000000000E+00  0.11209322057E+04  0.11209322057E+04  0.25500000920E-02 0. -1.
        2   -1    0    0  501    0  0.00000000000E+00  0.00000000000E+00 -0.13150459377E+04  0.13150459377E+04  0.25500000920E-02 0.  1.
    10030    2    1    2    0    0  0.00000000000E+00  0.00000000000E+00 -0.19411373199E+03  0.24359781434E+04  0.24282317382E+04 0.  0.
        5    1    3    3  502    0 -0.14833347464E+03  0.99532198869E+03 -0.77847820852E+03  0.12722889184E+04  0.46999998093E+01 0.  1.
       -5    1    3    3    0  502  0.14833347464E+03 -0.99532198869E+03  0.58436447652E+03  0.11636892250E+04  0.46999998093E+01 0. -1.
</event>
<event>
 5   0  0.3592331E-06  0.3201559E+04  0.7818609E-02  0.8188405E-01
        1   -1    0    0  501    0  0.00000000000E+00  0.00000000000E+00  0.19630401387E+04  0.19630401387E+04  0.50400001928E-02 0.  1.
       -1   -1    0    0    0  501  0.00000000000E+00  0.00000000000E+00 -0.13053709528E+04  0.13053709528E+04  0.50400001928E-02 0. -1.
    10030    2    1    2    0    0  0.00000000000E+00  0.00000000000E+00  0.65766918595E+03  0.32684110915E+04  0.32015593552E+04 0.  0.
        3    1    3    3  502    0 -0.23073511108E+03 -0.15006523789E+02 -0.12882330614E+04  0.13088194367E+04  0.10100000352E+00 0. -1.
       -3    1    3    3    0  502  0.23073511108E+03  0.15006523789E+02  0.19459022473E+04  0.19595916548E+04  0.10100000352E+00 0.  1.
</event>
<event>
 5   0  0.9647945E-06  0.3111173E+04  0.7818609E-02  0.8212678E-01
        2   -1    0    0  501    0  0.00000000000E+00  0.00000000000E+00  0.19895011861E+04  0.19895011861E+04  0.25500000920E-02 0.  1.
       -2   -1    0    0    0  501  0.00000000000E+00  0.00000000000E+00 -0.12163093730E+04  0.12163093730E+04  0.25500000920E-02 0. -1.
    10030    2    1    2    0    0  0.00000000000E+00  0.00000000000E+00  0.77319181310E+03  0.32058105590E+04  0.31111727307E+04 0.  0.
        2    1    3    3  502    0  0.96357047062E+03  0.38024050328E+03 -0.80922177462E+03  0.13144925914E+04  0.25500000920E-02 0. -1.
       -2    1    3    3    0  502 -0.96357047062E+03 -0.38024050328E+03  0.15824135877E+04  0.18913179677E+04  0.25500000920E-02 0.  1.
</event>
<event>
 5   0  0.3896630E-06  0.2999444E+04  0.7818609E-02  0.8243890E-01
        1   -1    0    0  501    0  0.00000000000E+00  0.00000000000E+00  0.12230572405E+04  0.12230572405E+04  0.50400001928E-02 0.  1.
       -1   -1    0    0    0  501  0.00000000000E+00  0.00000000000E+00 -0.18389709995E+04  0.18389709995E+04  0.50400001928E-02 0. -1.
    10030    2    1    2    0    0  0.00000000000E+00  0.00000000000E+00 -0.61591375899E+03  0.30620282401E+04  0.29994444793E+04 0.  0.
        5    1    3    3  502    0  0.11116742229E+04  0.54925805919E+03  0.55323268234E+03  0.13577895582E+04  0.46999998093E+01 0.  1.
       -5    1    3    3    0  502 -0.11116742229E+04 -0.54925805919E+03 -0.11691464413E+04  0.17042386819E+04  0.46999998093E+01 0. -1.
</event>
<event>
 5   0  0.3725232E-06  0.3006336E+04  0.7818609E-02  0.8241924E-01
       -1   -1    0    0    0  501  0.00000000000E+00  0.00000000000E+00  0.14926800936E+04  0.14926800936E+04  0.50400001928E-02 0. -1.
        1   -1    0    0  501    0  0.00000000000E+00  0.00000000000E+00 -0.15137294033E+04  0.15137294033E+04  0.50400001928E-02 0.  1.
    10030    2    1    2    0    0  0.00000000000E+00  0.00000000000E+00 -0.21049309699E+02  0.30064094970E+04  0.30063358080E+04 0.  0.
        2    1    3    3  502    0 -0.69822525604E+03  0.70361394882E+03 -0.11405623751E+04  0.15111166826E+04  0.25500000920E-02 0.  1.
       -2    1    3    3    0  502  0.69822525604E+03 -0.70361394882E+03  0.11195130654E+04  0.14952928144E+04  0.25500000920E-02 0. -1.
</event>
<event>
 5   0  0.3313750E-06  0.3170042E+04  0.7818609E-02  0.8196774E-01
        3   -1    0    0  501    0  0.00000000000E+00  0.00000000000E+00  0.24122261182E+04  0.24122261203E+04  0.10100000352E+00 0.  1.
       -3   -1    0    0    0  501  0.00000000000E+00  0.00000000000E+00 -0.10414828730E+04  0.10414828779E+04  0.10100000352E+00 0. -1.
    10030    2    1    2    0    0  0.00000000000E+00  0.00000000000E+00  0.13707432452E+04  0.34537089982E+04  0.31700423971E+04 0.  0.
        2    1    3    3  502    0  0.26089242070E+03  0.15241574290E+04  0.30612574309E+03  0.15763355272E+04  0.25500000920E-02 0. -1.
       -2    1    3    3    0  502 -0.26089242070E+03 -0.15241574290E+04  0.10646175021E+04  0.18773734710E+04  0.25500000920E-02 0.  1.
</event>
<event>
 5   0  0.1089569E-05  0.2780498E+04  0.7818609E-02  0.8309349E-01
       -2   -1    0    0    0  501  0.00000000000E+00  0.00000000000E+00  0.73880085902E+03  0.73880085903E+03  0.25500000920E-02 0. -1.
        2   -1    0    0  501    0  0.00000000000E+00  0.00000000000E+00 -0.26161213939E+04  0.26161213939E+04  0.25500000920E-02 0.  1.
    10030    2    1    2    0    0  0.00000000000E+00  0.00000000000E+00 -0.18773205349E+04  0.33549222529E+04  0.27804983245E+04 0.  0.
        5    1    3    3  502    0 -0.18750103091E+03 -0.12154367221E+04 -0.15639550657E+03  0.12397276744E+04  0.46999998093E+01 0. -1.
       -5    1    3    3    0  502  0.18750103091E+03  0.12154367221E+04 -0.17209250283E+04  0.21151945786E+04  0.46999998093E+01 0.  1.
</event>
<event>
 5   0  0.3896630E-06  0.2792062E+04  0.7818609E-02  0.8305737E-01
       -1   -1    0    0    0  501  0.00000000000E+00  0.00000000000E+00  0.11000586470E+04  0.11000586471E+04  0.50400001928E-02 0. -1.
        1   -1    0    0  501    0  0.00000000000E+00  0.00000000000E+00 -0.17716357187E+04  0.17716357187E+04  0.50400001928E-02 0.  1.
    10030    2    1    2    0    0  0.00000000000E+00  0.00000000000E+00 -0.67157707165E+03  0.28716943658E+04  0.27920624576E+04 0.  0.
        5    1    3    3  502    0  0.28071758767E+03  0.12672594030E+04  0.19280747234E+03  0.13122292368E+04  0.46999998093E+01 0. -1.
       -5    1    3    3    0  502 -0.28071758767E+03 -0.12672594030E+04 -0.86438454399E+03  0.15594651290E+04  0.46999998093E+01 0.  1.
</event>
<event>
 5   0  0.1029922E-05  0.2671922E+04  0.7818609E-02  0.8344173E-01
       -2   -1    0    0    0  501  0.00000000000E+00  0.00000000000E+00  0.17282791137E+04  0.17282791137E+04  0.25500000920E-02 0.  1.
        2   -1    0    0  501    0  0.00000000000E+00  0.00000000000E+00 -0.10326984642E+04  0.10326984642E+04  0.25500000920E-02 0. -1.
    10030    2    1    2    0    0  0.00000000000E+00  0.00000000000E+00  0.69558064949E+03  0.27609775779E+04  0.26719215456E+04 0.  0.
        1    1    3    3  502    0  0.72361733513E+03 -0.62807140426E+03 -0.61420383619E+03  0.11381309630E+04  0.50400001928E-02 0. -1.
       -1    1    3    3    0  502 -0.72361733513E+03  0.62807140426E+03  0.13097844857E+04  0.16228466149E+04  0.50400001928E-02 0.  1.
</event>
<event>
 5   0  0.1089569E-05  0.3016986E+04  0.7818609E-02  0.8238897E-01
       -2   -1    0    0    0  501  0.00000000000E+00  0.00000000000E+00  0.10413913842E+04  0.10413913842E+04  0.25500000920E-02 0.  1.
        2   -1    0    0  501    0  0.00000000000E+00  0.00000000000E+00 -0.21851063105E+04  0.21851063105E+04  0.25500000920E-02 0. -1.
    10030    2    1    2    0    0  0.00000000000E+00  0.00000000000E+00 -0.11437149263E+04  0.32264976948E+04  0.30169858372E+04 0.  0.
        5    1    3    3  502    0  0.13350525234E+04 -0.68643234048E+03 -0.73038860808E+03  0.16694442809E+04  0.46999998093E+01 0. -1.
       -5    1    3    3    0  502 -0.13350525234E+04  0.68643234048E+03 -0.41332631825E+03  0.15570534139E+04  0.46999998093E+01 0.  1.
</event>
<event>
 5   0  0.1089569E-05  0.3078613E+04  0.7818609E-02  0.8221632E-01
        2   -1    0    0  501    0  0.00000000000E+00  0.00000000000E+00  0.17427455868E+04  0.17427455868E+04  0.25500000920E-02 0. -1.
       -2   -1    0    0    0  501  0.00000000000E+00  0.00000000000E+00 -0.13596159140E+04  0.13596159140E+04  0.25500000920E-02 0.  1.
    10030    2    1    2    0    0  0.00000000000E+00  0.00000000000E+00  0.38312967282E+03  0.31023615007E+04  0.30786130863E+04 0.  0.
        5    1    3    3  502    0  0.69476420010E+03  0.47210435268E+03  0.14914232158E+04  0.17117082439E+04  0.46999998093E+01 0. -1.
       -5    1    3    3    0  502 -0.69476420010E+03 -0.47210435268E+03 -0.11082935429E+04  0.13906532569E+04  0.46999998093E+01 0.  1.
</event>
<event>
 5   0  0.3896630E-06  0.3052502E+04  0.7818609E-02  0.8228896E-01
        1   -1    0    0  501    0  0.00000000000E+00  0.00000000000E+00  0.18822916922E+04  0.18822916922E+04  0.50400001928E-02 0.  1.
       -1   -1    0    0    0  501  0.00000000000E+00  0.00000000000E+00 -0.12375560657E+04  0.12375560657E+04  0.50400001928E-02 0. -1.
    10030    2    1    2    0    0  0.00000000000E+00  0.00000000000E+00  0.64473562644E+03  0.31198477579E+04  0.30525015978E+04 0.  0.
        5    1    3    3  502    0  0.70129554842E+03 -0.92535791732E+03 -0.69010202545E+03  0.13506907925E+04  0.46999998093E+01 0. -1.
       -5    1    3    3    0  502 -0.70129554842E+03  0.92535791732E+03  0.13348376519E+04  0.17691569654E+04  0.46999998093E+01 0.  1.
</event>
<event>
 5   0  0.3313750E-06  0.2194249E+04  0.7818609E-02  0.8520826E-01
        3   -1    0    0  501    0  0.00000000000E+00  0.00000000000E+00  0.15600945538E+04  0.15600945571E+04  0.10100000352E+00 0. -1.
       -3   -1    0    0    0  501  0.00000000000E+00  0.00000000000E+00 -0.77154452936E+03  0.77154453597E+03  0.10100000352E+00 0.  1.
    10030    2    1    2    0    0  0.00000000000E+00  0.00000000000E+00  0.78855002444E+03  0.23316390930E+04  0.21942492381E+04 0.  0.
        2    1    3    3  502    0 -0.77977649714E+03  0.26972849470E+03  0.11626538295E+04  0.14256818627E+04  0.25500000920E-02 0. -1.
       -2    1    3    3    0  502  0.77977649714E+03 -0.26972849470E+03 -0.37410380502E+03  0.90595723038E+03  0.25500000920E-02 0.  1.
</event>
<event>
 5   0  0.1089569E-05  0.3112905E+04  0.7818609E-02  0.8212205E-01
        2   -1    0    0  501    0  0.00000000000E+00  0.00000000000E+00  0.24379218160E+04  0.24379218160E+04  0.25500000920E-02 0. -1.
       -2   -1    0    0    0  501  0.00000000000E+00  0.00000000000E+00 -0.99369221285E+03  0.99369221285E+03  0.25500000920E-02 0.  1.
    10030    2    1    2    0    0  0.00000000000E+00  0.00000000000E+00  0.14442296031E+04  0.34316140288E+04  0.31129047040E+04 0.  0.
        5    1    3    3  502    0  0.10853612305E+04  0.10928135784E+04  0.96928308276E+03  0.18198302949E+04  0.46999998093E+01 0.  1.
       -5    1    3    3    0  502 -0.10853612305E+04 -0.10928135784E+04  0.47494652036E+03  0.16117837339E+04  0.46999998093E+01 0. -1.
</event>
<event>
 5   0  0.3636718E-06  0.3101018E+04  0.7818609E-02  0.8215459E-01
        1   -1    0    0  501    0  0.00000000000E+00  0.00000000000E+00  0.20066298417E+04  0.20066298417E+04  0.50400001928E-02 0.  1.
       -1   -1    0    0    0  501  0.00000000000E+00  0.00000000000E+00 -0.11980673223E+04  0.11980673223E+04  0.50400001928E-02 0. -1.
    10030    2    1    2    0    0  0.00000000000E+00  0.00000000000E+00  0.80856251934E+03  0.32046971640E+04  0.31010176661E+04 0.  0.
        4    1    3    3  502    0  0.63187190359E+03 -0.14072220717E+04  0.56617115495E+03  0.16431942828E+04  0.12699999809E+01 0.  1.
       -4    1    3    3    0  502 -0.63187190359E+03  0.14072220717E+04  0.24239136438E+03  0.15615028812E+04  0.12699999809E+01 0. -1.
</event>
<event>
 5   0  0.1029922E-05  0.2889664E+04  0.7818609E-02  0.8275960E-01
       -2   -1    0    0    0  501  0.00000000000E+00  0.00000000000E+00  0.96050493896E+03  0.96050493896E+03  0.25500000920E-02 0.  1.
        2   -1    0    0  501    0  0.00000000000E+00  0.00000000000E+00 -0.21733764273E+04  0.21733764273E+04  0.25500000920E-02 0. -1.
    10030    2    1    2    0    0  0.00000000000E+00  0.00000000000E+00 -0.12128714884E+04  0.31338813663E+04  0.28896635047E+04 0.  0.
        1    1    3    3  502    0 -0.98008795604E+03  0.33272524696E+03  0.48686025664E+03  0.11438144085E+04  0.50400001928E-02 0.  1.
       -1    1    3    3    0  502  0.98008795604E+03 -0.33272524696E+03 -0.16997317450E+04  0.19900669578E+04  0.50400001928E-02 0. -1.
</event>
<event>
 5   0  0.3896630E-06  0.2806435E+04  0.7818609E-02  0.8301273E-01
       -1   -1    0    0    0  501  0.00000000000E+00  0.00000000000E+00  0.10184516902E+04  0.10184516903E+04  0.50400001928E-02 0.  1.
        1   -1    0    0  501    0  0.00000000000E+00  0.00000000000E+00 -0.19333456373E+04  0.19333456373E+04  0.50400001928E-02 0. -1.
    10030    2    1    2    0    0  0.00000000000E+00  0.00000000000E+00 -0.91489394704E+03  0.29517973276E+04  0.28064348431E+04 0.  0.
        5    1    3    3  502    0 -0.65168247888E+00  0.79312459809E+03  0.76007236013E+03  0.10985349951E+04  0.46999998093E+01 0.  1.
       -5    1    3    3    0  502  0.65168247888E+00 -0.79312459809E+03 -0.16749663072E+04  0.18532623325E+04  0.46999998093E+01 0. -1.
</event>
<event>
 5   0  0.3852126E-06  0.2996530E+04  0.7818609E-02  0.8244722E-01
        1   -1    0    0  501    0  0.00000000000E+00  0.00000000000E+00  0.95809019133E+03  0.95809019134E+03  0.50400001928E-02 0.  1.
       -1   -1    0    0    0  501  0.00000000000E+00  0.00000000000E+00 -0.23429926043E+04  0.23429926043E+04  0.50400001928E-02 0. -1.
    10030    2    1    2    0    0  0.00000000000E+00  0.00000000000E+00 -0.13849024129E+04  0.33010827956E+04  0.29965301484E+04 0.  0.
        1    1    3    3  502    0  0.11867287751E+04 -0.84583616107E+03 -0.10757097821E+04  0.18113297691E+04  0.50400001928E-02 0.  1.
       -1    1    3    3    0  502 -0.11867287751E+04  0.84583616107E+03 -0.30919263089E+03  0.14897530265E+04  0.50400001928E-02 0. -1.
</event>
<event>
 5   0  0.3852126E-06  0.2989842E+04  0.7818609E-02  0.8246637E-01
        1   -1    0    0  501    0  0.00000000000E+00  0.00000000000E+00  0.19495330510E+04  0.19495330510E+04  0.50400001928E-02 0. -1.
       -1   -1    0    0    0  501  0.00000000000E+00  0.00000000000E+00 -0.11463203886E+04  0.11463203886E+04  0.50400001928E-02 0.  1.
    10030    2    1    2    0    0  0.00000000000E+00  0.00000000000E+00  0.80321266238E+03  0.30958534396E+04  0.29898424605E+04 0.  0.
        1    1    3    3  502    0  0.41070998098E+03 -0.30049524908E+02  0.18896427054E+04  0.19339946268E+04  0.50400001928E-02 0. -1.
       -1    1    3    3    0  502 -0.41070998098E+03  0.30049524908E+02 -0.10864300430E+04  0.11618588128E+04  0.50400001928E-02 0.  1.
</event>
<event>
 5   0  0.3636718E-06  0.3114631E+04  0.7818609E-02  0.8211734E-01
       -1   -1    0    0    0  501  0.00000000000E+00  0.00000000000E+00  0.12053910593E+04  0.12053910593E+04  0.50400001928E-02 0.  1.
        1   -1    0    0  501    0  0.00000000000E+00  0.00000000000E+00 -0.20119877893E+04  0.20119877893E+04  0.50400001928E-02 0. -1.
    10030    2    1    2    0    0  0.00000000000E+00  0.00000000000E+00 -0.80659672994E+03  0.32173788486E+04  0.31146313378E+04 0.  0.
        4    1    3    3  502    0 -0.31335565897E+03  0.36881565952E+02  0.11720274461E+04  0.12137553156E+04  0.12699999809E+01 0.  1.
       -4    1    3    3    0  502  0.31335565897E+03 -0.36881565952E+02 -0.19786241760E+04  0.20036235330E+04  0.12699999809E+01 0. -1.
</event>
<event>
 5   0  0.1057036E-05  0.3037969E+04  0.7818609E-02  0.8232971E-01
        2   -1    0    0  501    0  0.00000000000E+00  0.00000000000E+00  0.13832546177E+04  0.13832546177E+04  0.25500000920E-02 0. -1.
       -2   -1    0    0    0  501  0.00000000000E+00  0.00000000000E+00 -0.16680323367E+04  0.16680323367E+04  0.25500000920E-02 0.  1.
    10030    2    1    2    0    0  0.00000000000E+00  0.00000000000E+00 -0.28477771894E+03  0.30512869544E+04  0.30379686846E+04 0.  0.
        4    1    3    3  502    0  0.13463412608E+04  0.29718640065E+03  0.49786731809E+03  0.14658881358E+04  0.12699999809E+01 0. -1.
       -4    1    3    3    0  502 -0.13463412608E+04 -0.29718640065E+03 -0.78264503702E+03  0.15853988186E+04  0.12699999809E+01 0.  1.
</event>
<event>
 5   0  0.1028450E-05  0.2994516E+04  0.7818609E-02  0.8245299E-01
       -2   -1    0    0    0  501  0.00000000000E+00  0.00000000000E+00  0.12777208972E+04  0.12777208972E+04  0.25500000920E-02 0.  1.
        2   -1    0    0  501    0  0.00000000000E+00  0.00000000000E+00 -0.17545160439E+04  0.17545160439E+04  0.25500000920E-02 0. -1.
    10030    2    1    2    0    0  0.00000000000E+00  0.00000000000E+00 -0.47679514667E+03  0.30322369411E+04  0.29945161971E+04 0.  0.
        3    1    3    3  502    0  0.70736416579E+03  0.73695926494E+03 -0.13468596490E+04  0.16904153175E+04  0.10100000352E+00 0. -1.
       -3    1    3    3    0  502 -0.70736416579E+03 -0.73695926494E+03  0.87006450232E+03  0.13418216236E+04  0.10100000352E+00 0.  1.
</event>
<event>
 5   0  0.3852126E-06  0.2991827E+04  0.7818609E-02  0.8246069E-01
       -1   -1    0    0    0  501  0.00000000000E+00  0.00000000000E+00  0.16127958412E+04  0.16127958412E+04  0.50400001928E-02 0.  1.
        1   -1    0    0  501    0  0.00000000000E+00  0.00000000000E+00 -0.13875019606E+04  0.13875019606E+04  0.50400001928E-02 0. -1.
    10030    2    1    2    0    0  0.00000000000E+00  0.00000000000E+00  0.22529388054E+03  0.30002978018E+04  0.29918271285E+04 0.  0.
        1    1    3    3  502    0 -0.36973456553E+03 -0.93417463122E+03 -0.99881023525E+03  0.14166890190E+04  0.50400001928E-02 0. -1.
       -1    1    3    3    0  502  0.36973456553E+03  0.93417463122E+03  0.12241041158E+04  0.15836087828E+04  0.50400001928E-02 0.  1.
</event>
<event>
 5   0  0.1089569E-05  0.2986615E+04  0.7818609E-02  0.8247563E-01
        2   -1    0    0  501    0  0.00000000000E+00  0.00000000000E+00  0.12168343708E+04  0.12168343708E+04  0.25500000920E-02 0.  1.
       -2   -1    0    0    0  501  0.00000000000E+00  0.00000000000E+00 -0.18325975399E+04  0.18325975399E+04  0.25500000920E-02 0. -1.
    10030    2    1    2    0    0  0.00000000000E+00  0.00000000000E+00 -0.61576316906E+03  0.30494319107E+04  0.29866152577E+04 0.  0.
        5    1    3    3  502    0 -0.10172817896E+04  0.90392383001E+03  0.31987093536E+03  0.13979556628E+04  0.46999998093E+01 0.  1.
       -5    1    3    3    0  502  0.10172817896E+04 -0.90392383001E+03 -0.93563410443E+03  0.16514762479E+04  0.46999998093E+01 0. -1.
</event>
<event>
 5   0  0.1028450E-05  0.2923972E+04  0.7818609E-02  0.8265781E-01
       -2   -1    0    0    0  501  0.00000000000E+00  0.00000000000E+00  0.12858272767E+04  0.12858272767E+04  0.25500000920E-02 0. -1.
        2   -1    0    0  501    0  0.00000000000E+00  0.00000000000E+00 -0.16622790256E+04  0.16622790256E+04  0.25500000920E-02 0.  1.
    10030    2    1    2    0    0  0.00000000000E+00  0.00000000000E+00 -0.37645174895E+03  0.29481063023E+04  0.29239724435E+04 0.  0.
        3    1    3    3  502    0  0.10980597663E+04 -0.44163810419E+03  0.67712625344E+03  0.13635539735E+04  0.10100000352E+00 0. -1.
       -3    1    3    3    0  502 -0.10980597663E+04  0.44163810419E+03 -0.10535780024E+04  0.15845523288E+04  0.10100000352E+00 0.  1.
</event>
<event>
 5   0  0.1057036E-05  0.3137209E+04  0.7818609E-02  0.8205600E-01
        2   -1    0    0  501    0  0.00000000000E+00  0.00000000000E+00  0.13180818088E+04  0.13180818088E+04  0.25500000920E-02 0.  1.
       -2   -1    0    0    0  501  0.00000000000E+00  0.00000000000E+00 -0.18667431080E+04  0.18667431080E+04  0.25500000920E-02 0. -1.
    10030    2    1    2    0    0  0.00000000000E+00  0.00000000000E+00 -0.54866129925E+03  0.31848249168E+04  0.31372090350E+04 0.  0.
        4    1    3    3  502    0  0.12398315568E+04 -0.90180982268E+03 -0.61114221236E+03  0.16504362036E+04  0.12699999809E+01 0. -1.
       -4    1    3    3    0  502 -0.12398315568E+04  0.90180982268E+03  0.62480913110E+02  0.15343887131E+04  0.12699999809E+01 0.  1.
</event>
<event>
 5   0  0.9647945E-06  0.2943797E+04  0.7818609E-02  0.8259964E-01
        2   -1    0    0  501    0  0.00000000000E+00  0.00000000000E+00  0.24992731172E+04  0.24992731172E+04  0.25500000920E-02 0. -1.
       -2   -1    0    0    0  501  0.00000000000E+00  0.00000000000E+00 -0.86684635313E+03  0.86684635313E+03  0.25500000920E-02 0.  1.
    10030    2    1    2    0    0  0.00000000000E+00  0.00000000000E+00  0.16324267641E+04  0.33661194704E+04  0.29437974028E+04 0.  0.
        2    1    3    3  502    0 -0.10058682886E+04 -0.10661060020E+04  0.66223717011E+03  0.16083877303E+04  0.25500000920E-02 0. -1.
       -2    1    3    3    0  502  0.10058682886E+04  0.10661060020E+04  0.97018959401E+03  0.17577317400E+04  0.25500000920E-02 0.  1.
</event>
<event>
 5   0  0.9647945E-06  0.2965505E+04  0.7818609E-02  0.8253650E-01
       -2   -1    0    0    0  501  0.00000000000E+00  0.00000000000E+00  0.12276856055E+04  0.12276856055E+04  0.25500000920E-02 0. -1.
        2   -1    0    0  501    0  0.00000000000E+00  0.00000000000E+00 -0.17908128993E+04  0.17908128993E+04  0.25500000920E-02 0.  1.
    10030    2    1    2    0    0  0.00000000000E+00  0.00000000000E+00 -0.56312729382E+03  0.30184985049E+04  0.29655051635E+04 0.  0.
        2    1    3    3  502    0  0.45330305988E+03  0.35163234137E+03  0.11101389863E+04  0.12496149553E+04  0.25500000920E-02 0. -1.
       -2    1    3    3    0  502 -0.45330305988E+03 -0.35163234137E+03 -0.16732662801E+04  0.17688835496E+04  0.25500000920E-02 0.  1.
</event>
<event>
 5   0  0.9647945E-06  0.3058433E+04  0.7818609E-02  0.8227239E-01
       -2   -1    0    0    0  501  0.00000000000E+00  0.00000000000E+00  0.15067580099E+04  0.15067580099E+04  0.25500000920E-02 0. -1.
        2   -1    0    0  501    0  0.00000000000E+00  0.00000000000E+00 -0.15520100943E+04  0.15520100943E+04  0.25500000920E-02 0.  1.
    10030    2    1    2    0    0  0.00000000000E+00  0.00000000000E+00 -0.45252084418E+02  0.30587681042E+04  0.30584333512E+04 0.  0.
        2    1    3    3  502    0 -0.43380939392E+03  0.43172018889E+03  0.13789304735E+04  0.15086491184E+04  0.25500000920E-02 0. -1.
       -2    1    3    3    0  502  0.43380939392E+03 -0.43172018889E+03 -0.14241825579E+04  0.15501189858E+04  0.25500000920E-02 0.  1.
</event>
<event>
 5   0  0.1028450E-05  0.2697492E+04  0.7818609E-02  0.8335819E-01
        2   -1    0    0  501    0  0.00000000000E+00  0.00000000000E+00  0.24427268342E+04  0.24427268342E+04  0.25500000920E-02 0.  1.
       -2   -1    0    0    0  501  0.00000000000E+00  0.00000000000E+00 -0.74470724654E+03  0.74470724654E+03  0.25500000920E-02 0. -1.
    10030    2    1    2    0    0  0.00000000000E+00  0.00000000000E+00  0.16980195876E+04  0.31874340807E+04  0.26974924465E+04 0.  0.
        3    1    3    3  502    0  0.36319612511E+03 -0.66673877124E+03  0.21662285143E+04  0.22954298074E+04  0.10100000352E+00 0.  1.
       -3    1    3    3    0  502 -0.36319612511E+03  0.66673877124E+03 -0.46820892667E+03  0.89200427330E+03  0.10100000352E+00 0. -1.
</event>
<event>
 5   0  0.1057036E-05  0.3101089E+04  0.7818609E-02  0.8215439E-01
        2   -1    0    0  501    0  0.00000000000E+00  0.00000000000E+00  0.19592548036E+04  0.19592548036E+04  0.25500000920E-02 0.  1.
       -2   -1    0    0    0  501  0.00000000000E+00  0.00000000000E+00 -0.12270935056E+04  0.12270935056E+04  0.25500000920E-02 0. -1.
    10030    2    1    2    0    0  0.00000000000E+00  0.00000000000E+00  0.73216129803E+03  0.31863483092E+04  0.31010893862E+04 0.  0.
        4    1    3    3  502    0  0.13043638992E+04 -0.82994758448E+03  0.48769460896E+03  0.16211186937E+04  0.12699999809E+01 0. -1.
       -4    1    3    3    0  502 -0.13043638992E+04  0.82994758448E+03  0.24446668907E+03  0.15652296155E+04  0.12699999809E+01 0.  1.
</event>
<event>
 5   0  0.1029922E-05  0.3001580E+04  0.7818609E-02  0.8243280E-01
       -2   -1    0    0    0  501  0.00000000000E+00  0.00000000000E+00  0.12719898687E+04  0.12719898687E+04  0.25500000920E-02 0. -1.
        2   -1    0    0  501    0  0.00000000000E+00  0.00000000000E+00 -0.17707454694E+04  0.17707454694E+04  0.25500000920E-02 0.  1.
    10030    2    1    2    0    0  0.00000000000E+00  0.00000000000E+00 -0.49875560069E+03  0.30427353380E+04  0.30015797821E+04 0.  0.
        1    1    3    3  502    0 -0.12541282002E+04  0.34266845754E+03  0.51064279474E+03  0.13967874850E+04  0.50400001928E-02 0. -1.
       -1    1    3    3    0  502  0.12541282002E+04 -0.34266845754E+03 -0.10093983954E+04  0.16459478531E+04  0.50400001928E-02 0.  1.
</event>
<event>
 5   0  0.3852126E-06  0.2654438E+04  0.7818609E-02  0.8349941E-01
        1   -1    0    0  501    0  0.00000000000E+00  0.00000000000E+00  0.14082251576E+04  0.14082251576E+04  0.50400001928E-02 0.  1.
       -1   -1    0    0    0  501  0.00000000000E+00  0.00000000000E+00 -0.12508729320E+04  0.12508729320E+04  0.50400001928E-02 0. -1.
    10030    2    1    2    0    0  0.00000000000E+00  0.00000000000E+00  0.15735222556E+03  0.26590980896E+04  0.26544383449E+04 0.  0.
        1    1    3    3  502    0 -0.12864716798E+03  0.12906186174E+04 -0.20335714038E+03  0.13128597168E+04  0.50400001928E-02 0. -1.
       -1    1    3    3    0  502  0.12864716798E+03 -0.12906186174E+04  0.36070936594E+03  0.13462383727E+04  0.50400001928E-02 0.  1.
</event>
<event>
 5   0  0.3592331E-06  0.3017660E+04  0.7818609E-02  0.8238706E-01
        1   -1    0    0  501    0  0.00000000000E+00  0.00000000000E+00  0.18487250731E+04  0.18487250731E+04  0.50400001928E-02 0.  1.
       -1   -1    0    0    0  501  0.00000000000E+00  0.00000000000E+00 -0.12314260674E+04  0.12314260674E+04  0.50400001928E-02 0. -1.
    10030    2    1    2    0    0  0.00000000000E+00  0.00000000000E+00  0.61729900567E+03  0.30801511405E+04  0.30176601840E+04 0.  0.
        3    1    3    3  502    0  0.10789207092E+04 -0.41076992697E+03  0.13002436441E+04  0.17388028565E+04  0.10100000352E+00 0. -1.
       -3    1    3    3    0  502 -0.10789207092E+04  0.41076992697E+03 -0.68294463839E+03  0.13413482840E+04  0.10100000352E+00 0.  1.
</event>
<event>
 5   0  0.3852126E-06  0.2997500E+04  0.7818609E-02  0.8244445E-01
        1   -1    0    0  501    0  0.00000000000E+00  0.00000000000E+00  0.20184018604E+04  0.20184018604E+04  0.50400001928E-02 0.  1.
       -1   -1    0    0    0  501  0.00000000000E+00  0.00000000000E+00 -0.11128864172E+04  0.11128864172E+04  0.50400001928E-02 0. -1.
    10030    2    1    2    0    0  0.00000000000E+00  0.00000000000E+00  0.90551544321E+03  0.31312882777E+04  0.29975003019E+04 0.  0.
        1    1    3    3  502    0  0.70972067463E+03 -0.64179317389E+03 -0.75226643269E+03  0.12171715983E+04  0.50400001928E-02 0. -1.
       -1    1    3    3    0  502 -0.70972067463E+03  0.64179317389E+03  0.16577818759E+04  0.19141166793E+04  0.50400001928E-02 0.  1.
</event>
<event>
 5   0  0.1057036E-05  0.3012935E+04  0.7818609E-02  0.8240047E-01
        2   -1    0    0  501    0  0.00000000000E+00  0.00000000000E+00  0.14593490731E+04  0.14593490731E+04  0.25500000920E-02 0.  1.
       -2   -1    0    0    0  501  0.00000000000E+00  0.00000000000E+00 -0.15551074806E+04  0.15551074806E+04  0.25500000920E-02 0. -1.
    10030    2    1    2    0    0  0.00000000000E+00  0.00000000000E+00 -0.95758407555E+02  0.30144565537E+04  0.30129352202E+04 0.  0.
        4    1    3    3  502    0 -0.10695661725E+04  0.13908677048E+03  0.10043771546E+04  0.14738018892E+04  0.12699999809E+01 0.  1.
       -4    1    3    3    0  502  0.10695661725E+04 -0.13908677048E+03 -0.11001355621E+04  0.15406546645E+04  0.12699999809E+01 0. -1.
</event>
<event>
 5   0  0.9647945E-06  0.2998537E+04  0.7818609E-02  0.8244149E-01
        2   -1    0    0  501    0  0.00000000000E+00  0.00000000000E+00  0.17360817529E+04  0.17360817529E+04  0.25500000920E-02 0. -1.
       -2   -1    0    0    0  501  0.00000000000E+00  0.00000000000E+00 -0.12947581997E+04  0.12947581997E+04  0.25500000920E-02 0.  1.
    10030    2    1    2    0    0  0.00000000000E+00  0.00000000000E+00  0.44132355320E+03  0.30308399526E+04  0.29985370332E+04 0.  0.
        2    1    3    3  502    0 -0.53032320304E+03  0.70121342307E+03  0.14481842293E+04  0.16941607145E+04  0.25500000920E-02 0. -1.
       -2    1    3    3    0  502  0.53032320304E+03 -0.70121342307E+03 -0.10068606761E+04  0.13366792381E+04  0.25500000920E-02 0.  1.
</event>
<event>
 5   0  0.9647945E-06  0.2941031E+04  0.7818609E-02  0.8260773E-01
        2   -1    0    0  501    0  0.00000000000E+00  0.00000000000E+00  0.13513458310E+04  0.13513458310E+04  0.25500000920E-02 0.  1.
       -2   -1    0    0    0  501  0.00000000000E+00  0.00000000000E+00 -0.16001939292E+04  0.16001939292E+04  0.25500000920E-02 0. -1.
    10030    2    1    2    0    0  0.00000000000E+00  0.00000000000E+00 -0.24884809817E+03  0.29515397602E+04  0.29410307003E+04 0.  0.
        2    1    3    3  502    0  0.36453692773E+02 -0.14434480264E+04  0.15503879309E+03  0.14522080099E+04  0.25500000920E-02 0.  1.
       -2    1    3    3    0  502 -0.36453692773E+02  0.14434480264E+04 -0.40388689127E+03  0.14993317503E+04  0.25500000920E-02 0. -1.
</event>
<event>
 5   0  0.1029922E-05  0.2939936E+04  0.7818609E-02  0.8261094E-01
       -2   -1    0    0    0  501  0.00000000000E+00  0.00000000000E+00  0.12521978854E+04  0.12521978854E+04  0.25500000920E-02 0. -1.
        2   -1    0    0  501    0  0.00000000000E+00  0.00000000000E+00 -0.17256107803E+04  0.17256107803E+04  0.25500000920E-02 0.  1.
    10030    2    1    2    0    0  0.00000000000E+00  0.00000000000E+00 -0.47341289491E+03  0.29778086658E+04  0.29399361695E+04 0.  0.
        1    1    3    3  502    0  0.14559900897E+04 -0.33139476899E+02 -0.43877782857E+03  0.15210297003E+04  0.50400001928E-02 0.  1.
       -1    1    3    3    0  502 -0.14559900897E+04  0.33139476899E+02 -0.34635066336E+02  0.14567789655E+04  0.50400001928E-02 0. -1.
</event>
<event>
 5   0  0.1089569E-05  0.3058959E+04  0.7818609E-02  0.8227092E-01
        2   -1    0    0  501    0  0.00000000000E+00  0.00000000000E+00  0.14457527120E+04  0.14457527120E+04  0.25500000920E-02 0.  1.
       -2   -1    0    0    0  501  0.00000000000E+00  0.00000000000E+00 -0.16180550487E+04  0.16180550487E+04  0.25500000920E-02 0. -1.
    10030    2    1    2    0    0  0.00000000000E+00  0.00000000000E+00 -0.17230233673E+03  0.30638077607E+04  0.30589589568E+04 0.  0.
        5    1    3    3  502    0  0.94734499931E+03 -0.10585931792E+04  0.48149521266E+03  0.14999805988E+04  0.46999998093E+01 0.  1.
       -5    1    3    3    0  502 -0.94734499931E+03  0.10585931792E+04 -0.65379754939E+03  0.15638271619E+04  0.46999998093E+01 0. -1.
</event>
<event>
 5   0  0.3725232E-06  0.2381491E+04  0.7818609E-02  0.8446466E-01
       -1   -1    0    0    0  501  0.00000000000E+00  0.00000000000E+00  0.12054293563E+04  0.12054293563E+04  0.50400001928E-02 0.  1.
        1   -1    0    0  501    0  0.00000000000E+00  0.00000000000E+00 -0.11762406125E+04  0.11762406125E+04  0.50400001928E-02 0. -1.
    10030    2    1    2    0    0  0.00000000000E+00  0.00000000000E+00  0.29188743784E+02  0.23816699689E+04  0.23814910997E+04 0.  0.
        2    1    3    3  502    0  0.70886799715E+03  0.46854286355E+02  0.97027370269E+03  0.12025473877E+04  0.25500000920E-02 0.  1.
       -2    1    3    3    0  502 -0.70886799715E+03 -0.46854286355E+02 -0.94108495891E+03  0.11791225812E+04  0.25500000920E-02 0. -1.
</event>
<event>
 5   0  0.3592331E-06  0.3088662E+04  0.7818609E-02  0.8218856E-01
       -1   -1    0    0    0  501  0.00000000000E+00  0.00000000000E+00  0.33349263024E+04  0.33349263024E+04  0.50400001928E-02 0. -1.
        1   -1    0    0  501    0  0.00000000000E+00  0.00000000000E+00 -0.71514577871E+03  0.71514577872E+03  0.50400001928E-02 0.  1.
    10030    2    1    2    0    0  0.00000000000E+00  0.00000000000E+00  0.26197805237E+04  0.40500720812E+04  0.30886621489E+04 0.  0.
        3    1    3    3  502    0  0.12908922807E+04  0.57503956387E+02  0.24188631723E+04  0.27423728124E+04  0.10100000352E+00 0. -1.
       -3    1    3    3    0  502 -0.12908922807E+04 -0.57503956387E+02  0.20091735139E+03  0.13076992688E+04  0.10100000352E+00 0.  1.
</event>
<event>
 5   0  0.3852126E-06  0.2400699E+04  0.7818609E-02  0.8439242E-01
        1   -1    0    0  501    0  0.00000000000E+00  0.00000000000E+00  0.22368603652E+04  0.22368603652E+04  0.50400001928E-02 0.  1.
       -1   -1    0    0    0  501  0.00000000000E+00  0.00000000000E+00 -0.64413458540E+03  0.64413458542E+03  0.50400001928E-02 0. -1.
    10030    2    1    2    0    0  0.00000000000E+00  0.00000000000E+00  0.15927257798E+04  0.28809949506E+04  0.24006991681E+04 0.  0.
        1    1    3    3  502    0  0.53303560284E+02 -0.70974239470E+03  0.19563134168E+04  0.20817631280E+04  0.50400001928E-02 0.  1.
       -1    1    3    3    0  502 -0.53303560284E+02  0.70974239470E+03 -0.36358763704E+03  0.79923182257E+03  0.50400001928E-02 0. -1.
</event>
<event>
 5   0  0.3725232E-06  0.3106791E+04  0.7818609E-02  0.8213877E-01
       -1   -1    0    0    0  501  0.00000000000E+00  0.00000000000E+00  0.12000025476E+04  0.12000025476E+04  0.50400001928E-02 0. -1.
        1   -1    0    0  501    0  0.00000000000E+00  0.00000000000E+00 -0.20108600005E+04  0.20108600005E+04  0.50400001928E-02 0.  1.
    10030    2    1    2    0    0  0.00000000000E+00  0.00000000000E+00 -0.81085745289E+03  0.32108625481E+04  0.31067907065E+04 0.  0.
        2    1    3    3  502    0  0.10321560970E+04  0.91845253244E+03  0.32838108244E+03  0.14201180930E+04  0.25500000920E-02 0. -1.
       -2    1    3    3    0  502 -0.10321560970E+04 -0.91845253244E+03 -0.11392385353E+04  0.17907444550E+04  0.25500000920E-02 0.  1.
</event>
<event>
 5   0  0.1028450E-05  0.2797763E+04  0.7818609E-02  0.8303963E-01
        2   -1    0    0  501    0  0.00000000000E+00  0.00000000000E+00  0.92151591671E+03  0.92151591671E+03  0.25500000920E-02 0. -1.
       -2   -1    0    0    0  501  0.00000000000E+00  0.00000000000E+00 -0.21235325409E+04  0.21235325409E+04  0.25500000920E-02 0.  1.
    10030    2    1    2    0    0  0.00000000000E+00  0.00000000000E+00 -0.12020166241E+04  0.30450484576E+04  0.27977627033E+04 0.  0.
        3    1    3    3  502    0  0.13371962886E+04  0.36037840560E+03 -0.81567871900E+03  0.16072642260E+04  0.10100000352E+00 0. -1.
       -3    1    3    3    0  502 -0.13371962886E+04 -0.36037840560E+03 -0.38633790515E+03  0.14377842316E+04  0.10100000352E+00 0.  1.
</event>
<event>
 5   0  0.3725232E-06  0.3387821E+04  0.7818609E-02  0.8140902E-01
       -1   -1    0    0    0  501  0.00000000000E+00  0.00000000000E+00  0.12108912288E+04  0.12108912289E+04  0.50400001928E-02 0. -1.
        1   -1    0    0  501    0  0.00000000000E+00  0.00000000000E+00 -0.23696038995E+04  0.23696038995E+04  0.50400001928E-02 0.  1.
    10030    2    1    2    0    0  0.00000000000E+00  0.00000000000E+00 -0.11587126706E+04  0.35804951283E+04  0.33878208794E+04 0.  0.
        2    1    3    3  502    0  0.89226181480E+03  0.22710663905E+03  0.92334557980E+03  0.13039461766E+04  0.25500000920E-02 0. -1.
       -2    1    3    3    0  502 -0.89226181480E+03 -0.22710663905E+03 -0.20820582504E+04  0.22765489518E+04  0.25500000920E-02 0.  1.
</event>
<event>
 5   0  0.1089569E-05  0.2994292E+04  0.7818609E-02  0.8245363E-01
       -2   -1    0    0    0  501  0.00000000000E+00  0.00000000000E+00  0.13285333466E+04  0.13285333466E+04  0.25500000920E-02 0.  1.
        2   -1    0    0  501    0  0.00000000000E+00  0.00000000000E+00 -0.16871585806E+04  0.16871585806E+04  0.25500000920E-02 0. -1.
    10030    2    1    2    0    0  0.00000000000E+00  0.00000000000E+00 -0.35862523407E+03  0.30156919272E+04  0.29942921937E+04 0.  0.
        5    1    3    3  502    0 -0.14726692497E+04  0.18338402124E+03  0.19684733211E+02  0.14841812548E+04  0.46999998093E+01 0.  1.
       -5    1    3    3    0  502  0.14726692497E+04 -0.18338402124E+03 -0.37830996728E+03  0.15315106724E+04  0.46999998093E+01 0. -1.
</event>
<event>
 5   0  0.1029922E-05  0.2363600E+04  0.7818609E-02  0.8453258E-01
        2   -1    0    0  501    0  0.00000000000E+00  0.00000000000E+00  0.12456577027E+04  0.12456577027E+04  0.25500000920E-02 0. -1.
       -2   -1    0    0    0  501  0.00000000000E+00  0.00000000000E+00 -0.11212161445E+04  0.11212161445E+04  0.25500000920E-02 0.  1.
    10030    2    1    2    0    0  0.00000000000E+00  0.00000000000E+00  0.12444155822E+03  0.23668738472E+04  0.23636002427E+04 0.  0.
        1    1    3    3  502    0 -0.28348986164E+03  0.88112069067E+03  0.79802506834E+03  0.12221228183E+04  0.50400001928E-02 0.  1.
       -1    1    3    3    0  502  0.28348986164E+03 -0.88112069067E+03 -0.67358351012E+03  0.11447510290E+04  0.50400001928E-02 0. -1.
</event>
<event>
 5   0  0.3896630E-06  0.2994767E+04  0.7818609E-02  0.8245227E-01
        1   -1    0    0  501    0  0.00000000000E+00  0.00000000000E+00  0.21212951354E+04  0.21212951354E+04  0.50400001928E-02 0.  1.
       -1   -1    0    0    0  501  0.00000000000E+00  0.00000000000E+00 -0.10569756956E+04  0.10569756956E+04  0.50400001928E-02 0. -1.
    10030    2    1    2    0    0  0.00000000000E+00  0.00000000000E+00  0.10643194398E+04  0.31782708310E+04  0.29947670369E+04 0.  0.
        5    1    3    3  502    0  0.82416886862E+02  0.99009510328E+03  0.17210975412E+04  0.19872794703E+04  0.46999998093E+01 0.  1.
       -5    1    3    3    0  502 -0.82416886862E+02 -0.99009510328E+03 -0.65677810139E+03  0.11909913607E+04  0.46999998093E+01 0. -1.
</event>
<event>
 5   0  0.3592331E-06  0.3012855E+04  0.7818609E-02  0.8240070E-01
        1   -1    0    0  501    0  0.00000000000E+00  0.00000000000E+00  0.15947238971E+04  0.15947238971E+04  0.50400001928E-02 0.  1.
       -1   -1    0    0    0  501  0.00000000000E+00  0.00000000000E+00 -0.14230199618E+04  0.14230199618E+04  0.50400001928E-02 0. -1.
    10030    2    1    2    0    0  0.00000000000E+00  0.00000000000E+00  0.17170393527E+03  0.30177438588E+04  0.30128550838E+04 0.  0.
        3    1    3    3  502    0 -0.72182727480E+03 -0.12578000871E+04  0.49422452989E+03  0.15321075582E+04  0.10100000352E+00 0. -1.
       -3    1    3    3    0  502  0.72182727480E+03  0.12578000871E+04 -0.32252059461E+03  0.14856363007E+04  0.10100000352E+00 0.  1.
</event>
<event>
 5   0  0.3852126E-06  0.2753453E+04  0.7818609E-02  0.8317867E-01
        1   -1    0    0  501    0  0.00000000000E+00  0.00000000000E+00  0.20188651453E+04  0.20188651453E+04  0.50400001928E-02 0. -1.
       -1   -1    0    0    0  501  0.00000000000E+00  0.00000000000E+00 -0.93883261205E+03  0.93883261206E+03  0.50400001928E-02 0.  1.
    10030    2    1    2    0    0  0.00000000000E+00  0.00000000000E+00  0.10800325332E+04  0.29576977574E+04  0.27534534227E+04 0.  0.
        1    1    3    3  502    0 -0.75337836642E+02 -0.65568138784E+03  0.18378532446E+04  0.19527668629E+04  0.50400001928E-02 0.  1.
       -1    1    3    3    0  502  0.75337836642E+02  0.65568138784E+03 -0.75782071139E+03  0.10049308945E+04  0.50400001928E-02 0. -1.
</event>
<event>
 5   0  0.3896630E-06  0.3015806E+04  0.7818609E-02  0.8239232E-01
        1   -1    0    0  501    0  0.00000000000E+00  0.00000000000E+00  0.24407535887E+04  0.24407535887E+04  0.50400001928E-02 0.  1.
       -1   -1    0    0    0  501  0.00000000000E+00  0.00000000000E+00 -0.93158583182E+03  0.93158583183E+03  0.50400001928E-02 0. -1.
    10030    2    1    2    0    0  0.00000000000E+00  0.00000000000E+00  0.15091677569E+04  0.33723394205E+04  0.30158060032E+04 0.  0.
        5    1    3    3  502    0 -0.11012046673E+04 -0.10294800626E+04  0.79440973847E+03  0.17039923243E+04  0.46999998093E+01 0.  1.
       -5    1    3    3    0  502  0.11012046673E+04  0.10294800626E+04  0.71475801841E+03  0.16683470962E+04  0.46999998093E+01 0. -1.
</event>
<event>
 5   0  0.9647945E-06  0.2289437E+04  0.7818609E-02  0.8482098E-01
       -2   -1    0    0    0  501  0.00000000000E+00  0.00000000000E+00  0.97655885123E+03  0.97655885124E+03  0.25500000920E-02 0. -1.
        2   -1    0    0  501    0  0.00000000000E+00  0.00000000000E+00 -0.13418342083E+04  0.13418342083E+04  0.25500000920E-02 0.  1.
    10030    2    1    2    0    0  0.00000000000E+00  0.00000000000E+00 -0.36527535709E+03  0.23183930596E+04  0.22894366757E+04 0.  0.
        2    1    3    3  502    0 -0.78879076867E+03  0.41156296307E+03  0.54675359069E+03  0.10442769931E+04  0.25500000920E-02 0. -1.
       -2    1    3    3    0  502  0.78879076867E+03 -0.41156296307E+03 -0.91202894778E+03  0.12741160665E+04  0.25500000920E-02 0.  1.
</event>
<event>
 5   0  0.3725232E-06  0.3043454E+04  0.7818609E-02  0.8231430E-01
       -1   -1    0    0    0  501  0.00000000000E+00  0.00000000000E+00  0.13603225012E+04  0.13603225012E+04  0.50400001928E-02 0. -1.
        1   -1    0    0  501    0  0.00000000000E+00  0.00000000000E+00 -0.17022827156E+04  0.17022827156E+04  0.50400001928E-02 0.  1.
    10030    2    1    2    0    0  0.00000000000E+00  0.00000000000E+00 -0.34196021433E+03  0.30626052168E+04  0.30434542753E+04 0.  0.
        2    1    3    3  502    0 -0.64009584570E+03 -0.68009787700E+03 -0.13799548730E+04  0.16662926710E+04  0.25500000920E-02 0.  1.
       -2    1    3    3    0  502  0.64009584570E+03  0.68009787700E+03  0.10379946587E+04  0.13963125458E+04  0.25500000920E-02 0. -1.
</event>
<event>
 5   0  0.1089569E-05  0.3010470E+04  0.7818609E-02  0.8240747E-01
       -2   -1    0    0    0  501  0.00000000000E+00  0.00000000000E+00  0.13594262603E+04  0.13594262603E+04  0.25500000920E-02 0.  1.
        2   -1    0    0  501    0  0.00000000000E+00  0.00000000000E+00 -0.16666832989E+04  0.16666832989E+04  0.25500000920E-02 0. -1.
    10030    2    1    2    0    0  0.00000000000E+00  0.00000000000E+00 -0.30725703854E+03  0.30261095592E+04  0.30104704245E+04 0.  0.
        5    1    3    3  502    0 -0.20297762171E+03 -0.13659933404E+04 -0.75554913215E+03  0.15741709888E+04  0.46999998093E+01 0. -1.
       -5    1    3    3    0  502  0.20297762171E+03  0.13659933404E+04  0.44829209361E+03  0.14519385704E+04  0.46999998093E+01 0.  1.
</event>
<event>
 5   0  0.3592331E-06  0.2914196E+04  0.7818609E-02  0.8268666E-01
        1   -1    0    0  501    0  0.00000000000E+00  0.00000000000E+00  0.16042519864E+04  0.16042519864E+04  0.50400001928E-02 0.  1.
       -1   -1    0    0    0  501  0.00000000000E+00  0.00000000000E+00 -0.13234417729E+04  0.13234417729E+04  0.50400001928E-02 0. -1.
    10030    2    1    2    0    0  0.00000000000E+00  0.00000000000E+00  0.28081021346E+03  0.29276937593E+04  0.29141956647E+04 0.  0.
        3    1    3    3  502    0  0.48389400310E+03  0.23308595788E+02 -0.12401642644E+04  0.13314293484E+04  0.10100000352E+00 0. -1.
       -3    1    3    3    0  502 -0.48389400310E+03 -0.23308595788E+02  0.15209744779E+04  0.15962644109E+04  0.10100000352E+00 0.  1.
</event>
<event>
 5   0  0.1028450E-05  0.3124634E+04  0.7818609E-02  0.8209010E-01
       -2   -1    0    0    0  501  0.00000000000E+00  0.00000000000E+00  0.93280045112E+03  0.93280045112E+03  0.25500000920E-02 0. -1.
        2   -1    0    0  501    0  0.00000000000E+00  0.00000000000E+00 -0.26166740297E+04  0.26166740297E+04  0.25500000920E-02 0.  1.
    10030    2    1    2    0    0  0.00000000000E+00  0.00000000000E+00 -0.16838735785E+04  0.35494744808E+04  0.31246341964E+04 0.  0.
        3    1    3    3  502    0 -0.92215062055E+03  0.10024027517E+04 -0.17112740099E+04  0.21871515244E+04  0.10100000352E+00 0.  1.
       -3    1    3    3    0  502  0.92215062055E+03 -0.10024027517E+04  0.27400431388E+02  0.13623229564E+04  0.10100000352E+00 0. -1.
</event>
<event>
 5   0  0.1089569E-05  0.2972018E+04  0.7818609E-02  0.8251767E-01
        2   -1    0    0  501    0  0.00000000000E+00  0.00000000000E+00  0.23958146408E+04  0.23958146408E+04  0.25500000920E-02 0.  1.
       -2   -1    0    0    0  501  0.00000000000E+00  0.00000000000E+00 -0.92170018035E+03  0.92170018035E+03  0.25500000920E-02 0. -1.
    10030    2    1    2    0    0  0.00000000000E+00  0.00000000000E+00  0.14741144605E+04  0.33175148212E+04  0.29720180259E+04 0.  0.
        5    1    3    3  502    0 -0.10427993142E+04 -0.86594874829E+03  0.14168736284E+04  0.19608290627E+04  0.46999998093E+01 0.  1.
       -5    1    3    3    0  502  0.10427993142E+04  0.86594874829E+03  0.57240832135E+02  0.13566857585E+04  0.46999998093E+01 0. -1.
</event>
<event>
 5   0  0.3313750E-06  0.3003381E+04  0.7818609E-02  0.8242766E-01
        4   -1    0    0  501    0  0.00000000000E+00  0.00000000000E+00  0.14270474080E+04  0.14270479731E+04  0.12699999809E+01 0.  1.
       -4   -1    0    0    0  501  0.00000000000E+00  0.00000000000E+00 -0.15802366140E+04  0.15802371243E+04  0.12699999809E+01 0. -1.
    10030    2    1    2    0    0  0.00000000000E+00  0.00000000000E+00 -0.15318920600E+03  0.30072850974E+04  0.30033808823E+04 0.  0.
        3    1    3    3  502    0 -0.96054089977E+02 -0.18533085353E+03  0.14124499329E+04  0.14277915593E+04  0.10100000352E+00 0.  1.
       -3    1    3    3    0  502  0.96054089977E+02  0.18533085353E+03 -0.15656391389E+04  0.15794935381E+04  0.10100000352E+00 0. -1.
</event>
<event>
 5   0  0.1028450E-05  0.3012596E+04  0.7818609E-02  0.8240143E-01
       -2   -1    0    0    0  501  0.00000000000E+00  0.00000000000E+00  0.13639628270E+04  0.13639628270E+04  0.25500000920E-02 0. -1.
        2   -1    0    0  501    0  0.00000000000E+00  0.00000000000E+00 -0.16634869167E+04  0.16634869167E+04  0.25500000920E-02 0.  1.
    10030    2    1    2    0    0  0.00000000000E+00  0.00000000000E+00 -0.29952408973E+03  0.30274497437E+04  0.30125964334E+04 0.  0.
        3    1    3    3  502    0  0.28022227980E+02  0.23765207454E+03  0.13447389304E+04  0.13658647645E+04  0.10100000352E+00 0. -1.
       -3    1    3    3    0  502 -0.28022227980E+02 -0.23765207454E+03 -0.16442630201E+04  0.16615849793E+04  0.10100000352E+00 0.  1.
</event>
<event>
 5   0  0.3852126E-06  0.2996892E+04  0.7818609E-02  0.8244619E-01
       -1   -1    0    0    0  501  0.00000000000E+00  0.00000000000E+00  0.17670204660E+04  0.17670204660E+04  0.50400001928E-02 0. -1.
        1   -1    0    0  501    0  0.00000000000E+00  0.00000000000E+00 -0.12706933161E+04  0.12706933161E+04  0.50400001928E-02 0.  1.
    10030    2    1    2    0    0  0.00000000000E+00  0.00000000000E+00  0.49632714990E+03  0.30377137822E+04  0.29968924543E+04 0.  0.
        1    1    3    3  502    0  0.11539184631E+04 -0.74090755399E+03  0.86043548999E+03  0.16188950107E+04  0.50400001928E-02 0. -1.
       -1    1    3    3    0  502 -0.11539184631E+04  0.74090755399E+03 -0.36410834009E+03  0.14188187715E+04  0.50400001928E-02 0.  1.
</event>
<event>
 5   0  0.3636718E-06  0.2811538E+04  0.7818609E-02  0.8299695E-01
        1   -1    0    0  501    0  0.00000000000E+00  0.00000000000E+00  0.25987079294E+04  0.25987079294E+04  0.50400001928E-02 0. -1.
       -1   -1    0    0    0  501  0.00000000000E+00  0.00000000000E+00 -0.76044968133E+03  0.76044968135E+03  0.50400001928E-02 0.  1.
    10030    2    1    2    0    0  0.00000000000E+00  0.00000000000E+00  0.18382582481E+04  0.33591576108E+04  0.28115380964E+04 0.  0.
        4    1    3    3  502    0  0.67565417685E+03 -0.80125023437E+03  0.20384462503E+04  0.22921115228E+04  0.12699999809E+01 0. -1.
       -4    1    3    3    0  502 -0.67565417685E+03  0.80125023437E+03 -0.20018800218E+03  0.10670460880E+04  0.12699999809E+01 0.  1.
</event>
<event>
 5   0  0.3896630E-06  0.3344627E+04  0.7818609E-02  0.8151632E-01
       -1   -1    0    0    0  501  0.00000000000E+00  0.00000000000E+00  0.11530519704E+04  0.11530519705E+04  0.50400001928E-02 0. -1.
        1   -1    0    0  501    0  0.00000000000E+00  0.00000000000E+00 -0.24254180243E+04  0.24254180243E+04  0.50400001928E-02 0.  1.
    10030    2    1    2    0    0  0.00000000000E+00  0.00000000000E+00 -0.12723660539E+04  0.35784699948E+04  0.33446273527E+04 0.  0.
        5    1    3    3  502    0 -0.51118229512E+03 -0.14112440403E+04  0.15272587738E+03  0.15087293872E+04  0.46999998093E+01 0. -1.
       -5    1    3    3    0  502  0.51118229512E+03  0.14112440403E+04 -0.14250919313E+04  0.20697406076E+04  0.46999998093E+01 0.  1.
</event>
<event>
 5   0  0.9647945E-06  0.3013658E+04  0.7818609E-02  0.8239841E-01
       -2   -1    0    0    0  501  0.00000000000E+00  0.00000000000E+00  0.16603336917E+04  0.16603336917E+04  0.25500000920E-02 0. -1.
        2   -1    0    0  501    0  0.00000000000E+00  0.00000000000E+00 -0.13675165642E+04  0.13675165642E+04  0.25500000920E-02 0.  1.
    10030    2    1    2    0    0  0.00000000000E+00  0.00000000000E+00  0.29281712749E+03  0.30278502559E+04  0.30136581263E+04 0.  0.
        2    1    3    3  502    0  0.66659648844E+02 -0.11400091391E+04 -0.84131287703E+03  0.14184046330E+04  0.25500000920E-02 0.  1.
       -2    1    3    3    0  502 -0.66659648844E+02  0.11400091391E+04  0.11341300045E+04  0.16094456229E+04  0.25500000920E-02 0. -1.
</event>
<event>
 5   0  0.3592331E-06  0.3020967E+04  0.7818609E-02  0.8237769E-01
       -1   -1    0    0    0  501  0.00000000000E+00  0.00000000000E+00  0.14431377165E+04  0.14431377165E+04  0.50400001928E-02 0. -1.
        1   -1    0    0  501    0  0.00000000000E+00  0.00000000000E+00 -0.15809721309E+04  0.15809721310E+04  0.50400001928E-02 0.  1.
    10030    2    1    2    0    0  0.00000000000E+00  0.00000000000E+00 -0.13783441447E+03  0.30241098474E+04  0.30209670709E+04 0.  0.
        3    1    3    3  502    0  0.16796017982E+03 -0.57568303508E+02  0.14326552102E+04  0.14436154935E+04  0.10100000352E+00 0. -1.
       -3    1    3    3    0  502 -0.16796017982E+03  0.57568303508E+02 -0.15704896246E+04  0.15804943540E+04  0.10100000352E+00 0.  1.
</event>
<event>
 5   0  0.3636718E-06  0.2945432E+04  0.7818609E-02  0.8259487E-01
       -1   -1    0    0    0  501  0.00000000000E+00  0.00000000000E+00  0.20027987544E+04  0.20027987544E+04  0.50400001928E-02 0.  1.
        1   -1    0    0  501    0  0.00000000000E+00  0.00000000000E+00 -0.10829309172E+04  0.10829309172E+04  0.50400001928E-02 0. -1.
    10030    2    1    2    0    0  0.00000000000E+00  0.00000000000E+00  0.91986783721E+03  0.30857296716E+04  0.29454321870E+04 0.  0.
        4    1    3    3  502    0 -0.13908656570E+04  0.46289147365E+03  0.31134994626E+03  0.14985713844E+04  0.12699999809E+01 0.  1.
       -4    1    3    3    0  502  0.13908656570E+04 -0.46289147365E+03  0.60851789095E+03  0.15871582872E+04  0.12699999809E+01 0. -1.
</event>
<event>
 5   0  0.1057036E-05  0.2269513E+04  0.7818609E-02  0.8490040E-01
       -2   -1    0    0    0  501  0.00000000000E+00  0.00000000000E+00  0.58653372177E+03  0.58653372178E+03  0.25500000920E-02 0.  1.
        2   -1    0    0  501    0  0.00000000000E+00  0.00000000000E+00 -0.21953936507E+04  0.21953936507E+04  0.25500000920E-02 0. -1.
    10030    2    1    2    0    0  0.00000000000E+00  0.00000000000E+00 -0.16088599289E+04  0.27819273725E+04  0.22695130832E+04 0.  0.
        4    1    3    3  502    0 -0.43727255987E+03 -0.94761152931E+03 -0.25830898495E+03  0.10751279211E+04  0.12699999809E+01 0.  1.
       -4    1    3    3    0  502  0.43727255987E+03  0.94761152931E+03 -0.13505509440E+04  0.17067994514E+04  0.12699999809E+01 0. -1.
</event>
<event>
 5   0  0.3636718E-06  0.2898977E+04  0.7818609E-02  0.8273182E-01
        1   -1    0    0  501    0  0.00000000000E+00  0.00000000000E+00  0.13026821251E+04  0.13026821251E+04  0.50400001928E-02 0.  1.
       -1   -1    0    0    0  501  0.00000000000E+00  0.00000000000E+00 -0.16128392354E+04  0.16128392354E+04  0.50400001928E-02 0. -1.
    10030    2    1    2    0    0  0.00000000000E+00  0.00000000000E+00 -0.31015711032E+03  0.29155213605E+04  0.28989769524E+04 0.  0.
        4    1    3    3  502    0 -0.13334089775E+04  0.20498655464E+03 -0.68821353097E+03  0.15144763009E+04  0.12699999809E+01 0. -1.
       -4    1    3    3    0  502  0.13334089775E+04 -0.20498655464E+03  0.37805642065E+03  0.14010450596E+04  0.12699999809E+01 0.  1.
</event>
<event>
 5   0  0.3636718E-06  0.2954264E+04  0.7818609E-02  0.8256913E-01
        1   -1    0    0  501    0  0.00000000000E+00  0.00000000000E+00  0.20369168985E+04  0.20369168985E+04  0.50400001928E-02 0. -1.
       -1   -1    0    0    0  501  0.00000000000E+00  0.00000000000E+00 -0.10711867212E+04  0.10711867212E+04  0.50400001928E-02 0.  1.
    10030    2    1    2    0    0  0.00000000000E+00  0.00000000000E+00  0.96573017731E+03  0.31081036197E+04  0.29542635860E+04 0.  0.
        4    1    3    3  502    0 -0.14388451178E+04  0.33411204787E+03  0.48628836117E+03  0.15551154673E+04  0.12699999809E+01 0.  1.
       -4    1    3    3    0  502  0.14388451178E+04 -0.33411204787E+03  0.47944181614E+03  0.15529881524E+04  0.12699999809E+01 0. -1.
</event>
<event>
 5   0  0.3852126E-06  0.2051804E+04  0.7818609E-02  0.8582776E-01
        1   -1    0    0  501    0  0.00000000000E+00  0.00000000000E+00  0.10968433678E+04  0.10968433678E+04  0.50400001928E-02 0. -1.
       -1   -1    0    0    0  501  0.00000000000E+00  0.00000000000E+00 -0.95954902906E+03  0.95954902907E+03  0.50400001928E-02 0.  1.
    10030    2    1    2    0    0  0.00000000000E+00  0.00000000000E+00  0.13729433873E+03  0.20563923969E+04  0.20518040731E+04 0.  0.
        1    1    3    3  502    0 -0.24627289983E+03 -0.51927913814E+03 -0.78306131461E+03  0.97133217128E+03  0.50400001928E-02 0.  1.
       -1    1    3    3    0  502  0.24627289983E+03  0.51927913814E+03  0.92035565334E+03  0.10850602256E+04  0.50400001928E-02 0. -1.
</event>
<event>
 5   0  0.1029922E-05  0.3063912E+04  0.7818609E-02  0.8225712E-01
       -2   -1    0    0    0  501  0.00000000000E+00  0.00000000000E+00  0.21727598594E+04  0.21727598594E+04  0.25500000920E-02 0. -1.
        2   -1    0    0  501    0  0.00000000000E+00  0.00000000000E+00 -0.10801422881E+04  0.10801422881E+04  0.25500000920E-02 0.  1.
    10030    2    1    2    0    0  0.00000000000E+00  0.00000000000E+00  0.10926175712E+04  0.32529021475E+04  0.30639124048E+04 0.  0.
        1    1    3    3  502    0 -0.13531243445E+04 -0.38129656989E+03 -0.99973579712E+02  0.14093712366E+04  0.50400001928E-02 0.  1.
       -1    1    3    3    0  502  0.13531243445E+04  0.38129656989E+03  0.11925911510E+04  0.18435309109E+04  0.50400001928E-02 0. -1.
</event>
<event>
 5   0  0.3592331E-06  0.3000898E+04  0.7818609E-02  0.8243475E-01
       -1   -1    0    0    0  501  0.00000000000E+00  0.00000000000E+00  0.30273070910E+04  0.30273070910E+04  0.50400001928E-02 0. -1.
        1   -1    0    0  501    0  0.00000000000E+00  0.00000000000E+00 -0.74367970029E+03  0.74367970031E+03  0.50400001928E-02 0.  1.
    10030    2    1    2    0    0  0.00000000000E+00  0.00000000000E+00  0.22836273907E+04  0.37709867913E+04  0.30008977524E+04 0.  0.
        3    1    3    3  502    0  0.14152443020E+03  0.72831981716E+03 -0.49703592682E+03  0.89304179251E+03  0.10100000352E+00 0.  1.
       -3    1    3    3    0  502 -0.14152443020E+03 -0.72831981716E+03  0.27806633175E+04  0.28779449988E+04  0.10100000352E+00 0. -1.
</event>
<event>
 5   0  0.9647945E-06  0.3020804E+04  0.7818609E-02  0.8237815E-01
       -2   -1    0    0    0  501  0.00000000000E+00  0.00000000000E+00  0.17073351802E+04  0.17073351802E+04  0.25500000920E-02 0.  1.
        2   -1    0    0  501    0  0.00000000000E+00  0.00000000000E+00 -0.13361843283E+04  0.13361843283E+04  0.25500000920E-02 0. -1.
    10030    2    1    2    0    0  0.00000000000E+00  0.00000000000E+00  0.37115085195E+03  0.30435195085E+04  0.30208042048E+04 0.  0.
        2    1    3    3  502    0 -0.80122776038E+03  0.70003944386E+03  0.12656878517E+04  0.16534772103E+04  0.25500000920E-02 0.  1.
       -2    1    3    3    0  502  0.80122776038E+03 -0.70003944386E+03 -0.89453699977E+03  0.13900422983E+04  0.25500000920E-02 0. -1.
</event>
<event>
 5   0  0.1028450E-05  0.2849624E+04  0.7818609E-02  0.8288025E-01
        2   -1    0    0  501    0  0.00000000000E+00  0.00000000000E+00  0.10122355018E+04  0.10122355018E+04  0.25500000920E-02 0.  1.
       -2   -1    0    0    0  501  0.00000000000E+00  0.00000000000E+00 -0.20055507198E+04  0.20055507198E+04  0.25500000920E-02 0. -1.
    10030    2    1    2    0    0  0.00000000000E+00  0.00000000000E+00 -0.99331521805E+03  0.30177862216E+04  0.28496242835E+04 0.  0.
        3    1    3    3  502    0  0.77117026397E+03 -0.11059904656E+04 -0.88551039853E+01  0.13483311571E+04  0.10100000352E+00 0.  1.
       -3    1    3    3    0  502 -0.77117026397E+03  0.11059904656E+04 -0.98446011407E+03  0.16694550645E+04  0.10100000352E+00 0. -1.
</event>
<event>
 5   0  0.3896630E-06  0.2995791E+04  0.7818609E-02  0.8244934E-01
       -1   -1    0    0    0  501  0.00000000000E+00  0.00000000000E+00  0.14199259928E+04  0.14199259928E+04  0.50400001928E-02 0.  1.
        1   -1    0    0  501    0  0.00000000000E+00  0.00000000000E+00 -0.15801465208E+04  0.15801465208E+04  0.50400001928E-02 0. -1.
    10030    2    1    2    0    0  0.00000000000E+00  0.00000000000E+00 -0.16022052800E+03  0.30000725137E+04  0.29957911258E+04 0.  0.
        5    1    3    3  502    0 -0.11300171118E+04 -0.48553481383E+03  0.77608898105E+03  0.14543104637E+04  0.46999998093E+01 0.  1.
       -5    1    3    3    0  502  0.11300171118E+04  0.48553481383E+03 -0.93630950906E+03  0.15457620500E+04  0.46999998093E+01 0. -1.
</event>
<event>
 5   0  0.1057036E-05  0.2880167E+04  0.7818609E-02  0.8278803E-01
        2   -1    0    0  501    0  0.00000000000E+00  0.00000000000E+00  0.23514710922E+04  0.23514710922E+04  0.25500000920E-02 0.  1.
       -2   -1    0    0    0  501  0.00000000000E+00  0.00000000000E+00 -0.88193349777E+03  0.88193349778E+03  0.25500000920E-02 0. -1.
    10030    2    1    2    0    0  0.00000000000E+00  0.00000000000E+00  0.14695375944E+04  0.32334045899E+04  0.28801674432E+04 0.  0.
        4    1    3    3  502    0  0.72229264831E+03 -0.29589562861E+02 -0.66347928629E+03  0.98121791069E+03  0.12699999809E+01 0. -1.
       -4    1    3    3    0  502 -0.72229264831E+03  0.29589562861E+02  0.21330168807E+04  0.22521866792E+04  0.12699999809E+01 0.  1.
</event>
<event>
 5   0  0.1057036E-05  0.2946392E+04  0.7818609E-02  0.8259207E-01
       -2   -1    0    0    0  501  0.00000000000E+00  0.00000000000E+00  0.89318756849E+03  0.89318756849E+03  0.25500000920E-02 0. -1.
        2   -1    0    0  501    0  0.00000000000E+00  0.00000000000E+00 -0.24298441767E+04  0.24298441767E+04  0.25500000920E-02 0.  1.
    10030    2    1    2    0    0  0.00000000000E+00  0.00000000000E+00 -0.15366566082E+04  0.33230317452E+04  0.29463921070E+04 0.  0.
        4    1    3    3  502    0 -0.56775572196E+03 -0.12471215943E+04 -0.15820815356E+03  0.13793803912E+04  0.12699999809E+01 0.  1.
       -4    1    3    3    0  502  0.56775572196E+03  0.12471215943E+04 -0.13784484546E+04  0.19436513540E+04  0.12699999809E+01 0. -1.
</event>
<event>
 5   0  0.9647945E-06  0.3047591E+04  0.7818609E-02  0.8230270E-01
       -2   -1    0    0    0  501  0.00000000000E+00  0.00000000000E+00  0.19181003486E+04  0.19181003486E+04  0.25500000920E-02 0. -1.
        2   -1    0    0  501    0  0.00000000000E+00  0.00000000000E+00 -0.12105477580E+04  0.12105477580E+04  0.25500000920E-02 0.  1.
    10030    2    1    2    0    0  0.00000000000E+00  0.00000000000E+00  0.70755259058E+03  0.31286481066E+04  0.30475905740E+04 0.  0.
        2    1    3    3  502    0 -0.13199119778E+04  0.71151697249E+03  0.63214897356E+03  0.16272788194E+04  0.25500000920E-02 0. -1.
       -2    1    3    3    0  502  0.13199119778E+04 -0.71151697249E+03  0.75403617026E+02  0.15013692873E+04  0.25500000920E-02 0.  1.
</event>
<event>
 5   0  0.3896630E-06  0.3031712E+04  0.7818609E-02  0.8234733E-01
       -1   -1    0    0    0  501  0.00000000000E+00  0.00000000000E+00  0.13650402456E+04  0.13650402456E+04  0.50400001928E-02 0. -1.
        1   -1    0    0  501    0  0.00000000000E+00  0.00000000000E+00 -0.16833345731E+04  0.16833345731E+04  0.50400001928E-02 0.  1.
    10030    2    1    2    0    0  0.00000000000E+00  0.00000000000E+00 -0.31829432750E+03  0.30483748188E+04  0.30317120175E+04 0.  0.
        5    1    3    3  502    0  0.12918046552E+04  0.76287734362E+03  0.58969594399E+02  0.15014128718E+04  0.46999998093E+01 0.  1.
       -5    1    3    3    0  502 -0.12918046552E+04 -0.76287734362E+03 -0.37726392190E+03  0.15469619470E+04  0.46999998093E+01 0. -1.
</event>
<event>
 5   0  0.1028450E-05  0.3000420E+04  0.7818609E-02  0.8243611E-01
        2   -1    0    0  501    0  0.00000000000E+00  0.00000000000E+00  0.10750527698E+04  0.10750527698E+04  0.25500000920E-02 0.  1.
       -2   -1    0    0    0  501  0.00000000000E+00  0.00000000000E+00 -0.20935060973E+04  0.20935060973E+04  0.25500000920E-02 0. -1.
    10030    2    1    2    0    0  0.00000000000E+00  0.00000000000E+00 -0.10184533275E+04  0.31685588671E+04  0.30004196563E+04 0.  0.
        3    1    3    3  502    0 -0.69992458242E+02 -0.68816470641E+03 -0.19150515664E+04  0.20361463895E+04  0.10100000352E+00 0. -1.
       -3    1    3    3    0  502  0.69992458242E+02  0.68816470641E+03  0.89659823886E+03  0.11324124776E+04  0.10100000352E+00 0.  1.
</event>
<event>
 5   0  0.3592331E-06  0.2992937E+04  0.7818609E-02  0.8245751E-01
        1   -1    0    0  501    0  0.00000000000E+00  0.00000000000E+00  0.13445111877E+04  0.13445111877E+04  0.50400001928E-02 0.  1.
       -1   -1    0    0    0  501  0.00000000000E+00  0.00000000000E+00 -0.16656004821E+04  0.16656004821E+04  0.50400001928E-02 0. -1.
    10030    2    1    2    0    0  0.00000000000E+00  0.00000000000E+00 -0.32108929444E+03  0.30101116698E+04  0.29929373414E+04 0.  0.
        3    1    3    3  502    0 -0.11990131256E+04 -0.22973912888E+03 -0.10309621402E+04  0.15979034663E+04  0.10100000352E+00 0. -1.
       -3    1    3    3    0  502  0.11990131256E+04  0.22973912888E+03  0.70987284579E+03  0.14122082035E+04  0.10100000352E+00 0.  1.
</event>
<event>
 5   0  0.1057036E-05  0.2874010E+04  0.7818609E-02  0.8280653E-01
       -2   -1    0    0    0  501  0.00000000000E+00  0.00000000000E+00  0.16344884488E+04  0.16344884488E+04  0.25500000920E-02 0.  1.
        2   -1    0    0  501    0  0.00000000000E+00  0.00000000000E+00 -0.12633818143E+04  0.12633818143E+04  0.25500000920E-02 0. -1.
    10030    2    1    2    0    0  0.00000000000E+00  0.00000000000E+00  0.37110663457E+03  0.28978702631E+04  0.28740097299E+04 0.  0.
        4    1    3    3  502    0 -0.59563265628E+03 -0.13418443968E+02  0.15040883913E+04  0.16177891759E+04  0.12699999809E+01 0.  1.
       -4    1    3    3    0  502  0.59563265628E+03  0.13418443968E+02 -0.11329817567E+04  0.12800810872E+04  0.12699999809E+01 0. -1.
</event>
<event>
 5   0  0.3636718E-06  0.2952456E+04  0.7818609E-02  0.8257439E-01
       -1   -1    0    0    0  501  0.00000000000E+00  0.00000000000E+00  0.10306489691E+04  0.10306489691E+04  0.50400001928E-02 0.  1.
        1   -1    0    0  501    0  0.00000000000E+00  0.00000000000E+00 -0.21144442638E+04  0.21144442639E+04  0.50400001928E-02 0. -1.
    10030    2    1    2    0    0  0.00000000000E+00  0.00000000000E+00 -0.10837952948E+04  0.31450932329E+04  0.29524564693E+04 0.  0.
        4    1    3    3  502    0  0.13837505674E+03  0.98134887492E+03 -0.17073836405E+04  0.19741716692E+04  0.12699999809E+01 0. -1.
       -4    1    3    3    0  502 -0.13837505674E+03 -0.98134887492E+03  0.62358834572E+03  0.11709215637E+04  0.12699999809E+01 0.  1.
</event>
<event>
 5   0  0.3592331E-06  0.2620555E+04  0.7818609E-02  0.8361253E-01
       -1   -1    0    0    0  501  0.00000000000E+00  0.00000000000E+00  0.98605163181E+03  0.98605163182E+03  0.50400001928E-02 0. -1.
        1   -1    0    0  501    0  0.00000000000E+00  0.00000000000E+00 -0.17411125156E+04  0.17411125157E+04  0.50400001928E-02 0.  1.
    10030    2    1    2    0    0  0.00000000000E+00  0.00000000000E+00 -0.75506088384E+03  0.27271641475E+04  0.26205547789E+04 0.  0.
        3    1    3    3  502    0 -0.31007204458E+03 -0.76229243771E+03 -0.14386139951E+04  0.16573607545E+04  0.10100000352E+00 0.  1.
       -3    1    3    3    0  502  0.31007204458E+03  0.76229243771E+03  0.68355311130E+03  0.10698033930E+04  0.10100000352E+00 0. -1.
</event>
<event>
 5   0  0.9647945E-06  0.2422042E+04  0.7818609E-02  0.8431297E-01
        2   -1    0    0  501    0  0.00000000000E+00  0.00000000000E+00  0.11623977807E+04  0.11623977807E+04  0.25500000920E-02 0. -1.
       -2   -1    0    0    0  501  0.00000000000E+00  0.00000000000E+00 -0.12616782764E+04  0.12616782764E+04  0.25500000920E-02 0.  1.
    10030    2    1    2    0    0  0.00000000000E+00  0.00000000000E+00 -0.99280495679E+02  0.24240760572E+04  0.24220421371E+04 0.  0.
        2    1    3    3  502    0 -0.74927080126E+03 -0.49232680755E+02  0.90128468949E+03  0.11730919325E+04  0.25500000920E-02 0. -1.
       -2    1    3    3    0  502  0.74927080126E+03  0.49232680755E+02 -0.10005651852E+04  0.12509841247E+04  0.25500000920E-02 0.  1.
</event>
<event>
 5   0  0.3592331E-06  0.2805038E+04  0.7818609E-02  0.8301706E-01
       -1   -1    0    0    0  501  0.00000000000E+00  0.00000000000E+00  0.11341821808E+04  0.11341821808E+04  0.50400001928E-02 0. -1.
        1   -1    0    0  501    0  0.00000000000E+00  0.00000000000E+00 -0.17343422527E+04  0.17343422527E+04  0.50400001928E-02 0.  1.
    10030    2    1    2    0    0  0.00000000000E+00  0.00000000000E+00 -0.60016007188E+03  0.28685244335E+04  0.28050383800E+04 0.  0.
        3    1    3    3  502    0  0.24213379693E+03 -0.53880637461E+03 -0.16009232987E+04  0.17064279954E+04  0.10100000352E+00 0.  1.
       -3    1    3    3    0  502 -0.24213379693E+03  0.53880637461E+03  0.10007632268E+04  0.11620964381E+04  0.10100000352E+00 0. -1.
</event>
<event>
 5   0  0.1057036E-05  0.3023986E+04  0.7818609E-02  0.8236914E-01
       -2   -1    0    0    0  501  0.00000000000E+00  0.00000000000E+00  0.18658744176E+04  0.18658744176E+04  0.25500000920E-02 0. -1.
        2   -1    0    0  501    0  0.00000000000E+00  0.00000000000E+00 -0.12252289022E+04  0.12252289022E+04  0.25500000920E-02 0.  1.
    10030    2    1    2    0    0  0.00000000000E+00  0.00000000000E+00  0.64064551535E+03  0.30911033198E+04  0.30239862859E+04 0.  0.
        4    1    3    3  502    0 -0.12723418257E+04  0.63221405654E+03 -0.20843299496E+03  0.14359645751E+04  0.12699999809E+01 0.  1.
       -4    1    3    3    0  502  0.12723418257E+04 -0.63221405654E+03  0.84907851031E+03  0.16551387447E+04  0.12699999809E+01 0. -1.
</event>
<event>
 5   0  0.1029922E-05  0.1934119E+04  0.7818609E-02  0.8638057E-01
        2   -1    0    0  501    0  0.00000000000E+00  0.00000000000E+00  0.10759089020E+04  0.10759089020E+04  0.25500000920E-02 0.  1.
       -2   -1    0    0    0  501  0.00000000000E+00  0.00000000000E+00 -0.86922272004E+03  0.86922272005E+03  0.25500000920E-02 0. -1.
    10030    2    1    2    0    0  0.00000000000E+00  0.00000000000E+00  0.20668618196E+03  0.19451316220E+04  0.19341193989E+04 0.  0.
        1    1    3    3  502    0  0.90071373856E+03 -0.29613348500E+03 -0.88067079527E+02  0.95222691114E+03  0.50400001928E-02 0. -1.
       -1    1    3    3    0  502 -0.90071373856E+03  0.29613348500E+03  0.29475326148E+03  0.99290471091E+03  0.50400001928E-02 0.  1.
</event>
<event>
 5   0  0.1028450E-05  0.2936290E+04  0.7818609E-02  0.8262161E-01
        2   -1    0    0  501    0  0.00000000000E+00  0.00000000000E+00  0.26838646534E+04  0.26838646534E+04  0.25500000920E-02 0.  1.
       -2   -1    0    0    0  501  0.00000000000E+00  0.00000000000E+00 -0.80311439938E+03  0.80311439939E+03  0.25500000920E-02 0. -1.
    10030    2    1    2    0    0  0.00000000000E+00  0.00000000000E+00  0.18807502541E+04  0.34869790528E+04  0.29362904142E+04 0.  0.
        3    1    3    3  502    0 -0.49247855723E+03 -0.76740505381E+03  0.23068293696E+04  0.24805054720E+04  0.10100000352E+00 0.  1.
       -3    1    3    3    0  502  0.49247855723E+03  0.76740505381E+03 -0.42607911557E+03  0.10064735808E+04  0.10100000352E+00 0. -1.
</event>
<event>
 5   0  0.1028450E-05  0.2993795E+04  0.7818609E-02  0.8245505E-01
       -2   -1    0    0    0  501  0.00000000000E+00  0.00000000000E+00  0.11509939844E+04  0.11509939844E+04  0.25500000920E-02 0.  1.
        2   -1    0    0  501    0  0.00000000000E+00  0.00000000000E+00 -0.19467533523E+04  0.19467533523E+04  0.25500000920E-02 0. -1.
    10030    2    1    2    0    0  0.00000000000E+00  0.00000000000E+00 -0.79575936789E+03  0.30977473367E+04  0.29937945137E+04 0.  0.
        3    1    3    3  502    0  0.72915062614E+03  0.65835043365E+03 -0.15665281432E+04  0.18490798692E+04  0.10100000352E+00 0.  1.
       -3    1    3    3    0  502 -0.72915062614E+03 -0.65835043365E+03  0.77076877533E+03  0.12486674675E+04  0.10100000352E+00 0. -1.
</event>
<event>
 5   0  0.1089569E-05  0.3035023E+04  0.7818609E-02  0.8233800E-01
        2   -1    0    0  501    0  0.00000000000E+00  0.00000000000E+00  0.18909781272E+04  0.18909781272E+04  0.25500000920E-02 0. -1.
       -2   -1    0    0    0  501  0.00000000000E+00  0.00000000000E+00 -0.12178038472E+04  0.12178038472E+04  0.25500000920E-02 0.  1.
    10030    2    1    2    0    0  0.00000000000E+00  0.00000000000E+00  0.67317428004E+03  0.31087819744E+04  0.30350225292E+04 0.  0.
        5    1    3    3  502    0 -0.29842465937E+03  0.36015225460E+03 -0.11421213330E+04  0.12341921055E+04  0.46999998093E+01 0.  1.
       -5    1    3    3    0  502  0.29842465937E+03 -0.36015225460E+03  0.18152956131E+04  0.18745898689E+04  0.46999998093E+01 0. -1.
</event>
<event>
 5   0  0.3592331E-06  0.2525664E+04  0.7818609E-02  0.8393899E-01
       -1   -1    0    0    0  501  0.00000000000E+00  0.00000000000E+00  0.86397132300E+03  0.86397132302E+03  0.50400001928E-02 0.  1.
        1   -1    0    0  501    0  0.00000000000E+00  0.00000000000E+00 -0.18458306916E+04  0.18458306916E+04  0.50400001928E-02 0. -1.
    10030    2    1    2    0    0  0.00000000000E+00  0.00000000000E+00 -0.98185936856E+03  0.27098020146E+04  0.25256640985E+04 0.  0.
        3    1    3    3  502    0 -0.11287363806E+04 -0.56419463679E+03 -0.54330873930E+03  0.13738798351E+04  0.10100000352E+00 0. -1.
       -3    1    3    3    0  502  0.11287363806E+04  0.56419463679E+03 -0.43855062926E+03  0.13359221795E+04  0.10100000352E+00 0.  1.
</event>
<event>
 5   0  0.3636718E-06  0.2987472E+04  0.7818609E-02  0.8247317E-01
        1   -1    0    0  501    0  0.00000000000E+00  0.00000000000E+00  0.26674423113E+04  0.26674423113E+04  0.50400001928E-02 0.  1.
       -1   -1    0    0    0  501  0.00000000000E+00  0.00000000000E+00 -0.83647444121E+03  0.83647444123E+03  0.50400001928E-02 0. -1.
    10030    2    1    2    0    0  0.00000000000E+00  0.00000000000E+00  0.18309678701E+04  0.35039167525E+04  0.29874720530E+04 0.  0.
        4    1    3    3  502    0 -0.14766651802E+04 -0.22421244061E+03  0.93993007755E+03  0.17647326813E+04  0.12699999809E+01 0.  1.
       -4    1    3    3    0  502  0.14766651802E+04  0.22421244061E+03  0.89103779252E+03  0.17391840712E+04  0.12699999809E+01 0. -1.
</event>
<event>
 5   0  0.1057036E-05  0.3148943E+04  0.7818609E-02  0.8202433E-01
       -2   -1    0    0    0  501  0.00000000000E+00  0.00000000000E+00  0.20818944983E+04  0.20818944983E+04  0.25500000920E-02 0. -1.
        2   -1    0    0  501    0  0.00000000000E+00  0.00000000000E+00 -0.11907234933E+04  0.11907234933E+04  0.25500000920E-02 0.  1.
    10030    2    1    2    0    0  0.00000000000E+00  0.00000000000E+00  0.89117100492E+03  0.32726179916E+04  0.31489431178E+04 0.  0.
        4    1    3    3  502    0 -0.10324750100E+04 -0.80416151483E+03  0.13553392886E+04  0.18840452723E+04  0.12699999809E+01 0. -1.
       -4    1    3    3    0  502  0.10324750100E+04  0.80416151483E+03 -0.46416828365E+03  0.13885727193E+04  0.12699999809E+01 0.  1.
</event>
<event>
 5   0  0.3592331E-06  0.2963369E+04  0.7818609E-02  0.8254269E-01
       -1   -1    0    0    0  501  0.00000000000E+00  0.00000000000E+00  0.11819653548E+04  0.11819653548E+04  0.50400001928E-02 0. -1.
        1   -1    0    0  501    0  0.00000000000E+00  0.00000000000E+00 -0.18574058789E+04  0.18574058789E+04  0.50400001928E-02 0.  1.
    10030    2    1    2    0    0  0.00000000000E+00  0.00000000000E+00 -0.67544052415E+03  0.30393712337E+04  0.29633692977E+04 0.  0.
        3    1    3    3  502    0  0.92639608249E+03 -0.87368443170E+03  0.43924058218E+03  0.13470213388E+04  0.10100000352E+00 0. -1.
       -3    1    3    3    0  502 -0.92639608249E+03  0.87368443170E+03 -0.11146811063E+04  0.16923498949E+04  0.10100000352E+00 0.  1.
</event>
<event>
 5   0  0.3636718E-06  0.2998389E+04  0.7818609E-02  0.8244191E-01
        1   -1    0    0  501    0  0.00000000000E+00  0.00000000000E+00  0.16685598232E+04  0.16685598232E+04  0.50400001928E-02 0.  1.
       -1   -1    0    0    0  501  0.00000000000E+00  0.00000000000E+00 -0.13470201890E+04  0.13470201890E+04  0.50400001928E-02 0. -1.
    10030    2    1    2    0    0  0.00000000000E+00  0.00000000000E+00  0.32153963420E+03  0.30155800122E+04  0.29983887463E+04 0.  0.
        4    1    3    3  502    0 -0.11354005010E+04 -0.97621782385E+03  0.86545469582E+02  0.14998757510E+04  0.12699999809E+01 0. -1.
       -4    1    3    3    0  502  0.11354005010E+04  0.97621782385E+03  0.23499416461E+03  0.15157042612E+04  0.12699999809E+01 0.  1.
</event>
<event>
 5   0  0.3896630E-06  0.2993736E+04  0.7818609E-02  0.8245522E-01
       -1   -1    0    0    0  501  0.00000000000E+00  0.00000000000E+00  0.17000646588E+04  0.17000646588E+04  0.50400001928E-02 0.  1.
        1   -1    0    0  501    0  0.00000000000E+00  0.00000000000E+00 -0.13179581228E+04  0.13179581228E+04  0.50400001928E-02 0. -1.
    10030    2    1    2    0    0  0.00000000000E+00  0.00000000000E+00  0.38210653607E+03  0.30180227816E+04  0.29937361449E+04 0.  0.
        5    1    3    3  502    0  0.83380646156E+03 -0.82699762121E+03  0.11267172473E+04  0.16274741553E+04  0.46999998093E+01 0.  1.
       -5    1    3    3    0  502 -0.83380646156E+03  0.82699762121E+03 -0.74461071122E+03  0.13905486263E+04  0.46999998093E+01 0. -1.
</event>
<event>
 5   0  0.3592331E-06  0.2970683E+04  0.7818609E-02  0.8252152E-01
        1   -1    0    0  501    0  0.00000000000E+00  0.00000000000E+00  0.28407684024E+04  0.28407684024E+04  0.50400001928E-02 0. -1.
       -1   -1    0    0    0  501  0.00000000000E+00  0.00000000000E+00 -0.77663481712E+03  0.77663481714E+03  0.50400001928E-02 0.  1.
    10030    2    1    2    0    0  0.00000000000E+00  0.00000000000E+00  0.20641335852E+04  0.36174032195E+04  0.29706831865E+04 0.  0.
        3    1    3    3  502    0  0.79023657665E+03 -0.98651269954E+03  0.82136486063E+02  0.12666600041E+04  0.10100000352E+00 0.  1.
       -3    1    3    3    0  502 -0.79023657665E+03  0.98651269954E+03  0.19819970992E+04  0.23507432154E+04  0.10100000352E+00 0. -1.
</event>
<event>
 5   0  0.3896630E-06  0.2985914E+04  0.7818609E-02  0.8247765E-01
       -1   -1    0    0    0  501  0.00000000000E+00  0.00000000000E+00  0.77351327951E+03  0.77351327953E+03  0.50400001928E-02 0.  1.
        1   -1    0    0  501    0  0.00000000000E+00  0.00000000000E+00 -0.28815553110E+04  0.28815553110E+04  0.50400001928E-02 0. -1.
    10030    2    1    2    0    0  0.00000000000E+00  0.00000000000E+00 -0.21080420315E+04  0.36550685905E+04  0.29859144655E+04 0.  0.
        5    1    3    3  502    0  0.11643165366E+04 -0.59997995144E+03 -0.17702083264E+03  0.13217289453E+04  0.46999998093E+01 0.  1.
       -5    1    3    3    0  502 -0.11643165366E+04  0.59997995144E+03 -0.19310211988E+04  0.23333396452E+04  0.46999998093E+01 0. -1.
</event>
<event>
 5   0  0.3725232E-06  0.2967466E+04  0.7818609E-02  0.8253083E-01
       -1   -1    0    0    0  501  0.00000000000E+00  0.00000000000E+00  0.21068507805E+04  0.21068507805E+04  0.50400001928E-02 0. -1.
        1   -1    0    0  501    0  0.00000000000E+00  0.00000000000E+00 -0.10449075484E+04  0.10449075484E+04  0.50400001928E-02 0.  1.
    10030    2    1    2    0    0  0.00000000000E+00  0.00000000000E+00  0.10619432321E+04  0.31517583289E+04  0.29674664506E+04 0.  0.
        2    1    3    3  502    0 -0.55698915667E+03  0.98666748028E+03  0.15484399998E+04  0.19187016626E+04  0.25500000920E-02 0. -1.
       -2    1    3    3    0  502  0.55698915667E+03 -0.98666748028E+03 -0.48649676761E+03  0.12330566663E+04  0.25500000920E-02 0.  1.
</event>
<event>
 5   0  0.3725232E-06  0.1892058E+04  0.7818609E-02  0.8658820E-01
        1   -1    0    0  501    0  0.00000000000E+00  0.00000000000E+00  0.14788083910E+04  0.14788083910E+04  0.50400001928E-02 0. -1.
       -1   -1    0    0    0  501  0.00000000000E+00  0.00000000000E+00 -0.60519728902E+03  0.60519728904E+03  0.50400001928E-02 0.  1.
    10030    2    1    2    0    0  0.00000000000E+00  0.00000000000E+00  0.87361110199E+03  0.20840056801E+04  0.18920579581E+04 0.  0.
        2    1    3    3  502    0  0.73749743297E+03 -0.18069076580E+02 -0.21551081047E+03  0.76855309810E+03  0.25500000920E-02 0.  1.
       -2    1    3    3    0  502 -0.73749743297E+03  0.18069076580E+02  0.10891219125E+04  0.13154525820E+04  0.25500000920E-02 0. -1.
</event>
<event>
 5   0  0.1089569E-05  0.3001831E+04  0.7818609E-02  0.8243208E-01
        2   -1    0    0  501    0  0.00000000000E+00  0.00000000000E+00  0.10482369408E+04  0.10482369408E+04  0.25500000920E-02 0.  1.
       -2   -1    0    0    0  501  0.00000000000E+00  0.00000000000E+00 -0.21490816785E+04  0.21490816785E+04  0.25500000920E-02 0. -1.
    10030    2    1    2    0    0  0.00000000000E+00  0.00000000000E+00 -0.11008447377E+04  0.31973186193E+04  0.30018306442E+04 0.  0.
        5    1    3    3  502    0  0.13414748403E+04 -0.37745074438E+03  0.43283015191E+02  0.13942450721E+04  0.46999998093E+01 0.  1.
       -5    1    3    3    0  502 -0.13414748403E+04  0.37745074438E+03 -0.11441277528E+04  0.18030735472E+04  0.46999998093E+01 0. -1.
</event>
<event>
 5   0  0.3592331E-06  0.3024032E+04  0.7818609E-02  0.8236902E-01
        1   -1    0    0  501    0  0.00000000000E+00  0.00000000000E+00  0.21333522344E+04  0.21333522344E+04  0.50400001928E-02 0. -1.
       -1   -1    0    0    0  501  0.00000000000E+00  0.00000000000E+00 -0.10716431073E+04  0.10716431073E+04  0.50400001928E-02 0.  1.
    10030    2    1    2    0    0  0.00000000000E+00  0.00000000000E+00  0.10617091271E+04  0.32049953417E+04  0.30240318897E+04 0.  0.
        3    1    3    3  502    0  0.40221932579E+03  0.56252361624E+03  0.19559295825E+04  0.20745779684E+04  0.10100000352E+00 0. -1.
       -3    1    3    3    0  502 -0.40221932579E+03 -0.56252361624E+03 -0.89422045545E+03  0.11304173734E+04  0.10100000352E+00 0.  1.
</event>
<event>
 5   0  0.1089569E-05  0.3036983E+04  0.7818609E-02  0.8233248E-01
        2   -1    0    0  501    0  0.00000000000E+00  0.00000000000E+00  0.15830625648E+04  0.15830625648E+04  0.25500000920E-02 0. -1.
       -2   -1    0    0    0  501  0.00000000000E+00  0.00000000000E+00 -0.14565541096E+04  0.14565541096E+04  0.25500000920E-02 0.  1.
    10030    2    1    2    0    0  0.00000000000E+00  0.00000000000E+00  0.12650845522E+03  0.30396166745E+04  0.30369829006E+04 0.  0.
        5    1    3    3  502    0  0.64744165693E+03 -0.13532015157E+04  0.29895613064E+03  0.15296182201E+04  0.46999998093E+01 0. -1.
       -5    1    3    3    0  502 -0.64744165693E+03  0.13532015157E+04 -0.17244767542E+03  0.15099984543E+04  0.46999998093E+01 0.  1.
</event>
<event>
 5   0  0.3592331E-06  0.3104915E+04  0.7818609E-02  0.8214390E-01
        1   -1    0    0  501    0  0.00000000000E+00  0.00000000000E+00  0.13824768207E+04  0.13824768207E+04  0.50400001928E-02 0. -1.
       -1   -1    0    0    0  501  0.00000000000E+00  0.00000000000E+00 -0.17433374767E+04  0.17433374767E+04  0.50400001928E-02 0.  1.
    10030    2    1    2    0    0  0.00000000000E+00  0.00000000000E+00 -0.36086065603E+03  0.31258142975E+04  0.31049145897E+04 0.  0.
        3    1    3    3  502    0 -0.56208772028E+03 -0.13829641292E+03  0.12697711251E+04  0.13954881667E+04  0.10100000352E+00 0. -1.
       -3    1    3    3    0  502  0.56208772028E+03  0.13829641292E+03 -0.16306317811E+04  0.17303261308E+04  0.10100000352E+00 0.  1.
</event>
<event>
 5   0  0.1057036E-05  0.2985630E+04  0.7818609E-02  0.8247846E-01
        2   -1    0    0  501    0  0.00000000000E+00  0.00000000000E+00  0.17197454587E+04  0.17197454587E+04  0.25500000920E-02 0.  1.
       -2   -1    0    0    0  501  0.00000000000E+00  0.00000000000E+00 -0.12958292674E+04  0.12958292674E+04  0.25500000920E-02 0. -1.
    10030    2    1    2    0    0  0.00000000000E+00  0.00000000000E+00  0.42391619134E+03  0.30155747261E+04  0.29856299154E+04 0.  0.
        4    1    3    3  502    0 -0.34169330355E+03  0.78489975402E+03 -0.10232850152E+04  0.13341423360E+04  0.12699999809E+01 0. -1.
       -4    1    3    3    0  502  0.34169330355E+03 -0.78489975402E+03  0.14472012065E+04  0.16814323901E+04  0.12699999809E+01 0.  1.
</event>
<event>
 5   0  0.3636718E-06  0.2948233E+04  0.7818609E-02  0.8258670E-01
       -1   -1    0    0    0  501  0.00000000000E+00  0.00000000000E+00  0.96178864013E+03  0.96178864014E+03  0.50400001928E-02 0.  1.
        1   -1    0    0  501    0  0.00000000000E+00  0.00000000000E+00 -0.22593524349E+04  0.22593524349E+04  0.50400001928E-02 0. -1.
    10030    2    1    2    0    0  0.00000000000E+00  0.00000000000E+00 -0.12975637948E+04  0.32211410750E+04  0.29482330342E+04 0.  0.
        4    1    3    3  502    0 -0.87855349595E+03 -0.79313489928E+03  0.31124708156E+03  0.12238445867E+04  0.12699999809E+01 0.  1.
       -4    1    3    3    0  502  0.87855349595E+03  0.79313489928E+03 -0.16088108763E+04  0.19972964884E+04  0.12699999809E+01 0. -1.
</event>
<event>
 5   0  0.1057036E-05  0.2591649E+04  0.7818609E-02  0.8371043E-01
       -2   -1    0    0    0  501  0.00000000000E+00  0.00000000000E+00  0.11683014691E+04  0.11683014691E+04  0.25500000920E-02 0. -1.
        2   -1    0    0  501    0  0.00000000000E+00  0.00000000000E+00 -0.14372671664E+04  0.14372671664E+04  0.25500000920E-02 0.  1.
    10030    2    1    2    0    0  0.00000000000E+00  0.00000000000E+00 -0.26896569731E+03  0.26055686355E+04  0.25916491599E+04 0.  0.
        4    1    3    3  502    0  0.97663748936E+02 -0.11765049683E+04 -0.67163472720E+03  0.13582330316E+04  0.12699999809E+01 0.  1.
       -4    1    3    3    0  502 -0.97663748936E+02  0.11765049683E+04  0.40266902989E+03  0.12473356040E+04  0.12699999809E+01 0. -1.
</event>
<event>
 5   0  0.9647945E-06  0.2988925E+04  0.7818609E-02  0.8246901E-01
       -2   -1    0    0    0  501  0.00000000000E+00  0.00000000000E+00  0.10942761361E+04  0.10942761362E+04  0.25500000920E-02 0.  1.
        2   -1    0    0  501    0  0.00000000000E+00  0.00000000000E+00 -0.20410004297E+04  0.20410004297E+04  0.25500000920E-02 0. -1.
    10030    2    1    2    0    0  0.00000000000E+00  0.00000000000E+00 -0.94672429354E+03  0.31352765658E+04  0.29889249332E+04 0.  0.
        2    1    3    3  502    0 -0.18975192387E+03  0.14478165242E+04 -0.80712348178E+03  0.16684204492E+04  0.25500000920E-02 0.  1.
       -2    1    3    3    0  502  0.18975192387E+03 -0.14478165242E+04 -0.13960081176E+03  0.14668561167E+04  0.25500000920E-02 0. -1.
</event>
<event>
 5   0  0.3852126E-06  0.2904608E+04  0.7818609E-02  0.8271508E-01
       -1   -1    0    0    0  501  0.00000000000E+00  0.00000000000E+00  0.86770136979E+03  0.86770136981E+03  0.50400001928E-02 0. -1.
        1   -1    0    0  501    0  0.00000000000E+00  0.00000000000E+00 -0.24307746981E+04  0.24307746981E+04  0.50400001928E-02 0.  1.
    10030    2    1    2    0    0  0.00000000000E+00  0.00000000000E+00 -0.15630733283E+04  0.32984760679E+04  0.29046077430E+04 0.  0.
        1    1    3    3  502    0  0.76771499425E+03 -0.23931883356E+03  0.59180232887E+03  0.99844369544E+03  0.50400001928E-02 0. -1.
       -1    1    3    3    0  502 -0.76771499425E+03  0.23931883356E+03 -0.21548756572E+04  0.23000323725E+04  0.50400001928E-02 0.  1.
</event>
<event>
 5   0  0.3852126E-06  0.3026773E+04  0.7818609E-02  0.8236127E-01
        1   -1    0    0  501    0  0.00000000000E+00  0.00000000000E+00  0.19728432254E+04  0.19728432254E+04  0.50400001928E-02 0.  1.
       -1   -1    0    0    0  501  0.00000000000E+00  0.00000000000E+00 -0.11609328801E+04  0.11609328801E+04  0.50400001928E-02 0. -1.
    10030    2    1    2    0    0  0.00000000000E+00  0.00000000000E+00  0.81191034531E+03  0.31337761055E+04  0.30267729136E+04 0.  0.
        1    1    3    3  502    0 -0.12009917981E+04  0.86317752547E+03  0.73804644495E+03  0.16529274922E+04  0.50400001928E-02 0.  1.
       -1    1    3    3    0  502  0.12009917981E+04 -0.86317752547E+03  0.73863900358E+02  0.14808486133E+04  0.50400001928E-02 0. -1.
</event>
<event>
 5   0  0.1089569E-05  0.2823086E+04  0.7818609E-02  0.8296137E-01
        2   -1    0    0  501    0  0.00000000000E+00  0.00000000000E+00  0.21876745099E+04  0.21876745099E+04  0.25500000920E-02 0.  1.
       -2   -1    0    0    0  501  0.00000000000E+00  0.00000000000E+00 -0.91076357792E+03  0.91076357792E+03  0.25500000920E-02 0. -1.
    10030    2    1    2    0    0  0.00000000000E+00  0.00000000000E+00  0.12769109320E+04  0.30984380879E+04  0.28230864415E+04 0.  0.
        5    1    3    3  502    0 -0.23216711797E+03  0.11306470957E+04 -0.25330003725E+03  0.11817137660E+04  0.46999998093E+01 0. -1.
       -5    1    3    3    0  502  0.23216711797E+03 -0.11306470957E+04  0.15302109693E+04  0.19167243219E+04  0.46999998093E+01 0.  1.
</event>
<event>
 5   0  0.1028450E-05  0.2985351E+04  0.7818609E-02  0.8247926E-01
        2   -1    0    0  501    0  0.00000000000E+00  0.00000000000E+00  0.24498021743E+04  0.24498021743E+04  0.25500000920E-02 0. -1.
       -2   -1    0    0    0  501  0.00000000000E+00  0.00000000000E+00 -0.90949380988E+03  0.90949380988E+03  0.25500000920E-02 0.  1.
    10030    2    1    2    0    0  0.00000000000E+00  0.00000000000E+00  0.15403083644E+04  0.33592959842E+04  0.29853508423E+04 0.  0.
        3    1    3    3  502    0 -0.12798882259E+04  0.44650334342E+03  0.66888450969E+02  0.13571857579E+04  0.10100000352E+00 0.  1.
       -3    1    3    3    0  502  0.12798882259E+04 -0.44650334342E+03  0.14734199134E+04  0.20021102262E+04  0.10100000352E+00 0. -1.
</event>
<event>
 5   0  0.1089569E-05  0.3033709E+04  0.7818609E-02  0.8234170E-01
        2   -1    0    0  501    0  0.00000000000E+00  0.00000000000E+00  0.31119239075E+04  0.31119239075E+04  0.25500000920E-02 0. -1.
       -2   -1    0    0    0  501  0.00000000000E+00  0.00000000000E+00 -0.73936515403E+03  0.73936515403E+03  0.25500000920E-02 0.  1.
    10030    2    1    2    0    0  0.00000000000E+00  0.00000000000E+00  0.23725587535E+04  0.38512890616E+04  0.30337093461E+04 0.  0.
        5    1    3    3  502    0 -0.11180202344E+03 -0.10855278545E+04 -0.15119339305E+03  0.11017041106E+04  0.46999998093E+01 0.  1.
       -5    1    3    3    0  502  0.11180202344E+03  0.10855278545E+04  0.25237521466E+04  0.27495849510E+04  0.46999998093E+01 0. -1.
</event>
<event>
 5   0  0.3725232E-06  0.3007276E+04  0.7818609E-02  0.8241656E-01
        1   -1    0    0  501    0  0.00000000000E+00  0.00000000000E+00  0.15235985960E+04  0.15235985960E+04  0.50400001928E-02 0.  1.
       -1   -1    0    0    0  501  0.00000000000E+00  0.00000000000E+00 -0.14839389392E+04  0.14839389392E+04  0.50400001928E-02 0. -1.
    10030    2    1    2    0    0  0.00000000000E+00  0.00000000000E+00  0.39659656846E+02  0.30075375352E+04  0.30072760327E+04 0.  0.
        2    1    3    3  502    0  0.91777562850E+03  0.25094993949E+03 -0.11445906633E+04  0.14884138413E+04  0.25500000920E-02 0. -1.
       -2    1    3    3    0  502 -0.91777562850E+03 -0.25094993949E+03  0.11842503202E+04  0.15191236939E+04  0.25500000920E-02 0.  1.
</event>
<event>
 5   0  0.1057036E-05  0.3017618E+04  0.7818609E-02  0.8238718E-01
       -2   -1    0    0    0  501  0.00000000000E+00  0.00000000000E+00  0.21083169363E+04  0.21083169363E+04  0.25500000920E-02 0. -1.
        2   -1    0    0  501    0  0.00000000000E+00  0.00000000000E+00 -0.10797734230E+04  0.10797734230E+04  0.25500000920E-02 0.  1.
    10030    2    1    2    0    0  0.00000000000E+00  0.00000000000E+00  0.10285435133E+04  0.31880903593E+04  0.30176179977E+04 0.  0.
        4    1    3    3  502    0  0.27831274161E+03  0.14196079980E+04  0.96715853750E+03  0.17401557688E+04  0.12699999809E+01 0.  1.
       -4    1    3    3    0  502 -0.27831274161E+03 -0.14196079980E+04  0.61384975838E+02  0.14479345905E+04  0.12699999809E+01 0. -1.
</event>
<event>
 5   0  0.3592331E-06  0.3009443E+04  0.7818609E-02  0.8241040E-01
       -1   -1    0    0    0  501  0.00000000000E+00  0.00000000000E+00  0.18088408293E+04  0.18088408293E+04  0.50400001928E-02 0.  1.
        1   -1    0    0  501    0  0.00000000000E+00  0.00000000000E+00 -0.12517333815E+04  0.12517333815E+04  0.50400001928E-02 0. -1.
    10030    2    1    2    0    0  0.00000000000E+00  0.00000000000E+00  0.55710744781E+03  0.30605742107E+04  0.30094427708E+04 0.  0.
        3    1    3    3  502    0 -0.54293819092E+03 -0.98068554920E+03  0.12994319096E+04  0.17161146009E+04  0.10100000352E+00 0.  1.
       -3    1    3    3    0  502  0.54293819092E+03  0.98068554920E+03 -0.74232446182E+03  0.13444596098E+04  0.10100000352E+00 0. -1.
</event>
<event>
 5   0  0.1028450E-05  0.2025234E+04  0.7818609E-02  0.8594913E-01
       -2   -1    0    0    0  501  0.00000000000E+00  0.00000000000E+00  0.14456647506E+04  0.14456647506E+04  0.25500000920E-02 0.  1.
        2   -1    0    0  501    0  0.00000000000E+00  0.00000000000E+00 -0.70928840909E+03  0.70928840909E+03  0.25500000920E-02 0. -1.
    10030    2    1    2    0    0  0.00000000000E+00  0.00000000000E+00  0.73637634150E+03  0.21549531597E+04  0.20252340616E+04 0.  0.
        3    1    3    3  502    0  0.63322757965E+03 -0.74079200256E+03  0.66083767583E+03  0.11774788332E+04  0.10100000352E+00 0.  1.
       -3    1    3    3    0  502 -0.63322757965E+03  0.74079200256E+03  0.75538665671E+02  0.97747432646E+03  0.10100000352E+00 0. -1.
</event>
<event>
 5   0  0.3852126E-06  0.2976794E+04  0.7818609E-02  0.8250389E-01
        1   -1    0    0  501    0  0.00000000000E+00  0.00000000000E+00  0.16931417706E+04  0.16931417706E+04  0.50400001928E-02 0.  1.
       -1   -1    0    0    0  501  0.00000000000E+00  0.00000000000E+00 -0.13084116072E+04  0.13084116072E+04  0.50400001928E-02 0. -1.
    10030    2    1    2    0    0  0.00000000000E+00  0.00000000000E+00  0.38473016344E+03  0.30015533778E+04  0.29767944808E+04 0.  0.
        1    1    3    3  502    0 -0.13875838422E+04  0.50784454468E+03  0.11903482153E+02  0.14776456591E+04  0.50400001928E-02 0. -1.
       -1    1    3    3    0  502  0.13875838422E+04 -0.50784454468E+03  0.37282668129E+03  0.15239077187E+04  0.50400001928E-02 0.  1.
</event>
<event>
 5   0  0.1089569E-05  0.2994744E+04  0.7818609E-02  0.8245233E-01
       -2   -1    0    0    0  501  0.00000000000E+00  0.00000000000E+00  0.16065408204E+04  0.16065408204E+04  0.25500000920E-02 0.  1.
        2   -1    0    0  501    0  0.00000000000E+00  0.00000000000E+00 -0.13956210764E+04  0.13956210764E+04  0.25500000920E-02 0. -1.
    10030    2    1    2    0    0  0.00000000000E+00  0.00000000000E+00  0.21091974394E+03  0.30021618968E+04  0.29947435476E+04 0.  0.
        5    1    3    3  502    0 -0.13123746443E+04  0.50798530500E+03 -0.40739694275E+03  0.14650497043E+04  0.46999998093E+01 0. -1.
       -5    1    3    3    0  502  0.13123746443E+04 -0.50798530500E+03  0.61831668669E+03  0.15371121925E+04  0.46999998093E+01 0.  1.
</event>
<event>
 5   0  0.3636718E-06  0.3018432E+04  0.7818609E-02  0.8238487E-01
       -1   -1    0    0    0  501  0.00000000000E+00  0.00000000000E+00  0.10375536811E+04  0.10375536811E+04  0.50400001928E-02 0.  1.
        1   -1    0    0  501    0  0.00000000000E+00  0.00000000000E+00 -0.21952915989E+04  0.21952915989E+04  0.50400001928E-02 0. -1.
    10030    2    1    2    0    0  0.00000000000E+00  0.00000000000E+00 -0.11577379178E+04  0.32328452800E+04  0.30184319635E+04 0.  0.
        4    1    3    3  502    0  0.66283306916E+03 -0.69026558361E+03  0.67104135497E+03  0.11688080965E+04  0.12699999809E+01 0.  1.
       -4    1    3    3    0  502 -0.66283306916E+03  0.69026558361E+03 -0.18287792727E+04  0.20640371835E+04  0.12699999809E+01 0. -1.
</event>
<event>
 5   0  0.9647945E-06  0.2860527E+04  0.7818609E-02  0.8284720E-01
       -2   -1    0    0    0  501  0.00000000000E+00  0.00000000000E+00  0.12222209674E+04  0.12222209674E+04  0.25500000920E-02 0. -1.
        2   -1    0    0  501    0  0.00000000000E+00  0.00000000000E+00 -0.16737183875E+04  0.16737183875E+04  0.25500000920E-02 0.  1.
    10030    2    1    2    0    0  0.00000000000E+00  0.00000000000E+00 -0.45149742017E+03  0.28959393549E+04  0.28605270191E+04 0.  0.
        2    1    3    3  502    0  0.93581810484E+03 -0.72600885122E+03 -0.10374280546E+04  0.15745162260E+04  0.25500000920E-02 0.  1.
       -2    1    3    3    0  502 -0.93581810484E+03  0.72600885122E+03  0.58593063441E+03  0.13214231290E+04  0.25500000920E-02 0. -1.
</event>
<event>
 5   0  0.1028450E-05  0.3014588E+04  0.7818609E-02  0.8239577E-01
       -2   -1    0    0    0  501  0.00000000000E+00  0.00000000000E+00  0.14277635349E+04  0.14277635349E+04  0.25500000920E-02 0. -1.
        2   -1    0    0  501    0  0.00000000000E+00  0.00000000000E+00 -0.15912546046E+04  0.15912546046E+04  0.25500000920E-02 0.  1.
    10030    2    1    2    0    0  0.00000000000E+00  0.00000000000E+00 -0.16349106973E+03  0.30190181394E+04  0.30145880641E+04 0.  0.
        3    1    3    3  502    0  0.54985176040E+03  0.13852524654E+04  0.14369399688E+03  0.14973006799E+04  0.10100000352E+00 0. -1.
       -3    1    3    3    0  502 -0.54985176040E+03 -0.13852524654E+04 -0.30718506661E+03  0.15217174595E+04  0.10100000352E+00 0.  1.
</event>
<event>
 5   0  0.3896630E-06  0.2931413E+04  0.7818609E-02  0.8263592E-01
       -1   -1    0    0    0  501  0.00000000000E+00  0.00000000000E+00  0.10186150022E+04  0.10186150022E+04  0.50400001928E-02 0. -1.
        1   -1    0    0  501    0  0.00000000000E+00  0.00000000000E+00 -0.21090362292E+04  0.21090362292E+04  0.50400001928E-02 0.  1.
    10030    2    1    2    0    0  0.00000000000E+00  0.00000000000E+00 -0.10904212271E+04  0.31276512314E+04  0.29314132723E+04 0.  0.
        5    1    3    3  502    0 -0.70108179409E+03  0.33258085570E+03 -0.18718925636E+04  0.20263586966E+04  0.46999998093E+01 0.  1.
       -5    1    3    3    0  502  0.70108179409E+03 -0.33258085570E+03  0.78147133649E+03  0.11012925349E+04  0.46999998093E+01 0. -1.
</event>
<event>
 5   0  0.3725232E-06  0.3002211E+04  0.7818609E-02  0.8243100E-01
        1   -1    0    0  501    0  0.00000000000E+00  0.00000000000E+00  0.15772053557E+04  0.15772053557E+04  0.50400001928E-02 0.  1.
       -1   -1    0    0    0  501  0.00000000000E+00  0.00000000000E+00 -0.14286777940E+04  0.14286777941E+04  0.50400001928E-02 0. -1.
    10030    2    1    2    0    0  0.00000000000E+00  0.00000000000E+00  0.14852756163E+03  0.30058831497E+04  0.30022113639E+04 0.  0.
        2    1    3    3  502    0  0.68086568119E+03  0.64149796642E+03 -0.11011484087E+04  0.14448617701E+04  0.25500000920E-02 0. -1.
       -2    1    3    3    0  502 -0.68086568119E+03 -0.64149796642E+03  0.12496759703E+04  0.15610213796E+04  0.25500000920E-02 0.  1.
</event>
<event>
 5   0  0.1057036E-05  0.3023931E+04  0.7818609E-02  0.8236930E-01
       -2   -1    0    0    0  501  0.00000000000E+00  0.00000000000E+00  0.20331888772E+04  0.20331888772E+04  0.25500000920E-02 0.  1.
        2   -1    0    0  501    0  0.00000000000E+00  0.00000000000E+00 -0.11243618378E+04  0.11243618378E+04  0.25500000920E-02 0. -1.
    10030    2    1    2    0    0  0.00000000000E+00  0.00000000000E+00  0.90882703941E+03  0.31575507151E+04  0.30239312047E+04 0.  0.
        4    1    3    3  502    0  0.14317479825E+03  0.13403584682E+04 -0.26066693182E+03  0.13729561931E+04  0.12699999809E+01 0.  1.
       -4    1    3    3    0  502 -0.14317479825E+03 -0.13403584682E+04  0.11694939712E+04  0.17845945219E+04  0.12699999809E+01 0. -1.
</event>
<event>
 5   0  0.9647945E-06  0.2985017E+04  0.7818609E-02  0.8248022E-01
        2   -1    0    0  501    0  0.00000000000E+00  0.00000000000E+00  0.15113688452E+04  0.15113688452E+04  0.25500000920E-02 0. -1.
       -2   -1    0    0    0  501  0.00000000000E+00  0.00000000000E+00 -0.14738840064E+04  0.14738840064E+04  0.25500000920E-02 0.  1.
    10030    2    1    2    0    0  0.00000000000E+00  0.00000000000E+00  0.37484838846E+02  0.29852528516E+04  0.29850174999E+04 0.  0.
        2    1    3    3  502    0  0.25139982178E+01 -0.93939743242E+03 -0.11411371559E+04  0.14780621992E+04  0.25500000920E-02 0.  1.
       -2    1    3    3    0  502 -0.25139982178E+01  0.93939743242E+03  0.11786219947E+04  0.15071906524E+04  0.25500000920E-02 0. -1.
</event>
<event>
 5   0  0.3725232E-06  0.3018288E+04  0.7818609E-02  0.8238528E-01
       -1   -1    0    0    0  501  0.00000000000E+00  0.00000000000E+00  0.12339679370E+04  0.12339679370E+04  0.50400001928E-02 0. -1.
        1   -1    0    0  501    0  0.00000000000E+00  0.00000000000E+00 -0.18456850476E+04  0.18456850476E+04  0.50400001928E-02 0.  1.
    10030    2    1    2    0    0  0.00000000000E+00  0.00000000000E+00 -0.61171711061E+03  0.30796529846E+04  0.30182883696E+04 0.  0.
        2    1    3    3  502    0 -0.63479808966E+03 -0.54156533491E+03  0.97718661421E+03  0.12849728813E+04  0.25500000920E-02 0. -1.
       -2    1    3    3    0  502  0.63479808966E+03  0.54156533491E+03 -0.15889037248E+04  0.17946801033E+04  0.25500000920E-02 0.  1.
</event>
<event>
 5   0  0.9647945E-06  0.3083651E+04  0.7818609E-02  0.8220239E-01
       -2   -1    0    0    0  501  0.00000000000E+00  0.00000000000E+00  0.11508624849E+04  0.11508624849E+04  0.25500000920E-02 0. -1.
        2   -1    0    0  501    0  0.00000000000E+00  0.00000000000E+00 -0.20656044125E+04  0.20656044125E+04  0.25500000920E-02 0.  1.
    10030    2    1    2    0    0  0.00000000000E+00  0.00000000000E+00 -0.91474192756E+03  0.32164668974E+04  0.30836514894E+04 0.  0.
        2    1    3    3  502    0 -0.14340213182E+02  0.12844537162E+04  0.43211812271E+03  0.13552686313E+04  0.25500000920E-02 0. -1.
       -2    1    3    3    0  502  0.14340213182E+02 -0.12844537162E+04 -0.13468600503E+04  0.18611982662E+04  0.25500000920E-02 0.  1.
</event>
<event>
 5   0  0.1089569E-05  0.2967425E+04  0.7818609E-02  0.8253094E-01
       -2   -1    0    0    0  501  0.00000000000E+00  0.00000000000E+00  0.16952779737E+04  0.16952779737E+04  0.25500000920E-02 0. -1.
        2   -1    0    0  501    0  0.00000000000E+00  0.00000000000E+00 -0.12985499102E+04  0.12985499102E+04  0.25500000920E-02 0.  1.
    10030    2    1    2    0    0  0.00000000000E+00  0.00000000000E+00  0.39672806347E+03  0.29938278839E+04  0.29674251872E+04 0.  0.
        5    1    3    3  502    0  0.13967379684E+04 -0.16157455557E+03  0.67628516247E+03  0.15602458141E+04  0.46999998093E+01 0.  1.
       -5    1    3    3    0  502 -0.13967379684E+04  0.16157455557E+03 -0.27955709901E+03  0.14335820698E+04  0.46999998093E+01 0. -1.
</event>
<event>
 5   0  0.1057036E-05  0.2877801E+04  0.7818609E-02  0.8279513E-01
       -2   -1    0    0    0  501  0.00000000000E+00  0.00000000000E+00  0.98109731000E+03  0.98109731001E+03  0.25500000920E-02 0. -1.
        2   -1    0    0  501    0  0.00000000000E+00  0.00000000000E+00 -0.21103256994E+04  0.21103256994E+04  0.25500000920E-02 0.  1.
    10030    2    1    2    0    0  0.00000000000E+00  0.00000000000E+00 -0.11292283894E+04  0.30914230094E+04  0.28778011515E+04 0.  0.
        4    1    3    3  502    0  0.44842165547E+03  0.11575856737E+04 -0.13461839594E+04  0.18312016379E+04  0.12699999809E+01 0.  1.
       -4    1    3    3    0  502 -0.44842165547E+03 -0.11575856737E+04  0.21695557001E+03  0.12602213715E+04  0.12699999809E+01 0. -1.
</event>
<event>
 5   0  0.9647945E-06  0.3015012E+04  0.7818609E-02  0.8239457E-01
       -2   -1    0    0    0  501  0.00000000000E+00  0.00000000000E+00  0.14999398009E+04  0.14999398009E+04  0.25500000920E-02 0. -1.
        2   -1    0    0  501    0  0.00000000000E+00  0.00000000000E+00 -0.15151099738E+04  0.15151099738E+04  0.25500000920E-02 0.  1.
    10030    2    1    2    0    0  0.00000000000E+00  0.00000000000E+00 -0.15170172960E+02  0.30150497747E+04  0.30150116102E+04 0.  0.
        2    1    3    3  502    0 -0.53956547606E+02  0.46493907791E+02 -0.15134264344E+04  0.15151015031E+04  0.25500000920E-02 0.  1.
       -2    1    3    3    0  502  0.53956547606E+02 -0.46493907791E+02  0.14982562614E+04  0.14999482716E+04  0.25500000920E-02 0. -1.
</event>
<event>
 5   0  0.3725232E-06  0.3059156E+04  0.7818609E-02  0.8227037E-01
        1   -1    0    0  501    0  0.00000000000E+00  0.00000000000E+00  0.21477538684E+04  0.21477538684E+04  0.50400001928E-02 0.  1.
       -1   -1    0    0    0  501  0.00000000000E+00  0.00000000000E+00 -0.10893279749E+04  0.10893279749E+04  0.50400001928E-02 0. -1.
    10030    2    1    2    0    0  0.00000000000E+00  0.00000000000E+00  0.10584258935E+04  0.32370818433E+04  0.30591556823E+04 0.  0.
        2    1    3    3  502    0 -0.11178823351E+04  0.13040740567E+03 -0.56686160696E+03  0.12601583583E+04  0.25500000920E-02 0. -1.
       -2    1    3    3    0  502  0.11178823351E+04 -0.13040740567E+03  0.16252875004E+04  0.19769234850E+04  0.25500000920E-02 0.  1.
</event>
<event>
 5   0  0.3852126E-06  0.2105219E+04  0.7818609E-02  0.8558948E-01
       -1   -1    0    0    0  501  0.00000000000E+00  0.00000000000E+00  0.98956663124E+03  0.98956663125E+03  0.50400001928E-02 0. -1.
        1   -1    0    0  501    0  0.00000000000E+00  0.00000000000E+00 -0.11196681871E+04  0.11196681871E+04  0.50400001928E-02 0.  1.
    10030    2    1    2    0    0  0.00000000000E+00  0.00000000000E+00 -0.13010155590E+03  0.21092348184E+04  0.21052185407E+04 0.  0.
        1    1    3    3  502    0  0.10495626502E+03  0.43870479146E+03  0.88782017306E+03  0.99584254345E+03  0.50400001928E-02 0. -1.
       -1    1    3    3    0  502 -0.10495626502E+03 -0.43870479146E+03 -0.10179217290E+04  0.11133922750E+04  0.50400001928E-02 0.  1.
</event>
<event>
 5   0  0.1028450E-05  0.3070256E+04  0.7818609E-02  0.8223949E-01
        2   -1    0    0  501    0  0.00000000000E+00  0.00000000000E+00  0.12674545124E+04  0.12674545124E+04  0.25500000920E-02 0.  1.
       -2   -1    0    0    0  501  0.00000000000E+00  0.00000000000E+00 -0.18593314499E+04  0.18593314500E+04  0.25500000920E-02 0. -1.
    10030    2    1    2    0    0  0.00000000000E+00  0.00000000000E+00 -0.59187693758E+03  0.31267859623E+04  0.30702560390E+04 0.  0.
        3    1    3    3  502    0  0.20995651963E+03  0.84066060556E+03 -0.15864824398E+04  0.18076831956E+04  0.10100000352E+00 0. -1.
       -3    1    3    3    0  502 -0.20995651963E+03 -0.84066060556E+03  0.99460550220E+03  0.13191027667E+04  0.10100000352E+00 0.  1.
</event>
<event>
 5   0  0.3852126E-06  0.3030767E+04  0.7818609E-02  0.8234999E-01
        1   -1    0    0  501    0  0.00000000000E+00  0.00000000000E+00  0.15116003675E+04  0.15116003676E+04  0.50400001928E-02 0. -1.
       -1   -1    0    0    0  501  0.00000000000E+00  0.00000000000E+00 -0.15191756802E+04  0.15191756803E+04  0.50400001928E-02 0.  1.
    10030    2    1    2    0    0  0.00000000000E+00  0.00000000000E+00 -0.75753127046E+01  0.30307760478E+04  0.30307665807E+04 0.  0.
        1    1    3    3  502    0  0.48905525450E+03  0.12454435886E+04 -0.71518410280E+03  0.15171661330E+04  0.50400001928E-02 0.  1.
       -1    1    3    3    0  502 -0.48905525450E+03 -0.12454435886E+04  0.70760879010E+03  0.15136099148E+04  0.50400001928E-02 0. -1.
</event>
<event>
 5   0  0.9647945E-06  0.3003142E+04  0.7818609E-02  0.8242834E-01
       -2   -1    0    0    0  501  0.00000000000E+00  0.00000000000E+00  0.66731236345E+03  0.66731236346E+03  0.25500000920E-02 0. -1.
        2   -1    0    0  501    0  0.00000000000E+00  0.00000000000E+00 -0.33788003309E+04  0.33788003309E+04  0.25500000920E-02 0.  1.
    10030    2    1    2    0    0  0.00000000000E+00  0.00000000000E+00 -0.27114879674E+04  0.40461126943E+04  0.30031418444E+04 0.  0.
        2    1    3    3  502    0 -0.84658446919E+02 -0.98934332157E+03 -0.28733177496E+04  0.30400529849E+04  0.25500000920E-02 0. -1.
       -2    1    3    3    0  502  0.84658446919E+02  0.98934332157E+03  0.16182978220E+03  0.10060597095E+04  0.25500000920E-02 0.  1.
</event>
<event>
 5   0  0.1089569E-05  0.2999474E+04  0.7818609E-02  0.8243881E-01
       -2   -1    0    0    0  501  0.00000000000E+00  0.00000000000E+00  0.16405738387E+04  0.16405738387E+04  0.25500000920E-02 0.  1.
        2   -1    0    0  501    0  0.00000000000E+00  0.00000000000E+00 -0.13709904916E+04  0.13709904916E+04  0.25500000920E-02 0. -1.
    10030    2    1    2    0    0  0.00000000000E+00  0.00000000000E+00  0.26958334718E+03  0.30115643303E+04  0.29994740430E+04 0.  0.
        5    1    3    3  502    0  0.67955851349E+03 -0.13397864298E+03 -0.12007727241E+04  0.13862277140E+04  0.46999998093E+01 0. -1.
       -5    1    3    3    0  502 -0.67955851349E+03  0.13397864298E+03  0.14703560713E+04  0.16253366163E+04  0.46999998093E+01 0.  1.
</event>
<event>
 5   0  0.3592331E-06  0.2988399E+04  0.7818609E-02  0.8247051E-01
       -1   -1    0    0    0  501  0.00000000000E+00  0.00000000000E+00  0.11540619195E+04  0.11540619195E+04  0.50400001928E-02 0. -1.
        1   -1    0    0  501    0  0.00000000000E+00  0.00000000000E+00 -0.19345862355E+04  0.19345862355E+04  0.50400001928E-02 0.  1.
    10030    2    1    2    0    0  0.00000000000E+00  0.00000000000E+00 -0.78052431597E+03  0.30886481550E+04  0.29883991061E+04 0.  0.
        3    1    3    3  502    0 -0.70490379633E+02  0.56587532024E+03  0.10371725536E+04  0.11836007299E+04  0.10100000352E+00 0. -1.
       -3    1    3    3    0  502  0.70490379633E+02 -0.56587532024E+03 -0.18176968696E+04  0.19050474250E+04  0.10100000352E+00 0.  1.
</event>
<event>
 5   0  0.3852126E-06  0.2500503E+04  0.7818609E-02  0.8402807E-01
        1   -1    0    0  501    0  0.00000000000E+00  0.00000000000E+00  0.50020971470E+03  0.50020971473E+03  0.50400001928E-02 0. -1.
       -1   -1    0    0    0  501  0.00000000000E+00  0.00000000000E+00 -0.31249457696E+04  0.31249457696E+04  0.50400001928E-02 0.  1.
    10030    2    1    2    0    0  0.00000000000E+00  0.00000000000E+00 -0.26247360549E+04  0.36251554843E+04  0.25005025350E+04 0.  0.
        1    1    3    3  502    0 -0.17105166841E+03 -0.42191970458E+03 -0.30004972734E+04  0.30348408192E+04  0.50400001928E-02 0.  1.
       -1    1    3    3    0  502  0.17105166841E+03  0.42191970458E+03  0.37576121855E+03  0.59031466505E+03  0.50400001928E-02 0. -1.
</event>
<event>
 5   0  0.3896630E-06  0.2914229E+04  0.7818609E-02  0.8268657E-01
        1   -1    0    0  501    0  0.00000000000E+00  0.00000000000E+00  0.15685154365E+04  0.15685154365E+04  0.50400001928E-02 0. -1.
       -1   -1    0    0    0  501  0.00000000000E+00  0.00000000000E+00 -0.13536255846E+04  0.13536255846E+04  0.50400001928E-02 0.  1.
    10030    2    1    2    0    0  0.00000000000E+00  0.00000000000E+00  0.21488985189E+03  0.29221410211E+04  0.29142289716E+04 0.  0.
        5    1    3    3  502    0  0.78692918523E+03 -0.40222658652E+03 -0.10541979953E+04  0.13756450388E+04  0.46999998093E+01 0.  1.
       -5    1    3    3    0  502 -0.78692918523E+03  0.40222658652E+03  0.12690878472E+04  0.15464959823E+04  0.46999998093E+01 0. -1.
</event>
<event>
 5   0  0.3592331E-06  0.2925300E+04  0.7818609E-02  0.8265389E-01
        1   -1    0    0  501    0  0.00000000000E+00  0.00000000000E+00  0.10640345057E+04  0.10640345057E+04  0.50400001928E-02 0. -1.
       -1   -1    0    0    0  501  0.00000000000E+00  0.00000000000E+00 -0.20105980275E+04  0.20105980275E+04  0.50400001928E-02 0.  1.
    10030    2    1    2    0    0  0.00000000000E+00  0.00000000000E+00 -0.94656352183E+03  0.30746325332E+04  0.29253004484E+04 0.  0.
        3    1    3    3  502    0 -0.50236921007E+03  0.13429482195E+04 -0.77692550402E+03  0.16307967355E+04  0.10100000352E+00 0. -1.
       -3    1    3    3    0  502  0.50236921007E+03 -0.13429482195E+04 -0.16963801781E+03  0.14438357977E+04  0.10100000352E+00 0.  1.
</event>
<event>
 5   0  0.1089569E-05  0.2986535E+04  0.7818609E-02  0.8247586E-01
        2   -1    0    0  501    0  0.00000000000E+00  0.00000000000E+00  0.20482918909E+04  0.20482918909E+04  0.25500000920E-02 0.  1.
       -2   -1    0    0    0  501  0.00000000000E+00  0.00000000000E+00 -0.10886376140E+04  0.10886376140E+04  0.25500000920E-02 0. -1.
    10030    2    1    2    0    0  0.00000000000E+00  0.00000000000E+00  0.95965427693E+03  0.31369295050E+04  0.29865348463E+04 0.  0.
        5    1    3    3  502    0 -0.49842192949E+03 -0.54465020984E+03 -0.88351807548E+03  0.11513880973E+04  0.46999998093E+01 0. -1.
       -5    1    3    3    0  502  0.49842192949E+03  0.54465020984E+03  0.18431723524E+04  0.19855414077E+04  0.46999998093E+01 0.  1.
</event>
<event>
 5   0  0.1089569E-05  0.2963574E+04  0.7818609E-02  0.8254210E-01
        2   -1    0    0  501    0  0.00000000000E+00  0.00000000000E+00  0.14253601582E+04  0.14253601582E+04  0.25500000920E-02 0. -1.
       -2   -1    0    0    0  501  0.00000000000E+00  0.00000000000E+00 -0.15404480534E+04  0.15404480534E+04  0.25500000920E-02 0.  1.
    10030    2    1    2    0    0  0.00000000000E+00  0.00000000000E+00 -0.11508789518E+03  0.29658082115E+04  0.29635743831E+04 0.  0.
        5    1    3    3  502    0  0.14346012383E+04 -0.35738362660E+03  0.41865823197E+02  0.14790465194E+04  0.46999998093E+01 0. -1.
       -5    1    3    3    0  502 -0.14346012383E+04  0.35738362660E+03 -0.15695371838E+03  0.14867616921E+04  0.46999998093E+01 0.  1.
</event>
<event>
 5   0  0.3852126E-06  0.2666354E+04  0.7818609E-02  0.8346005E-01
       -1   -1    0    0    0  501  0.00000000000E+00  0.00000000000E+00  0.10798105018E+04  0.10798105018E+04  0.50400001928E-02 0. -1.
        1   -1    0    0  501    0  0.00000000000E+00  0.00000000000E+00 -0.16459933405E+04  0.16459933405E+04  0.50400001928E-02 0.  1.
    10030    2    1    2    0    0  0.00000000000E+00  0.00000000000E+00 -0.56618283869E+03  0.27258038422E+04  0.26663539862E+04 0.  0.
        1    1    3    3  502    0 -0.12213247155E+04 -0.53430875673E+03 -0.26722155455E+03  0.13596055558E+04  0.50400001928E-02 0.  1.
       -1    1    3    3    0  502  0.12213247155E+04  0.53430875673E+03 -0.29896128415E+03  0.13661982864E+04  0.50400001928E-02 0. -1.
</event>
<event>
 5   0  0.3313750E-06  0.3136512E+04  0.7818609E-02  0.8205788E-01
       -3   -1    0    0    0  501  0.00000000000E+00  0.00000000000E+00  0.18201402858E+04  0.18201402886E+04  0.10100000352E+00 0. -1.
        3   -1    0    0  501    0  0.00000000000E+00  0.00000000000E+00 -0.13512296709E+04  0.13512296747E+04  0.10100000352E+00 0.  1.
    10030    2    1    2    0    0  0.00000000000E+00  0.00000000000E+00  0.46891061490E+03  0.31713699634E+04  0.31365124390E+04 0.  0.
        2    1    3    3  502    0 -0.44104994511E+03 -0.23916701067E+03 -0.12678911116E+04  0.13635519000E+04  0.25500000920E-02 0.  1.
       -2    1    3    3    0  502  0.44104994511E+03  0.23916701067E+03  0.17368017265E+04  0.18078180634E+04  0.25500000920E-02 0. -1.
</event>
<event>
 5   0  0.1028450E-05  0.2760257E+04  0.7818609E-02  0.8315714E-01
       -2   -1    0    0    0  501  0.00000000000E+00  0.00000000000E+00  0.91328205916E+03  0.91328205916E+03  0.25500000920E-02 0.  1.
        2   -1    0    0  501    0  0.00000000000E+00  0.00000000000E+00 -0.20856144662E+04  0.20856144662E+04  0.25500000920E-02 0. -1.
    10030    2    1    2    0    0  0.00000000000E+00  0.00000000000E+00 -0.11723324071E+04  0.29988965254E+04  0.27602567086E+04 0.  0.
        3    1    3    3  502    0  0.13762473248E+04  0.48451609801E+02 -0.48688765552E+03  0.14606381677E+04  0.10100000352E+00 0. -1.
       -3    1    3    3    0  502 -0.13762473248E+04 -0.48451609801E+02 -0.68544475156E+03  0.15382583577E+04  0.10100000352E+00 0.  1.
</event>
<event>
 5   0  0.1089569E-05  0.3048829E+04  0.7818609E-02  0.8229923E-01
       -2   -1    0    0    0  501  0.00000000000E+00  0.00000000000E+00  0.10922428292E+04  0.10922428292E+04  0.25500000920E-02 0. -1.
        2   -1    0    0  501    0  0.00000000000E+00  0.00000000000E+00 -0.21275853116E+04  0.21275853116E+04  0.25500000920E-02 0.  1.
    10030    2    1    2    0    0  0.00000000000E+00  0.00000000000E+00 -0.10353424824E+04  0.32198281408E+04  0.30488291524E+04 0.  0.
        5    1    3    3  502    0 -0.11395667945E+04  0.10123289043E+04 -0.53867171882E+03  0.16166668180E+04  0.46999998093E+01 0.  1.
       -5    1    3    3    0  502  0.11395667945E+04 -0.10123289043E+04 -0.49667076360E+03  0.16031613229E+04  0.46999998093E+01 0. -1.
</event>
<event>
 5   0  0.1057036E-05  0.2624847E+04  0.7818609E-02  0.8359810E-01
       -2   -1    0    0    0  501  0.00000000000E+00  0.00000000000E+00  0.75075013468E+03  0.75075013469E+03  0.25500000920E-02 0. -1.
        2   -1    0    0  501    0  0.00000000000E+00  0.00000000000E+00 -0.22943118655E+04  0.22943118655E+04  0.25500000920E-02 0.  1.
    10030    2    1    2    0    0  0.00000000000E+00  0.00000000000E+00 -0.15435617308E+04  0.30450620002E+04  0.26248466180E+04 0.  0.
        4    1    3    3  502    0 -0.10193634756E+04 -0.82661856254E+03 -0.76332048398E+03  0.15182423777E+04  0.12699999809E+01 0.  1.
       -4    1    3    3    0  502  0.10193634756E+04  0.82661856254E+03 -0.78024124683E+03  0.15268196225E+04  0.12699999809E+01 0. -1.
</event>
<event>
 5   0  0.3592331E-06  0.3024459E+04  0.7818609E-02  0.8236781E-01
        1   -1    0    0  501    0  0.00000000000E+00  0.00000000000E+00  0.16347473174E+04  0.16347473174E+04  0.50400001928E-02 0. -1.
       -1   -1    0    0    0  501  0.00000000000E+00  0.00000000000E+00 -0.13988934582E+04  0.13988934582E+04  0.50400001928E-02 0.  1.
    10030    2    1    2    0    0  0.00000000000E+00  0.00000000000E+00  0.23585385917E+03  0.30336407756E+04  0.30244585155E+04 0.  0.
        3    1    3    3  502    0 -0.15019165392E+04 -0.14185572938E+03  0.22293947772E+03  0.15249847080E+04  0.10100000352E+00 0. -1.
       -3    1    3    3    0  502  0.15019165392E+04  0.14185572938E+03  0.12914381456E+02  0.15086560676E+04  0.10100000352E+00 0.  1.
</event>
<event>
 5   0  0.3636718E-06  0.2915015E+04  0.7818609E-02  0.8268424E-01
        1   -1    0    0  501    0  0.00000000000E+00  0.00000000000E+00  0.15734194010E+04  0.15734194010E+04  0.50400001928E-02 0.  1.
       -1   -1    0    0    0  501  0.00000000000E+00  0.00000000000E+00 -0.13501346149E+04  0.13501346149E+04  0.50400001928E-02 0. -1.
    10030    2    1    2    0    0  0.00000000000E+00  0.00000000000E+00  0.22328478609E+03  0.29235540159E+04  0.29150149208E+04 0.  0.
        4    1    3    3  502    0 -0.19917916439E+03  0.40052868952E+03  0.15028723566E+04  0.15680314104E+04  0.12699999809E+01 0.  1.
       -4    1    3    3    0  502  0.19917916439E+03 -0.40052868952E+03 -0.12795875705E+04  0.13555226056E+04  0.12699999809E+01 0. -1.
</event>
<event>
 5   0  0.3636718E-06  0.2963806E+04  0.7818609E-02  0.8254143E-01
        1   -1    0    0  501    0  0.00000000000E+00  0.00000000000E+00  0.10858364687E+04  0.10858364687E+04  0.50400001928E-02 0.  1.
       -1   -1    0    0    0  501  0.00000000000E+00  0.00000000000E+00 -0.20224370800E+04  0.20224370800E+04  0.50400001928E-02 0. -1.
    10030    2    1    2    0    0  0.00000000000E+00  0.00000000000E+00 -0.93660061127E+03  0.31082735487E+04  0.29638056192E+04 0.  0.
        4    1    3    3  502    0  0.68943330318E+03 -0.79297785091E+03 -0.15641762166E+04  0.18843516129E+04  0.12699999809E+01 0. -1.
       -4    1    3    3    0  502 -0.68943330318E+03  0.79297785091E+03  0.62757560532E+03  0.12239219358E+04  0.12699999809E+01 0.  1.
</event>
<event>
 5   0  0.3636718E-06  0.3002972E+04  0.7818609E-02  0.8242883E-01
        1   -1    0    0  501    0  0.00000000000E+00  0.00000000000E+00  0.20681275743E+04  0.20681275744E+04  0.50400001928E-02 0.  1.
       -1   -1    0    0    0  501  0.00000000000E+00  0.00000000000E+00 -0.10900971797E+04  0.10900971797E+04  0.50400001928E-02 0. -1.
    10030    2    1    2    0    0  0.00000000000E+00  0.00000000000E+00  0.97803039461E+03  0.31582247541E+04  0.30029718854E+04 0.  0.
        4    1    3    3  502    0  0.10762293948E+04  0.10271449930E+04  0.70238814083E+03  0.16451891260E+04  0.12699999809E+01 0.  1.
       -4    1    3    3    0  502 -0.10762293948E+04 -0.10271449930E+04  0.27564225378E+03  0.15130356281E+04  0.12699999809E+01 0. -1.
</event>
<event>
 5   0  0.3852126E-06  0.2991338E+04  0.7818609E-02  0.8246209E-01
       -1   -1    0    0    0  501  0.00000000000E+00  0.00000000000E+00  0.11551538985E+04  0.11551538985E+04  0.50400001928E-02 0.  1.
        1   -1    0    0  501    0  0.00000000000E+00  0.00000000000E+00 -0.19365613758E+04  0.19365613759E+04  0.50400001928E-02 0. -1.
    10030    2    1    2    0    0  0.00000000000E+00  0.00000000000E+00 -0.78140747737E+03  0.30917152743E+04  0.29913384449E+04 0.  0.
        1    1    3    3  502    0  0.67672439712E+03 -0.82100615878E+03 -0.14771766193E+04  0.18204553791E+04  0.50400001928E-02 0. -1.
       -1    1    3    3    0  502 -0.67672439712E+03  0.82100615878E+03  0.69576914196E+03  0.12712598953E+04  0.50400001928E-02 0.  1.
</event>
<event>
 5   0  0.3896630E-06  0.2966766E+04  0.7818609E-02  0.8253285E-01
       -1   -1    0    0    0  501  0.00000000000E+00  0.00000000000E+00  0.78992558295E+03  0.78992558296E+03  0.50400001928E-02 0.  1.
        1   -1    0    0  501    0  0.00000000000E+00  0.00000000000E+00 -0.27856099805E+04  0.27856099805E+04  0.50400001928E-02 0. -1.
    10030    2    1    2    0    0  0.00000000000E+00  0.00000000000E+00 -0.19956843975E+04  0.35755355634E+04  0.29667656380E+04 0.  0.
        5    1    3    3  502    0 -0.64291701585E+03  0.10335171182E+03 -0.26041383990E+04  0.26843216567E+04  0.46999998093E+01 0. -1.
       -5    1    3    3    0  502  0.64291701585E+03 -0.10335171182E+03  0.60845400148E+03  0.89121390671E+03  0.46999998093E+01 0.  1.
</event>
<event>
 5   0  0.1057036E-05  0.2978056E+04  0.7818609E-02  0.8250025E-01
        2   -1    0    0  501    0  0.00000000000E+00  0.00000000000E+00  0.15954820295E+04  0.15954820295E+04  0.25500000920E-02 0.  1.
       -2   -1    0    0    0  501  0.00000000000E+00  0.00000000000E+00 -0.13896771286E+04  0.13896771286E+04  0.25500000920E-02 0. -1.
    10030    2    1    2    0    0  0.00000000000E+00  0.00000000000E+00  0.20580490088E+03  0.29851591581E+04  0.29780563363E+04 0.  0.
        4    1    3    3  502    0  0.26776700952E+03  0.96011227281E+03  0.12117453651E+04  0.15690261918E+04  0.12699999809E+01 0.  1.
       -4    1    3    3    0  502 -0.26776700952E+03 -0.96011227281E+03 -0.10059404643E+04  0.14161329663E+04  0.12699999809E+01 0. -1.
</event>
<event>
 5   0  0.3313750E-06  0.2960913E+04  0.7818609E-02  0.8254981E-01
       -3   -1    0    0    0  501  0.00000000000E+00  0.00000000000E+00  0.14916655493E+04  0.14916655528E+04  0.10100000352E+00 0.  1.
        3   -1    0    0  501    0  0.00000000000E+00  0.00000000000E+00 -0.14693316786E+04  0.14693316821E+04  0.10100000352E+00 0. -1.
    10030    2    1    2    0    0  0.00000000000E+00  0.00000000000E+00  0.22333870727E+02  0.29609972349E+04  0.29609130050E+04 0.  0.
        2    1    3    3  502    0 -0.14484662251E+04  0.10876773013E+03 -0.27496465894E+03  0.14783404168E+04  0.25500000920E-02 0. -1.
       -2    1    3    3    0  502  0.14484662251E+04 -0.10876773013E+03  0.29729852967E+03  0.14826568180E+04  0.25500000920E-02 0.  1.
</event>
<event>
 5   0  0.1057036E-05  0.2940584E+04  0.7818609E-02  0.8260904E-01
        2   -1    0    0  501    0  0.00000000000E+00  0.00000000000E+00  0.17474410518E+04  0.17474410518E+04  0.25500000920E-02 0.  1.
       -2   -1    0    0    0  501  0.00000000000E+00  0.00000000000E+00 -0.12370998473E+04  0.12370998473E+04  0.25500000920E-02 0. -1.
    10030    2    1    2    0    0  0.00000000000E+00  0.00000000000E+00  0.51034120456E+03  0.29845408991E+04  0.29405843354E+04 0.  0.
        4    1    3    3  502    0 -0.14050032524E+04 -0.40690618530E+03  0.40622635027E+03  0.15181002086E+04  0.12699999809E+01 0.  1.
       -4    1    3    3    0  502  0.14050032524E+04  0.40690618530E+03  0.10411485429E+03  0.14664406905E+04  0.12699999809E+01 0. -1.
</event>
<event>
 5   0  0.3852126E-06  0.3002607E+04  0.7818609E-02  0.8242987E-01
       -1   -1    0    0    0  501  0.00000000000E+00  0.00000000000E+00  0.94445759601E+03  0.94445759603E+03  0.50400001928E-02 0. -1.
        1   -1    0    0  501    0  0.00000000000E+00  0.00000000000E+00 -0.23864617348E+04  0.23864617348E+04  0.50400001928E-02 0.  1.
    10030    2    1    2    0    0  0.00000000000E+00  0.00000000000E+00 -0.14420041388E+04  0.33309193308E+04  0.30026068094E+04 0.  0.
        1    1    3    3  502    0  0.12772095845E+03  0.13887338904E+04 -0.13376782201E+04  0.19324278725E+04  0.50400001928E-02 0.  1.
       -1    1    3    3    0  502 -0.12772095845E+03 -0.13887338904E+04 -0.10432591863E+03  0.13984914583E+04  0.50400001928E-02 0. -1.
</event>
<event>
 5   0  0.1029922E-05  0.3008356E+04  0.7818609E-02  0.8241349E-01
        2   -1    0    0  501    0  0.00000000000E+00  0.00000000000E+00  0.22781237705E+04  0.22781237706E+04  0.25500000920E-02 0.  1.
       -2   -1    0    0    0  501  0.00000000000E+00  0.00000000000E+00 -0.99316452967E+03  0.99316452967E+03  0.25500000920E-02 0. -1.
    10030    2    1    2    0    0  0.00000000000E+00  0.00000000000E+00  0.12849592409E+04  0.32712883002E+04  0.30083561778E+04 0.  0.
        1    1    3    3  502    0 -0.54650893961E+03 -0.12023304119E+04  0.14253183962E+04  0.19431425503E+04  0.50400001928E-02 0.  1.
       -1    1    3    3    0  502  0.54650893961E+03  0.12023304119E+04 -0.14035915529E+03  0.13281457499E+04  0.50400001928E-02 0. -1.
</event>
<event>
 5   0  0.3592331E-06  0.2981985E+04  0.7818609E-02  0.8248894E-01
       -1   -1    0    0    0  501  0.00000000000E+00  0.00000000000E+00  0.16958542988E+04  0.16958542988E+04  0.50400001928E-02 0. -1.
        1   -1    0    0  501    0  0.00000000000E+00  0.00000000000E+00 -0.13108784123E+04  0.13108784123E+04  0.50400001928E-02 0.  1.
    10030    2    1    2    0    0  0.00000000000E+00  0.00000000000E+00  0.38497588646E+03  0.30067327111E+04  0.29819851044E+04 0.  0.
        3    1    3    3  502    0 -0.96779812765E+03 -0.29666845234E+03  0.12962937638E+04  0.16446953878E+04  0.10100000352E+00 0. -1.
       -3    1    3    3    0  502  0.96779812765E+03  0.29666845234E+03 -0.91131787729E+03  0.13620373233E+04  0.10100000352E+00 0.  1.
</event>
<event>
 5   0  0.9647945E-06  0.2991087E+04  0.7818609E-02  0.8246281E-01
        2   -1    0    0  501    0  0.00000000000E+00  0.00000000000E+00  0.72891401187E+03  0.72891401187E+03  0.25500000920E-02 0.  1.
       -2   -1    0    0    0  501  0.00000000000E+00  0.00000000000E+00 -0.30684690021E+04  0.30684690021E+04  0.25500000920E-02 0. -1.
    10030    2    1    2    0    0  0.00000000000E+00  0.00000000000E+00 -0.23395549903E+04  0.37973830140E+04  0.29910867929E+04 0.  0.
        2    1    3    3  502    0 -0.19234631837E+03 -0.39480021403E+03  0.64520762986E+03  0.78048523421E+03  0.25500000920E-02 0.  1.
       -2    1    3    3    0  502  0.19234631837E+03  0.39480021403E+03 -0.29847626201E+04  0.30168977798E+04  0.25500000920E-02 0. -1.
</event>
<event>
 5   0  0.3852126E-06  0.3122047E+04  0.7818609E-02  0.8209713E-01
        1   -1    0    0  501    0  0.00000000000E+00  0.00000000000E+00  0.24317151134E+04  0.24317151134E+04  0.50400001928E-02 0. -1.
       -1   -1    0    0    0  501  0.00000000000E+00  0.00000000000E+00 -0.10020888161E+04  0.10020888161E+04  0.50400001928E-02 0.  1.
    10030    2    1    2    0    0  0.00000000000E+00  0.00000000000E+00  0.14296262973E+04  0.34338039295E+04  0.31220470971E+04 0.  0.
        1    1    3    3  502    0  0.57184581339E+03  0.12655433693E+04  0.14988703733E+04  0.20433355207E+04  0.50400001928E-02 0. -1.
       -1    1    3    3    0  502 -0.57184581339E+03 -0.12655433693E+04 -0.69244076020E+02  0.13904684089E+04  0.50400001928E-02 0.  1.
</event>
<event>
 5   0  0.3896630E-06  0.2859505E+04  0.7818609E-02  0.8285029E-01
        1   -1    0    0  501    0  0.00000000000E+00  0.00000000000E+00  0.12368919598E+04  0.12368919598E+04  0.50400001928E-02 0. -1.
       -1   -1    0    0    0  501  0.00000000000E+00  0.00000000000E+00 -0.16526843239E+04  0.16526843239E+04  0.50400001928E-02 0.  1.
    10030    2    1    2    0    0  0.00000000000E+00  0.00000000000E+00 -0.41579236416E+03  0.28895762837E+04  0.28595048189E+04 0.  0.
        5    1    3    3  502    0 -0.99635863015E+03  0.47852049529E+03  0.70853542281E+03  0.13129192358E+04  0.46999998093E+01 0. -1.
       -5    1    3    3    0  502  0.99635863015E+03 -0.47852049529E+03 -0.11243277870E+04  0.15766570479E+04  0.46999998093E+01 0.  1.
</event>
<event>
 5   0  0.3852126E-06  0.2964575E+04  0.7818609E-02  0.8253920E-01
        1   -1    0    0  501    0  0.00000000000E+00  0.00000000000E+00  0.22763136429E+04  0.22763136429E+04  0.50400001928E-02 0.  1.
       -1   -1    0    0    0  501  0.00000000000E+00  0.00000000000E+00 -0.96523452720E+03  0.96523452721E+03  0.50400001928E-02 0. -1.
    10030    2    1    2    0    0  0.00000000000E+00  0.00000000000E+00  0.13110791157E+04  0.32415481701E+04  0.29645751958E+04 0.  0.
        1    1    3    3  502    0 -0.25865779686E+03 -0.13876477278E+04  0.16082376683E+03  0.14206809481E+04  0.50400001928E-02 0. -1.
       -1    1    3    3    0  502  0.25865779686E+03  0.13876477278E+04  0.11502553489E+04  0.18208672220E+04  0.50400001928E-02 0.  1.
</event>
<event>
 5   0  0.1089569E-05  0.3056930E+04  0.7818609E-02  0.8227659E-01
       -2   -1    0    0    0  501  0.00000000000E+00  0.00000000000E+00  0.15102175909E+04  0.15102175909E+04  0.25500000920E-02 0. -1.
        2   -1    0    0  501    0  0.00000000000E+00  0.00000000000E+00 -0.15469325361E+04  0.15469325361E+04  0.25500000920E-02 0.  1.
    10030    2    1    2    0    0  0.00000000000E+00  0.00000000000E+00 -0.36714945208E+02  0.30571501271E+04  0.30569296545E+04 0.  0.
        5    1    3    3  502    0  0.87013365999E+03 -0.93726962818E+03  0.81870689396E+03  0.15185223114E+04  0.46999998093E+01 0. -1.
       -5    1    3    3    0  502 -0.87013365999E+03  0.93726962818E+03 -0.85542183917E+03  0.15386278156E+04  0.46999998093E+01 0.  1.
</event>
<event>
 5   0  0.1028450E-05  0.2918009E+04  0.7818609E-02  0.8267539E-01
        2   -1    0    0  501    0  0.00000000000E+00  0.00000000000E+00  0.12668955203E+04  0.12668955203E+04  0.25500000920E-02 0. -1.
       -2   -1    0    0    0  501  0.00000000000E+00  0.00000000000E+00 -0.16802443210E+04  0.16802443210E+04  0.25500000920E-02 0.  1.
    10030    2    1    2    0    0  0.00000000000E+00  0.00000000000E+00 -0.41334880076E+03  0.29471398413E+04  0.29180089125E+04 0.  0.
        3    1    3    3  502    0  0.10726486665E+04 -0.98605980876E+03 -0.28362481045E+03  0.14843625404E+04  0.10100000352E+00 0. -1.
       -3    1    3    3    0  502 -0.10726486665E+04  0.98605980876E+03 -0.12972399031E+03  0.14627773009E+04  0.10100000352E+00 0.  1.
</event>
<event>
 5   0  0.1029922E-05  0.2960038E+04  0.7818609E-02  0.8255235E-01
        2   -1    0    0  501    0  0.00000000000E+00  0.00000000000E+00  0.12224557469E+04  0.12224557469E+04  0.25500000920E-02 0.  1.
       -2   -1    0    0    0  501  0.00000000000E+00  0.00000000000E+00 -0.17918488538E+04  0.17918488538E+04  0.25500000920E-02 0. -1.
    10030    2    1    2    0    0  0.00000000000E+00  0.00000000000E+00 -0.56939310686E+03  0.30143046007E+04  0.29600377895E+04 0.  0.
        1    1    3    3  502    0 -0.48296362030E+03 -0.12658029154E+04 -0.89139159106E+03  0.16217551750E+04  0.50400001928E-02 0. -1.
       -1    1    3    3    0  502  0.48296362030E+03  0.12658029154E+04  0.32199848420E+03  0.13925494257E+04  0.50400001928E-02 0.  1.
</event>
<event>
 5   0  0.3725232E-06  0.3007551E+04  0.7818609E-02  0.8241578E-01
       -1   -1    0    0    0  501  0.00000000000E+00  0.00000000000E+00  0.22012834293E+04  0.22012834293E+04  0.50400001928E-02 0. -1.
        1   -1    0    0  501    0  0.00000000000E+00  0.00000000000E+00 -0.10272831583E+04  0.10272831583E+04  0.50400001928E-02 0.  1.
    10030    2    1    2    0    0  0.00000000000E+00  0.00000000000E+00  0.11740002710E+04  0.32285665876E+04  0.30075514251E+04 0.  0.
        2    1    3    3  502    0 -0.13212871459E+04  0.14398666119E+03  0.13421196716E+04  0.18888666162E+04  0.25500000920E-02 0. -1.
       -2    1    3    3    0  502  0.13212871459E+04 -0.14398666119E+03 -0.16811940064E+03  0.13396999715E+04  0.25500000920E-02 0.  1.
</event>
<event>
 5   0  0.3852126E-06  0.2930094E+04  0.7818609E-02  0.8263980E-01
       -1   -1    0    0    0  501  0.00000000000E+00  0.00000000000E+00  0.88715234027E+03  0.88715234028E+03  0.50400001928E-02 0.  1.
        1   -1    0    0  501    0  0.00000000000E+00  0.00000000000E+00 -0.24193839948E+04  0.24193839948E+04  0.50400001928E-02 0. -1.
    10030    2    1    2    0    0  0.00000000000E+00  0.00000000000E+00 -0.15322316545E+04  0.33065363351E+04  0.29300936320E+04 0.  0.
        1    1    3    3  502    0 -0.50048325856E+03  0.44298880280E+03  0.70507910985E+03  0.97152412357E+03  0.50400001928E-02 0.  1.
       -1    1    3    3    0  502  0.50048325856E+03 -0.44298880280E+03 -0.22373107644E+04  0.23350122115E+04  0.50400001928E-02 0. -1.
</event>
<event>
 5   0  0.1089569E-05  0.2962114E+04  0.7818609E-02  0.8254633E-01
       -2   -1    0    0    0  501  0.00000000000E+00  0.00000000000E+00  0.12012516490E+04  0.12012516490E+04  0.25500000920E-02 0. -1.
        2   -1    0    0  501    0  0.00000000000E+00  0.00000000000E+00 -0.18260370947E+04  0.18260370947E+04  0.25500000920E-02 0.  1.
    10030    2    1    2    0    0  0.00000000000E+00  0.00000000000E+00 -0.62478544567E+03  0.30272887436E+04  0.29621141579E+04 0.  0.
        5    1    3    3  502    0  0.44886086464E+03 -0.12653287309E+04 -0.95143061149E+03  0.16455318810E+04  0.46999998093E+01 0.  1.
       -5    1    3    3    0  502 -0.44886086464E+03  0.12653287309E+04  0.32664516582E+03  0.13817568626E+04  0.46999998093E+01 0. -1.
</event>
<event>
 5   0  0.3896630E-06  0.3194651E+04  0.7818609E-02  0.8190231E-01
       -1   -1    0    0    0  501  0.00000000000E+00  0.00000000000E+00  0.21628116266E+04  0.21628116266E+04  0.50400001928E-02 0.  1.
        1   -1    0    0  501    0  0.00000000000E+00  0.00000000000E+00 -0.11796908038E+04  0.11796908038E+04  0.50400001928E-02 0. -1.
    10030    2    1    2    0    0  0.00000000000E+00  0.00000000000E+00  0.98312082286E+03  0.33425024304E+04  0.31946511460E+04 0.  0.
        5    1    3    3  502    0  0.46035330641E+03  0.89363672007E+03 -0.80722575053E+03  0.12892429005E+04  0.46999998093E+01 0. -1.
       -5    1    3    3    0  502 -0.46035330641E+03 -0.89363672007E+03  0.17903465734E+04  0.20532595299E+04  0.46999998093E+01 0.  1.
</event>
<event>
 5   0  0.3636718E-06  0.1831805E+04  0.7818609E-02  0.8689566E-01
       -1   -1    0    0    0  501  0.00000000000E+00  0.00000000000E+00  0.55892734860E+03  0.55892734863E+03  0.50400001928E-02 0. -1.
        1   -1    0    0  501    0  0.00000000000E+00  0.00000000000E+00 -0.15008704805E+04  0.15008704805E+04  0.50400001928E-02 0.  1.
    10030    2    1    2    0    0  0.00000000000E+00  0.00000000000E+00 -0.94194313186E+03  0.20597978291E+04  0.18318051843E+04 0.  0.
        4    1    3    3  502    0 -0.17604365053E+03  0.82095750508E+03 -0.88245964206E+03  0.12180719292E+04  0.12699999809E+01 0.  1.
       -4    1    3    3    0  502  0.17604365053E+03 -0.82095750508E+03 -0.59483489806E+02  0.84172589986E+03  0.12699999809E+01 0. -1.
</event>
<event>
 5   0  0.1089569E-05  0.2804446E+04  0.7818609E-02  0.8301889E-01
        2   -1    0    0  501    0  0.00000000000E+00  0.00000000000E+00  0.10262354879E+04  0.10262354879E+04  0.25500000920E-02 0. -1.
       -2   -1    0    0    0  501  0.00000000000E+00  0.00000000000E+00 -0.19159635682E+04  0.19159635682E+04  0.25500000920E-02 0.  1.
    10030    2    1    2    0    0  0.00000000000E+00  0.00000000000E+00 -0.88972808024E+03  0.29421990561E+04  0.28044463320E+04 0.  0.
        5    1    3    3  502    0 -0.68075571104E+02  0.13999704781E+04 -0.48755809878E+03  0.14840103142E+04  0.46999998093E+01 0.  1.
       -5    1    3    3    0  502  0.68075571104E+02 -0.13999704781E+04 -0.40216998146E+03  0.14581887419E+04  0.46999998093E+01 0. -1.
</event>
<event>
 5   0  0.3313750E-06  0.2978970E+04  0.7818609E-02  0.8249762E-01
       -3   -1    0    0    0  501  0.00000000000E+00  0.00000000000E+00  0.20619070011E+04  0.20619070036E+04  0.10100000352E+00 0.  1.
        3   -1    0    0  501    0  0.00000000000E+00  0.00000000000E+00 -0.10759774021E+04  0.10759774068E+04  0.10100000352E+00 0. -1.
    10030    2    1    2    0    0  0.00000000000E+00  0.00000000000E+00  0.98592959906E+03  0.31378844104E+04  0.29789698553E+04 0.  0.
        5    1    3    3  502    0 -0.82115417225E+03 -0.76005805447E+03 -0.54261943603E+03  0.12435595535E+04  0.46999998093E+01 0. -1.
       -5    1    3    3    0  502  0.82115417225E+03  0.76005805447E+03  0.15285490351E+04  0.18943248569E+04  0.46999998093E+01 0.  1.
</event>
<event>
 5   0  0.1089569E-05  0.2978185E+04  0.7818609E-02  0.8249988E-01
       -2   -1    0    0    0  501  0.00000000000E+00  0.00000000000E+00  0.74511360528E+03  0.74511360528E+03  0.25500000920E-02 0.  1.
        2   -1    0    0  501    0  0.00000000000E+00  0.00000000000E+00 -0.29759179358E+04  0.29759179358E+04  0.25500000920E-02 0. -1.
    10030    2    1    2    0    0  0.00000000000E+00  0.00000000000E+00 -0.22308043306E+04  0.37210315411E+04  0.29781853147E+04 0.  0.
        5    1    3    3  502    0 -0.22439869661E+03  0.76439332385E+03 -0.26872629522E+04  0.28028657109E+04  0.46999998093E+01 0. -1.
       -5    1    3    3    0  502  0.22439869661E+03 -0.76439332385E+03  0.45645862167E+03  0.91816583028E+03  0.46999998093E+01 0.  1.
</event>
<event>
 5   0  0.1057036E-05  0.2803141E+04  0.7818609E-02  0.8302294E-01
        2   -1    0    0  501    0  0.00000000000E+00  0.00000000000E+00  0.21290466408E+04  0.21290466408E+04  0.25500000920E-02 0.  1.
       -2   -1    0    0    0  501  0.00000000000E+00  0.00000000000E+00 -0.92266621199E+03  0.92266621200E+03  0.25500000920E-02 0. -1.
    10030    2    1    2    0    0  0.00000000000E+00  0.00000000000E+00  0.12063804288E+04  0.30517128528E+04  0.28031406666E+04 0.  0.
        4    1    3    3  502    0  0.31598533646E+03  0.13025226557E+04  0.15698458892E+03  0.13494657371E+04  0.12699999809E+01 0. -1.
       -4    1    3    3    0  502 -0.31598533646E+03 -0.13025226557E+04  0.10493958399E+04  0.17022471158E+04  0.12699999809E+01 0.  1.
</event>
<event>
 5   0  0.1029922E-05  0.2971040E+04  0.7818609E-02  0.8252049E-01
        2   -1    0    0  501    0  0.00000000000E+00  0.00000000000E+00  0.15283493090E+04  0.15283493090E+04  0.25500000920E-02 0. -1.
       -2   -1    0    0    0  501  0.00000000000E+00  0.00000000000E+00 -0.14438909923E+04  0.14438909923E+04  0.25500000920E-02 0.  1.
    10030    2    1    2    0    0  0.00000000000E+00  0.00000000000E+00  0.84458316656E+02  0.29722403013E+04  0.29710400875E+04 0.  0.
        1    1    3    3  502    0 -0.12290392219E+04  0.67426402981E+03 -0.44949805067E+03  0.14721473732E+04  0.50400001928E-02 0.  1.
       -1    1    3    3    0  502  0.12290392219E+04 -0.67426402981E+03  0.53395636732E+03  0.15000929281E+04  0.50400001928E-02 0. -1.
</event>
<event>
 5   0  0.1029922E-05  0.3076298E+04  0.7818609E-02  0.8222273E-01
       -2   -1    0    0    0  501  0.00000000000E+00  0.00000000000E+00  0.15856598543E+04  0.15856598543E+04  0.25500000920E-02 0. -1.
        2   -1    0    0  501    0  0.00000000000E+00  0.00000000000E+00 -0.14920612939E+04  0.14920612939E+04  0.25500000920E-02 0.  1.
    10030    2    1    2    0    0  0.00000000000E+00  0.00000000000E+00  0.93598560383E+02  0.30777211482E+04  0.30762975760E+04 0.  0.
        1    1    3    3  502    0 -0.87234863560E+03 -0.12460833043E+04 -0.18174887752E+03  0.15319100489E+04  0.50400001928E-02 0. -1.
       -1    1    3    3    0  502  0.87234863560E+03  0.12460833043E+04  0.27534743790E+03  0.15458110994E+04  0.50400001928E-02 0.  1.
</event>
<event>
 5   0  0.3725232E-06  0.3048764E+04  0.7818609E-02  0.8229941E-01
       -1   -1    0    0    0  501  0.00000000000E+00  0.00000000000E+00  0.15193718097E+04  0.15193718097E+04  0.50400001928E-02 0.  1.
        1   -1    0    0  501    0  0.00000000000E+00  0.00000000000E+00 -0.15294090940E+04  0.15294090940E+04  0.50400001928E-02 0. -1.
    10030    2    1    2    0    0  0.00000000000E+00  0.00000000000E+00 -0.10037284298E+02  0.30487809037E+04  0.30487643812E+04 0.  0.
        2    1    3    3  502    0 -0.90489434770E+03 -0.40847582403E+03 -0.11617680907E+04  0.15281987357E+04  0.25500000920E-02 0. -1.
       -2    1    3    3    0  502  0.90489434770E+03  0.40847582403E+03  0.11517308064E+04  0.15205821680E+04  0.25500000920E-02 0.  1.
</event>
<event>
 5   0  0.1029922E-05  0.3023400E+04  0.7818609E-02  0.8237080E-01
       -2   -1    0    0    0  501  0.00000000000E+00  0.00000000000E+00  0.17139727449E+04  0.17139727449E+04  0.25500000920E-02 0.  1.
        2   -1    0    0  501    0  0.00000000000E+00  0.00000000000E+00 -0.13332984618E+04  0.13332984618E+04  0.25500000920E-02 0. -1.
    10030    2    1    2    0    0  0.00000000000E+00  0.00000000000E+00  0.38067428307E+03  0.30472712067E+04  0.30234002212E+04 0.  0.
        1    1    3    3  502    0 -0.98822013860E+03  0.72850873114E+03  0.10793061562E+04  0.16346882860E+04  0.50400001928E-02 0.  1.
       -1    1    3    3    0  502  0.98822013860E+03 -0.72850873114E+03 -0.69863187309E+03  0.14125829207E+04  0.50400001928E-02 0. -1.
</event>
<event>
 5   0  0.3896630E-06  0.3083804E+04  0.7818609E-02  0.8220197E-01
       -1   -1    0    0    0  501  0.00000000000E+00  0.00000000000E+00  0.13407513919E+04  0.13407513919E+04  0.50400001928E-02 0. -1.
        1   -1    0    0  501    0  0.00000000000E+00  0.00000000000E+00 -0.17732306154E+04  0.17732306154E+04  0.50400001928E-02 0.  1.
    10030    2    1    2    0    0  0.00000000000E+00  0.00000000000E+00 -0.43247922344E+03  0.31139820073E+04  0.30838037653E+04 0.  0.
        5    1    3    3  502    0  0.11926825765E+04 -0.94218984712E+03 -0.47805649178E+03  0.15933529225E+04  0.46999998093E+01 0.  1.
       -5    1    3    3    0  502 -0.11926825765E+04  0.94218984712E+03  0.45577268343E+02  0.15206290848E+04  0.46999998093E+01 0. -1.
</event>
<event>
 5   0  0.3592331E-06  0.2988619E+04  0.7818609E-02  0.8246988E-01
        1   -1    0    0  501    0  0.00000000000E+00  0.00000000000E+00  0.18996824672E+04  0.18996824672E+04  0.50400001928E-02 0.  1.
       -1   -1    0    0    0  501  0.00000000000E+00  0.00000000000E+00 -0.11754389679E+04  0.11754389679E+04  0.50400001928E-02 0. -1.
    10030    2    1    2    0    0  0.00000000000E+00  0.00000000000E+00  0.72424349931E+03  0.30751214350E+04  0.29886189442E+04 0.  0.
        3    1    3    3  502    0 -0.10889208256E+04 -0.19304966233E+03  0.13961689981E+04  0.17810964651E+04  0.10100000352E+00 0.  1.
       -3    1    3    3    0  502  0.10889208256E+04  0.19304966233E+03 -0.67192549880E+03  0.12940249699E+04  0.10100000352E+00 0. -1.
</event>
<event>
 5   0  0.1057036E-05  0.2991276E+04  0.7818609E-02  0.8246227E-01
        2   -1    0    0  501    0  0.00000000000E+00  0.00000000000E+00  0.14543816671E+04  0.14543816671E+04  0.25500000920E-02 0.  1.
       -2   -1    0    0    0  501  0.00000000000E+00  0.00000000000E+00 -0.15380644616E+04  0.15380644616E+04  0.25500000920E-02 0. -1.
    10030    2    1    2    0    0  0.00000000000E+00  0.00000000000E+00 -0.83682794562E+02  0.29924461287E+04  0.29912758186E+04 0.  0.
        4    1    3    3  502    0 -0.11638460203E+03 -0.14909638249E+04 -0.62162886569E+02  0.14967913483E+04  0.12699999809E+01 0.  1.
       -4    1    3    3    0  502  0.11638460203E+03  0.14909638249E+04 -0.21519907994E+02  0.14956547804E+04  0.12699999809E+01 0. -1.
</event>
<event>
 5   0  0.3852126E-06  0.2996967E+04  0.7818609E-02  0.8244598E-01
       -1   -1    0    0    0  501  0.00000000000E+00  0.00000000000E+00  0.87818717647E+03  0.87818717648E+03  0.50400001928E-02 0.  1.
        1   -1    0    0  501    0  0.00000000000E+00  0.00000000000E+00 -0.25569177574E+04  0.25569177574E+04  0.50400001928E-02 0. -1.
    10030    2    1    2    0    0  0.00000000000E+00  0.00000000000E+00 -0.16787305809E+04  0.34351049339E+04  0.29969667238E+04 0.  0.
        1    1    3    3  502    0  0.13255049149E+04 -0.54602122226E+03 -0.13394394913E+04  0.19619379719E+04  0.50400001928E-02 0. -1.
       -1    1    3    3    0  502 -0.13255049149E+04  0.54602122226E+03 -0.33929108962E+03  0.14731669620E+04  0.50400001928E-02 0.  1.
</event>
<event>
 5   0  0.1028450E-05  0.2990931E+04  0.7818609E-02  0.8246325E-01
       -2   -1    0    0    0  501  0.00000000000E+00  0.00000000000E+00  0.15495059896E+04  0.15495059896E+04  0.25500000920E-02 0.  1.
        2   -1    0    0  501    0  0.00000000000E+00  0.00000000000E+00 -0.14433099022E+04  0.14433099022E+04  0.25500000920E-02 0. -1.
    10030    2    1    2    0    0  0.00000000000E+00  0.00000000000E+00  0.10619608741E+03  0.29928158918E+04  0.29909311850E+04 0.  0.
        3    1    3    3  502    0 -0.11970262208E+04  0.83842661536E+03  0.37045143131E+03  0.15076688084E+04  0.10100000352E+00 0. -1.
       -3    1    3    3    0  502  0.11970262208E+04 -0.83842661536E+03 -0.26425534390E+03  0.14851470835E+04  0.10100000352E+00 0.  1.
</event>
<event>
 5   0  0.1028450E-05  0.3111034E+04  0.7818609E-02  0.8212716E-01
        2   -1    0    0  501    0  0.00000000000E+00  0.00000000000E+00  0.14864752933E+04  0.14864752933E+04  0.25500000920E-02 0. -1.
       -2   -1    0    0    0  501  0.00000000000E+00  0.00000000000E+00 -0.16277658985E+04  0.16277658985E+04  0.25500000920E-02 0.  1.
    10030    2    1    2    0    0  0.00000000000E+00  0.00000000000E+00 -0.14129060520E+03  0.31142411919E+04  0.31110344206E+04 0.  0.
        3    1    3    3  502    0 -0.13652193612E+03  0.77858249283E+03  0.12704388950E+04  0.14962766901E+04  0.10100000352E+00 0. -1.
       -3    1    3    3    0  502  0.13652193612E+03 -0.77858249283E+03 -0.14117295002E+04  0.16179645018E+04  0.10100000352E+00 0.  1.
</event>
<event>
 5   0  0.1028450E-05  0.3056488E+04  0.7818609E-02  0.8227782E-01
        2   -1    0    0  501    0  0.00000000000E+00  0.00000000000E+00  0.24925827301E+04  0.24925827301E+04  0.25500000920E-02 0.  1.
       -2   -1    0    0    0  501  0.00000000000E+00  0.00000000000E+00 -0.93699190546E+03  0.93699190547E+03  0.25500000920E-02 0. -1.
    10030    2    1    2    0    0  0.00000000000E+00  0.00000000000E+00  0.15555908246E+04  0.34295746355E+04  0.30564880774E+04 0.  0.
        3    1    3    3  502    0  0.12299348200E+04  0.50203879485E+03  0.16254900860E+04  0.20992857459E+04  0.10100000352E+00 0.  1.
       -3    1    3    3    0  502 -0.12299348200E+04 -0.50203879485E+03 -0.69899261415E+02  0.13302888896E+04  0.10100000352E+00 0. -1.
</event>
<event>
 5   0  0.3725232E-06  0.2992989E+04  0.7818609E-02  0.8245736E-01
       -1   -1    0    0    0  501  0.00000000000E+00  0.00000000000E+00  0.15552269747E+04  0.15552269747E+04  0.50400001928E-02 0.  1.
        1   -1    0    0  501    0  0.00000000000E+00  0.00000000000E+00 -0.14399802470E+04  0.14399802470E+04  0.50400001928E-02 0. -1.
    10030    2    1    2    0    0  0.00000000000E+00  0.00000000000E+00  0.11524672776E+03  0.29952072217E+04  0.29929892236E+04 0.  0.
        2    1    3    3  502    0 -0.54723003966E+03 -0.12630003001E+04  0.64531118374E+03  0.15202161025E+04  0.25500000920E-02 0.  1.
       -2    1    3    3    0  502  0.54723003966E+03  0.12630003001E+04 -0.53006445598E+03  0.14749911193E+04  0.25500000920E-02 0. -1.
</event>
<event>
 5   0  0.1089569E-05  0.2951847E+04  0.7818609E-02  0.8257617E-01
        2   -1    0    0  501    0  0.00000000000E+00  0.00000000000E+00  0.12329640555E+04  0.12329640555E+04  0.25500000920E-02 0.  1.
       -2   -1    0    0    0  501  0.00000000000E+00  0.00000000000E+00 -0.17667583655E+04  0.17667583655E+04  0.25500000920E-02 0. -1.
    10030    2    1    2    0    0  0.00000000000E+00  0.00000000000E+00 -0.53379431003E+03  0.29997224209E+04  0.29518465809E+04 0.  0.
        5    1    3    3  502    0 -0.65494325932E+03 -0.12725820149E+04 -0.63317580695E+03  0.15650397280E+04  0.46999998093E+01 0. -1.
       -5    1    3    3    0  502  0.65494325932E+03  0.12725820149E+04  0.99381496922E+02  0.14346826930E+04  0.46999998093E+01 0.  1.
</event>
<event>
 5   0  0.1089569E-05  0.3026134E+04  0.7818609E-02  0.8236307E-01
       -2   -1    0    0    0  501  0.00000000000E+00  0.00000000000E+00  0.14372242074E+04  0.14372242074E+04  0.25500000920E-02 0. -1.
        2   -1    0    0  501    0  0.00000000000E+00  0.00000000000E+00 -0.15929122276E+04  0.15929122276E+04  0.25500000920E-02 0.  1.
    10030    2    1    2    0    0  0.00000000000E+00  0.00000000000E+00 -0.15568802018E+03  0.30301364350E+04  0.30261341767E+04 0.  0.
        5    1    3    3  502    0  0.60070321970E+03  0.13508013142E+04 -0.40051447757E+03  0.15316469846E+04  0.46999998093E+01 0. -1.
       -5    1    3    3    0  502 -0.60070321970E+03 -0.13508013142E+04  0.24482645738E+03  0.14984894504E+04  0.46999998093E+01 0.  1.
</event>
<event>
 5   0  0.1057036E-05  0.2996047E+04  0.7818609E-02  0.8244861E-01
       -2   -1    0    0    0  501  0.00000000000E+00  0.00000000000E+00  0.23398476507E+04  0.23398476507E+04  0.25500000920E-02 0. -1.
        2   -1    0    0  501    0  0.00000000000E+00  0.00000000000E+00 -0.95906834252E+03  0.95906834252E+03  0.25500000920E-02 0.  1.
    10030    2    1    2    0    0  0.00000000000E+00  0.00000000000E+00  0.13807793082E+04  0.32989159932E+04  0.29960466005E+04 0.  0.
        4    1    3    3  502    0 -0.71047891285E+03 -0.10383206168E+04 -0.20494062260E+03  0.12747126189E+04  0.12699999809E+01 0.  1.
       -4    1    3    3    0  502  0.71047891285E+03  0.10383206168E+04  0.15857199308E+04  0.20242033743E+04  0.12699999809E+01 0. -1.
</event>
<event>
 5   0  0.1057036E-05  0.3009912E+04  0.7818609E-02  0.8240906E-01
       -2   -1    0    0    0  501  0.00000000000E+00  0.00000000000E+00  0.12791643231E+04  0.12791643231E+04  0.25500000920E-02 0.  1.
        2   -1    0    0  501    0  0.00000000000E+00  0.00000000000E+00 -0.17706031052E+04  0.17706031052E+04  0.25500000920E-02 0. -1.
    10030    2    1    2    0    0  0.00000000000E+00  0.00000000000E+00 -0.49143878212E+03  0.30497674283E+04  0.30099118409E+04 0.  0.
        4    1    3    3  502    0  0.10442173575E+04  0.34192553934E+03 -0.12877276262E+04  0.16927926679E+04  0.12699999809E+01 0. -1.
       -4    1    3    3    0  502 -0.10442173575E+04 -0.34192553934E+03  0.79628884413E+03  0.13569747604E+04  0.12699999809E+01 0.  1.
</event>
<event>
 5   0  0.3636718E-06  0.2949331E+04  0.7818609E-02  0.8258350E-01
       -1   -1    0    0    0  501  0.00000000000E+00  0.00000000000E+00  0.22195260803E+04  0.22195260803E+04  0.50400001928E-02 0. -1.
        1   -1    0    0  501    0  0.00000000000E+00  0.00000000000E+00 -0.97977595439E+03  0.97977595441E+03  0.50400001928E-02 0.  1.
    10030    2    1    2    0    0  0.00000000000E+00  0.00000000000E+00  0.12397501259E+04  0.31993020347E+04  0.29493309639E+04 0.  0.
        4    1    3    3  502    0 -0.13340225323E+04  0.53366270560E+02  0.12991887311E+04  0.18628894351E+04  0.12699999809E+01 0. -1.
       -4    1    3    3    0  502  0.13340225323E+04 -0.53366270560E+02 -0.59438605226E+02  0.13364125996E+04  0.12699999809E+01 0.  1.
</event>
<event>
 5   0  0.1028450E-05  0.3042666E+04  0.7818609E-02  0.8231651E-01
       -2   -1    0    0    0  501  0.00000000000E+00  0.00000000000E+00  0.16639396954E+04  0.16639396954E+04  0.25500000920E-02 0.  1.
        2   -1    0    0  501    0  0.00000000000E+00  0.00000000000E+00 -0.13909483089E+04  0.13909483089E+04  0.25500000920E-02 0. -1.
    10030    2    1    2    0    0  0.00000000000E+00  0.00000000000E+00  0.27299138653E+03  0.30548880043E+04  0.30426660056E+04 0.  0.
        3    1    3    3  502    0 -0.16853844327E+03 -0.12819169379E+04  0.94142538849E+03  0.15993742573E+04  0.10100000352E+00 0.  1.
       -3    1    3    3    0  502  0.16853844327E+03  0.12819169379E+04 -0.66843400196E+03  0.14555137470E+04  0.10100000352E+00 0. -1.
</event>
<event>
 5   0  0.3636718E-06  0.2941736E+04  0.7818609E-02  0.8260567E-01
        1   -1    0    0  501    0  0.00000000000E+00  0.00000000000E+00  0.21131301226E+04  0.21131301226E+04  0.50400001928E-02 0.  1.
       -1   -1    0    0    0  501  0.00000000000E+00  0.00000000000E+00 -0.10238144334E+04  0.10238144334E+04  0.50400001928E-02 0. -1.
    10030    2    1    2    0    0  0.00000000000E+00  0.00000000000E+00  0.10893156892E+04  0.31369445560E+04  0.29417363031E+04 0.  0.
        4    1    3    3  502    0  0.11069446437E+04  0.81140785821E+03 -0.19346191691E+02  0.13726197743E+04  0.12699999809E+01 0. -1.
       -4    1    3    3    0  502 -0.11069446437E+04 -0.81140785821E+03  0.11086618808E+04  0.17643247818E+04  0.12699999809E+01 0.  1.
</event>
<event>
 5   0  0.1029922E-05  0.3019098E+04  0.7818609E-02  0.8238298E-01
        2   -1    0    0  501    0  0.00000000000E+00  0.00000000000E+00  0.16911189309E+04  0.16911189309E+04  0.25500000920E-02 0. -1.
       -2   -1    0    0    0  501  0.00000000000E+00  0.00000000000E+00 -0.13474738758E+04  0.13474738758E+04  0.25500000920E-02 0.  1.
    10030    2    1    2    0    0  0.00000000000E+00  0.00000000000E+00  0.34364505510E+03  0.30385928067E+04  0.30190982629E+04 0.  0.
        1    1    3    3  502    0 -0.72546990533E+03 -0.97740198357E+03 -0.72675673278E+03  0.14176729417E+04  0.50400001928E-02 0.  1.
       -1    1    3    3    0  502  0.72546990533E+03  0.97740198357E+03  0.10704017879E+04  0.16209198649E+04  0.50400001928E-02 0. -1.
</event>
<event>
 5   0  0.9647945E-06  0.3010966E+04  0.7818609E-02  0.8240606E-01
        2   -1    0    0  501    0  0.00000000000E+00  0.00000000000E+00  0.15467485322E+04  0.15467485322E+04  0.25500000920E-02 0. -1.
       -2   -1    0    0    0  501  0.00000000000E+00  0.00000000000E+00 -0.14653185106E+04  0.14653185106E+04  0.25500000920E-02 0.  1.
    10030    2    1    2    0    0  0.00000000000E+00  0.00000000000E+00  0.81430021625E+02  0.30120670428E+04  0.30109661276E+04 0.  0.
        2    1    3    3  502    0 -0.22177435094E+03 -0.13527347236E+03 -0.14427285625E+04  0.14659292207E+04  0.25500000920E-02 0.  1.
       -2    1    3    3    0  502  0.22177435094E+03  0.13527347236E+03  0.15241585842E+04  0.15461378220E+04  0.25500000920E-02 0. -1.
</event>
<event>
 5   0  0.3852126E-06  0.2886763E+04  0.7818609E-02  0.8276827E-01
       -1   -1    0    0    0  501  0.00000000000E+00  0.00000000000E+00  0.11957554216E+04  0.11957554217E+04  0.50400001928E-02 0. -1.
        1   -1    0    0  501    0  0.00000000000E+00  0.00000000000E+00 -0.17422872984E+04  0.17422872984E+04  0.50400001928E-02 0.  1.
    10030    2    1    2    0    0  0.00000000000E+00  0.00000000000E+00 -0.54653187674E+03  0.29380427200E+04  0.28867625348E+04 0.  0.
        1    1    3    3  502    0 -0.24706284305E+03 -0.13447967092E+04  0.19736733573E+03  0.13814746117E+04  0.50400001928E-02 0. -1.
       -1    1    3    3    0  502  0.24706284305E+03  0.13447967092E+04 -0.74389921247E+03  0.15565681083E+04  0.50400001928E-02 0.  1.
</event>
<event>
 5   0  0.3725232E-06  0.3032431E+04  0.7818609E-02  0.8234530E-01
        1   -1    0    0  501    0  0.00000000000E+00  0.00000000000E+00  0.12446559073E+04  0.12446559073E+04  0.50400001928E-02 0. -1.
       -1   -1    0    0    0  501  0.00000000000E+00  0.00000000000E+00 -0.18470237236E+04  0.18470237236E+04  0.50400001928E-02 0.  1.
    10030    2    1    2    0    0  0.00000000000E+00  0.00000000000E+00 -0.60236781635E+03  0.30916796309E+04  0.30324307006E+04 0.  0.
        2    1    3    3  502    0 -0.10937695696E+04  0.93640302012E+03 -0.78557358015E+03  0.16402159423E+04  0.25500000920E-02 0.  1.
       -2    1    3    3    0  502  0.10937695696E+04 -0.93640302012E+03  0.18320576379E+03  0.14514636886E+04  0.25500000920E-02 0. -1.
</event>
<event>
 5   0  0.1057036E-05  0.2996910E+04  0.7818609E-02  0.8244614E-01
       -2   -1    0    0    0  501  0.00000000000E+00  0.00000000000E+00  0.18776061270E+04  0.18776061270E+04  0.25500000920E-02 0.  1.
        2   -1    0    0  501    0  0.00000000000E+00  0.00000000000E+00 -0.11958667729E+04  0.11958667729E+04  0.25500000920E-02 0. -1.
    10030    2    1    2    0    0  0.00000000000E+00  0.00000000000E+00  0.68173935409E+03  0.30734728999E+04  0.29969095948E+04 0.  0.
        4    1    3    3  502    0  0.14918794385E+04 -0.24132695758E+02  0.48252343421E+03  0.15681572381E+04  0.12699999809E+01 0. -1.
       -4    1    3    3    0  502 -0.14918794385E+04  0.24132695758E+02  0.19921591988E+03  0.15053156618E+04  0.12699999809E+01 0.  1.
</event>
<event>
 5   0  0.1057036E-05  0.2965385E+04  0.7818609E-02  0.8253685E-01
       -2   -1    0    0    0  501  0.00000000000E+00  0.00000000000E+00  0.14757962673E+04  0.14757962673E+04  0.25500000920E-02 0. -1.
        2   -1    0    0  501    0  0.00000000000E+00  0.00000000000E+00 -0.14896206439E+04  0.14896206439E+04  0.25500000920E-02 0.  1.
    10030    2    1    2    0    0  0.00000000000E+00  0.00000000000E+00 -0.13824376536E+02  0.29654169112E+04  0.29653846873E+04 0.  0.
        4    1    3    3  502    0 -0.77130333640E+03  0.20916961610E+03 -0.12558109456E+04  0.14885306544E+04  0.12699999809E+01 0.  1.
       -4    1    3    3    0  502  0.77130333640E+03 -0.20916961610E+03  0.12419865690E+04  0.14768862568E+04  0.12699999809E+01 0. -1.
</event>
<event>
 5   0  0.3636718E-06  0.2945701E+04  0.7818609E-02  0.8259409E-01
        1   -1    0    0  501    0  0.00000000000E+00  0.00000000000E+00  0.15817875311E+04  0.15817875312E+04  0.50400001928E-02 0. -1.
       -1   -1    0    0    0  501  0.00000000000E+00  0.00000000000E+00 -0.13714158208E+04  0.13714158208E+04  0.50400001928E-02 0.  1.
    10030    2    1    2    0    0  0.00000000000E+00  0.00000000000E+00  0.21037171037E+03  0.29532033519E+04  0.29457008981E+04 0.  0.
        4    1    3    3  502    0  0.81434907490E+03  0.39540401284E+03  0.12699443635E+04  0.15595733546E+04  0.12699999809E+01 0. -1.
       -4    1    3    3    0  502 -0.81434907490E+03 -0.39540401284E+03 -0.10595726531E+04  0.13936299973E+04  0.12699999809E+01 0.  1.
</event>
<event>
 5   0  0.3725232E-06  0.2914926E+04  0.7818609E-02  0.8268450E-01
        1   -1    0    0  501    0  0.00000000000E+00  0.00000000000E+00  0.15732958746E+04  0.15732958746E+04  0.50400001928E-02 0. -1.
       -1   -1    0    0    0  501  0.00000000000E+00  0.00000000000E+00 -0.13501578496E+04  0.13501578496E+04  0.50400001928E-02 0.  1.
    10030    2    1    2    0    0  0.00000000000E+00  0.00000000000E+00  0.22313802500E+03  0.29234537242E+04  0.29149255735E+04 0.  0.
        2    1    3    3  502    0  0.98683012605E+03 -0.71217754282E+03 -0.69275439121E+03  0.14003353872E+04  0.25500000920E-02 0.  1.
       -2    1    3    3    0  502 -0.98683012605E+03  0.71217754282E+03  0.91589241621E+03  0.15231183369E+04  0.25500000920E-02 0. -1.
</event>
<event>
 5   0  0.1089569E-05  0.2874126E+04  0.7818609E-02  0.8280618E-01
       -2   -1    0    0    0  501  0.00000000000E+00  0.00000000000E+00  0.85690340576E+03  0.85690340576E+03  0.25500000920E-02 0.  1.
        2   -1    0    0  501    0  0.00000000000E+00  0.00000000000E+00 -0.24100149340E+04  0.24100149340E+04  0.25500000920E-02 0. -1.
    10030    2    1    2    0    0  0.00000000000E+00  0.00000000000E+00 -0.15531115283E+04  0.32669183398E+04  0.28741259575E+04 0.  0.
        5    1    3    3  502    0 -0.13851948438E+04 -0.33146721487E+03 -0.55941810424E+03  0.15302306935E+04  0.46999998093E+01 0. -1.
       -5    1    3    3    0  502  0.13851948438E+04  0.33146721487E+03 -0.99369342402E+03  0.17366876463E+04  0.46999998093E+01 0.  1.
</event>
<event>
 5   0  0.3725232E-06  0.2966805E+04  0.7818609E-02  0.8253274E-01
       -1   -1    0    0    0  501  0.00000000000E+00  0.00000000000E+00  0.14022566462E+04  0.14022566462E+04  0.50400001928E-02 0. -1.
        1   -1    0    0  501    0  0.00000000000E+00  0.00000000000E+00 -0.15692440320E+04  0.15692440320E+04  0.50400001928E-02 0.  1.
    10030    2    1    2    0    0  0.00000000000E+00  0.00000000000E+00 -0.16698738576E+03  0.29715006782E+04  0.29668049301E+04 0.  0.
        2    1    3    3  502    0  0.50584915353E+03  0.51258366767E+03 -0.13824108059E+04  0.15587446933E+04  0.25500000920E-02 0.  1.
       -2    1    3    3    0  502 -0.50584915353E+03 -0.51258366767E+03  0.12154234202E+04  0.14127559849E+04  0.25500000920E-02 0. -1.
</event>
<event>
 5   0  0.3896630E-06  0.2994572E+04  0.7818609E-02  0.8245283E-01
       -1   -1    0    0    0  501  0.00000000000E+00  0.00000000000E+00  0.30383531644E+04  0.30383531644E+04  0.50400001928E-02 0. -1.
        1   -1    0    0  501    0  0.00000000000E+00  0.00000000000E+00 -0.73785548491E+03  0.73785548493E+03  0.50400001928E-02 0.  1.
    10030    2    1    2    0    0  0.00000000000E+00  0.00000000000E+00  0.23004976794E+04  0.37762086493E+04  0.29945721213E+04 0.  0.
        5    1    3    3  502    0 -0.94220287241E+03 -0.62766168786E+02 -0.31500693037E+03  0.99545833710E+03  0.46999998093E+01 0.  1.
       -5    1    3    3    0  502  0.94220287241E+03  0.62766168786E+02  0.26155046098E+04  0.27807503122E+04  0.46999998093E+01 0. -1.
</event>
<event>
 5   0  0.9647945E-06  0.3087060E+04  0.7818609E-02  0.8219298E-01
       -2   -1    0    0    0  501  0.00000000000E+00  0.00000000000E+00  0.11955357035E+04  0.11955357035E+04  0.25500000920E-02 0.  1.
        2   -1    0    0  501    0  0.00000000000E+00  0.00000000000E+00 -0.19928173233E+04  0.19928173233E+04  0.25500000920E-02 0. -1.
    10030    2    1    2    0    0  0.00000000000E+00  0.00000000000E+00 -0.79728161979E+03  0.31883530268E+04  0.30870596111E+04 0.  0.
        2    1    3    3  502    0  0.75464720966E+02  0.13947505063E+03  0.11870997511E+04  0.11976452032E+04  0.25500000920E-02 0.  1.
       -2    1    3    3    0  502 -0.75464720966E+02 -0.13947505063E+03 -0.19843813708E+04  0.19907078236E+04  0.25500000920E-02 0. -1.
</event>
<event>
 5   0  0.3636718E-06  0.3001182E+04  0.7818609E-02  0.8243393E-01
        1   -1    0    0  501    0  0.00000000000E+00  0.00000000000E+00  0.21163470987E+04  0.21163470987E+04  0.50400001928E-02 0. -1.
       -1   -1    0    0    0  501  0.00000000000E+00  0.00000000000E+00 -0.10639907182E+04  0.10639907182E+04  0.50400001928E-02 0.  1.
    10030    2    1    2    0    0  0.00000000000E+00  0.00000000000E+00  0.10523563805E+04  0.31803378169E+04  0.30011822135E+04 0.  0.
        4    1    3    3  502    0 -0.42058634219E+03 -0.11953466670E+04  0.13779156152E+04  0.18720041616E+04  0.12699999809E+01 0. -1.
       -4    1    3    3    0  502  0.42058634219E+03  0.11953466670E+04 -0.32555923472E+03  0.13083336554E+04  0.12699999809E+01 0.  1.
</event>
<event>
 5   0  0.1028450E-05  0.3009767E+04  0.7818609E-02  0.8240947E-01
        2   -1    0    0  501    0  0.00000000000E+00  0.00000000000E+00  0.16582856063E+04  0.16582856063E+04  0.25500000920E-02 0. -1.
       -2   -1    0    0    0  501  0.00000000000E+00  0.00000000000E+00 -0.13656716402E+04  0.13656716402E+04  0.25500000920E-02 0.  1.
    10030    2    1    2    0    0  0.00000000000E+00  0.00000000000E+00  0.29261396604E+03  0.30239572465E+04  0.30097665184E+04 0.  0.
        3    1    3    3  502    0 -0.10518773624E+04  0.34559415467E+03 -0.87771010225E+03  0.14128893584E+04  0.10100000352E+00 0.  1.
       -3    1    3    3    0  502  0.10518773624E+04 -0.34559415467E+03  0.11703240683E+04  0.16110678881E+04  0.10100000352E+00 0. -1.
</event>
<event>
 5   0  0.3725232E-06  0.2907080E+04  0.7818609E-02  0.8270774E-01
        1   -1    0    0  501    0  0.00000000000E+00  0.00000000000E+00  0.13826551679E+04  0.13826551679E+04  0.50400001928E-02 0.  1.
       -1   -1    0    0    0  501  0.00000000000E+00  0.00000000000E+00 -0.15280590794E+04  0.15280590795E+04  0.50400001928E-02 0. -1.
    10030    2    1    2    0    0  0.00000000000E+00  0.00000000000E+00 -0.14540391151E+03  0.29107142474E+04  0.29070801730E+04 0.  0.
        2    1    3    3  502    0 -0.12302009502E+03 -0.45857469754E+03  0.13028254746E+04  0.13866430378E+04  0.25500000920E-02 0.  1.
       -2    1    3    3    0  502  0.12302009502E+03  0.45857469754E+03 -0.14482293861E+04  0.15240712096E+04  0.25500000920E-02 0. -1.
</event>
<event>
 5   0  0.9647945E-06  0.2984860E+04  0.7818609E-02  0.8248068E-01
        2   -1    0    0  501    0  0.00000000000E+00  0.00000000000E+00  0.18823704299E+04  0.18823704299E+04  0.25500000920E-02 0.  1.
       -2   -1    0    0    0  501  0.00000000000E+00  0.00000000000E+00 -0.11832671082E+04  0.11832671083E+04  0.25500000920E-02 0. -1.
    10030    2    1    2    0    0  0.00000000000E+00  0.00000000000E+00  0.69910332161E+03  0.30656375381E+04  0.29848598059E+04 0.  0.
        2    1    3    3  502    0 -0.50798053862E+03  0.27063002481E+03 -0.10646884642E+04  0.12103083755E+04  0.25500000920E-02 0. -1.
       -2    1    3    3    0  502  0.50798053862E+03 -0.27063002481E+03  0.17637917858E+04  0.18553291626E+04  0.25500000920E-02 0.  1.
</event>
<event>
 5   0  0.3592331E-06  0.2972346E+04  0.7818609E-02  0.8251672E-01
        1   -1    0    0  501    0  0.00000000000E+00  0.00000000000E+00  0.14105036949E+04  0.14105036949E+04  0.50400001928E-02 0.  1.
       -1   -1    0    0    0  501  0.00000000000E+00  0.00000000000E+00 -0.15659019805E+04  0.15659019805E+04  0.50400001928E-02 0. -1.
    10030    2    1    2    0    0  0.00000000000E+00  0.00000000000E+00 -0.15539828562E+03  0.29764056755E+04  0.29723462311E+04 0.  0.
        3    1    3    3  502    0 -0.12322168189E+04  0.59926745868E+03  0.49861336755E+03  0.14581135334E+04  0.10100000352E+00 0.  1.
       -3    1    3    3    0  502  0.12322168189E+04 -0.59926745868E+03 -0.65401165317E+03  0.15182921420E+04  0.10100000352E+00 0. -1.
</event>
<event>
 5   0  0.9647945E-06  0.2930267E+04  0.7818609E-02  0.8263929E-01
       -2   -1    0    0    0  501  0.00000000000E+00  0.00000000000E+00  0.23480124443E+04  0.23480124443E+04  0.25500000920E-02 0.  1.
        2   -1    0    0  501    0  0.00000000000E+00  0.00000000000E+00 -0.91422706589E+03  0.91422706589E+03  0.25500000920E-02 0. -1.
    10030    2    1    2    0    0  0.00000000000E+00  0.00000000000E+00  0.14337853784E+04  0.32622395102E+04  0.29302672422E+04 0.  0.
        2    1    3    3  502    0  0.17944276408E+02  0.50204621233E+03  0.22491319581E+04  0.23045535276E+04  0.25500000920E-02 0.  1.
       -2    1    3    3    0  502 -0.17944276408E+02 -0.50204621233E+03 -0.81534657968E+03  0.95768598266E+03  0.25500000920E-02 0. -1.
</event>
<event>
 5   0  0.3896630E-06  0.2712952E+04  0.7818609E-02  0.8330815E-01
        1   -1    0    0  501    0  0.00000000000E+00  0.00000000000E+00  0.17290072692E+04  0.17290072692E+04  0.50400001928E-02 0. -1.
       -1   -1    0    0    0  501  0.00000000000E+00  0.00000000000E+00 -0.10642104166E+04  0.10642104166E+04  0.50400001928E-02 0.  1.
    10030    2    1    2    0    0  0.00000000000E+00  0.00000000000E+00  0.66479685265E+03  0.27932176858E+04  0.27129523006E+04 0.  0.
        5    1    3    3  502    0 -0.12176740308E+04 -0.48922763827E+03 -0.21173649212E+02  0.13124572910E+04  0.46999998093E+01 0.  1.
       -5    1    3    3    0  502  0.12176740308E+04  0.48922763827E+03  0.68597050186E+03  0.14807603948E+04  0.46999998093E+01 0. -1.
</event>
<event>
 5   0  0.3636718E-06  0.2983772E+04  0.7818609E-02  0.8248380E-01
       -1   -1    0    0    0  501  0.00000000000E+00  0.00000000000E+00  0.12986981946E+04  0.12986981947E+04  0.50400001928E-02 0. -1.
        1   -1    0    0  501    0  0.00000000000E+00  0.00000000000E+00 -0.17138117913E+04  0.17138117913E+04  0.50400001928E-02 0.  1.
    10030    2    1    2    0    0  0.00000000000E+00  0.00000000000E+00 -0.41511359662E+03  0.30125099859E+04  0.29837722965E+04 0.  0.
        4    1    3    3  502    0 -0.14091504711E+04 -0.18513538202E+02 -0.70183796559E+03  0.15743652512E+04  0.12699999809E+01 0.  1.
       -4    1    3    3    0  502  0.14091504711E+04  0.18513538202E+02  0.28672436897E+03  0.14381447347E+04  0.12699999809E+01 0. -1.
</event>
<event>
 5   0  0.1028450E-05  0.2999343E+04  0.7818609E-02  0.8243919E-01
       -2   -1    0    0    0  501  0.00000000000E+00  0.00000000000E+00  0.13602014447E+04  0.13602014447E+04  0.25500000920E-02 0.  1.
        2   -1    0    0  501    0  0.00000000000E+00  0.00000000000E+00 -0.16534420258E+04  0.16534420258E+04  0.25500000920E-02 0. -1.
    10030    2    1    2    0    0  0.00000000000E+00  0.00000000000E+00 -0.29324058105E+03  0.30136434705E+04  0.29993427495E+04 0.  0.
        3    1    3    3  502    0  0.64238786560E+03 -0.10205696533E+04  0.74914013510E+03  0.14196603606E+04  0.10100000352E+00 0. -1.
       -3    1    3    3    0  502 -0.64238786560E+03  0.10205696533E+04 -0.10423807162E+04  0.15939831099E+04  0.10100000352E+00 0.  1.
</event>
<event>
 5   0  0.3592331E-06  0.2986205E+04  0.7818609E-02  0.8247681E-01
        1   -1    0    0  501    0  0.00000000000E+00  0.00000000000E+00  0.17508258739E+04  0.17508258739E+04  0.50400001928E-02 0. -1.
       -1   -1    0    0    0  501  0.00000000000E+00  0.00000000000E+00 -0.12733165247E+04  0.12733165248E+04  0.50400001928E-02 0.  1.
    10030    2    1    2    0    0  0.00000000000E+00  0.00000000000E+00  0.47750934915E+03  0.30241423987E+04  0.29862052958E+04 0.  0.
        3    1    3    3  502    0 -0.12119083863E+04  0.16448904205E+03  0.11061266913E+04  0.16490284562E+04  0.10100000352E+00 0. -1.
       -3    1    3    3    0  502  0.12119083863E+04 -0.16448904205E+03 -0.62861734220E+03  0.13751139425E+04  0.10100000352E+00 0.  1.
</event>
<event>
 5   0  0.3725232E-06  0.1931991E+04  0.7818609E-02  0.8639094E-01
       -1   -1    0    0    0  501  0.00000000000E+00  0.00000000000E+00  0.11358572195E+04  0.11358572195E+04  0.50400001928E-02 0. -1.
        1   -1    0    0  501    0  0.00000000000E+00  0.00000000000E+00 -0.82153584464E+03  0.82153584465E+03  0.50400001928E-02 0.  1.
    10030    2    1    2    0    0  0.00000000000E+00  0.00000000000E+00  0.31432137488E+03  0.19573930642E+04  0.19319911182E+04 0.  0.
        2    1    3    3  502    0 -0.16403065798E+03 -0.24145287045E+03  0.10901055147E+04  0.11285103360E+04  0.25500000920E-02 0. -1.
       -2    1    3    3    0  502  0.16403065798E+03  0.24145287045E+03 -0.77578413981E+03  0.82888272813E+03  0.25500000920E-02 0.  1.
</event>
<event>
 5   0  0.3725232E-06  0.3043416E+04  0.7818609E-02  0.8231441E-01
        1   -1    0    0  501    0  0.00000000000E+00  0.00000000000E+00  0.19386612341E+04  0.19386612341E+04  0.50400001928E-02 0.  1.
       -1   -1    0    0    0  501  0.00000000000E+00  0.00000000000E+00 -0.11944302036E+04  0.11944302036E+04  0.50400001928E-02 0. -1.
    10030    2    1    2    0    0  0.00000000000E+00  0.00000000000E+00  0.74423103055E+03  0.31330914377E+04  0.30434161940E+04 0.  0.
        2    1    3    3  502    0  0.63980379416E+03 -0.72561757893E+03 -0.83711224857E+03  0.12793071103E+04  0.25500000920E-02 0. -1.
       -2    1    3    3    0  502 -0.63980379416E+03  0.72561757893E+03  0.15813432791E+04  0.18537843273E+04  0.25500000920E-02 0.  1.
</event>
<event>
 5   0  0.1057036E-05  0.3007143E+04  0.7818609E-02  0.8241694E-01
        2   -1    0    0  501    0  0.00000000000E+00  0.00000000000E+00  0.21780008914E+04  0.21780008914E+04  0.25500000920E-02 0. -1.
       -2   -1    0    0    0  501  0.00000000000E+00  0.00000000000E+00 -0.10379830368E+04  0.10379830368E+04  0.25500000920E-02 0.  1.
    10030    2    1    2    0    0  0.00000000000E+00  0.00000000000E+00  0.11400178546E+04  0.32159839282E+04  0.30071434814E+04 0.  0.
        4    1    3    3  502    0 -0.12790507400E+04  0.48605777245E+03  0.12365963859E+04  0.18442871762E+04  0.12699999809E+01 0. -1.
       -4    1    3    3    0  502  0.12790507400E+04 -0.48605777245E+03 -0.96578531289E+02  0.13716967520E+04  0.12699999809E+01 0.  1.
</event>
<event>
 5   0  0.3852126E-06  0.3022176E+04  0.7818609E-02  0.8237427E-01
       -1   -1    0    0    0  501  0.00000000000E+00  0.00000000000E+00  0.10195642853E+04  0.10195642853E+04  0.50400001928E-02 0.  1.
        1   -1    0    0  501    0  0.00000000000E+00  0.00000000000E+00 -0.22395711933E+04  0.22395711933E+04  0.50400001928E-02 0. -1.
    10030    2    1    2    0    0  0.00000000000E+00  0.00000000000E+00 -0.12200069080E+04  0.32591354786E+04  0.30221759069E+04 0.  0.
        1    1    3    3  502    0 -0.65077390195E+03 -0.88937329646E+03 -0.17249402608E+04  0.20469270713E+04  0.50400001928E-02 0. -1.
       -1    1    3    3    0  502  0.65077390195E+03  0.88937329646E+03  0.50493335281E+03  0.12122084073E+04  0.50400001928E-02 0.  1.
</event>
<event>
 5   0  0.3852126E-06  0.2893625E+04  0.7818609E-02  0.8274777E-01
        1   -1    0    0  501    0  0.00000000000E+00  0.00000000000E+00  0.82854661633E+03  0.82854661634E+03  0.50400001928E-02 0. -1.
       -1   -1    0    0    0  501  0.00000000000E+00  0.00000000000E+00 -0.25264321079E+04  0.25264321079E+04  0.50400001928E-02 0.  1.
    10030    2    1    2    0    0  0.00000000000E+00  0.00000000000E+00 -0.16978854916E+04  0.33549787242E+04  0.28936252518E+04 0.  0.
        1    1    3    3  502    0 -0.53079882283E+03 -0.40597277200E+03  0.63889458667E+03  0.92452559447E+03  0.50400001928E-02 0. -1.
       -1    1    3    3    0  502  0.53079882283E+03  0.40597277200E+03 -0.23367800782E+04  0.24304531298E+04  0.50400001928E-02 0.  1.
</event>
<event>
 5   0  0.1089569E-05  0.3058164E+04  0.7818609E-02  0.8227314E-01
        2   -1    0    0  501    0  0.00000000000E+00  0.00000000000E+00  0.17914681798E+04  0.17914681798E+04  0.25500000920E-02 0.  1.
       -2   -1    0    0    0  501  0.00000000000E+00  0.00000000000E+00 -0.13051261368E+04  0.13051261368E+04  0.25500000920E-02 0. -1.
    10030    2    1    2    0    0  0.00000000000E+00  0.00000000000E+00  0.48634204299E+03  0.30965943166E+04  0.30581641190E+04 0.  0.
        5    1    3    3  502    0 -0.14017195984E+04  0.47174127069E+03 -0.14992416175E+03  0.14865587790E+04  0.46999998093E+01 0. -1.
       -5    1    3    3    0  502  0.14017195984E+04 -0.47174127069E+03  0.63626620474E+03  0.16100355376E+04  0.46999998093E+01 0.  1.
</event>
<event>
 5   0  0.1029922E-05  0.2985011E+04  0.7818609E-02  0.8248024E-01
       -2   -1    0    0    0  501  0.00000000000E+00  0.00000000000E+00  0.13665634518E+04  0.13665634518E+04  0.25500000920E-02 0.  1.
        2   -1    0    0  501    0  0.00000000000E+00  0.00000000000E+00 -0.16300541672E+04  0.16300541672E+04  0.25500000920E-02 0. -1.
    10030    2    1    2    0    0  0.00000000000E+00  0.00000000000E+00 -0.26349071538E+03  0.29966176190E+04  0.29850108538E+04 0.  0.
        1    1    3    3  502    0 -0.12921124549E+04  0.68042448539E+03  0.17773955346E+03  0.14710959946E+04  0.50400001928E-02 0.  1.
       -1    1    3    3    0  502  0.12921124549E+04 -0.68042448539E+03 -0.44123026885E+03  0.15255216244E+04  0.50400001928E-02 0. -1.
</event>
<event>
 5   0  0.1029922E-05  0.3051023E+04  0.7818609E-02  0.8229309E-01
       -2   -1    0    0    0  501  0.00000000000E+00  0.00000000000E+00  0.12721232659E+04  0.12721232659E+04  0.25500000920E-02 0.  1.
        2   -1    0    0  501    0  0.00000000000E+00  0.00000000000E+00 -0.18293708400E+04  0.18293708400E+04  0.25500000920E-02 0. -1.
    10030    2    1    2    0    0  0.00000000000E+00  0.00000000000E+00 -0.55724757410E+03  0.31014941059E+04  0.30510229153E+04 0.  0.
        1    1    3    3  502    0 -0.11759055623E+04 -0.80506397146E+03 -0.83196593027E+03  0.16501664155E+04  0.50400001928E-02 0.  1.
       -1    1    3    3    0  502  0.11759055623E+04  0.80506397146E+03  0.27471835617E+03  0.14513276904E+04  0.50400001928E-02 0. -1.
</event>
<event>
 5   0  0.3592331E-06  0.3070617E+04  0.7818609E-02  0.8223848E-01
       -1   -1    0    0    0  501  0.00000000000E+00  0.00000000000E+00  0.17282306042E+04  0.17282306042E+04  0.50400001928E-02 0.  1.
        1   -1    0    0  501    0  0.00000000000E+00  0.00000000000E+00 -0.13639224235E+04  0.13639224235E+04  0.50400001928E-02 0. -1.
    10030    2    1    2    0    0  0.00000000000E+00  0.00000000000E+00  0.36430818066E+03  0.30921530277E+04  0.30706171849E+04 0.  0.
        3    1    3    3  502    0 -0.58810417554E+03  0.13591517722E+04  0.58997890522E+03  0.15941252084E+04  0.10100000352E+00 0. -1.
       -3    1    3    3    0  502  0.58810417554E+03 -0.13591517722E+04 -0.22567072456E+03  0.14980278193E+04  0.10100000352E+00 0.  1.
</event>
<event>
 5   0  0.1089569E-05  0.2911432E+04  0.7818609E-02  0.8269484E-01
        2   -1    0    0  501    0  0.00000000000E+00  0.00000000000E+00  0.19036319669E+04  0.19036319669E+04  0.25500000920E-02 0.  1.
       -2   -1    0    0    0  501  0.00000000000E+00  0.00000000000E+00 -0.11131923766E+04  0.11131923766E+04  0.25500000920E-02 0. -1.
    10030    2    1    2    0    0  0.00000000000E+00  0.00000000000E+00  0.79043959038E+03  0.30168243435E+04  0.29114316708E+04 0.  0.
        5    1    3    3  502    0 -0.51415396053E+02 -0.80310231144E+03 -0.86173330806E+03  0.11790772875E+04  0.46999998093E+01 0. -1.
       -5    1    3    3    0  502  0.51415396053E+02  0.80310231144E+03  0.16521728984E+04  0.18377470560E+04  0.46999998093E+01 0.  1.
</event>
<event>
 5   0  0.9647945E-06  0.3087719E+04  0.7818609E-02  0.8219116E-01
       -2   -1    0    0    0  501  0.00000000000E+00  0.00000000000E+00  0.10206123643E+04  0.10206123643E+04  0.25500000920E-02 0. -1.
        2   -1    0    0  501    0  0.00000000000E+00  0.00000000000E+00 -0.23353652061E+04  0.23353652061E+04  0.25500000920E-02 0.  1.
    10030    2    1    2    0    0  0.00000000000E+00  0.00000000000E+00 -0.13147528418E+04  0.33559775704E+04  0.30877192907E+04 0.  0.
        2    1    3    3  502    0 -0.10477704742E+03  0.74756811014E+03  0.80635005918E+03  0.11045527271E+04  0.25500000920E-02 0. -1.
       -2    1    3    3    0  502  0.10477704742E+03 -0.74756811014E+03 -0.21211029009E+04  0.22514248434E+04  0.25500000920E-02 0.  1.
</event>
<event>
 5   0  0.3896630E-06  0.2895868E+04  0.7818609E-02  0.8274108E-01
       -1   -1    0    0    0  501  0.00000000000E+00  0.00000000000E+00  0.10924708497E+04  0.10924708497E+04  0.50400001928E-02 0. -1.
        1   -1    0    0  501    0  0.00000000000E+00  0.00000000000E+00 -0.19190559573E+04  0.19190559573E+04  0.50400001928E-02 0.  1.
    10030    2    1    2    0    0  0.00000000000E+00  0.00000000000E+00 -0.82658510756E+03  0.30115268070E+04  0.28958678784E+04 0.  0.
        5    1    3    3  502    0 -0.13501753488E+04 -0.28177445859E+03  0.44895170012E+02  0.13800028929E+04  0.46999998093E+01 0. -1.
       -5    1    3    3    0  502  0.13501753488E+04  0.28177445859E+03 -0.87148027757E+03  0.16315239141E+04  0.46999998093E+01 0.  1.
</event>
<event>
 5   0  0.1029922E-05  0.3009502E+04  0.7818609E-02  0.8241023E-01
       -2   -1    0    0    0  501  0.00000000000E+00  0.00000000000E+00  0.12904613557E+04  0.12904613557E+04  0.25500000920E-02 0.  1.
        2   -1    0    0  501    0  0.00000000000E+00  0.00000000000E+00 -0.17546247814E+04  0.17546247814E+04  0.25500000920E-02 0. -1.
    10030    2    1    2    0    0  0.00000000000E+00  0.00000000000E+00 -0.46416342574E+03  0.30450861371E+04  0.30095019350E+04 0.  0.
        1    1    3    3  502    0 -0.12059478024E+03  0.84343276787E+03  0.10228873873E+04  0.13312477388E+04  0.50400001928E-02 0.  1.
       -1    1    3    3    0  502  0.12059478024E+03 -0.84343276787E+03 -0.14870508130E+04  0.17138383983E+04  0.50400001928E-02 0. -1.
</event>
<event>
 5   0  0.1057036E-05  0.2992129E+04  0.7818609E-02  0.8245982E-01
        2   -1    0    0  501    0  0.00000000000E+00  0.00000000000E+00  0.16671548006E+04  0.16671548006E+04  0.25500000920E-02 0.  1.
       -2   -1    0    0    0  501  0.00000000000E+00  0.00000000000E+00 -0.13425324876E+04  0.13425324876E+04  0.25500000920E-02 0. -1.
    10030    2    1    2    0    0  0.00000000000E+00  0.00000000000E+00  0.32462231306E+03  0.30096872882E+04  0.29921293299E+04 0.  0.
        4    1    3    3  502    0  0.23121409523E+03 -0.14749736069E+04  0.65827646609E+02  0.14944370147E+04  0.12699999809E+01 0.  1.
       -4    1    3    3    0  502 -0.23121409523E+03  0.14749736069E+04  0.25879466645E+03  0.15152502735E+04  0.12699999809E+01 0. -1.
</event>
<event>
 5   0  0.1029922E-05  0.2637476E+04  0.7818609E-02  0.8355582E-01
        2   -1    0    0  501    0  0.00000000000E+00  0.00000000000E+00  0.14400408438E+04  0.14400408438E+04  0.25500000920E-02 0.  1.
       -2   -1    0    0    0  501  0.00000000000E+00  0.00000000000E+00 -0.12076528796E+04  0.12076528796E+04  0.25500000920E-02 0. -1.
    10030    2    1    2    0    0  0.00000000000E+00  0.00000000000E+00  0.23238796415E+03  0.26476937234E+04  0.26374756657E+04 0.  0.
        1    1    3    3  502    0 -0.39131404283E+03  0.76381211890E+03 -0.88895122177E+03  0.12356253104E+04  0.50400001928E-02 0. -1.
       -1    1    3    3    0  502  0.39131404283E+03 -0.76381211890E+03  0.11213391859E+04  0.14120684130E+04  0.50400001928E-02 0.  1.
</event>
<event>
 5   0  0.9647945E-06  0.2971892E+04  0.7818609E-02  0.8251803E-01
        2   -1    0    0  501    0  0.00000000000E+00  0.00000000000E+00  0.20694465700E+04  0.20694465700E+04  0.25500000920E-02 0. -1.
       -2   -1    0    0    0  501  0.00000000000E+00  0.00000000000E+00 -0.10669688547E+04  0.10669688547E+04  0.25500000920E-02 0.  1.
    10030    2    1    2    0    0  0.00000000000E+00  0.00000000000E+00  0.10024777153E+04  0.31364154247E+04  0.29718916781E+04 0.  0.
        2    1    3    3  502    0 -0.59800219895E+03 -0.84124882845E+03  0.16294027470E+04  0.19287974319E+04  0.25500000920E-02 0. -1.
       -2    1    3    3    0  502  0.59800219895E+03  0.84124882845E+03 -0.62692503162E+03  0.12076179928E+04  0.25500000920E-02 0.  1.
</event>
<event>
 5   0  0.3725232E-06  0.2443283E+04  0.7818609E-02  0.8423475E-01
       -1   -1    0    0    0  501  0.00000000000E+00  0.00000000000E+00  0.90242746210E+03  0.90242746211E+03  0.50400001928E-02 0.  1.
        1   -1    0    0  501    0  0.00000000000E+00  0.00000000000E+00 -0.16537702844E+04  0.16537702844E+04  0.50400001928E-02 0. -1.
    10030    2    1    2    0    0  0.00000000000E+00  0.00000000000E+00 -0.75134282226E+03  0.25561977465E+04  0.24432828085E+04 0.  0.
        2    1    3    3  502    0  0.18725771690E+03 -0.11902728228E+04 -0.58645928173E+03  0.13400557206E+04  0.25500000920E-02 0.  1.
       -2    1    3    3    0  502 -0.18725771690E+03  0.11902728228E+04 -0.16488354054E+03  0.12161420259E+04  0.25500000920E-02 0. -1.
</event>
<event>
 5   0  0.3725232E-06  0.3002034E+04  0.7818609E-02  0.8243150E-01
        1   -1    0    0  501    0  0.00000000000E+00  0.00000000000E+00  0.23363781176E+04  0.23363781176E+04  0.50400001928E-02 0.  1.
       -1   -1    0    0    0  501  0.00000000000E+00  0.00000000000E+00 -0.96433517292E+03  0.96433517293E+03  0.50400001928E-02 0. -1.
    10030    2    1    2    0    0  0.00000000000E+00  0.00000000000E+00  0.13720429447E+04  0.33007132905E+04  0.30020337080E+04 0.  0.
        2    1    3    3  502    0  0.34037426931E+03 -0.39048378682E+03 -0.86294419263E+03  0.10064814507E+04  0.25500000920E-02 0. -1.
       -2    1    3    3    0  502 -0.34037426931E+03  0.39048378682E+03  0.22349871373E+04  0.22942318398E+04  0.25500000920E-02 0.  1.
</event>
<event>
 5   0  0.1029922E-05  0.2910163E+04  0.7818609E-02  0.8269860E-01
       -2   -1    0    0    0  501  0.00000000000E+00  0.00000000000E+00  0.18474551689E+04  0.18474551689E+04  0.25500000920E-02 0.  1.
        2   -1    0    0  501    0  0.00000000000E+00  0.00000000000E+00 -0.11460427483E+04  0.11460427483E+04  0.25500000920E-02 0. -1.
    10030    2    1    2    0    0  0.00000000000E+00  0.00000000000E+00  0.70141242055E+03  0.29934979172E+04  0.29101632938E+04 0.  0.
        1    1    3    3  502    0  0.84714115483E+03  0.26934199111E+03  0.15356790929E+04  0.17744022996E+04  0.50400001928E-02 0.  1.
       -1    1    3    3    0  502 -0.84714115483E+03 -0.26934199111E+03 -0.83426667233E+03  0.12190956176E+04  0.50400001928E-02 0. -1.
</event>
<event>
 5   0  0.3592331E-06  0.2242764E+04  0.7818609E-02  0.8500837E-01
       -1   -1    0    0    0  501  0.00000000000E+00  0.00000000000E+00  0.12105264890E+04  0.12105264890E+04  0.50400001928E-02 0. -1.
        1   -1    0    0  501    0  0.00000000000E+00  0.00000000000E+00 -0.10388019582E+04  0.10388019582E+04  0.50400001928E-02 0.  1.
    10030    2    1    2    0    0  0.00000000000E+00  0.00000000000E+00  0.17172453084E+03  0.22493284472E+04  0.22427637301E+04 0.  0.
        3    1    3    3  502    0 -0.22139173079E+03  0.56134145483E+02  0.11869519235E+04  0.12087266935E+04  0.10100000352E+00 0. -1.
       -3    1    3    3    0  502  0.22139173079E+03 -0.56134145483E+02 -0.10152273926E+04  0.10406017537E+04  0.10100000352E+00 0.  1.
</event>
<event>
 5   0  0.3896630E-06  0.2114812E+04  0.7818609E-02  0.8554746E-01
       -1   -1    0    0    0  501  0.00000000000E+00  0.00000000000E+00  0.86334653411E+03  0.86334653412E+03  0.50400001928E-02 0. -1.
        1   -1    0    0  501    0  0.00000000000E+00  0.00000000000E+00 -0.12950858785E+04  0.12950858785E+04  0.50400001928E-02 0.  1.
    10030    2    1    2    0    0  0.00000000000E+00  0.00000000000E+00 -0.43173934440E+03  0.21584324126E+04  0.21148124310E+04 0.  0.
        5    1    3    3  502    0 -0.21875629986E+03  0.91076759364E+03 -0.71663610875E+03  0.11793817578E+04  0.46999998093E+01 0. -1.
       -5    1    3    3    0  502  0.21875629986E+03 -0.91076759364E+03  0.28489676435E+03  0.97905065481E+03  0.46999998093E+01 0.  1.
</event>
<event>
 5   0  0.1028450E-05  0.2888946E+04  0.7818609E-02  0.8276174E-01
       -2   -1    0    0    0  501  0.00000000000E+00  0.00000000000E+00  0.10711650596E+04  0.10711650596E+04  0.25500000920E-02 0. -1.
        2   -1    0    0  501    0  0.00000000000E+00  0.00000000000E+00 -0.19478809381E+04  0.19478809381E+04  0.25500000920E-02 0.  1.
    10030    2    1    2    0    0  0.00000000000E+00  0.00000000000E+00 -0.87671587851E+03  0.30190459978E+04  0.28889458294E+04 0.  0.
        3    1    3    3  502    0 -0.12241887186E+04 -0.55327980443E+03  0.11634283480E+03  0.13484406647E+04  0.10100000352E+00 0. -1.
       -3    1    3    3    0  502  0.12241887186E+04  0.55327980443E+03 -0.99305871331E+03  0.16706053331E+04  0.10100000352E+00 0.  1.
</event>
<event>
 5   0  0.3636718E-06  0.2992684E+04  0.7818609E-02  0.8245823E-01
        1   -1    0    0  501    0  0.00000000000E+00  0.00000000000E+00  0.18018866577E+04  0.18018866577E+04  0.50400001928E-02 0. -1.
       -1   -1    0    0    0  501  0.00000000000E+00  0.00000000000E+00 -0.12426086402E+04  0.12426086402E+04  0.50400001928E-02 0.  1.
    10030    2    1    2    0    0  0.00000000000E+00  0.00000000000E+00  0.55927801748E+03  0.30444952979E+04  0.29926843666E+04 0.  0.
        4    1    3    3  502    0  0.14654004619E+04 -0.16345864979E+03  0.20431703723E+02  0.14746309068E+04  0.12699999809E+01 0. -1.
       -4    1    3    3    0  502 -0.14654004619E+04  0.16345864979E+03  0.53884631376E+03  0.15698643911E+04  0.12699999809E+01 0.  1.
</event>
<event>
 5   0  0.9647945E-06  0.2570894E+04  0.7818609E-02  0.8378156E-01
        2   -1    0    0  501    0  0.00000000000E+00  0.00000000000E+00  0.90621635877E+03  0.90621635878E+03  0.25500000920E-02 0. -1.
       -2   -1    0    0    0  501  0.00000000000E+00  0.00000000000E+00 -0.18233767874E+04  0.18233767874E+04  0.25500000920E-02 0.  1.
    10030    2    1    2    0    0  0.00000000000E+00  0.00000000000E+00 -0.91716042863E+03  0.27295931462E+04  0.25708939091E+04 0.  0.
        2    1    3    3  502    0 -0.39727332811E+03 -0.43234818533E+03 -0.16726817532E+04  0.17727423101E+04  0.25500000920E-02 0.  1.
       -2    1    3    3    0  502  0.39727332811E+03  0.43234818533E+03  0.75552132457E+03  0.95685083606E+03  0.25500000920E-02 0. -1.
</event>
<event>
 5   0  0.3852126E-06  0.2994312E+04  0.7818609E-02  0.8245357E-01
       -1   -1    0    0    0  501  0.00000000000E+00  0.00000000000E+00  0.13669010954E+04  0.13669010954E+04  0.50400001928E-02 0.  1.
        1   -1    0    0  501    0  0.00000000000E+00  0.00000000000E+00 -0.16398235522E+04  0.16398235522E+04  0.50400001928E-02 0. -1.
    10030    2    1    2    0    0  0.00000000000E+00  0.00000000000E+00 -0.27292245676E+03  0.30067246477E+04  0.29943123483E+04 0.  0.
        1    1    3    3  502    0 -0.10952655996E+04 -0.64766556390E+03  0.65573189282E+03  0.14314544113E+04  0.50400001928E-02 0.  1.
       -1    1    3    3    0  502  0.10952655996E+04  0.64766556390E+03 -0.92865434959E+03  0.15752702363E+04  0.50400001928E-02 0. -1.
</event>
<event>
 5   0  0.3852126E-06  0.2256910E+04  0.7818609E-02  0.8495107E-01
        1   -1    0    0  501    0  0.00000000000E+00  0.00000000000E+00  0.13173278554E+04  0.13173278555E+04  0.50400001928E-02 0. -1.
       -1   -1    0    0    0  501  0.00000000000E+00  0.00000000000E+00 -0.96666175674E+03  0.96666175675E+03  0.50400001928E-02 0.  1.
    10030    2    1    2    0    0  0.00000000000E+00  0.00000000000E+00  0.35066609870E+03  0.22839896122E+04  0.22569097979E+04 0.  0.
        1    1    3    3  502    0  0.24721834522E+03 -0.11008574380E+04  0.19573555197E+03  0.11451272485E+04  0.50400001928E-02 0.  1.
       -1    1    3    3    0  502 -0.24721834522E+03  0.11008574380E+04  0.15493054674E+03  0.11388623637E+04  0.50400001928E-02 0. -1.
</event>
<event>
 5   0  0.1089569E-05  0.3010299E+04  0.7818609E-02  0.8240796E-01
        2   -1    0    0  501    0  0.00000000000E+00  0.00000000000E+00  0.18066130632E+04  0.18066130632E+04  0.25500000920E-02 0.  1.
       -2   -1    0    0    0  501  0.00000000000E+00  0.00000000000E+00 -0.12539902223E+04  0.12539902223E+04  0.25500000920E-02 0. -1.
    10030    2    1    2    0    0  0.00000000000E+00  0.00000000000E+00  0.55262284086E+03  0.30606032855E+04  0.30102990660E+04 0.  0.
        5    1    3    3  502    0 -0.13864693270E+04  0.36311792045E+03  0.74366802662E+03  0.16146875991E+04  0.46999998093E+01 0. -1.
       -5    1    3    3    0  502  0.13864693270E+04 -0.36311792045E+03 -0.19104518576E+03  0.14459156863E+04  0.46999998093E+01 0.  1.
</event>
<event>
 5   0  0.3592331E-06  0.3005788E+04  0.7818609E-02  0.8242080E-01
        1   -1    0    0  501    0  0.00000000000E+00  0.00000000000E+00  0.19333274361E+04  0.19333274361E+04  0.50400001928E-02 0. -1.
       -1   -1    0    0    0  501  0.00000000000E+00  0.00000000000E+00 -0.11682917827E+04  0.11682917828E+04  0.50400001928E-02 0.  1.
    10030    2    1    2    0    0  0.00000000000E+00  0.00000000000E+00  0.76503565333E+03  0.31016192188E+04  0.30057881209E+04 0.  0.
        3    1    3    3  502    0  0.41373838956E+03  0.11325114481E+04  0.13083001383E+04  0.17791601662E+04  0.10100000352E+00 0. -1.
       -3    1    3    3    0  502 -0.41373838956E+03 -0.11325114481E+04 -0.54326448493E+03  0.13224590526E+04  0.10100000352E+00 0.  1.
</event>
<event>
 5   0  0.3896630E-06  0.1945084E+04  0.7818609E-02  0.8632735E-01
       -1   -1    0    0    0  501  0.00000000000E+00  0.00000000000E+00  0.61012717539E+03  0.61012717541E+03  0.50400001928E-02 0.  1.
        1   -1    0    0  501    0  0.00000000000E+00  0.00000000000E+00 -0.15502301389E+04  0.15502301389E+04  0.50400001928E-02 0. -1.
    10030    2    1    2    0    0  0.00000000000E+00  0.00000000000E+00 -0.94010296347E+03  0.21603573143E+04  0.19450835826E+04 0.  0.
        5    1    3    3  502    0  0.34341609694E+03 -0.22173481894E+03  0.51006219670E+03  0.65367153837E+03  0.46999998093E+01 0.  1.
       -5    1    3    3    0  502 -0.34341609694E+03  0.22173481894E+03 -0.14501651602E+04  0.15066857759E+04  0.46999998093E+01 0. -1.
</event>
<event>
 5   0  0.9647945E-06  0.2859601E+04  0.7818609E-02  0.8285000E-01
       -2   -1    0    0    0  501  0.00000000000E+00  0.00000000000E+00  0.11128950878E+04  0.11128950878E+04  0.25500000920E-02 0. -1.
        2   -1    0    0  501    0  0.00000000000E+00  0.00000000000E+00 -0.18369474647E+04  0.18369474647E+04  0.25500000920E-02 0.  1.
    10030    2    1    2    0    0  0.00000000000E+00  0.00000000000E+00 -0.72405237685E+03  0.29498425525E+04  0.28596012380E+04 0.  0.
        2    1    3    3  502    0  0.64607255451E+03  0.12754519675E+04 -0.34971893051E+03  0.14719004034E+04  0.25500000920E-02 0.  1.
       -2    1    3    3    0  502 -0.64607255451E+03 -0.12754519675E+04 -0.37433344634E+03  0.14779421491E+04  0.25500000920E-02 0. -1.
</event>
<event>
 5   0  0.1057036E-05  0.2984857E+04  0.7818609E-02  0.8248068E-01
        2   -1    0    0  501    0  0.00000000000E+00  0.00000000000E+00  0.16753241457E+04  0.16753241457E+04  0.25500000920E-02 0.  1.
       -2   -1    0    0    0  501  0.00000000000E+00  0.00000000000E+00 -0.13294998090E+04  0.13294998090E+04  0.25500000920E-02 0. -1.
    10030    2    1    2    0    0  0.00000000000E+00  0.00000000000E+00  0.34582433665E+03  0.30048239547E+04  0.29848572038E+04 0.  0.
        4    1    3    3  502    0  0.28998924967E+03 -0.13075401110E+04  0.83578986293E+03  0.15787023832E+04  0.12699999809E+01 0. -1.
       -4    1    3    3    0  502 -0.28998924967E+03  0.13075401110E+04 -0.48996552628E+03  0.14261215715E+04  0.12699999809E+01 0.  1.
</event>
<event>
 5   0  0.3592331E-06  0.2935963E+04  0.7818609E-02  0.8262257E-01
        1   -1    0    0  501    0  0.00000000000E+00  0.00000000000E+00  0.15091991732E+04  0.15091991732E+04  0.50400001928E-02 0.  1.
       -1   -1    0    0    0  501  0.00000000000E+00  0.00000000000E+00 -0.14278891073E+04  0.14278891073E+04  0.50400001928E-02 0. -1.
    10030    2    1    2    0    0  0.00000000000E+00  0.00000000000E+00  0.81310065901E+02  0.29370882805E+04  0.29359625748E+04 0.  0.
        3    1    3    3  502    0  0.97167038497E+03  0.70906451207E+03 -0.80112658819E+03  0.14452403398E+04  0.10100000352E+00 0.  1.
       -3    1    3    3    0  502 -0.97167038497E+03 -0.70906451207E+03  0.88243665409E+03  0.14918479406E+04  0.10100000352E+00 0. -1.
</event>
<event>
 5   0  0.9647945E-06  0.3048683E+04  0.7818609E-02  0.8229964E-01
        2   -1    0    0  501    0  0.00000000000E+00  0.00000000000E+00  0.16664825863E+04  0.16664825863E+04  0.25500000920E-02 0. -1.
       -2   -1    0    0    0  501  0.00000000000E+00  0.00000000000E+00 -0.13943238363E+04  0.13943238363E+04  0.25500000920E-02 0.  1.
    10030    2    1    2    0    0  0.00000000000E+00  0.00000000000E+00  0.27215874993E+03  0.30608064226E+04  0.30486825960E+04 0.  0.
        2    1    3    3  502    0  0.58581911036E+03  0.14020975574E+04  0.14956322324E+02  0.15196332723E+04  0.25500000920E-02 0.  1.
       -2    1    3    3    0  502 -0.58581911036E+03 -0.14020975574E+04  0.25720242760E+03  0.15411731503E+04  0.25500000920E-02 0. -1.
</event>
<event>
 5   0  0.1057036E-05  0.3125434E+04  0.7818609E-02  0.8208792E-01
       -2   -1    0    0    0  501  0.00000000000E+00  0.00000000000E+00  0.13282632295E+04  0.13282632295E+04  0.25500000920E-02 0. -1.
        2   -1    0    0  501    0  0.00000000000E+00  0.00000000000E+00 -0.18385541913E+04  0.18385541913E+04  0.25500000920E-02 0.  1.
    10030    2    1    2    0    0  0.00000000000E+00  0.00000000000E+00 -0.51029096181E+03  0.31668174208E+04  0.31254336837E+04 0.  0.
        4    1    3    3  502    0  0.13329052378E+04  0.29869169935E+03  0.51400332837E+03  0.14594704994E+04  0.12699999809E+01 0. -1.
       -4    1    3    3    0  502 -0.13329052378E+04 -0.29869169935E+03 -0.10242942902E+04  0.17073469214E+04  0.12699999809E+01 0.  1.
</event>
<event>
 5   0  0.1028450E-05  0.2971094E+04  0.7818609E-02  0.8252034E-01
        2   -1    0    0  501    0  0.00000000000E+00  0.00000000000E+00  0.15672496801E+04  0.15672496801E+04  0.25500000920E-02 0. -1.
       -2   -1    0    0    0  501  0.00000000000E+00  0.00000000000E+00 -0.14081035663E+04  0.14081035663E+04  0.25500000920E-02 0.  1.
    10030    2    1    2    0    0  0.00000000000E+00  0.00000000000E+00  0.15914611387E+03  0.29753532464E+04  0.29710939829E+04 0.  0.
        3    1    3    3  502    0 -0.81570146097E+03 -0.65370592823E+02  0.13211922443E+04  0.15540885253E+04  0.10100000352E+00 0.  1.
       -3    1    3    3    0  502  0.81570146097E+03  0.65370592823E+02 -0.11620461305E+04  0.14212647211E+04  0.10100000352E+00 0. -1.
</event>
<event>
 5   0  0.3896630E-06  0.3008608E+04  0.7818609E-02  0.8241277E-01
       -1   -1    0    0    0  501  0.00000000000E+00  0.00000000000E+00  0.11187962517E+04  0.11187962517E+04  0.50400001928E-02 0. -1.
        1   -1    0    0  501    0  0.00000000000E+00  0.00000000000E+00 -0.20226479716E+04  0.20226479716E+04  0.50400001928E-02 0.  1.
    10030    2    1    2    0    0  0.00000000000E+00  0.00000000000E+00 -0.90385171991E+03  0.31414442234E+04  0.30086082957E+04 0.  0.
        5    1    3    3  502    0  0.14181881515E+04  0.40613415772E+03 -0.14446558471E+03  0.14822600927E+04  0.46999998093E+01 0.  1.
       -5    1    3    3    0  502 -0.14181881515E+04 -0.40613415772E+03 -0.75938613520E+03  0.16591841307E+04  0.46999998093E+01 0. -1.
</event>
<event>
 5   0  0.9647945E-06  0.2983301E+04  0.7818609E-02  0.8248515E-01
       -2   -1    0    0    0  501  0.00000000000E+00  0.00000000000E+00  0.10656042163E+04  0.10656042163E+04  0.25500000920E-02 0.  1.
        2   -1    0    0  501    0  0.00000000000E+00  0.00000000000E+00 -0.20880373865E+04  0.20880373865E+04  0.25500000920E-02 0. -1.
    10030    2    1    2    0    0  0.00000000000E+00  0.00000000000E+00 -0.10224331702E+04  0.31536416028E+04  0.29833011533E+04 0.  0.
        2    1    3    3  502    0  0.95277600134E+03 -0.37347025140E+03  0.63599496895E+03  0.12048866079E+04  0.25500000920E-02 0.  1.
       -2    1    3    3    0  502 -0.95277600134E+03  0.37347025140E+03 -0.16584281391E+04  0.19487549949E+04  0.25500000920E-02 0. -1.
</event>
<event>
 5   0  0.3636718E-06  0.3091536E+04  0.7818609E-02  0.8218065E-01
        1   -1    0    0  501    0  0.00000000000E+00  0.00000000000E+00  0.28484999732E+04  0.28484999732E+04  0.50400001928E-02 0.  1.
       -1   -1    0    0    0  501  0.00000000000E+00  0.00000000000E+00 -0.83882686387E+03  0.83882686389E+03  0.50400001928E-02 0. -1.
    10030    2    1    2    0    0  0.00000000000E+00  0.00000000000E+00  0.20096731094E+04  0.36873268371E+04  0.30915357344E+04 0.  0.
        4    1    3    3  502    0  0.32986783827E+02 -0.34213446717E+03  0.28023414379E+04  0.28233425702E+04  0.12699999809E+01 0.  1.
       -4    1    3    3    0  502 -0.32986783827E+02  0.34213446717E+03 -0.79266832851E+03  0.86398426690E+03  0.12699999809E+01 0. -1.
</event>
<event>
 5   0  0.9647945E-06  0.2972081E+04  0.7818609E-02  0.8251749E-01
       -2   -1    0    0    0  501  0.00000000000E+00  0.00000000000E+00  0.13585230925E+04  0.13585230925E+04  0.25500000920E-02 0. -1.
        2   -1    0    0  501    0  0.00000000000E+00  0.00000000000E+00 -0.16255267861E+04  0.16255267861E+04  0.25500000920E-02 0.  1.
    10030    2    1    2    0    0  0.00000000000E+00  0.00000000000E+00 -0.26700369364E+03  0.29840498786E+04  0.29720805349E+04 0.  0.
        2    1    3    3  502    0  0.48934572297E+03 -0.13928107223E+04  0.37285320501E+02  0.14767434238E+04  0.25500000920E-02 0. -1.
       -2    1    3    3    0  502 -0.48934572297E+03  0.13928107223E+04 -0.30428901414E+03  0.15073064548E+04  0.25500000920E-02 0.  1.
</event>
<event>
 5   0  0.3896630E-06  0.2554339E+04  0.7818609E-02  0.8383879E-01
       -1   -1    0    0    0  501  0.00000000000E+00  0.00000000000E+00  0.79406713501E+03  0.79406713502E+03  0.50400001928E-02 0. -1.
        1   -1    0    0  501    0  0.00000000000E+00  0.00000000000E+00 -0.20541864025E+04  0.20541864025E+04  0.50400001928E-02 0.  1.
    10030    2    1    2    0    0  0.00000000000E+00  0.00000000000E+00 -0.12601192675E+04  0.28482535375E+04  0.25543389841E+04 0.  0.
        5    1    3    3  502    0  0.10760287837E+04 -0.68675658059E+03 -0.67559029939E+03  0.14442703649E+04  0.46999998093E+01 0. -1.
       -5    1    3    3    0  502 -0.10760287837E+04  0.68675658059E+03 -0.58452896811E+03  0.14039831726E+04  0.46999998093E+01 0.  1.
</event>
<event>
 5   0  0.3896630E-06  0.2422891E+04  0.7818609E-02  0.8430983E-01
       -1   -1    0    0    0  501  0.00000000000E+00  0.00000000000E+00  0.96417919597E+03  0.96417919598E+03  0.50400001928E-02 0. -1.
        1   -1    0    0  501    0  0.00000000000E+00  0.00000000000E+00 -0.15221234168E+04  0.15221234168E+04  0.50400001928E-02 0.  1.
    10030    2    1    2    0    0  0.00000000000E+00  0.00000000000E+00 -0.55794422079E+03  0.24863026127E+04  0.24228906143E+04 0.  0.
        5    1    3    3  502    0  0.60902166141E+03 -0.15504055226E+03  0.78381356475E+03  0.10046545432E+04  0.46999998093E+01 0. -1.
       -5    1    3    3    0  502 -0.60902166141E+03  0.15504055226E+03 -0.13417577855E+04  0.14816480695E+04  0.46999998093E+01 0.  1.
</event>
<event>
 5   0  0.3592331E-06  0.2997395E+04  0.7818609E-02  0.8244475E-01
       -1   -1    0    0    0  501  0.00000000000E+00  0.00000000000E+00  0.12407643404E+04  0.12407643404E+04  0.50400001928E-02 0.  1.
        1   -1    0    0  501    0  0.00000000000E+00  0.00000000000E+00 -0.18102500027E+04  0.18102500027E+04  0.50400001928E-02 0. -1.
    10030    2    1    2    0    0  0.00000000000E+00  0.00000000000E+00 -0.56948566226E+03  0.30510143431E+04  0.29973946358E+04 0.  0.
        3    1    3    3  502    0 -0.11116908196E+04  0.27962421642E+01 -0.13078245230E+04  0.17164700086E+04  0.10100000352E+00 0. -1.
       -3    1    3    3    0  502  0.11116908196E+04 -0.27962421642E+01  0.73833886070E+03  0.13345443345E+04  0.10100000352E+00 0.  1.
</event>
<event>
 5   0  0.3725232E-06  0.2973365E+04  0.7818609E-02  0.8251378E-01
       -1   -1    0    0    0  501  0.00000000000E+00  0.00000000000E+00  0.79673205474E+03  0.79673205475E+03  0.50400001928E-02 0. -1.
        1   -1    0    0  501    0  0.00000000000E+00  0.00000000000E+00 -0.27741131037E+04  0.27741131037E+04  0.50400001928E-02 0.  1.
    10030    2    1    2    0    0  0.00000000000E+00  0.00000000000E+00 -0.19773810490E+04  0.35708451585E+04  0.29733649848E+04 0.  0.
        2    1    3    3  502    0  0.16003212813E+03 -0.13469324523E+04 -0.17195787546E+04  0.21901571648E+04  0.25500000920E-02 0.  1.
       -2    1    3    3    0  502 -0.16003212813E+03  0.13469324523E+04 -0.25780229436E+03  0.13806879937E+04  0.25500000920E-02 0. -1.
</event>
<event>
 5   0  0.1089569E-05  0.3016256E+04  0.7818609E-02  0.8239104E-01
       -2   -1    0    0    0  501  0.00000000000E+00  0.00000000000E+00  0.10331206617E+04  0.10331206617E+04  0.25500000920E-02 0.  1.
        2   -1    0    0  501    0  0.00000000000E+00  0.00000000000E+00 -0.22015334019E+04  0.22015334019E+04  0.25500000920E-02 0. -1.
    10030    2    1    2    0    0  0.00000000000E+00  0.00000000000E+00 -0.11684127402E+04  0.32346540636E+04  0.30162557219E+04 0.  0.
        5    1    3    3  502    0 -0.13232671301E+03  0.14980785747E+04 -0.46345799687E+03  0.15737106404E+04  0.46999998093E+01 0. -1.
       -5    1    3    3    0  502  0.13232671301E+03 -0.14980785747E+04 -0.70495474333E+03  0.16609434232E+04  0.46999998093E+01 0.  1.
</event>
<event>
 5   0  0.3636718E-06  0.2920588E+04  0.7818609E-02  0.8266778E-01
       -1   -1    0    0    0  501  0.00000000000E+00  0.00000000000E+00  0.12290648180E+04  0.12290648180E+04  0.50400001928E-02 0.  1.
        1   -1    0    0  501    0  0.00000000000E+00  0.00000000000E+00 -0.17350251297E+04  0.17350251297E+04  0.50400001928E-02 0. -1.
    10030    2    1    2    0    0  0.00000000000E+00  0.00000000000E+00 -0.50596031166E+03  0.29640899477E+04  0.29205878486E+04 0.  0.
        4    1    3    3  502    0 -0.40887908076E+03  0.91174607932E+03  0.82777279171E+03  0.12975640344E+04  0.12699999809E+01 0.  1.
       -4    1    3    3    0  502  0.40887908076E+03 -0.91174607932E+03 -0.13337331034E+04  0.16665259133E+04  0.12699999809E+01 0. -1.
</event>
<event>
 5   0  0.3896630E-06  0.2663721E+04  0.7818609E-02  0.8346873E-01
       -1   -1    0    0    0  501  0.00000000000E+00  0.00000000000E+00  0.13237280372E+04  0.13237280372E+04  0.50400001928E-02 0. -1.
        1   -1    0    0  501    0  0.00000000000E+00  0.00000000000E+00 -0.13400431854E+04  0.13400431854E+04  0.50400001928E-02 0.  1.
    10030    2    1    2    0    0  0.00000000000E+00  0.00000000000E+00 -0.16315148217E+02  0.26637712227E+04  0.26637212584E+04 0.  0.
        5    1    3    3  502    0  0.52135730977E+03 -0.66106803373E+03 -0.10401683345E+04  0.13382065027E+04  0.46999998093E+01 0.  1.
       -5    1    3    3    0  502 -0.52135730977E+03  0.66106803373E+03  0.10238531863E+04  0.13255647200E+04  0.46999998093E+01 0. -1.
</event>
<event>
 5   0  0.9647945E-06  0.2968310E+04  0.7818609E-02  0.8252838E-01
        2   -1    0    0  501    0  0.00000000000E+00  0.00000000000E+00  0.21213714763E+04  0.21213714763E+04  0.25500000920E-02 0. -1.
       -2   -1    0    0    0  501  0.00000000000E+00  0.00000000000E+00 -0.10383452827E+04  0.10383452827E+04  0.25500000920E-02 0.  1.
    10030    2    1    2    0    0  0.00000000000E+00  0.00000000000E+00  0.10830261936E+04  0.31597167591E+04  0.29683100009E+04 0.  0.
        2    1    3    3  502    0 -0.10701999253E+04 -0.58092770768E+03 -0.36167531849E+03  0.12702810388E+04  0.25500000920E-02 0.  1.
       -2    1    3    3    0  502  0.10701999253E+04  0.58092770768E+03  0.14447015121E+04  0.18894357202E+04  0.25500000920E-02 0. -1.
</event>
<event>
 5   0  0.3725232E-06  0.3000913E+04  0.7818609E-02  0.8243470E-01
        1   -1    0    0  501    0  0.00000000000E+00  0.00000000000E+00  0.20574126493E+04  0.20574126493E+04  0.50400001928E-02 0. -1.
       -1   -1    0    0    0  501  0.00000000000E+00  0.00000000000E+00 -0.10942721716E+04  0.10942721717E+04  0.50400001928E-02 0.  1.
    10030    2    1    2    0    0  0.00000000000E+00  0.00000000000E+00  0.96314047767E+03  0.31516848210E+04  0.30009127996E+04 0.  0.
        2    1    3    3  502    0 -0.70016827170E+03 -0.21940922482E+03  0.18561414628E+04  0.19959050946E+04  0.25500000920E-02 0. -1.
       -2    1    3    3    0  502  0.70016827170E+03  0.21940922482E+03 -0.89300098510E+03  0.11557797264E+04  0.25500000920E-02 0.  1.
</event>
<event>
 5   0  0.1089569E-05  0.3044480E+04  0.7818609E-02  0.8231142E-01
        2   -1    0    0  501    0  0.00000000000E+00  0.00000000000E+00  0.10548937773E+04  0.10548937773E+04  0.25500000920E-02 0. -1.
       -2   -1    0    0    0  501  0.00000000000E+00  0.00000000000E+00 -0.21966336893E+04  0.21966336893E+04  0.25500000920E-02 0.  1.
    10030    2    1    2    0    0  0.00000000000E+00  0.00000000000E+00 -0.11417399120E+04  0.32515274666E+04  0.30444803891E+04 0.  0.
        5    1    3    3  502    0  0.76626956457E+03 -0.11991156811E+04  0.63933654115E+01  0.14230637468E+04  0.46999998093E+01 0. -1.
       -5    1    3    3    0  502 -0.76626956457E+03  0.11991156811E+04 -0.11481332774E+04  0.18284637199E+04  0.46999998093E+01 0.  1.
</event>
<event>
 5   0  0.3852126E-06  0.2945158E+04  0.7818609E-02  0.8259567E-01
       -1   -1    0    0    0  501  0.00000000000E+00  0.00000000000E+00  0.11070382832E+04  0.11070382832E+04  0.50400001928E-02 0. -1.
        1   -1    0    0  501    0  0.00000000000E+00  0.00000000000E+00 -0.19588204506E+04  0.19588204506E+04  0.50400001928E-02 0.  1.
    10030    2    1    2    0    0  0.00000000000E+00  0.00000000000E+00 -0.85178216744E+03  0.30658587338E+04  0.29451582156E+04 0.  0.
        1    1    3    3  502    0 -0.63758369541E+03 -0.13230747844E+04 -0.31450411171E+03  0.15019829194E+04  0.50400001928E-02 0.  1.
       -1    1    3    3    0  502  0.63758369541E+03  0.13230747844E+04 -0.53727805573E+03  0.15638758144E+04  0.50400001928E-02 0. -1.
</event>
<event>
 5   0  0.1028450E-05  0.3013861E+04  0.7818609E-02  0.8239784E-01
       -2   -1    0    0    0  501  0.00000000000E+00  0.00000000000E+00  0.11084053465E+04  0.11084053465E+04  0.25500000920E-02 0. -1.
        2   -1    0    0  501    0  0.00000000000E+00  0.00000000000E+00 -0.20487442942E+04  0.20487442942E+04  0.25500000920E-02 0.  1.
    10030    2    1    2    0    0  0.00000000000E+00  0.00000000000E+00 -0.94033894768E+03  0.31571496408E+04  0.30138607330E+04 0.  0.
        3    1    3    3  502    0  0.63486706426E+03  0.43242139527E+03  0.88792292131E+03  0.11740747748E+04  0.10100000352E+00 0. -1.
       -3    1    3    3    0  502 -0.63486706426E+03 -0.43242139527E+03 -0.18282618690E+04  0.19830748660E+04  0.10100000352E+00 0.  1.
</event>
<event>
 5   0  0.3313750E-06  0.2924276E+04  0.7818609E-02  0.8265691E-01
       -4   -1    0    0    0  501  0.00000000000E+00  0.00000000000E+00  0.19302710574E+04  0.19302714752E+04  0.12699999809E+01 0. -1.
        4   -1    0    0  501    0  0.00000000000E+00  0.00000000000E+00 -0.11075365154E+04  0.11075372435E+04  0.12699999809E+01 0.  1.
    10030    2    1    2    0    0  0.00000000000E+00  0.00000000000E+00  0.82273454200E+03  0.30378087187E+04  0.29242759248E+04 0.  0.
        4    1    3    3  502    0 -0.31597004549E+03 -0.97922426558E+02  0.18908878515E+04  0.19196052592E+04  0.12699999809E+01 0. -1.
       -4    1    3    3    0  502  0.31597004549E+03  0.97922426558E+02 -0.10681533095E+04  0.11182034595E+04  0.12699999809E+01 0.  1.
</event>
<event>
 5   0  0.3852126E-06  0.3061340E+04  0.7818609E-02  0.8226429E-01
        1   -1    0    0  501    0  0.00000000000E+00  0.00000000000E+00  0.18790455128E+04  0.18790455128E+04  0.50400001928E-02 0. -1.
       -1   -1    0    0    0  501  0.00000000000E+00  0.00000000000E+00 -0.12468834445E+04  0.12468834445E+04  0.50400001928E-02 0.  1.
    10030    2    1    2    0    0  0.00000000000E+00  0.00000000000E+00  0.63216206831E+03  0.31259289573E+04  0.30613400604E+04 0.  0.
        1    1    3    3  502    0 -0.10034902591E+04  0.43721655027E+03 -0.77644624090E+03  0.13420207812E+04  0.50400001928E-02 0. -1.
       -1    1    3    3    0  502  0.10034902591E+04 -0.43721655027E+03  0.14086083092E+04  0.17839081761E+04  0.50400001928E-02 0.  1.
</event>
<event>
 5   0  0.9647945E-06  0.2974771E+04  0.7818609E-02  0.8250972E-01
        2   -1    0    0  501    0  0.00000000000E+00  0.00000000000E+00  0.12630753350E+04  0.12630753350E+04  0.25500000920E-02 0.  1.
       -2   -1    0    0    0  501  0.00000000000E+00  0.00000000000E+00 -0.17515315428E+04  0.17515315428E+04  0.25500000920E-02 0. -1.
    10030    2    1    2    0    0  0.00000000000E+00  0.00000000000E+00 -0.48845620788E+03  0.30146068778E+04  0.29747714468E+04 0.  0.
        2    1    3    3  502    0  0.74287236869E+03 -0.26754438785E+03  0.10331580713E+04  0.13003287877E+04  0.25500000920E-02 0.  1.
       -2    1    3    3    0  502 -0.74287236869E+03  0.26754438785E+03 -0.15216142792E+04  0.17142780901E+04  0.25500000920E-02 0. -1.
</event>
<event>
 5   0  0.1089569E-05  0.2969218E+04  0.7818609E-02  0.8252576E-01
       -2   -1    0    0    0  501  0.00000000000E+00  0.00000000000E+00  0.12332238327E+04  0.12332238327E+04  0.25500000920E-02 0. -1.
        2   -1    0    0  501    0  0.00000000000E+00  0.00000000000E+00 -0.17872374015E+04  0.17872374015E+04  0.25500000920E-02 0.  1.
    10030    2    1    2    0    0  0.00000000000E+00  0.00000000000E+00 -0.55401356883E+03  0.30204612342E+04  0.29692179160E+04 0.  0.
        5    1    3    3  502    0 -0.79423073660E+03 -0.63458962355E+03  0.82357782584E+03  0.13083611804E+04  0.46999998093E+01 0. -1.
       -5    1    3    3    0  502  0.79423073660E+03  0.63458962355E+03 -0.13775913947E+04  0.17121000537E+04  0.46999998093E+01 0.  1.
</event>
<event>
 5   0  0.3636718E-06  0.2312332E+04  0.7818609E-02  0.8473075E-01
       -1   -1    0    0    0  501  0.00000000000E+00  0.00000000000E+00  0.13871228314E+04  0.13871228314E+04  0.50400001928E-02 0.  1.
        1   -1    0    0  501    0  0.00000000000E+00  0.00000000000E+00 -0.96366384992E+03  0.96366384994E+03  0.50400001928E-02 0. -1.
    10030    2    1    2    0    0  0.00000000000E+00  0.00000000000E+00  0.42345898143E+03  0.23507866813E+04  0.23123322668E+04 0.  0.
        4    1    3    3  502    0 -0.49195726711E+03  0.49122834261E+03 -0.72742509179E+03  0.10062187209E+04  0.12699999809E+01 0. -1.
       -4    1    3    3    0  502  0.49195726711E+03 -0.49122834261E+03  0.11508840732E+04  0.13445679604E+04  0.12699999809E+01 0.  1.
</event>
<event>
 5   0  0.1089569E-05  0.3008950E+04  0.7818609E-02  0.8241180E-01
       -2   -1    0    0    0  501  0.00000000000E+00  0.00000000000E+00  0.16246689375E+04  0.16246689375E+04  0.25500000920E-02 0.  1.
        2   -1    0    0  501    0  0.00000000000E+00  0.00000000000E+00 -0.13931731635E+04  0.13931731635E+04  0.25500000920E-02 0. -1.
    10030    2    1    2    0    0  0.00000000000E+00  0.00000000000E+00  0.23149577393E+03  0.30178421010E+04  0.30089500915E+04 0.  0.
        5    1    3    3  502    0 -0.34634250595E+02  0.29097285380E+03  0.15957639478E+04  0.16224516634E+04  0.46999998093E+01 0.  1.
       -5    1    3    3    0  502  0.34634250595E+02 -0.29097285380E+03 -0.13642681739E+04  0.13953904376E+04  0.46999998093E+01 0. -1.
</event>
<event>
 5   0  0.3636718E-06  0.2508553E+04  0.7818609E-02  0.8399945E-01
       -1   -1    0    0    0  501  0.00000000000E+00  0.00000000000E+00  0.20360348716E+04  0.20360348716E+04  0.50400001928E-02 0. -1.
        1   -1    0    0  501    0  0.00000000000E+00  0.00000000000E+00 -0.77268322741E+03  0.77268322743E+03  0.50400001928E-02 0.  1.
    10030    2    1    2    0    0  0.00000000000E+00  0.00000000000E+00  0.12633516442E+04  0.28087180991E+04  0.25085533646E+04 0.  0.
        4    1    3    3  502    0  0.30168326711E+03 -0.11322345500E+04  0.13064922247E+03  0.11789990254E+04  0.12699999809E+01 0.  1.
       -4    1    3    3    0  502 -0.30168326711E+03  0.11322345500E+04  0.11327024217E+04  0.16297190736E+04  0.12699999809E+01 0. -1.
</event>
<event>
 5   0  0.3896630E-06  0.3055322E+04  0.7818609E-02  0.8228108E-01
       -1   -1    0    0    0  501  0.00000000000E+00  0.00000000000E+00  0.10097689831E+04  0.10097689831E+04  0.50400001928E-02 0.  1.
        1   -1    0    0  501    0  0.00000000000E+00  0.00000000000E+00 -0.23111699301E+04  0.23111699301E+04  0.50400001928E-02 0. -1.
    10030    2    1    2    0    0  0.00000000000E+00  0.00000000000E+00 -0.13014009470E+04  0.33209389132E+04  0.30553217246E+04 0.  0.
        5    1    3    3  502    0  0.27135195144E+03 -0.78978611701E+03  0.73969902153E+03  0.11156033007E+04  0.46999998093E+01 0.  1.
       -5    1    3    3    0  502 -0.27135195144E+03  0.78978611701E+03 -0.20410999685E+04  0.22053356125E+04  0.46999998093E+01 0. -1.
</event>
<event>
 5   0  0.3896630E-06  0.3050663E+04  0.7818609E-02  0.8229410E-01
        1   -1    0    0  501    0  0.00000000000E+00  0.00000000000E+00  0.11062281380E+04  0.11062281381E+04  0.50400001928E-02 0.  1.
       -1   -1    0    0    0  501  0.00000000000E+00  0.00000000000E+00 -0.21032158415E+04  0.21032158415E+04  0.50400001928E-02 0. -1.
    10030    2    1    2    0    0  0.00000000000E+00  0.00000000000E+00 -0.99698770345E+03  0.32094439796E+04  0.30506632356E+04 0.  0.
        5    1    3    3  502    0 -0.38279323467E+03 -0.13998396520E+04 -0.44425243363E+01  0.14512489579E+04  0.46999998093E+01 0.  1.
       -5    1    3    3    0  502  0.38279323467E+03  0.13998396520E+04 -0.99254517911E+03  0.17581950217E+04  0.46999998093E+01 0. -1.
</event>
<event>
 5   0  0.1028450E-05  0.3021635E+04  0.7818609E-02  0.8237580E-01
        2   -1    0    0  501    0  0.00000000000E+00  0.00000000000E+00  0.17783802239E+04  0.17783802240E+04  0.25500000920E-02 0. -1.
       -2   -1    0    0    0  501  0.00000000000E+00  0.00000000000E+00 -0.12835106978E+04  0.12835106978E+04  0.25500000920E-02 0.  1.
    10030    2    1    2    0    0  0.00000000000E+00  0.00000000000E+00  0.49486952618E+03  0.30618909217E+04  0.30216353467E+04 0.  0.
        3    1    3    3  502    0  0.13840695936E+04 -0.58601759948E+03  0.40278990090E+03  0.15560542990E+04  0.10100000352E+00 0. -1.
       -3    1    3    3    0  502 -0.13840695936E+04  0.58601759948E+03  0.92079625275E+02  0.15058366228E+04  0.10100000352E+00 0.  1.
</event>
<event>
 5   0  0.3896630E-06  0.3168510E+04  0.7818609E-02  0.8197184E-01
        1   -1    0    0  501    0  0.00000000000E+00  0.00000000000E+00  0.14556268651E+04  0.14556268651E+04  0.50400001928E-02 0. -1.
       -1   -1    0    0    0  501  0.00000000000E+00  0.00000000000E+00 -0.17242491788E+04  0.17242491788E+04  0.50400001928E-02 0.  1.
    10030    2    1    2    0    0  0.00000000000E+00  0.00000000000E+00 -0.26862231370E+03  0.31798760440E+04  0.31685096982E+04 0.  0.
        5    1    3    3  502    0 -0.15744357236E+04 -0.12535399272E+03 -0.25836634089E+03  0.16004176728E+04  0.46999998093E+01 0.  1.
       -5    1    3    3    0  502  0.15744357236E+04  0.12535399272E+03 -0.10255972814E+02  0.15794583712E+04  0.46999998093E+01 0. -1.
</event>
<event>
 5   0  0.3896630E-06  0.3049332E+04  0.7818609E-02  0.8229783E-01
       -1   -1    0    0    0  501  0.00000000000E+00  0.00000000000E+00  0.13613445254E+04  0.13613445254E+04  0.50400001928E-02 0. -1.
        1   -1    0    0  501    0  0.00000000000E+00  0.00000000000E+00 -0.17075810475E+04  0.17075810475E+04  0.50400001928E-02 0.  1.
    10030    2    1    2    0    0  0.00000000000E+00  0.00000000000E+00 -0.34623652208E+03  0.30689255728E+04  0.30493318026E+04 0.  0.
        5    1    3    3  502    0 -0.52902873774E+03  0.12913194173E+04  0.44499977595E+03  0.14647266412E+04  0.46999998093E+01 0. -1.
       -5    1    3    3    0  502  0.52902873774E+03 -0.12913194173E+04 -0.79123629803E+03  0.16041989316E+04  0.46999998093E+01 0.  1.
</event>
<event>
 5   0  0.1028450E-05  0.3054581E+04  0.7818609E-02  0.8228315E-01
       -2   -1    0    0    0  501  0.00000000000E+00  0.00000000000E+00  0.18178470160E+04  0.18178470160E+04  0.25500000920E-02 0. -1.
        2   -1    0    0  501    0  0.00000000000E+00  0.00000000000E+00 -0.12831749894E+04  0.12831749894E+04  0.25500000920E-02 0.  1.
    10030    2    1    2    0    0  0.00000000000E+00  0.00000000000E+00  0.53467202655E+03  0.31010220054E+04  0.30545807080E+04 0.  0.
        3    1    3    3  502    0  0.14056838134E+04 -0.44483039207E+03 -0.13721316141E+03  0.14807594412E+04  0.10100000352E+00 0. -1.
       -3    1    3    3    0  502 -0.14056838134E+04  0.44483039207E+03  0.67188518796E+03  0.16202625642E+04  0.10100000352E+00 0.  1.
</event>
<event>
 5   0  0.1029922E-05  0.2982353E+04  0.7818609E-02  0.8248788E-01
        2   -1    0    0  501    0  0.00000000000E+00  0.00000000000E+00  0.19441890348E+04  0.19441890348E+04  0.25500000920E-02 0.  1.
       -2   -1    0    0    0  501  0.00000000000E+00  0.00000000000E+00 -0.11437200342E+04  0.11437200342E+04  0.25500000920E-02 0. -1.
    10030    2    1    2    0    0  0.00000000000E+00  0.00000000000E+00  0.80046900062E+03  0.30879090689E+04  0.29823533991E+04 0.  0.
        1    1    3    3  502    0 -0.15637046160E+02 -0.14431926222E+04  0.78841519759E+03  0.16445814014E+04  0.50400001928E-02 0.  1.
       -1    1    3    3    0  502  0.15637046160E+02  0.14431926222E+04  0.12053803028E+02  0.14433276676E+04  0.50400001928E-02 0. -1.
</event>
<event>
 5   0  0.1057036E-05  0.2964266E+04  0.7818609E-02  0.8254009E-01
       -2   -1    0    0    0  501  0.00000000000E+00  0.00000000000E+00  0.13890581742E+04  0.13890581742E+04  0.25500000920E-02 0. -1.
        2   -1    0    0  501    0  0.00000000000E+00  0.00000000000E+00 -0.15814441862E+04  0.15814441862E+04  0.25500000920E-02 0.  1.
    10030    2    1    2    0    0  0.00000000000E+00  0.00000000000E+00 -0.19238601195E+03  0.29705023604E+04  0.29642658274E+04 0.  0.
        4    1    3    3  502    0  0.13541949648E+03  0.14626615882E+04  0.10170411951E+03  0.14724342778E+04  0.12699999809E+01 0. -1.
       -4    1    3    3    0  502 -0.13541949648E+03 -0.14626615882E+04 -0.29409013146E+03  0.14980680826E+04  0.12699999809E+01 0.  1.
</event>
<event>
 5   0  0.3636718E-06  0.3008922E+04  0.7818609E-02  0.8241188E-01
        1   -1    0    0  501    0  0.00000000000E+00  0.00000000000E+00  0.12633984461E+04  0.12633984461E+04  0.50400001928E-02 0. -1.
       -1   -1    0    0    0  501  0.00000000000E+00  0.00000000000E+00 -0.17915193190E+04  0.17915193190E+04  0.50400001928E-02 0.  1.
    10030    2    1    2    0    0  0.00000000000E+00  0.00000000000E+00 -0.52812087290E+03  0.30549177651E+04  0.30089218825E+04 0.  0.
        4    1    3    3  502    0 -0.46337047818E+03  0.22780139291E+03 -0.16987416087E+04  0.17754803127E+04  0.12699999809E+01 0.  1.
       -4    1    3    3    0  502  0.46337047818E+03 -0.22780139291E+03  0.11706207358E+04  0.12794374524E+04  0.12699999809E+01 0. -1.
</event>
<event>
 5   0  0.3725232E-06  0.3032597E+04  0.7818609E-02  0.8234483E-01
       -1   -1    0    0    0  501  0.00000000000E+00  0.00000000000E+00  0.19066842265E+04  0.19066842265E+04  0.50400001928E-02 0. -1.
        1   -1    0    0  501    0  0.00000000000E+00  0.00000000000E+00 -0.12058426333E+04  0.12058426333E+04  0.50400001928E-02 0.  1.
    10030    2    1    2    0    0  0.00000000000E+00  0.00000000000E+00  0.70084159320E+03  0.31125268598E+04  0.30325969917E+04 0.  0.
        2    1    3    3  502    0 -0.11574464901E+04  0.95205132565E+03  0.11396405972E+03  0.15030209283E+04  0.25500000920E-02 0.  1.
       -2    1    3    3    0  502  0.11574464901E+04 -0.95205132565E+03  0.58687753348E+03  0.16095059315E+04  0.25500000920E-02 0. -1.
</event>
<event>
 5   0  0.3636718E-06  0.2999417E+04  0.7818609E-02  0.8243897E-01
        1   -1    0    0  501    0  0.00000000000E+00  0.00000000000E+00  0.18115385922E+04  0.18115385922E+04  0.50400001928E-02 0. -1.
       -1   -1    0    0    0  501  0.00000000000E+00  0.00000000000E+00 -0.12415558153E+04  0.12415558153E+04  0.50400001928E-02 0.  1.
    10030    2    1    2    0    0  0.00000000000E+00  0.00000000000E+00  0.56998277693E+03  0.30530944075E+04  0.29994174593E+04 0.  0.
        4    1    3    3  502    0  0.26308654925E+03  0.10217739365E+04  0.13698449104E+04  0.17290787146E+04  0.12699999809E+01 0. -1.
       -4    1    3    3    0  502 -0.26308654925E+03 -0.10217739365E+04 -0.79986213350E+03  0.13240156929E+04  0.12699999809E+01 0.  1.
</event>
<event>
 5   0  0.1029922E-05  0.2987102E+04  0.7818609E-02  0.8247424E-01
       -2   -1    0    0    0  501  0.00000000000E+00  0.00000000000E+00  0.10765077668E+04  0.10765077668E+04  0.25500000920E-02 0.  1.
        2   -1    0    0  501    0  0.00000000000E+00  0.00000000000E+00 -0.20721587538E+04  0.20721587538E+04  0.25500000920E-02 0. -1.
    10030    2    1    2    0    0  0.00000000000E+00  0.00000000000E+00 -0.99565098702E+03  0.31486665207E+04  0.29871022698E+04 0.  0.
        1    1    3    3  502    0  0.22674600706E+03 -0.14653811411E+04 -0.30944339679E+03  0.15147642906E+04  0.50400001928E-02 0.  1.
       -1    1    3    3    0  502 -0.22674600706E+03  0.14653811411E+04 -0.68620759022E+03  0.16339022300E+04  0.50400001928E-02 0. -1.
</event>
<event>
 5   0  0.3725232E-06  0.3010454E+04  0.7818609E-02  0.8240752E-01
        1   -1    0    0  501    0  0.00000000000E+00  0.00000000000E+00  0.19649390795E+04  0.19649390795E+04  0.50400001928E-02 0. -1.
       -1   -1    0    0    0  501  0.00000000000E+00  0.00000000000E+00 -0.11530676447E+04  0.11530676447E+04  0.50400001928E-02 0.  1.
    10030    2    1    2    0    0  0.00000000000E+00  0.00000000000E+00  0.81187143480E+03  0.31180067242E+04  0.30104535714E+04 0.  0.
        2    1    3    3  502    0  0.18886835813E+03 -0.56804697111E+03 -0.10244769314E+04  0.11865502944E+04  0.25500000920E-02 0.  1.
       -2    1    3    3    0  502 -0.18886835813E+03  0.56804697111E+03  0.18363483662E+04  0.19314564298E+04  0.25500000920E-02 0. -1.
</event>
<event>
 5   0  0.9647945E-06  0.2630241E+04  0.7818609E-02  0.8358001E-01
        2   -1    0    0  501    0  0.00000000000E+00  0.00000000000E+00  0.14395782724E+04  0.14395782724E+04  0.25500000920E-02 0.  1.
       -2   -1    0    0    0  501  0.00000000000E+00  0.00000000000E+00 -0.12014230344E+04  0.12014230344E+04  0.25500000920E-02 0. -1.
    10030    2    1    2    0    0  0.00000000000E+00  0.00000000000E+00  0.23815523799E+03  0.26410013068E+04  0.26302414310E+04 0.  0.
        2    1    3    3  502    0 -0.54144445378E+03 -0.83362570931E+03  0.98367421149E+03  0.13984666153E+04  0.25500000920E-02 0.  1.
       -2    1    3    3    0  502  0.54144445378E+03  0.83362570931E+03 -0.74551897350E+03  0.12425346915E+04  0.25500000920E-02 0. -1.
</event>
<event>
 5   0  0.3852126E-06  0.2955576E+04  0.7818609E-02  0.8256531E-01
        1   -1    0    0  501    0  0.00000000000E+00  0.00000000000E+00  0.17637170488E+04  0.17637170489E+04  0.50400001928E-02 0. -1.
       -1   -1    0    0    0  501  0.00000000000E+00  0.00000000000E+00 -0.12382133561E+04  0.12382133561E+04  0.50400001928E-02 0.  1.
    10030    2    1    2    0    0  0.00000000000E+00  0.00000000000E+00  0.52550369273E+03  0.30019304050E+04  0.29555764286E+04 0.  0.
        1    1    3    3  502    0  0.11058779829E+04 -0.77638459254E+03 -0.34506400300E+03  0.13945638439E+04  0.50400001928E-02 0. -1.
       -1    1    3    3    0  502 -0.11058779829E+04  0.77638459254E+03  0.87056769573E+03  0.16073665610E+04  0.50400001928E-02 0.  1.
</event>
<event>
 5   0  0.3636718E-06  0.1981833E+04  0.7818609E-02  0.8615162E-01
        1   -1    0    0  501    0  0.00000000000E+00  0.00000000000E+00  0.15074207633E+04  0.15074207633E+04  0.50400001928E-02 0.  1.
       -1   -1    0    0    0  501  0.00000000000E+00  0.00000000000E+00 -0.65138757548E+03  0.65138757550E+03  0.50400001928E-02 0. -1.
    10030    2    1    2    0    0  0.00000000000E+00  0.00000000000E+00  0.85603318777E+03  0.21588083388E+04  0.19818326430E+04 0.  0.
        4    1    3    3  502    0  0.85301766056E+03 -0.48141433336E+03  0.59146464461E+03  0.11442162944E+04  0.12699999809E+01 0.  1.
       -4    1    3    3    0  502 -0.85301766056E+03  0.48141433336E+03  0.26456854316E+03  0.10145920444E+04  0.12699999809E+01 0. -1.
</event>
<event>
 5   0  0.9647945E-06  0.3066171E+04  0.7818609E-02  0.8225084E-01
       -2   -1    0    0    0  501  0.00000000000E+00  0.00000000000E+00  0.17054069970E+04  0.17054069970E+04  0.25500000920E-02 0.  1.
        2   -1    0    0  501    0  0.00000000000E+00  0.00000000000E+00 -0.13781757952E+04  0.13781757952E+04  0.25500000920E-02 0. -1.
    10030    2    1    2    0    0  0.00000000000E+00  0.00000000000E+00  0.32723120185E+03  0.30835827922E+04  0.30661706699E+04 0.  0.
        2    1    3    3  502    0  0.22502530560E+03  0.32263270674E+03  0.16537934866E+04  0.16999297480E+04  0.25500000920E-02 0.  1.
       -2    1    3    3    0  502 -0.22502530560E+03 -0.32263270674E+03 -0.13265622848E+04  0.13836530443E+04  0.25500000920E-02 0. -1.
</event>
<event>
 5   0  0.3313750E-06  0.1958779E+04  0.7818609E-02  0.8626139E-01
        4   -1    0    0  501    0  0.00000000000E+00  0.00000000000E+00  0.10232832085E+04  0.10232839966E+04  0.12699999809E+01 0. -1.
       -4   -1    0    0    0  501  0.00000000000E+00  0.00000000000E+00 -0.93737680387E+03  0.93737766420E+03  0.12699999809E+01 0.  1.
    10030    2    1    2    0    0  0.00000000000E+00  0.00000000000E+00  0.85906404616E+02  0.19606616608E+04  0.19587787618E+04 0.  0.
        2    1    3    3  502    0  0.39984029979E+03  0.81682013328E+03  0.40680800979E+03  0.99627313137E+03  0.25500000920E-02 0. -1.
       -2    1    3    3    0  502 -0.39984029979E+03 -0.81682013328E+03 -0.32090160517E+03  0.96438852942E+03  0.25500000920E-02 0.  1.
</event>
<event>
 5   0  0.3852126E-06  0.2995207E+04  0.7818609E-02  0.8245101E-01
        1   -1    0    0  501    0  0.00000000000E+00  0.00000000000E+00  0.76426087362E+03  0.76426087364E+03  0.50400001928E-02 0. -1.
       -1   -1    0    0    0  501  0.00000000000E+00  0.00000000000E+00 -0.29346206232E+04  0.29346206232E+04  0.50400001928E-02 0.  1.
    10030    2    1    2    0    0  0.00000000000E+00  0.00000000000E+00 -0.21703597496E+04  0.36988814968E+04  0.29952066515E+04 0.  0.
        1    1    3    3  502    0  0.13416624184E+04 -0.65361673361E+03 -0.12391402077E+04  0.19397786816E+04  0.50400001928E-02 0.  1.
       -1    1    3    3    0  502 -0.13416624184E+04  0.65361673361E+03 -0.93121954182E+03  0.17591028152E+04  0.50400001928E-02 0. -1.
</event>
<event>
 5   0  0.3725232E-06  0.2798407E+04  0.7818609E-02  0.8303763E-01
        1   -1    0    0  501    0  0.00000000000E+00  0.00000000000E+00  0.25144665073E+04  0.25144665073E+04  0.50400001928E-02 0. -1.
       -1   -1    0    0    0  501  0.00000000000E+00  0.00000000000E+00 -0.77860273810E+03  0.77860273811E+03  0.50400001928E-02 0.  1.
    10030    2    1    2    0    0  0.00000000000E+00  0.00000000000E+00  0.17358637692E+04  0.32930692454E+04  0.27984070522E+04 0.  0.
        2    1    3    3  502    0 -0.10355644194E+04  0.91423377557E+03  0.60597675950E+03  0.15084511580E+04  0.25500000920E-02 0.  1.
       -2    1    3    3    0  502  0.10355644194E+04 -0.91423377557E+03  0.11298870097E+04  0.17846180873E+04  0.25500000920E-02 0. -1.
</event>
<event>
 5   0  0.1057036E-05  0.3020609E+04  0.7818609E-02  0.8237870E-01
        2   -1    0    0  501    0  0.00000000000E+00  0.00000000000E+00  0.11254957018E+04  0.11254957018E+04  0.25500000920E-02 0. -1.
       -2   -1    0    0    0  501  0.00000000000E+00  0.00000000000E+00 -0.20266805257E+04  0.20266805257E+04  0.25500000920E-02 0.  1.
    10030    2    1    2    0    0  0.00000000000E+00  0.00000000000E+00 -0.90118482389E+03  0.31521762274E+04  0.30206093561E+04 0.  0.
        4    1    3    3  502    0  0.31113137673E+03 -0.14499796918E+04 -0.74901080310E+03  0.16614038150E+04  0.12699999809E+01 0.  1.
       -4    1    3    3    0  502 -0.31113137673E+03  0.14499796918E+04 -0.15217402079E+03  0.14907724125E+04  0.12699999809E+01 0. -1.
</event>
<event>
 5   0  0.3313750E-06  0.2914275E+04  0.7818609E-02  0.8268643E-01
       -3   -1    0    0    0  501  0.00000000000E+00  0.00000000000E+00  0.18229318504E+04  0.18229318532E+04  0.10100000352E+00 0.  1.
        3   -1    0    0  501    0  0.00000000000E+00  0.00000000000E+00 -0.11647447170E+04  0.11647447213E+04  0.10100000352E+00 0. -1.
    10030    2    1    2    0    0  0.00000000000E+00  0.00000000000E+00  0.65818713346E+03  0.29876765746E+04  0.29142753836E+04 0.  0.
        3    1    3    3  502    0 -0.86281027213E+03 -0.66304560564E+03 -0.66442783613E+03  0.12749648624E+04  0.10100000352E+00 0. -1.
       -3    1    3    3    0  502  0.86281027213E+03  0.66304560564E+03  0.13226149696E+04  0.17127117121E+04  0.10100000352E+00 0.  1.
</event>
<event>
 5   0  0.1057036E-05  0.2958450E+04  0.7818609E-02  0.8255696E-01
        2   -1    0    0  501    0  0.00000000000E+00  0.00000000000E+00  0.11051204062E+04  0.11051204062E+04  0.25500000920E-02 0.  1.
       -2   -1    0    0    0  501  0.00000000000E+00  0.00000000000E+00 -0.19799711756E+04  0.19799711756E+04  0.25500000920E-02 0. -1.
    10030    2    1    2    0    0  0.00000000000E+00  0.00000000000E+00 -0.87485076944E+03  0.30850915817E+04  0.29584499656E+04 0.  0.
        4    1    3    3  502    0  0.98543381671E+03 -0.73485169390E+03  0.42060758825E+03  0.12992302241E+04  0.12699999809E+01 0.  1.
       -4    1    3    3    0  502 -0.98543381671E+03  0.73485169390E+03 -0.12954583577E+04  0.17858613576E+04  0.12699999809E+01 0. -1.
</event>
<event>
 5   0  0.1057036E-05  0.3003377E+04  0.7818609E-02  0.8242767E-01
        2   -1    0    0  501    0  0.00000000000E+00  0.00000000000E+00  0.27688349342E+04  0.27688349343E+04  0.25500000920E-02 0.  1.
       -2   -1    0    0    0  501  0.00000000000E+00  0.00000000000E+00 -0.81444679191E+03  0.81444679191E+03  0.25500000920E-02 0. -1.
    10030    2    1    2    0    0  0.00000000000E+00  0.00000000000E+00  0.19543881423E+04  0.35832817262E+04  0.30033772521E+04 0.  0.
        4    1    3    3  502    0  0.46704325631E+03  0.62311970448E+03 -0.55472759566E+03  0.95610244622E+03  0.12699999809E+01 0. -1.
       -4    1    3    3    0  502 -0.46704325631E+03 -0.62311970448E+03  0.25091157380E+04  0.26271792799E+04  0.12699999809E+01 0.  1.
</event>
<event>
 5   0  0.1089569E-05  0.2115762E+04  0.7818609E-02  0.8554332E-01
       -2   -1    0    0    0  501  0.00000000000E+00  0.00000000000E+00  0.10135366345E+04  0.10135366345E+04  0.25500000920E-02 0. -1.
        2   -1    0    0  501    0  0.00000000000E+00  0.00000000000E+00 -0.11041650493E+04  0.11041650493E+04  0.25500000920E-02 0.  1.
    10030    2    1    2    0    0  0.00000000000E+00  0.00000000000E+00 -0.90628414804E+02  0.21177016838E+04  0.21157615442E+04 0.  0.
        5    1    3    3  502    0  0.58300541146E+02  0.32127972066E+03 -0.10524525962E+04  0.11019519814E+04  0.46999998093E+01 0.  1.
       -5    1    3    3    0  502 -0.58300541146E+02 -0.32127972066E+03  0.96182418139E+03  0.10157497024E+04  0.46999998093E+01 0. -1.
</event>
<event>
 5   0  0.3725232E-06  0.2033680E+04  0.7818609E-02  0.8591034E-01
       -1   -1    0    0    0  501  0.00000000000E+00  0.00000000000E+00  0.78697192886E+03  0.78697192888E+03  0.50400001928E-02 0. -1.
        1   -1    0    0  501    0  0.00000000000E+00  0.00000000000E+00 -0.13138503532E+04  0.13138503532E+04  0.50400001928E-02 0.  1.
    10030    2    1    2    0    0  0.00000000000E+00  0.00000000000E+00 -0.52687842432E+03  0.21008222821E+04  0.20336797651E+04 0.  0.
        2    1    3    3  502    0  0.68648708120E+03  0.56867748172E+02  0.50922921662E+03  0.85662876937E+03  0.25500000920E-02 0. -1.
       -2    1    3    3    0  502 -0.68648708120E+03 -0.56867748172E+02 -0.10361076409E+04  0.12441935127E+04  0.25500000920E-02 0.  1.
</event>
<event>
 5   0  0.3852126E-06  0.3047936E+04  0.7818609E-02  0.8230173E-01
        1   -1    0    0  501    0  0.00000000000E+00  0.00000000000E+00  0.18496466463E+04  0.18496466463E+04  0.50400001928E-02 0. -1.
       -1   -1    0    0    0  501  0.00000000000E+00  0.00000000000E+00 -0.12556339754E+04  0.12556339754E+04  0.50400001928E-02 0.  1.
    10030    2    1    2    0    0  0.00000000000E+00  0.00000000000E+00  0.59401267093E+03  0.31052806217E+04  0.30479364636E+04 0.  0.
        1    1    3    3  502    0 -0.17775180848E+03 -0.11317925799E+04  0.13208658486E+04  0.17484955646E+04  0.50400001928E-02 0. -1.
       -1    1    3    3    0  502  0.17775180848E+03  0.11317925799E+04 -0.72685317766E+03  0.13567850571E+04  0.50400001928E-02 0.  1.
</event>
<event>
 5   0  0.3313750E-06  0.3025043E+04  0.7818609E-02  0.8236616E-01
       -3   -1    0    0    0  501  0.00000000000E+00  0.00000000000E+00  0.14687294141E+04  0.14687294175E+04  0.10100000352E+00 0. -1.
        3   -1    0    0  501    0  0.00000000000E+00  0.00000000000E+00 -0.15576193785E+04  0.15576193818E+04  0.10100000352E+00 0.  1.
    10030    2    1    2    0    0  0.00000000000E+00  0.00000000000E+00 -0.88889964425E+02  0.30263487993E+04  0.30250430789E+04 0.  0.
        4    1    3    3  502    0 -0.41718977511E+03 -0.11124308201E+04 -0.98088862421E+03  0.15406796370E+04  0.12699999809E+01 0.  1.
       -4    1    3    3    0  502  0.41718977511E+03  0.11124308201E+04  0.89199865979E+03  0.14856691623E+04  0.12699999809E+01 0. -1.
</event>
<event>
 5   0  0.1029922E-05  0.3099608E+04  0.7818609E-02  0.8215846E-01
        2   -1    0    0  501    0  0.00000000000E+00  0.00000000000E+00  0.11506776088E+04  0.11506776088E+04  0.25500000920E-02 0. -1.
       -2   -1    0    0    0  501  0.00000000000E+00  0.00000000000E+00 -0.20873718934E+04  0.20873718934E+04  0.25500000920E-02 0.  1.
    10030    2    1    2    0    0  0.00000000000E+00  0.00000000000E+00 -0.93669428458E+03  0.32380495022E+04  0.30996077810E+04 0.  0.
        1    1    3    3  502    0 -0.11827948970E+03 -0.86130416237E+03 -0.18086384557E+04  0.20067406313E+04  0.50400001928E-02 0.  1.
       -1    1    3    3    0  502  0.11827948970E+03  0.86130416237E+03  0.87194417116E+03  0.12313088709E+04  0.50400001928E-02 0. -1.
</event>
<event>
 5   0  0.3725232E-06  0.3010749E+04  0.7818609E-02  0.8240668E-01
       -1   -1    0    0    0  501  0.00000000000E+00  0.00000000000E+00  0.11061366282E+04  0.11061366282E+04  0.50400001928E-02 0. -1.
        1   -1    0    0  501    0  0.00000000000E+00  0.00000000000E+00 -0.20487091041E+04  0.20487091041E+04  0.50400001928E-02 0.  1.
    10030    2    1    2    0    0  0.00000000000E+00  0.00000000000E+00 -0.94257247587E+03  0.31548457323E+04  0.30107488641E+04 0.  0.
        2    1    3    3  502    0  0.12229273841E+04 -0.68314106507E+02  0.44577695733E+03  0.13034321231E+04  0.25500000920E-02 0. -1.
       -2    1    3    3    0  502 -0.12229273841E+04  0.68314106507E+02 -0.13883494332E+04  0.18514136092E+04  0.25500000920E-02 0.  1.
</event>
<event>
 5   0  0.1057036E-05  0.2977997E+04  0.7818609E-02  0.8250042E-01
       -2   -1    0    0    0  501  0.00000000000E+00  0.00000000000E+00  0.97705052212E+03  0.97705052212E+03  0.25500000920E-02 0.  1.
        2   -1    0    0  501    0  0.00000000000E+00  0.00000000000E+00 -0.22691934096E+04  0.22691934096E+04  0.25500000920E-02 0. -1.
    10030    2    1    2    0    0  0.00000000000E+00  0.00000000000E+00 -0.12921428875E+04  0.32462439317E+04  0.29779970488E+04 0.  0.
        4    1    3    3  502    0  0.14190490822E+04  0.43073607290E+03 -0.50030606907E+03  0.15651011590E+04  0.12699999809E+01 0.  1.
       -4    1    3    3    0  502 -0.14190490822E+04 -0.43073607290E+03 -0.79183681841E+03  0.16811427727E+04  0.12699999809E+01 0. -1.
</event>
<event>
 5   0  0.3896630E-06  0.3088111E+04  0.7818609E-02  0.8219008E-01
       -1   -1    0    0    0  501  0.00000000000E+00  0.00000000000E+00  0.11150484784E+04  0.11150484784E+04  0.50400001928E-02 0.  1.
        1   -1    0    0  501    0  0.00000000000E+00  0.00000000000E+00 -0.21381203014E+04  0.21381203014E+04  0.50400001928E-02 0. -1.
    10030    2    1    2    0    0  0.00000000000E+00  0.00000000000E+00 -0.10230718230E+04  0.32531687798E+04  0.30881112601E+04 0.  0.
        5    1    3    3  502    0  0.41048111460E+03  0.12932487173E+04  0.26480601654E+03  0.13824367279E+04  0.46999998093E+01 0.  1.
       -5    1    3    3    0  502 -0.41048111460E+03 -0.12932487173E+04 -0.12878778396E+04  0.18707320519E+04  0.46999998093E+01 0. -1.
</event>
<event>
 5   0  0.3592331E-06  0.3075591E+04  0.7818609E-02  0.8222469E-01
        1   -1    0    0  501    0  0.00000000000E+00  0.00000000000E+00  0.20373802577E+04  0.20373802577E+04  0.50400001928E-02 0.  1.
       -1   -1    0    0    0  501  0.00000000000E+00  0.00000000000E+00 -0.11607137933E+04  0.11607137933E+04  0.50400001928E-02 0. -1.
    10030    2    1    2    0    0  0.00000000000E+00  0.00000000000E+00  0.87666646439E+03  0.31980940511E+04  0.30755912390E+04 0.  0.
        3    1    3    3  502    0  0.15077303881E+04  0.29806999278E+03  0.49255133827E+03  0.16139093762E+04  0.10100000352E+00 0.  1.
       -3    1    3    3    0  502 -0.15077303881E+04 -0.29806999278E+03  0.38411512613E+03  0.15841846748E+04  0.10100000352E+00 0. -1.
</event>
<event>
 5   0  0.3725232E-06  0.2192284E+04  0.7818609E-02  0.8521646E-01
        1   -1    0    0  501    0  0.00000000000E+00  0.00000000000E+00  0.14632676387E+04  0.14632676387E+04  0.50400001928E-02 0.  1.
       -1   -1    0    0    0  501  0.00000000000E+00  0.00000000000E+00 -0.82112625591E+03  0.82112625593E+03  0.50400001928E-02 0. -1.
    10030    2    1    2    0    0  0.00000000000E+00  0.00000000000E+00  0.64214138280E+03  0.22843938947E+04  0.21922841765E+04 0.  0.
        2    1    3    3  502    0  0.65213561795E+03  0.51757713545E+03  0.10640214837E+04  0.13510398488E+04  0.25500000920E-02 0. -1.
       -2    1    3    3    0  502 -0.65213561795E+03 -0.51757713545E+03 -0.42188010089E+03  0.93335404583E+03  0.25500000920E-02 0.  1.
</event>
<event>
 5   0  0.3725232E-06  0.2855029E+04  0.7818609E-02  0.8286385E-01
       -1   -1    0    0    0  501  0.00000000000E+00  0.00000000000E+00  0.15655750881E+04  0.15655750881E+04  0.50400001928E-02 0. -1.
        1   -1    0    0  501    0  0.00000000000E+00  0.00000000000E+00 -0.13016292459E+04  0.13016292459E+04  0.50400001928E-02 0.  1.
    10030    2    1    2    0    0  0.00000000000E+00  0.00000000000E+00  0.26394584224E+03  0.28672043340E+04  0.28550294718E+04 0.  0.
        2    1    3    3  502    0 -0.72150299737E+03 -0.11593633824E+04 -0.28586416716E+03  0.13951373946E+04  0.25500000920E-02 0.  1.
       -2    1    3    3    0  502  0.72150299737E+03  0.11593633824E+04  0.54981000939E+03  0.14720669394E+04  0.25500000920E-02 0. -1.
</event>
<event>
 5   0  0.3896630E-06  0.2989578E+04  0.7818609E-02  0.8246713E-01
        1   -1    0    0  501    0  0.00000000000E+00  0.00000000000E+00  0.15325947754E+04  0.15325947754E+04  0.50400001928E-02 0.  1.
       -1   -1    0    0    0  501  0.00000000000E+00  0.00000000000E+00 -0.14579156166E+04  0.14579156167E+04  0.50400001928E-02 0. -1.
    10030    2    1    2    0    0  0.00000000000E+00  0.00000000000E+00  0.74679158792E+02  0.29905103921E+04  0.29895778011E+04 0.  0.
        5    1    3    3  502    0 -0.11997712327E+04 -0.38055001527E+03  0.84388040348E+03  0.15153961695E+04  0.46999998093E+01 0.  1.
       -5    1    3    3    0  502  0.11997712327E+04  0.38055001527E+03 -0.76920124468E+03  0.14751142226E+04  0.46999998093E+01 0. -1.
</event>
<event>
 5   0  0.1029922E-05  0.2945879E+04  0.7818609E-02  0.8259356E-01
       -2   -1    0    0    0  501  0.00000000000E+00  0.00000000000E+00  0.13233443563E+04  0.13233443563E+04  0.25500000920E-02 0.  1.
        2   -1    0    0  501    0  0.00000000000E+00  0.00000000000E+00 -0.16394457209E+04  0.16394457209E+04  0.25500000920E-02 0. -1.
    10030    2    1    2    0    0  0.00000000000E+00  0.00000000000E+00 -0.31610136454E+03  0.29627900772E+04  0.29458793201E+04 0.  0.
        1    1    3    3  502    0 -0.84716471610E+03  0.21795183729E+03  0.10338091499E+04  0.13542349937E+04  0.50400001928E-02 0.  1.
       -1    1    3    3    0  502  0.84716471610E+03 -0.21795183729E+03 -0.13499105145E+04  0.16085550835E+04  0.50400001928E-02 0. -1.
</event>
<event>
 5   0  0.3636718E-06  0.3007725E+04  0.7818609E-02  0.8241528E-01
       -1   -1    0    0    0  501  0.00000000000E+00  0.00000000000E+00  0.12310919324E+04  0.12310919324E+04  0.50400001928E-02 0. -1.
        1   -1    0    0  501    0  0.00000000000E+00  0.00000000000E+00 -0.18370702415E+04  0.18370702415E+04  0.50400001928E-02 0.  1.
    10030    2    1    2    0    0  0.00000000000E+00  0.00000000000E+00 -0.60597830909E+03  0.30681621739E+04  0.30077249565E+04 0.  0.
        4    1    3    3  502    0 -0.57964285615E+03  0.13706006646E+04 -0.81676433624E+02  0.14903706503E+04  0.12699999809E+01 0.  1.
       -4    1    3    3    0  502  0.57964285615E+03 -0.13706006646E+04 -0.52430187547E+03  0.15777915236E+04  0.12699999809E+01 0. -1.
</event>
<event>
 5   0  0.3852126E-06  0.2665889E+04  0.7818609E-02  0.8346158E-01
        1   -1    0    0  501    0  0.00000000000E+00  0.00000000000E+00  0.21901979158E+04  0.21901979158E+04  0.50400001928E-02 0. -1.
       -1   -1    0    0    0  501  0.00000000000E+00  0.00000000000E+00 -0.81122379077E+03  0.81122379079E+03  0.50400001928E-02 0.  1.
    10030    2    1    2    0    0  0.00000000000E+00  0.00000000000E+00  0.13789741251E+04  0.30014217066E+04  0.26658887118E+04 0.  0.
        1    1    3    3  502    0 -0.46105002351E+03 -0.73780805286E+03 -0.44747306509E+03  0.97834553766E+03  0.50400001928E-02 0.  1.
       -1    1    3    3    0  502  0.46105002351E+03  0.73780805286E+03  0.18264471902E+04  0.20230761690E+04  0.50400001928E-02 0. -1.
</event>
<event>
 5   0  0.1057036E-05  0.2918064E+04  0.7818609E-02  0.8267523E-01
       -2   -1    0    0    0  501  0.00000000000E+00  0.00000000000E+00  0.14065865328E+04  0.14065865328E+04  0.25500000920E-02 0.  1.
        2   -1    0    0  501    0  0.00000000000E+00  0.00000000000E+00 -0.15134334301E+04  0.15134334301E+04  0.25500000920E-02 0. -1.
    10030    2    1    2    0    0  0.00000000000E+00  0.00000000000E+00 -0.10684689732E+03  0.29200199629E+04  0.29180644826E+04 0.  0.
        4    1    3    3  502    0 -0.38654303031E+03  0.19605760619E+03 -0.14475258747E+04  0.15110217967E+04  0.12699999809E+01 0. -1.
       -4    1    3    3    0  502  0.38654303031E+03 -0.19605760619E+03  0.13406789774E+04  0.14089981662E+04  0.12699999809E+01 0.  1.
</event>
<event>
 5   0  0.3896630E-06  0.3027660E+04  0.7818609E-02  0.8235876E-01
       -1   -1    0    0    0  501  0.00000000000E+00  0.00000000000E+00  0.12168319214E+04  0.12168319214E+04  0.50400001928E-02 0. -1.
        1   -1    0    0  501    0  0.00000000000E+00  0.00000000000E+00 -0.18833184375E+04  0.18833184375E+04  0.50400001928E-02 0.  1.
    10030    2    1    2    0    0  0.00000000000E+00  0.00000000000E+00 -0.66648651616E+03  0.31001503589E+04  0.30276604782E+04 0.  0.
        5    1    3    3  502    0  0.57056259926E+02  0.13253822340E+04  0.41343935823E+03  0.13895494507E+04  0.46999998093E+01 0. -1.
       -5    1    3    3    0  502 -0.57056259926E+02 -0.13253822340E+04 -0.10799258744E+04  0.17106009082E+04  0.46999998093E+01 0.  1.
</event>
<event>
 5   0  0.3313750E-06  0.2983761E+04  0.7818609E-02  0.8248383E-01
        3   -1    0    0  501    0  0.00000000000E+00  0.00000000000E+00  0.11858589742E+04  0.11858589785E+04  0.10100000352E+00 0. -1.
       -3   -1    0    0    0  501  0.00000000000E+00  0.00000000000E+00 -0.18768741310E+04  0.18768741337E+04  0.10100000352E+00 0.  1.
    10030    2    1    2    0    0  0.00000000000E+00  0.00000000000E+00 -0.69101515682E+03  0.30627331123E+04  0.29837614130E+04 0.  0.
        4    1    3    3  502    0  0.83095900285E+02 -0.67002629490E+03 -0.17110817260E+04  0.18394679803E+04  0.12699999809E+01 0.  1.
       -4    1    3    3    0  502 -0.83095900285E+02  0.67002629490E+03  0.10200665692E+04  0.12232651319E+04  0.12699999809E+01 0. -1.
</event>
<event>
 5   0  0.3636718E-06  0.3007069E+04  0.7818609E-02  0.8241715E-01
       -1   -1    0    0    0  501  0.00000000000E+00  0.00000000000E+00  0.12994744666E+04  0.12994744666E+04  0.50400001928E-02 0.  1.
        1   -1    0    0  501    0  0.00000000000E+00  0.00000000000E+00 -0.17396383803E+04  0.17396383803E+04  0.50400001928E-02 0. -1.
    10030    2    1    2    0    0  0.00000000000E+00  0.00000000000E+00 -0.44016391372E+03  0.30391128469E+04  0.30070687762E+04 0.  0.
        4    1    3    3  502    0  0.26828754878E+03 -0.13233773053E+04  0.44825787695E+03  0.14227587421E+04  0.12699999809E+01 0.  1.
       -4    1    3    3    0  502 -0.26828754878E+03  0.13233773053E+04 -0.88842179067E+03  0.16163541048E+04  0.12699999809E+01 0. -1.
</event>
<event>
 5   0  0.1029922E-05  0.2885748E+04  0.7818609E-02  0.8277131E-01
       -2   -1    0    0    0  501  0.00000000000E+00  0.00000000000E+00  0.13532253542E+04  0.13532253542E+04  0.25500000920E-02 0.  1.
        2   -1    0    0  501    0  0.00000000000E+00  0.00000000000E+00 -0.15384611884E+04  0.15384611884E+04  0.25500000920E-02 0. -1.
    10030    2    1    2    0    0  0.00000000000E+00  0.00000000000E+00 -0.18523583415E+03  0.28916865426E+04  0.28857475195E+04 0.  0.
        1    1    3    3  502    0 -0.25086616164E+03  0.34416789392E+03  0.12888052711E+04  0.13573519798E+04  0.50400001928E-02 0.  1.
       -1    1    3    3    0  502  0.25086616164E+03 -0.34416789392E+03 -0.14740411053E+04  0.15343345627E+04  0.50400001928E-02 0. -1.
</event>
<event>
 5   0  0.3636718E-06  0.2265327E+04  0.7818609E-02  0.8491719E-01
       -1   -1    0    0    0  501  0.00000000000E+00  0.00000000000E+00  0.14343955660E+04  0.14343955661E+04  0.50400001928E-02 0. -1.
        1   -1    0    0  501    0  0.00000000000E+00  0.00000000000E+00 -0.89440250178E+03  0.89440250179E+03  0.50400001928E-02 0.  1.
    10030    2    1    2    0    0  0.00000000000E+00  0.00000000000E+00  0.53999306427E+03  0.23287980678E+04  0.22653273343E+04 0.  0.
        4    1    3    3  502    0  0.15644606365E+03  0.32195035508E+03 -0.83472767932E+03  0.90823967844E+03  0.12699999809E+01 0.  1.
       -4    1    3    3    0  502 -0.15644606365E+03 -0.32195035508E+03  0.13747207436E+04  0.14205583894E+04  0.12699999809E+01 0. -1.
</event>
<event>
 5   0  0.1029922E-05  0.2882142E+04  0.7818609E-02  0.8278211E-01
       -2   -1    0    0    0  501  0.00000000000E+00  0.00000000000E+00  0.16207881870E+04  0.16207881870E+04  0.25500000920E-02 0. -1.
        2   -1    0    0  501    0  0.00000000000E+00  0.00000000000E+00 -0.12812811172E+04  0.12812811172E+04  0.25500000920E-02 0.  1.
    10030    2    1    2    0    0  0.00000000000E+00  0.00000000000E+00  0.33950706984E+03  0.29020693042E+04  0.28821417723E+04 0.  0.
        1    1    3    3  502    0  0.43561106176E+03  0.21331140487E+03  0.15361276925E+04  0.16108839313E+04  0.50400001928E-02 0. -1.
       -1    1    3    3    0  502 -0.43561106176E+03 -0.21331140487E+03 -0.11966206226E+04  0.12911853729E+04  0.50400001928E-02 0.  1.
</event>
<event>
 5   0  0.1028450E-05  0.2944637E+04  0.7818609E-02  0.8259719E-01
       -2   -1    0    0    0  501  0.00000000000E+00  0.00000000000E+00  0.15674453455E+04  0.15674453455E+04  0.25500000920E-02 0. -1.
        2   -1    0    0  501    0  0.00000000000E+00  0.00000000000E+00 -0.13829644524E+04  0.13829644524E+04  0.25500000920E-02 0.  1.
    10030    2    1    2    0    0  0.00000000000E+00  0.00000000000E+00  0.18448089306E+03  0.29504097979E+04  0.29446366118E+04 0.  0.
        3    1    3    3  502    0  0.11307332534E+04  0.44091511944E+02 -0.85152952858E+03  0.14161935955E+04  0.10100000352E+00 0.  1.
       -3    1    3    3    0  502 -0.11307332534E+04 -0.44091511944E+02  0.10360104216E+04  0.15342162024E+04  0.10100000352E+00 0. -1.
</event>
<event>
 5   0  0.1028450E-05  0.2967827E+04  0.7818609E-02  0.8252978E-01
        2   -1    0    0  501    0  0.00000000000E+00  0.00000000000E+00  0.17778519560E+04  0.17778519560E+04  0.25500000920E-02 0.  1.
       -2   -1    0    0    0  501  0.00000000000E+00  0.00000000000E+00 -0.12385727796E+04  0.12385727797E+04  0.25500000920E-02 0. -1.
    10030    2    1    2    0    0  0.00000000000E+00  0.00000000000E+00  0.53927917634E+03  0.30164247356E+04  0.29678268406E+04 0.  0.
        3    1    3    3  502    0 -0.52972744266E+03 -0.12731418124E+04  0.82679272126E+03  0.16078207151E+04  0.10100000352E+00 0.  1.
       -3    1    3    3    0  502  0.52972744266E+03  0.12731418124E+04 -0.28751354492E+03  0.14086040205E+04  0.10100000352E+00 0. -1.
</event>
<event>
 5   0  0.3852126E-06  0.2930860E+04  0.7818609E-02  0.8263755E-01
       -1   -1    0    0    0  501  0.00000000000E+00  0.00000000000E+00  0.14736933947E+04  0.14736933947E+04  0.50400001928E-02 0. -1.
        1   -1    0    0  501    0  0.00000000000E+00  0.00000000000E+00 -0.14572128819E+04  0.14572128819E+04  0.50400001928E-02 0.  1.
    10030    2    1    2    0    0  0.00000000000E+00  0.00000000000E+00  0.16480512774E+02  0.29309062766E+04  0.29308599412E+04 0.  0.
        1    1    3    3  502    0 -0.60998766466E+03 -0.62986754032E+03  0.11824253022E+04  0.14720555916E+04  0.50400001928E-02 0. -1.
       -1    1    3    3    0  502  0.60998766466E+03  0.62986754032E+03 -0.11659447894E+04  0.14588506851E+04  0.50400001928E-02 0.  1.
</event>
<event>
 5   0  0.3896630E-06  0.2958838E+04  0.7818609E-02  0.8255584E-01
        1   -1    0    0  501    0  0.00000000000E+00  0.00000000000E+00  0.17793972183E+04  0.17793972183E+04  0.50400001928E-02 0.  1.
       -1   -1    0    0    0  501  0.00000000000E+00  0.00000000000E+00 -0.12300120980E+04  0.12300120980E+04  0.50400001928E-02 0. -1.
    10030    2    1    2    0    0  0.00000000000E+00  0.00000000000E+00  0.54938512026E+03  0.30094093163E+04  0.29588376810E+04 0.  0.
        5    1    3    3  502    0 -0.22603075884E+03 -0.12812467856E+04  0.99098426148E+03  0.16354678615E+04  0.46999998093E+01 0.  1.
       -5    1    3    3    0  502  0.22603075884E+03  0.12812467856E+04 -0.44159914122E+03  0.13739414548E+04  0.46999998093E+01 0. -1.
</event>
<event>
 5   0  0.1028450E-05  0.3010526E+04  0.7818609E-02  0.8240731E-01
        2   -1    0    0  501    0  0.00000000000E+00  0.00000000000E+00  0.12283926462E+04  0.12283926462E+04  0.25500000920E-02 0. -1.
       -2   -1    0    0    0  501  0.00000000000E+00  0.00000000000E+00 -0.18445380468E+04  0.18445380468E+04  0.25500000920E-02 0.  1.
    10030    2    1    2    0    0  0.00000000000E+00  0.00000000000E+00 -0.61614540062E+03  0.30729306930E+04  0.30105261814E+04 0.  0.
        3    1    3    3  502    0 -0.86350266761E+03 -0.55094273332E+03 -0.14339519023E+04  0.17622124789E+04  0.10100000352E+00 0.  1.
       -3    1    3    3    0  502  0.86350266761E+03  0.55094273332E+03  0.81780650169E+03  0.13107182141E+04  0.10100000352E+00 0. -1.
</event>
<event>
 5   0  0.3896630E-06  0.2910706E+04  0.7818609E-02  0.8269699E-01
        1   -1    0    0  501    0  0.00000000000E+00  0.00000000000E+00  0.11424916596E+04  0.11424916596E+04  0.50400001928E-02 0. -1.
       -1   -1    0    0    0  501  0.00000000000E+00  0.00000000000E+00 -0.18538889030E+04  0.18538889030E+04  0.50400001928E-02 0.  1.
    10030    2    1    2    0    0  0.00000000000E+00  0.00000000000E+00 -0.71139724341E+03  0.29963805626E+04  0.29107061751E+04 0.  0.
        5    1    3    3  502    0  0.17276128340E+03  0.89502774714E+03 -0.15236004365E+04  0.17754721933E+04  0.46999998093E+01 0.  1.
       -5    1    3    3    0  502 -0.17276128340E+03 -0.89502774714E+03  0.81220319309E+03  0.12209083692E+04  0.46999998093E+01 0. -1.
</event>
<event>
 5   0  0.9647945E-06  0.2537786E+04  0.7818609E-02  0.8389647E-01
       -2   -1    0    0    0  501  0.00000000000E+00  0.00000000000E+00  0.12003293829E+04  0.12003293829E+04  0.25500000920E-02 0. -1.
        2   -1    0    0  501    0  0.00000000000E+00  0.00000000000E+00 -0.13413725036E+04  0.13413725036E+04  0.25500000920E-02 0.  1.
    10030    2    1    2    0    0  0.00000000000E+00  0.00000000000E+00 -0.14104312065E+03  0.25417018865E+04  0.25377855146E+04 0.  0.
        2    1    3    3  502    0 -0.15939162569E+03  0.36007960445E+03  0.11375844552E+04  0.12038111998E+04  0.25500000920E-02 0. -1.
       -2    1    3    3    0  502  0.15939162569E+03 -0.36007960445E+03 -0.12786275759E+04  0.13378906867E+04  0.25500000920E-02 0.  1.
</event>
<event>
 5   0  0.3592331E-06  0.3016945E+04  0.7818609E-02  0.8238909E-01
       -1   -1    0    0    0  501  0.00000000000E+00  0.00000000000E+00  0.17403948104E+04  0.17403948105E+04  0.50400001928E-02 0. -1.
        1   -1    0    0  501    0  0.00000000000E+00  0.00000000000E+00 -0.13074553851E+04  0.13074553851E+04  0.50400001928E-02 0.  1.
    10030    2    1    2    0    0  0.00000000000E+00  0.00000000000E+00  0.43293942537E+03  0.30478501955E+04  0.30169445252E+04 0.  0.
        3    1    3    3  502    0  0.19780111940E+03  0.66127772556E+03  0.15715060209E+04  0.17164045843E+04  0.10100000352E+00 0. -1.
       -3    1    3    3    0  502 -0.19780111940E+03 -0.66127772556E+03 -0.11385665955E+04  0.13314456113E+04  0.10100000352E+00 0.  1.
</event>
<event>
 5   0  0.3592331E-06  0.3005536E+04  0.7818609E-02  0.8242152E-01
        1   -1    0    0  501    0  0.00000000000E+00  0.00000000000E+00  0.11096047460E+04  0.11096047460E+04  0.50400001928E-02 0.  1.
       -1   -1    0    0    0  501  0.00000000000E+00  0.00000000000E+00 -0.20352398678E+04  0.20352398678E+04  0.50400001928E-02 0. -1.
    10030    2    1    2    0    0  0.00000000000E+00  0.00000000000E+00 -0.92563512182E+03  0.31448446138E+04  0.30055361029E+04 0.  0.
        3    1    3    3  502    0  0.10838065040E+04 -0.10348519518E+04 -0.34463687259E+03  0.15376376961E+04  0.10100000352E+00 0. -1.
       -3    1    3    3    0  502 -0.10838065040E+04  0.10348519518E+04 -0.58099824923E+03  0.16072069177E+04  0.10100000352E+00 0.  1.
</event>
<event>
 5   0  0.3636718E-06  0.2973220E+04  0.7818609E-02  0.8251420E-01
       -1   -1    0    0    0  501  0.00000000000E+00  0.00000000000E+00  0.13785933405E+04  0.13785933405E+04  0.50400001928E-02 0.  1.
        1   -1    0    0  501    0  0.00000000000E+00  0.00000000000E+00 -0.16030903012E+04  0.16030903012E+04  0.50400001928E-02 0. -1.
    10030    2    1    2    0    0  0.00000000000E+00  0.00000000000E+00 -0.22449696070E+03  0.29816836417E+04  0.29732202161E+04 0.  0.
        4    1    3    3  502    0 -0.12769243907E+04  0.12315975325E+02 -0.87554609147E+03  0.15483120338E+04  0.12699999809E+01 0. -1.
       -4    1    3    3    0  502  0.12769243907E+04 -0.12315975325E+02  0.65104913078E+03  0.14333716079E+04  0.12699999809E+01 0.  1.
</event>
<event>
 5   0  0.1057036E-05  0.2122901E+04  0.7818609E-02  0.8551222E-01
        2   -1    0    0  501    0  0.00000000000E+00  0.00000000000E+00  0.10899709472E+04  0.10899709472E+04  0.25500000920E-02 0. -1.
       -2   -1    0    0    0  501  0.00000000000E+00  0.00000000000E+00 -0.10336765656E+04  0.10336765656E+04  0.25500000920E-02 0.  1.
    10030    2    1    2    0    0  0.00000000000E+00  0.00000000000E+00  0.56294381609E+02  0.21236475129E+04  0.21229012463E+04 0.  0.
        4    1    3    3  502    0 -0.22852355470E+03  0.58821627939E+03  0.88194262614E+03  0.10844564607E+04  0.12699999809E+01 0. -1.
       -4    1    3    3    0  502  0.22852355470E+03 -0.58821627939E+03 -0.82564824453E+03  0.10391910522E+04  0.12699999809E+01 0.  1.
</event>
<event>
 5   0  0.3592331E-06  0.2975015E+04  0.7818609E-02  0.8250902E-01
       -1   -1    0    0    0  501  0.00000000000E+00  0.00000000000E+00  0.31964609067E+04  0.31964609067E+04  0.50400001928E-02 0. -1.
        1   -1    0    0  501    0  0.00000000000E+00  0.00000000000E+00 -0.69222771660E+03  0.69222771662E+03  0.50400001928E-02 0.  1.
    10030    2    1    2    0    0  0.00000000000E+00  0.00000000000E+00  0.25042331901E+04  0.38886886233E+04  0.29750151829E+04 0.  0.
        3    1    3    3  502    0  0.62125351112E+03 -0.81885717388E+03  0.26576128154E+04  0.28494541378E+04  0.10100000352E+00 0. -1.
       -3    1    3    3    0  502 -0.62125351112E+03  0.81885717388E+03 -0.15337962533E+03  0.10392344856E+04  0.10100000352E+00 0.  1.
</event>
<event>
 5   0  0.3896630E-06  0.3030808E+04  0.7818609E-02  0.8234988E-01
        1   -1    0    0  501    0  0.00000000000E+00  0.00000000000E+00  0.20242519720E+04  0.20242519721E+04  0.50400001928E-02 0. -1.
       -1   -1    0    0    0  501  0.00000000000E+00  0.00000000000E+00 -0.11344678032E+04  0.11344678032E+04  0.50400001928E-02 0.  1.
    10030    2    1    2    0    0  0.00000000000E+00  0.00000000000E+00  0.88978416883E+03  0.31587197753E+04  0.30308076072E+04 0.  0.
        5    1    3    3  502    0  0.10530341898E+04  0.34043997974E+03  0.15237852638E+04  0.18832748086E+04  0.46999998093E+01 0. -1.
       -5    1    3    3    0  502 -0.10530341898E+04 -0.34043997974E+03 -0.63400109495E+03  0.12754449667E+04  0.46999998093E+01 0.  1.
</event>
<event>
 5   0  0.3636718E-06  0.2918725E+04  0.7818609E-02  0.8267328E-01
        1   -1    0    0  501    0  0.00000000000E+00  0.00000000000E+00  0.19299788807E+04  0.19299788807E+04  0.50400001928E-02 0.  1.
       -1   -1    0    0    0  501  0.00000000000E+00  0.00000000000E+00 -0.11035034895E+04  0.11035034895E+04  0.50400001928E-02 0. -1.
    10030    2    1    2    0    0  0.00000000000E+00  0.00000000000E+00  0.82647539121E+03  0.30334823702E+04  0.29187246732E+04 0.  0.
        4    1    3    3  502    0 -0.48744746121E+02  0.10519885502E+03 -0.10987085219E+04  0.11048098834E+04  0.12699999809E+01 0. -1.
       -4    1    3    3    0  502  0.48744746121E+02 -0.10519885502E+03  0.19251839131E+04  0.19286724869E+04  0.12699999809E+01 0.  1.
</event>
<event>
 5   0  0.9647945E-06  0.2956780E+04  0.7818609E-02  0.8256181E-01
       -2   -1    0    0    0  501  0.00000000000E+00  0.00000000000E+00  0.10775722163E+04  0.10775722163E+04  0.25500000920E-02 0. -1.
        2   -1    0    0  501    0  0.00000000000E+00  0.00000000000E+00 -0.20282970441E+04  0.20282970441E+04  0.25500000920E-02 0.  1.
    10030    2    1    2    0    0  0.00000000000E+00  0.00000000000E+00 -0.95072482782E+03  0.31058692604E+04  0.29567796949E+04 0.  0.
        2    1    3    3  502    0  0.53379656299E+03 -0.39053524058E+03 -0.18642185968E+04  0.19780716674E+04  0.25500000920E-02 0.  1.
       -2    1    3    3    0  502 -0.53379656299E+03  0.39053524058E+03  0.91349376895E+03  0.11277975930E+04  0.25500000920E-02 0. -1.
</event>
<event>
 5   0  0.1057036E-05  0.3005971E+04  0.7818609E-02  0.8242028E-01
       -2   -1    0    0    0  501  0.00000000000E+00  0.00000000000E+00  0.17041201370E+04  0.17041201370E+04  0.25500000920E-02 0.  1.
        2   -1    0    0  501    0  0.00000000000E+00  0.00000000000E+00 -0.13255900771E+04  0.13255900771E+04  0.25500000920E-02 0. -1.
    10030    2    1    2    0    0  0.00000000000E+00  0.00000000000E+00  0.37853005988E+03  0.30297102142E+04  0.30059705547E+04 0.  0.
        4    1    3    3  502    0  0.37164033634E+03 -0.76229001030E+03  0.14399356869E+04  0.16711131005E+04  0.12699999809E+01 0.  1.
       -4    1    3    3    0  502 -0.37164033634E+03  0.76229001030E+03 -0.10614056270E+04  0.13585971137E+04  0.12699999809E+01 0. -1.
</event>
<event>
 5   0  0.1057036E-05  0.3689486E+04  0.7818609E-02  0.8070296E-01
       -2   -1    0    0    0  501  0.00000000000E+00  0.00000000000E+00  0.15276617632E+04  0.15276617632E+04  0.25500000920E-02 0. -1.
        2   -1    0    0  501    0  0.00000000000E+00  0.00000000000E+00 -0.22276375484E+04  0.22276375484E+04  0.25500000920E-02 0.  1.
    10030    2    1    2    0    0  0.00000000000E+00  0.00000000000E+00 -0.69997578522E+03  0.37552993115E+04  0.36894859831E+04 0.  0.
        4    1    3    3  502    0  0.10258671816E+04  0.14597947459E+04 -0.82703907300E+03  0.19665704706E+04  0.12699999809E+01 0.  1.
       -4    1    3    3    0  502 -0.10258671816E+04 -0.14597947459E+04  0.12706328778E+03  0.17887288410E+04  0.12699999809E+01 0. -1.
</event>
<event>
 5   0  0.3636718E-06  0.3009832E+04  0.7818609E-02  0.8240929E-01
       -1   -1    0    0    0  501  0.00000000000E+00  0.00000000000E+00  0.19478808552E+04  0.19478808552E+04  0.50400001928E-02 0. -1.
        1   -1    0    0  501    0  0.00000000000E+00  0.00000000000E+00 -0.11626847767E+04  0.11626847767E+04  0.50400001928E-02 0.  1.
    10030    2    1    2    0    0  0.00000000000E+00  0.00000000000E+00  0.78519607853E+03  0.31105656319E+04  0.30098315017E+04 0.  0.
        4    1    3    3  502    0 -0.36246246733E+03  0.54719511172E+02 -0.11158397712E+04  0.11745098011E+04  0.12699999809E+01 0.  1.
       -4    1    3    3    0  502  0.36246246733E+03 -0.54719511172E+02  0.19010358497E+04  0.19360558308E+04  0.12699999809E+01 0. -1.
</event>
<event>
 5   0  0.9647945E-06  0.3026683E+04  0.7818609E-02  0.8236152E-01
        2   -1    0    0  501    0  0.00000000000E+00  0.00000000000E+00  0.21161225315E+04  0.21161225315E+04  0.25500000920E-02 0.  1.
       -2   -1    0    0    0  501  0.00000000000E+00  0.00000000000E+00 -0.10822633391E+04  0.10822633391E+04  0.25500000920E-02 0. -1.
    10030    2    1    2    0    0  0.00000000000E+00  0.00000000000E+00  0.10338591924E+04  0.31983858706E+04  0.30266825648E+04 0.  0.
        2    1    3    3  502    0 -0.45014160245E+03  0.20208283431E+03 -0.99487267416E+03  0.11105118513E+04  0.25500000920E-02 0. -1.
       -2    1    3    3    0  502  0.45014160245E+03 -0.20208283431E+03  0.20287318665E+04  0.20878740193E+04  0.25500000920E-02 0.  1.
</event>
<event>
 5   0  0.1057036E-05  0.2975083E+04  0.7818609E-02  0.8250882E-01
       -2   -1    0    0    0  501  0.00000000000E+00  0.00000000000E+00  0.87226653698E+03  0.87226653699E+03  0.25500000920E-02 0.  1.
        2   -1    0    0  501    0  0.00000000000E+00  0.00000000000E+00 -0.25368159626E+04  0.25368159626E+04  0.25500000920E-02 0. -1.
    10030    2    1    2    0    0  0.00000000000E+00  0.00000000000E+00 -0.16645494257E+04  0.34090824996E+04  0.29750829734E+04 0.  0.
        4    1    3    3  502    0 -0.82130428238E+03 -0.12300024637E+04 -0.10146504114E+04  0.17935896563E+04  0.12699999809E+01 0. -1.
       -4    1    3    3    0  502  0.82130428238E+03  0.12300024637E+04 -0.64989901428E+03  0.16154928433E+04  0.12699999809E+01 0.  1.
</event>
<event>
 5   0  0.1089569E-05  0.3067121E+04  0.7818609E-02  0.8224820E-01
        2   -1    0    0  501    0  0.00000000000E+00  0.00000000000E+00  0.16248206171E+04  0.16248206171E+04  0.25500000920E-02 0.  1.
       -2   -1    0    0    0  501  0.00000000000E+00  0.00000000000E+00 -0.14474264678E+04  0.14474264679E+04  0.25500000920E-02 0. -1.
    10030    2    1    2    0    0  0.00000000000E+00  0.00000000000E+00  0.17739414923E+03  0.30722470849E+04  0.30671213648E+04 0.  0.
        5    1    3    3  502    0  0.86520250034E+03  0.31916817764E+03 -0.11386434702E+04  0.14652558597E+04  0.46999998093E+01 0. -1.
       -5    1    3    3    0  502 -0.86520250034E+03 -0.31916817764E+03  0.13160376194E+04  0.16069912252E+04  0.46999998093E+01 0.  1.
</event>
<event>
 5   0  0.3725232E-06  0.3057977E+04  0.7818609E-02  0.8227366E-01
       -1   -1    0    0    0  501  0.00000000000E+00  0.00000000000E+00  0.13239194493E+04  0.13239194494E+04  0.50400001928E-02 0. -1.
        1   -1    0    0  501    0  0.00000000000E+00  0.00000000000E+00 -0.17658216137E+04  0.17658216137E+04  0.50400001928E-02 0.  1.
    10030    2    1    2    0    0  0.00000000000E+00  0.00000000000E+00 -0.44190216438E+03  0.30897410631E+04  0.30579768335E+04 0.  0.
        2    1    3    3  502    0  0.85438173647E+03  0.14482208441E+03 -0.14937439890E+04  0.17269084204E+04  0.25500000920E-02 0.  1.
       -2    1    3    3    0  502 -0.85438173647E+03 -0.14482208441E+03  0.10518418247E+04  0.13628326426E+04  0.25500000920E-02 0. -1.
</event>
<event>
 5   0  0.1089569E-05  0.2955013E+04  0.7818609E-02  0.8256695E-01
       -2   -1    0    0    0  501  0.00000000000E+00  0.00000000000E+00  0.16193663379E+04  0.16193663379E+04  0.25500000920E-02 0. -1.
        2   -1    0    0  501    0  0.00000000000E+00  0.00000000000E+00 -0.13480737627E+04  0.13480737627E+04  0.25500000920E-02 0.  1.
    10030    2    1    2    0    0  0.00000000000E+00  0.00000000000E+00  0.27129257520E+03  0.29674401006E+04  0.29550128746E+04 0.  0.
        5    1    3    3  502    0 -0.13332997387E+03 -0.13895421800E+04  0.62182988632E+03  0.15281684624E+04  0.46999998093E+01 0.  1.
       -5    1    3    3    0  502  0.13332997387E+03  0.13895421800E+04 -0.35053731112E+03  0.14392716382E+04  0.46999998093E+01 0. -1.
</event>
<event>
 5   0  0.3313750E-06  0.2582784E+04  0.7818609E-02  0.8374073E-01
       -3   -1    0    0    0  501  0.00000000000E+00  0.00000000000E+00  0.20228110422E+04  0.20228110447E+04  0.10100000352E+00 0.  1.
        3   -1    0    0  501    0  0.00000000000E+00  0.00000000000E+00 -0.82444336238E+03  0.82444336857E+03  0.10100000352E+00 0. -1.
    10030    2    1    2    0    0  0.00000000000E+00  0.00000000000E+00  0.11983676798E+04  0.28472544133E+04  0.25827838853E+04 0.  0.
        1    1    3    3  502    0 -0.16516770692E+03 -0.28402533870E+03  0.19759641418E+04  0.20030938705E+04  0.50400001928E-02 0.  1.
       -1    1    3    3    0  502  0.16516770692E+03  0.28402533870E+03 -0.77759646192E+03  0.84416054282E+03  0.50400001928E-02 0. -1.
</event>
<event>
 5   0  0.3725232E-06  0.2991894E+04  0.7818609E-02  0.8246050E-01
       -1   -1    0    0    0  501  0.00000000000E+00  0.00000000000E+00  0.14643636795E+04  0.14643636795E+04  0.50400001928E-02 0.  1.
        1   -1    0    0  501    0  0.00000000000E+00  0.00000000000E+00 -0.15282110193E+04  0.15282110193E+04  0.50400001928E-02 0. -1.
    10030    2    1    2    0    0  0.00000000000E+00  0.00000000000E+00 -0.63847339733E+02  0.29925746988E+04  0.29918935217E+04 0.  0.
        2    1    3    3  502    0  0.12425733826E+04  0.49765741274E+03 -0.70006168077E+03  0.15105422432E+04  0.25500000920E-02 0. -1.
       -2    1    3    3    0  502 -0.12425733826E+04 -0.49765741274E+03  0.63621434103E+03  0.14820324556E+04  0.25500000920E-02 0.  1.
</event>
<event>
 5   0  0.1029922E-05  0.2527698E+04  0.7818609E-02  0.8393184E-01
       -2   -1    0    0    0  501  0.00000000000E+00  0.00000000000E+00  0.11121911219E+04  0.11121911219E+04  0.25500000920E-02 0. -1.
        2   -1    0    0  501    0  0.00000000000E+00  0.00000000000E+00 -0.14361863981E+04  0.14361863981E+04  0.25500000920E-02 0.  1.
    10030    2    1    2    0    0  0.00000000000E+00  0.00000000000E+00 -0.32399527615E+03  0.25483775200E+04  0.25276975780E+04 0.  0.
        1    1    3    3  502    0  0.76236736542E+03 -0.99663892014E+03 -0.31429851874E+03  0.12935519688E+04  0.50400001928E-02 0.  1.
       -1    1    3    3    0  502 -0.76236736542E+03  0.99663892014E+03 -0.96967574080E+01  0.12548255513E+04  0.50400001928E-02 0. -1.
</event>
<event>
 5   0  0.3636718E-06  0.3004436E+04  0.7818609E-02  0.8242465E-01
        1   -1    0    0  501    0  0.00000000000E+00  0.00000000000E+00  0.10810477977E+04  0.10810477977E+04  0.50400001928E-02 0.  1.
       -1   -1    0    0    0  501  0.00000000000E+00  0.00000000000E+00 -0.20874733800E+04  0.20874733800E+04  0.50400001928E-02 0. -1.
    10030    2    1    2    0    0  0.00000000000E+00  0.00000000000E+00 -0.10064255823E+04  0.31685211777E+04  0.30044357208E+04 0.  0.
        4    1    3    3  502    0  0.13841002361E+04  0.23061945706E+03  0.62495280407E+02  0.14045732699E+04  0.12699999809E+01 0.  1.
       -4    1    3    3    0  502 -0.13841002361E+04 -0.23061945706E+03 -0.10689208627E+04  0.17639479077E+04  0.12699999809E+01 0. -1.
</event>
<event>
 5   0  0.1028450E-05  0.2961264E+04  0.7818609E-02  0.8254880E-01
       -2   -1    0    0    0  501  0.00000000000E+00  0.00000000000E+00  0.13679425746E+04  0.13679425746E+04  0.25500000920E-02 0. -1.
        2   -1    0    0  501    0  0.00000000000E+00  0.00000000000E+00 -0.16026042414E+04  0.16026042414E+04  0.25500000920E-02 0.  1.
    10030    2    1    2    0    0  0.00000000000E+00  0.00000000000E+00 -0.23466166675E+03  0.29705468160E+04  0.29612636303E+04 0.  0.
        3    1    3    3  502    0 -0.60212482336E+03  0.11713915366E+04  0.56122012047E+03  0.14316705168E+04  0.10100000352E+00 0.  1.
       -3    1    3    3    0  502  0.60212482336E+03 -0.11713915366E+04 -0.79588178721E+03  0.15388762992E+04  0.10100000352E+00 0. -1.
</event>
<event>
 5   0  0.3896630E-06  0.2986401E+04  0.7818609E-02  0.8247625E-01
        1   -1    0    0  501    0  0.00000000000E+00  0.00000000000E+00  0.18420398639E+04  0.18420398639E+04  0.50400001928E-02 0. -1.
       -1   -1    0    0    0  501  0.00000000000E+00  0.00000000000E+00 -0.12104230610E+04  0.12104230610E+04  0.50400001928E-02 0.  1.
    10030    2    1    2    0    0  0.00000000000E+00  0.00000000000E+00  0.63161680295E+03  0.30524629249E+04  0.29864008642E+04 0.  0.
        5    1    3    3  502    0  0.11935090943E+04 -0.64373462006E+03 -0.32313348316E+03  0.13940213618E+04  0.46999998093E+01 0. -1.
       -5    1    3    3    0  502 -0.11935090943E+04  0.64373462006E+03  0.95475028611E+03  0.16584415631E+04  0.46999998093E+01 0.  1.
</event>
<event>
 5   0  0.3592331E-06  0.3153365E+04  0.7818609E-02  0.8201243E-01
       -1   -1    0    0    0  501  0.00000000000E+00  0.00000000000E+00  0.12530731495E+04  0.12530731495E+04  0.50400001928E-02 0. -1.
        1   -1    0    0  501    0  0.00000000000E+00  0.00000000000E+00 -0.19838641773E+04  0.19838641773E+04  0.50400001928E-02 0.  1.
    10030    2    1    2    0    0  0.00000000000E+00  0.00000000000E+00 -0.73079102781E+03  0.32369373269E+04  0.31533645098E+04 0.  0.
        3    1    3    3  502    0  0.35861871934E+03 -0.14150195756E+04  0.24624779656E+03  0.14803802798E+04  0.10100000352E+00 0. -1.
       -3    1    3    3    0  502 -0.35861871934E+03  0.14150195756E+04 -0.97703882437E+03  0.17565570471E+04  0.10100000352E+00 0.  1.
</event>
<event>
 5   0  0.9647945E-06  0.2667613E+04  0.7818609E-02  0.8345590E-01
        2   -1    0    0  501    0  0.00000000000E+00  0.00000000000E+00  0.22787739664E+04  0.22787739664E+04  0.25500000920E-02 0.  1.
       -2   -1    0    0    0  501  0.00000000000E+00  0.00000000000E+00 -0.78070053081E+03  0.78070053082E+03  0.25500000920E-02 0. -1.
    10030    2    1    2    0    0  0.00000000000E+00  0.00000000000E+00  0.14980734355E+04  0.30594744972E+04  0.26676131992E+04 0.  0.
        2    1    3    3  502    0 -0.52107646656E+02 -0.11786431724E+04  0.14626281893E+04  0.18791477203E+04  0.25500000920E-02 0.  1.
       -2    1    3    3    0  502  0.52107646656E+02  0.11786431724E+04  0.35445246251E+02  0.11803267769E+04  0.25500000920E-02 0. -1.
</event>
<event>
 5   0  0.1089569E-05  0.2874566E+04  0.7818609E-02  0.8280485E-01
       -2   -1    0    0    0  501  0.00000000000E+00  0.00000000000E+00  0.66686191922E+03  0.66686191922E+03  0.25500000920E-02 0. -1.
        2   -1    0    0  501    0  0.00000000000E+00  0.00000000000E+00 -0.30977669866E+04  0.30977669866E+04  0.25500000920E-02 0.  1.
    10030    2    1    2    0    0  0.00000000000E+00  0.00000000000E+00 -0.24309050674E+04  0.37646289058E+04  0.28745662894E+04 0.  0.
        5    1    3    3  502    0  0.11392252230E+04  0.78458432001E+03 -0.70426895421E+03  0.15522317848E+04  0.46999998093E+01 0. -1.
       -5    1    3    3    0  502 -0.11392252230E+04 -0.78458432001E+03 -0.17266361132E+04  0.22123971210E+04  0.46999998093E+01 0.  1.
</event>
<event>
 5   0  0.3636718E-06  0.2449085E+04  0.7818609E-02  0.8421352E-01
       -1   -1    0    0    0  501  0.00000000000E+00  0.00000000000E+00  0.75570378459E+03  0.75570378461E+03  0.50400001928E-02 0. -1.
        1   -1    0    0  501    0  0.00000000000E+00  0.00000000000E+00 -0.19842484761E+04  0.19842484762E+04  0.50400001928E-02 0.  1.
    10030    2    1    2    0    0  0.00000000000E+00  0.00000000000E+00 -0.12285446916E+04  0.27399522608E+04  0.24490847948E+04 0.  0.
        4    1    3    3  502    0  0.10158788488E+04  0.59243377834E+03 -0.23238979069E+03  0.11987469478E+04  0.12699999809E+01 0. -1.
       -4    1    3    3    0  502 -0.10158788488E+04 -0.59243377834E+03 -0.99615490087E+03  0.15412053129E+04  0.12699999809E+01 0.  1.
</event>
<event>
 5   0  0.1057036E-05  0.2985928E+04  0.7818609E-02  0.8247761E-01
       -2   -1    0    0    0  501  0.00000000000E+00  0.00000000000E+00  0.86968691627E+03  0.86968691627E+03  0.25500000920E-02 0. -1.
        2   -1    0    0  501    0  0.00000000000E+00  0.00000000000E+00 -0.25629248106E+04  0.25629248106E+04  0.25500000920E-02 0.  1.
    10030    2    1    2    0    0  0.00000000000E+00  0.00000000000E+00 -0.16932378943E+04  0.34326117269E+04  0.29859284487E+04 0.  0.
        4    1    3    3  502    0 -0.27745681567E+03 -0.89147402768E+03  0.49266413935E+03  0.10556646218E+04  0.12699999809E+01 0. -1.
       -4    1    3    3    0  502  0.27745681567E+03  0.89147402768E+03 -0.21859020337E+04  0.23769471051E+04  0.12699999809E+01 0.  1.
</event>
<event>
 5   0  0.3896630E-06  0.2989243E+04  0.7818609E-02  0.8246809E-01
        1   -1    0    0  501    0  0.00000000000E+00  0.00000000000E+00  0.15645370618E+04  0.15645370618E+04  0.50400001928E-02 0. -1.
       -1   -1    0    0    0  501  0.00000000000E+00  0.00000000000E+00 -0.14278299241E+04  0.14278299241E+04  0.50400001928E-02 0.  1.
    10030    2    1    2    0    0  0.00000000000E+00  0.00000000000E+00  0.13670713766E+03  0.29923669859E+04  0.29892426025E+04 0.  0.
        5    1    3    3  502    0 -0.10476530811E+04  0.44496074654E+03  0.10380267983E+04  0.15404832905E+04  0.46999998093E+01 0. -1.
       -5    1    3    3    0  502  0.10476530811E+04 -0.44496074654E+03 -0.90131966063E+03  0.14518836954E+04  0.46999998093E+01 0.  1.
</event>
<event>
 5   0  0.9647945E-06  0.2931459E+04  0.7818609E-02  0.8263578E-01
        2   -1    0    0  501    0  0.00000000000E+00  0.00000000000E+00  0.17022293499E+04  0.17022293499E+04  0.25500000920E-02 0.  1.
       -2   -1    0    0    0  501  0.00000000000E+00  0.00000000000E+00 -0.12620881010E+04  0.12620881010E+04  0.25500000920E-02 0. -1.
    10030    2    1    2    0    0  0.00000000000E+00  0.00000000000E+00  0.44014124889E+03  0.29643174509E+04  0.29314593006E+04 0.  0.
        2    1    3    3  502    0 -0.62450715593E+03 -0.77268175664E+03  0.13097939736E+04  0.16439606255E+04  0.25500000920E-02 0.  1.
       -2    1    3    3    0  502  0.62450715593E+03  0.77268175664E+03 -0.86965272472E+03  0.13203568254E+04  0.25500000920E-02 0. -1.
</event>
<event>
 5   0  0.1028450E-05  0.3009327E+04  0.7818609E-02  0.8241073E-01
        2   -1    0    0  501    0  0.00000000000E+00  0.00000000000E+00  0.19337756428E+04  0.19337756428E+04  0.25500000920E-02 0.  1.
       -2   -1    0    0    0  501  0.00000000000E+00  0.00000000000E+00 -0.11707726938E+04  0.11707726938E+04  0.25500000920E-02 0. -1.
    10030    2    1    2    0    0  0.00000000000E+00  0.00000000000E+00  0.76300294900E+03  0.31045483366E+04  0.30093266479E+04 0.  0.
        3    1    3    3  502    0 -0.71612747806E+03 -0.82544718607E+03  0.14485457476E+04  0.18145209877E+04  0.10100000352E+00 0.  1.
       -3    1    3    3    0  502  0.71612747806E+03  0.82544718607E+03 -0.68554279860E+03  0.12900273488E+04  0.10100000352E+00 0. -1.
</event>
<event>
 5   0  0.3636718E-06  0.3077605E+04  0.7818609E-02  0.8221911E-01
       -1   -1    0    0    0  501  0.00000000000E+00  0.00000000000E+00  0.13205057716E+04  0.13205057716E+04  0.50400001928E-02 0.  1.
        1   -1    0    0  501    0  0.00000000000E+00  0.00000000000E+00 -0.17931870334E+04  0.17931870334E+04  0.50400001928E-02 0. -1.
    10030    2    1    2    0    0  0.00000000000E+00  0.00000000000E+00 -0.47268126175E+03  0.31136928050E+04  0.30776054505E+04 0.  0.
        4    1    3    3  502    0  0.34215151344E+03  0.14848482041E+04 -0.45349754217E+03  0.15898124044E+04  0.12699999809E+01 0. -1.
       -4    1    3    3    0  502 -0.34215151344E+03 -0.14848482041E+04 -0.19183719580E+02  0.15238804006E+04  0.12699999809E+01 0.  1.
</event>
<event>
 5   0  0.3896630E-06  0.2914256E+04  0.7818609E-02  0.8268649E-01
        1   -1    0    0  501    0  0.00000000000E+00  0.00000000000E+00  0.25528008743E+04  0.25528008743E+04  0.50400001928E-02 0.  1.
       -1   -1    0    0    0  501  0.00000000000E+00  0.00000000000E+00 -0.83172252219E+03  0.83172252220E+03  0.50400001928E-02 0. -1.
    10030    2    1    2    0    0  0.00000000000E+00  0.00000000000E+00  0.17210783521E+04  0.33845233965E+04  0.29142559818E+04 0.  0.
        5    1    3    3  502    0 -0.13693821853E+04 -0.45610484366E+03  0.10926986093E+04  0.18103180766E+04  0.46999998093E+01 0. -1.
       -5    1    3    3    0  502  0.13693821853E+04  0.45610484366E+03  0.62837974278E+03  0.15742053198E+04  0.46999998093E+01 0.  1.
</event>
<event>
 5   0  0.1028450E-05  0.3054529E+04  0.7818609E-02  0.8228329E-01
       -2   -1    0    0    0  501  0.00000000000E+00  0.00000000000E+00  0.19806030169E+04  0.19806030169E+04  0.25500000920E-02 0.  1.
        2   -1    0    0  501    0  0.00000000000E+00  0.00000000000E+00 -0.11776900880E+04  0.11776900880E+04  0.25500000920E-02 0. -1.
    10030    2    1    2    0    0  0.00000000000E+00  0.00000000000E+00  0.80291292887E+03  0.31582931049E+04  0.30545287959E+04 0.  0.
        3    1    3    3  502    0  0.10375616685E+04 -0.10462583627E+04  0.81678041680E+03  0.16847317404E+04  0.10100000352E+00 0. -1.
       -3    1    3    3    0  502 -0.10375616685E+04  0.10462583627E+04 -0.13867487926E+02  0.14735613645E+04  0.10100000352E+00 0.  1.
</event>
<event>
 5   0  0.1028450E-05  0.3162973E+04  0.7818609E-02  0.8198665E-01
        2   -1    0    0  501    0  0.00000000000E+00  0.00000000000E+00  0.24253201818E+04  0.24253201818E+04  0.25500000920E-02 0.  1.
       -2   -1    0    0    0  501  0.00000000000E+00  0.00000000000E+00 -0.10312447847E+04  0.10312447847E+04  0.25500000920E-02 0. -1.
    10030    2    1    2    0    0  0.00000000000E+00  0.00000000000E+00  0.13940753971E+04  0.34565649665E+04  0.31629725188E+04 0.  0.
        3    1    3    3  502    0  0.99708820265E+03  0.35239038502E+03  0.19820839802E+04  0.22465575404E+04  0.10100000352E+00 0.  1.
       -3    1    3    3    0  502 -0.99708820265E+03 -0.35239038502E+03 -0.58800858310E+03  0.12100074261E+04  0.10100000352E+00 0. -1.
</event>
<event>
 5   0  0.9647945E-06  0.2232040E+04  0.7818609E-02  0.8505209E-01
        2   -1    0    0  501    0  0.00000000000E+00  0.00000000000E+00  0.15090715947E+04  0.15090715947E+04  0.25500000920E-02 0.  1.
       -2   -1    0    0    0  501  0.00000000000E+00  0.00000000000E+00 -0.82534256253E+03  0.82534256254E+03  0.25500000920E-02 0. -1.
    10030    2    1    2    0    0  0.00000000000E+00  0.00000000000E+00  0.68372903212E+03  0.23344141572E+04  0.22320403374E+04 0.  0.
        2    1    3    3  502    0  0.10115809342E+04 -0.11912168571E+02  0.83471376450E+03  0.13115582164E+04  0.25500000920E-02 0.  1.
       -2    1    3    3    0  502 -0.10115809342E+04  0.11912168571E+02 -0.15098473238E+03  0.10228559408E+04  0.25500000920E-02 0. -1.
</event>
<event>
 5   0  0.3852126E-06  0.2997541E+04  0.7818609E-02  0.8244434E-01
       -1   -1    0    0    0  501  0.00000000000E+00  0.00000000000E+00  0.17598380598E+04  0.17598380599E+04  0.50400001928E-02 0. -1.
        1   -1    0    0  501    0  0.00000000000E+00  0.00000000000E+00 -0.12764312675E+04  0.12764312675E+04  0.50400001928E-02 0.  1.
    10030    2    1    2    0    0  0.00000000000E+00  0.00000000000E+00  0.48340679237E+03  0.30362693273E+04  0.29975405420E+04 0.  0.
        1    1    3    3  502    0  0.16925888690E+03 -0.16881882320E+03  0.17404022372E+04  0.17567436675E+04  0.50400001928E-02 0. -1.
       -1    1    3    3    0  502 -0.16925888690E+03  0.16881882320E+03 -0.12569954448E+04  0.12795256599E+04  0.50400001928E-02 0.  1.
</event>
<event>
 5   0  0.1057036E-05  0.2975748E+04  0.7818609E-02  0.8250690E-01
       -2   -1    0    0    0  501  0.00000000000E+00  0.00000000000E+00  0.15703045752E+04  0.15703045752E+04  0.25500000920E-02 0. -1.
        2   -1    0    0  501    0  0.00000000000E+00  0.00000000000E+00 -0.14097706273E+04  0.14097706273E+04  0.25500000920E-02 0.  1.
    10030    2    1    2    0    0  0.00000000000E+00  0.00000000000E+00  0.16053394786E+03  0.29800752025E+04  0.29757481520E+04 0.  0.
        4    1    3    3  502    0  0.56590421654E+03 -0.75617222888E+03 -0.10710671548E+04  0.14280162761E+04  0.12699999809E+01 0.  1.
       -4    1    3    3    0  502 -0.56590421654E+03  0.75617222888E+03  0.12316011026E+04  0.15520589264E+04  0.12699999809E+01 0. -1.
</event>
<event>
 5   0  0.1028450E-05  0.2924934E+04  0.7818609E-02  0.8265497E-01
        2   -1    0    0  501    0  0.00000000000E+00  0.00000000000E+00  0.12242690044E+04  0.12242690044E+04  0.25500000920E-02 0.  1.
       -2   -1    0    0    0  501  0.00000000000E+00  0.00000000000E+00 -0.17470095833E+04  0.17470095834E+04  0.25500000920E-02 0. -1.
    10030    2    1    2    0    0  0.00000000000E+00  0.00000000000E+00 -0.52274057899E+03  0.29712785877E+04  0.29249339707E+04 0.  0.
        3    1    3    3  502    0  0.95115208248E+03  0.30716699273E+03  0.82314456211E+03  0.12948393050E+04  0.10100000352E+00 0.  1.
       -3    1    3    3    0  502 -0.95115208248E+03 -0.30716699273E+03 -0.13458851411E+04  0.16764392827E+04  0.10100000352E+00 0. -1.
</event>
<event>
 5   0  0.3725232E-06  0.2983143E+04  0.7818609E-02  0.8248561E-01
        1   -1    0    0  501    0  0.00000000000E+00  0.00000000000E+00  0.12330272240E+04  0.12330272240E+04  0.50400001928E-02 0. -1.
       -1   -1    0    0    0  501  0.00000000000E+00  0.00000000000E+00 -0.18043278028E+04  0.18043278028E+04  0.50400001928E-02 0.  1.
    10030    2    1    2    0    0  0.00000000000E+00  0.00000000000E+00 -0.57130057879E+03  0.30373550267E+04  0.29831428406E+04 0.  0.
        2    1    3    3  502    0 -0.13639319292E+04  0.13278784128E+03 -0.88528614002E+03  0.16314639033E+04  0.25500000920E-02 0.  1.
       -2    1    3    3    0  502  0.13639319292E+04 -0.13278784128E+03  0.31398556123E+03  0.14058911234E+04  0.25500000920E-02 0. -1.
</event>
<event>
 5   0  0.3852126E-06  0.3085201E+04  0.7818609E-02  0.8219811E-01
       -1   -1    0    0    0  501  0.00000000000E+00  0.00000000000E+00  0.19508942278E+04  0.19508942278E+04  0.50400001928E-02 0. -1.
        1   -1    0    0  501    0  0.00000000000E+00  0.00000000000E+00 -0.12197565423E+04  0.12197565423E+04  0.50400001928E-02 0.  1.
    10030    2    1    2    0    0  0.00000000000E+00  0.00000000000E+00  0.73113768550E+03  0.31706507700E+04  0.30852008023E+04 0.  0.
        1    1    3    3  502    0  0.85434920935E+03  0.12663316828E+04  0.14489506062E+03  0.15344390118E+04  0.50400001928E-02 0.  1.
       -1    1    3    3    0  502 -0.85434920935E+03 -0.12663316828E+04  0.58624262488E+03  0.16362117582E+04  0.50400001928E-02 0. -1.
</event>
<event>
 5   0  0.1029922E-05  0.2827684E+04  0.7818609E-02  0.8294725E-01
        2   -1    0    0  501    0  0.00000000000E+00  0.00000000000E+00  0.11429982196E+04  0.11429982196E+04  0.25500000920E-02 0.  1.
       -2   -1    0    0    0  501  0.00000000000E+00  0.00000000000E+00 -0.17488648192E+04  0.17488648192E+04  0.25500000920E-02 0. -1.
    10030    2    1    2    0    0  0.00000000000E+00  0.00000000000E+00 -0.60586659958E+03  0.28918630388E+04  0.28276841228E+04 0.  0.
        1    1    3    3  502    0  0.14123646695E+03 -0.32629787961E+03  0.10965295477E+04  0.11527337485E+04  0.50400001928E-02 0.  1.
       -1    1    3    3    0  502 -0.14123646695E+03  0.32629787961E+03 -0.17023961473E+04  0.17391292903E+04  0.50400001928E-02 0. -1.
</event>
<event>
 5   0  0.3896630E-06  0.2749725E+04  0.7818609E-02  0.8319049E-01
       -1   -1    0    0    0  501  0.00000000000E+00  0.00000000000E+00  0.15367537049E+04  0.15367537049E+04  0.50400001928E-02 0.  1.
        1   -1    0    0  501    0  0.00000000000E+00  0.00000000000E+00 -0.12300260576E+04  0.12300260576E+04  0.50400001928E-02 0. -1.
    10030    2    1    2    0    0  0.00000000000E+00  0.00000000000E+00  0.30672764727E+03  0.27667797625E+04  0.27497251508E+04 0.  0.
        5    1    3    3  502    0 -0.10088706337E+03  0.23946027369E+03 -0.12050858913E+04  0.12327909465E+04  0.46999998093E+01 0. -1.
       -5    1    3    3    0  502  0.10088706337E+03 -0.23946027369E+03  0.15118135386E+04  0.15339888161E+04  0.46999998093E+01 0.  1.
</event>
<event>
 5   0  0.3852126E-06  0.2898666E+04  0.7818609E-02  0.8273274E-01
       -1   -1    0    0    0  501  0.00000000000E+00  0.00000000000E+00  0.13259051288E+04  0.13259051288E+04  0.50400001928E-02 0.  1.
        1   -1    0    0  501    0  0.00000000000E+00  0.00000000000E+00 -0.15842512373E+04  0.15842512373E+04  0.50400001928E-02 0. -1.
    10030    2    1    2    0    0  0.00000000000E+00  0.00000000000E+00 -0.25834610847E+03  0.29101563661E+04  0.28986664802E+04 0.  0.
        1    1    3    3  502    0  0.24781287141E+03 -0.13273105832E+04 -0.65795066240E+03  0.15020198660E+04  0.50400001928E-02 0. -1.
       -1    1    3    3    0  502 -0.24781287141E+03  0.13273105832E+04  0.39960455394E+03  0.14081365002E+04  0.50400001928E-02 0.  1.
</event>
<event>
 5   0  0.1028450E-05  0.2975032E+04  0.7818609E-02  0.8250897E-01
       -2   -1    0    0    0  501  0.00000000000E+00  0.00000000000E+00  0.95570205154E+03  0.95570205155E+03  0.25500000920E-02 0. -1.
        2   -1    0    0  501    0  0.00000000000E+00  0.00000000000E+00 -0.23152653106E+04  0.23152653106E+04  0.25500000920E-02 0.  1.
    10030    2    1    2    0    0  0.00000000000E+00  0.00000000000E+00 -0.13595632590E+04  0.32709673621E+04  0.29750319711E+04 0.  0.
        3    1    3    3  502    0 -0.54587292887E+03  0.27997145465E+02  0.84128780575E+03  0.10032578317E+04  0.10100000352E+00 0. -1.
       -3    1    3    3    0  502  0.54587292887E+03 -0.27997145465E+02 -0.22008510648E+04  0.22677095304E+04  0.10100000352E+00 0.  1.
</event>
<event>
 5   0  0.3852126E-06  0.3070289E+04  0.7818609E-02  0.8223940E-01
        1   -1    0    0  501    0  0.00000000000E+00  0.00000000000E+00  0.17909954238E+04  0.17909954238E+04  0.50400001928E-02 0. -1.
       -1   -1    0    0    0  501  0.00000000000E+00  0.00000000000E+00 -0.13158426869E+04  0.13158426869E+04  0.50400001928E-02 0.  1.
    10030    2    1    2    0    0  0.00000000000E+00  0.00000000000E+00  0.47515273682E+03  0.31068381107E+04  0.30702887361E+04 0.  0.
        1    1    3    3  502    0  0.10767875513E+04  0.54844863698E+03 -0.72047885873E+03  0.14068962734E+04  0.50400001928E-02 0.  1.
       -1    1    3    3    0  502 -0.10767875513E+04 -0.54844863698E+03  0.11956315956E+04  0.16999418374E+04  0.50400001928E-02 0. -1.
</event>
<event>
 5   0  0.3852126E-06  0.1854682E+04  0.7818609E-02  0.8677749E-01
        1   -1    0    0  501    0  0.00000000000E+00  0.00000000000E+00  0.18615682953E+04  0.18615682953E+04  0.50400001928E-02 0. -1.
       -1   -1    0    0    0  501  0.00000000000E+00  0.00000000000E+00 -0.46195516685E+03  0.46195516688E+03  0.50400001928E-02 0.  1.
    10030    2    1    2    0    0  0.00000000000E+00  0.00000000000E+00  0.13996131284E+04  0.23235234622E+04  0.18546817436E+04 0.  0.
        1    1    3    3  502    0 -0.69070605800E+03  0.61872618452E+03  0.70984002086E+03  0.11678055511E+04  0.50400001928E-02 0. -1.
       -1    1    3    3    0  502  0.69070605800E+03 -0.61872618452E+03  0.68977310757E+03  0.11557179111E+04  0.50400001928E-02 0.  1.
</event>
<event>
 5   0  0.3725232E-06  0.2326205E+04  0.7818609E-02  0.8467660E-01
       -1   -1    0    0    0  501  0.00000000000E+00  0.00000000000E+00  0.70016671811E+03  0.70016671813E+03  0.50400001928E-02 0. -1.
        1   -1    0    0  501    0  0.00000000000E+00  0.00000000000E+00 -0.19321223023E+04  0.19321223023E+04  0.50400001928E-02 0.  1.
    10030    2    1    2    0    0  0.00000000000E+00  0.00000000000E+00 -0.12319555842E+04  0.26322890204E+04  0.23262052630E+04 0.  0.
        2    1    3    3  502    0  0.30510512677E+03  0.11012722679E+04 -0.37087107416E+03  0.12014304391E+04  0.25500000920E-02 0.  1.
       -2    1    3    3    0  502 -0.30510512677E+03 -0.11012722679E+04 -0.86108451001E+03  0.14308585813E+04  0.25500000920E-02 0. -1.
</event>
<event>
 5   0  0.1029922E-05  0.3064446E+04  0.7818609E-02  0.8225564E-01
        2   -1    0    0  501    0  0.00000000000E+00  0.00000000000E+00  0.24097093936E+04  0.24097093936E+04  0.25500000920E-02 0. -1.
       -2   -1    0    0    0  501  0.00000000000E+00  0.00000000000E+00 -0.97426996235E+03  0.97426996235E+03  0.25500000920E-02 0.  1.
    10030    2    1    2    0    0  0.00000000000E+00  0.00000000000E+00  0.14354394313E+04  0.33839793560E+04  0.30644461034E+04 0.  0.
        1    1    3    3  502    0 -0.58099182966E+03  0.38395013978E+03  0.22248529107E+04  0.23312957106E+04  0.50400001928E-02 0. -1.
       -1    1    3    3    0  502  0.58099182966E+03 -0.38395013978E+03 -0.78941347936E+03  0.10526836454E+04  0.50400001928E-02 0.  1.
</event>
<event>
 5   0  0.1028450E-05  0.3030508E+04  0.7818609E-02  0.8235072E-01
       -2   -1    0    0    0  501  0.00000000000E+00  0.00000000000E+00  0.98295812996E+03  0.98295812997E+03  0.25500000920E-02 0.  1.
        2   -1    0    0  501    0  0.00000000000E+00  0.00000000000E+00 -0.23358011275E+04  0.23358011275E+04  0.25500000920E-02 0. -1.
    10030    2    1    2    0    0  0.00000000000E+00  0.00000000000E+00 -0.13528429975E+04  0.33187592574E+04  0.30305080156E+04 0.  0.
        3    1    3    3  502    0 -0.64309725184E+03  0.11774430312E+04  0.94876841395E+02  0.13449712979E+04  0.10100000352E+00 0.  1.
       -3    1    3    3    0  502  0.64309725184E+03 -0.11774430312E+04 -0.14477198389E+04  0.19737879595E+04  0.10100000352E+00 0. -1.
</event>
<event>
 5   0  0.9647945E-06  0.3015681E+04  0.7818609E-02  0.8239267E-01
       -2   -1    0    0    0  501  0.00000000000E+00  0.00000000000E+00  0.15613829619E+04  0.15613829619E+04  0.25500000920E-02 0. -1.
        2   -1    0    0  501    0  0.00000000000E+00  0.00000000000E+00 -0.14561341548E+04  0.14561341548E+04  0.25500000920E-02 0.  1.
    10030    2    1    2    0    0  0.00000000000E+00  0.00000000000E+00  0.10524880714E+03  0.30175171167E+04  0.30156810571E+04 0.  0.
        2    1    3    3  502    0  0.80840403992E+03 -0.52788214251E+03 -0.11062717546E+04  0.14683371014E+04  0.25500000920E-02 0.  1.
       -2    1    3    3    0  502 -0.80840403992E+03  0.52788214251E+03  0.12115205618E+04  0.15491800153E+04  0.25500000920E-02 0. -1.
</event>
<event>
 5   0  0.1029922E-05  0.2849481E+04  0.7818609E-02  0.8288069E-01
       -2   -1    0    0    0  501  0.00000000000E+00  0.00000000000E+00  0.11064792325E+04  0.11064792325E+04  0.25500000920E-02 0. -1.
        2   -1    0    0  501    0  0.00000000000E+00  0.00000000000E+00 -0.18345440171E+04  0.18345440171E+04  0.25500000920E-02 0.  1.
    10030    2    1    2    0    0  0.00000000000E+00  0.00000000000E+00 -0.72806478468E+03  0.29410232496E+04  0.28494805534E+04 0.  0.
        1    1    3    3  502    0  0.59932319133E+03 -0.12478337767E+04 -0.71191773867E+03  0.15566323550E+04  0.50400001928E-02 0.  1.
       -1    1    3    3    0  502 -0.59932319133E+03  0.12478337767E+04 -0.16147046013E+02  0.13843908946E+04  0.50400001928E-02 0. -1.
</event>
<event>
 5   0  0.1028450E-05  0.3034120E+04  0.7818609E-02  0.8234054E-01
        2   -1    0    0  501    0  0.00000000000E+00  0.00000000000E+00  0.17115583209E+04  0.17115583209E+04  0.25500000920E-02 0.  1.
       -2   -1    0    0    0  501  0.00000000000E+00  0.00000000000E+00 -0.13446639617E+04  0.13446639617E+04  0.25500000920E-02 0. -1.
    10030    2    1    2    0    0  0.00000000000E+00  0.00000000000E+00  0.36689435922E+03  0.30562222826E+04  0.30341198345E+04 0.  0.
        3    1    3    3  502    0 -0.32884083957E+03  0.11761405178E+04  0.10900189992E+04  0.16369435678E+04  0.10100000352E+00 0. -1.
       -3    1    3    3    0  502  0.32884083957E+03 -0.11761405178E+04 -0.72312463999E+03  0.14192787149E+04  0.10100000352E+00 0.  1.
</event>
<event>
 5   0  0.3592331E-06  0.3035992E+04  0.7818609E-02  0.8233527E-01
       -1   -1    0    0    0  501  0.00000000000E+00  0.00000000000E+00  0.93696756502E+03  0.93696756504E+03  0.50400001928E-02 0. -1.
        1   -1    0    0  501    0  0.00000000000E+00  0.00000000000E+00 -0.24593290712E+04  0.24593290712E+04  0.50400001928E-02 0.  1.
    10030    2    1    2    0    0  0.00000000000E+00  0.00000000000E+00 -0.15223615062E+04  0.33962966362E+04  0.30359918125E+04 0.  0.
        3    1    3    3  502    0  0.66689487125E+03  0.89880558476E+03 -0.19084181401E+04  0.22123878630E+04  0.10100000352E+00 0.  1.
       -3    1    3    3    0  502 -0.66689487125E+03 -0.89880558476E+03  0.38605663399E+03  0.11839087732E+04  0.10100000352E+00 0. -1.
</event>
<event>
 5   0  0.1057036E-05  0.3086404E+04  0.7818609E-02  0.8219479E-01
       -2   -1    0    0    0  501  0.00000000000E+00  0.00000000000E+00  0.12450602220E+04  0.12450602220E+04  0.25500000920E-02 0.  1.
        2   -1    0    0  501    0  0.00000000000E+00  0.00000000000E+00 -0.19127372130E+04  0.19127372130E+04  0.25500000920E-02 0. -1.
    10030    2    1    2    0    0  0.00000000000E+00  0.00000000000E+00 -0.66767699098E+03  0.31577974350E+04  0.30864043928E+04 0.  0.
        4    1    3    3  502    0 -0.96535453065E+02 -0.44581218406E+03 -0.18421868405E+04  0.18978202142E+04  0.12699999809E+01 0. -1.
       -4    1    3    3    0  502  0.96535453065E+02  0.44581218406E+03  0.11745098496E+04  0.12599772207E+04  0.12699999809E+01 0.  1.
</event>
<event>
 5   0  0.9647945E-06  0.2668021E+04  0.7818609E-02  0.8345456E-01
        2   -1    0    0  501    0  0.00000000000E+00  0.00000000000E+00  0.22478311504E+04  0.22478311504E+04  0.25500000920E-02 0. -1.
       -2   -1    0    0    0  501  0.00000000000E+00  0.00000000000E+00 -0.79168912037E+03  0.79168912038E+03  0.25500000920E-02 0.  1.
    10030    2    1    2    0    0  0.00000000000E+00  0.00000000000E+00  0.14561420300E+04  0.30395202707E+04  0.26680205893E+04 0.  0.
        2    1    3    3  502    0  0.12112650254E+04  0.49486634289E+03  0.10241156469E+04  0.16615861450E+04  0.25500000920E-02 0. -1.
       -2    1    3    3    0  502 -0.12112650254E+04 -0.49486634289E+03  0.43202638313E+03  0.13779341257E+04  0.25500000920E-02 0.  1.
</event>
<event>
 5   0  0.3725232E-06  0.2944708E+04  0.7818609E-02  0.8259698E-01
        1   -1    0    0  501    0  0.00000000000E+00  0.00000000000E+00  0.19753863249E+04  0.19753863249E+04  0.50400001928E-02 0.  1.
       -1   -1    0    0    0  501  0.00000000000E+00  0.00000000000E+00 -0.10974191086E+04  0.10974191086E+04  0.50400001928E-02 0. -1.
    10030    2    1    2    0    0  0.00000000000E+00  0.00000000000E+00  0.87796721625E+03  0.30728054335E+04  0.29447082707E+04 0.  0.
        2    1    3    3  502    0  0.68231978048E+03 -0.12916897409E+04  0.63084033359E+03  0.15912203480E+04  0.25500000920E-02 0.  1.
       -2    1    3    3    0  502 -0.68231978048E+03  0.12916897409E+04  0.24712688266E+03  0.14815850855E+04  0.25500000920E-02 0. -1.
</event>
<event>
 5   0  0.3725232E-06  0.3004622E+04  0.7818609E-02  0.8242412E-01
       -1   -1    0    0    0  501  0.00000000000E+00  0.00000000000E+00  0.12217096812E+04  0.12217096812E+04  0.50400001928E-02 0.  1.
        1   -1    0    0  501    0  0.00000000000E+00  0.00000000000E+00 -0.18473609137E+04  0.18473609137E+04  0.50400001928E-02 0. -1.
    10030    2    1    2    0    0  0.00000000000E+00  0.00000000000E+00 -0.62565123251E+03  0.30690705949E+04  0.30046222478E+04 0.  0.
        2    1    3    3  502    0 -0.19556258222E+03 -0.10328294796E+04 -0.14091401758E+04  0.17580265904E+04  0.25500000920E-02 0. -1.
       -2    1    3    3    0  502  0.19556258222E+03  0.10328294796E+04  0.78348894328E+03  0.13110440045E+04  0.25500000920E-02 0.  1.
</event>
<event>
 5   0  0.1029922E-05  0.2776822E+04  0.7818609E-02  0.8310501E-01
        2   -1    0    0  501    0  0.00000000000E+00  0.00000000000E+00  0.13296504676E+04  0.13296504676E+04  0.25500000920E-02 0. -1.
       -2   -1    0    0    0  501  0.00000000000E+00  0.00000000000E+00 -0.14497683206E+04  0.14497683206E+04  0.25500000920E-02 0.  1.
    10030    2    1    2    0    0  0.00000000000E+00  0.00000000000E+00 -0.12011785308E+03  0.27794187882E+04  0.27768220148E+04 0.  0.
        1    1    3    3  502    0  0.20676685985E+03 -0.55893396078E+03 -0.13152353763E+04  0.14439542244E+04  0.50400001928E-02 0.  1.
       -1    1    3    3    0  502 -0.20676685985E+03  0.55893396078E+03  0.11951175233E+04  0.13354645638E+04  0.50400001928E-02 0. -1.
</event>
<event>
 5   0  0.3852126E-06  0.2956697E+04  0.7818609E-02  0.8256205E-01
        1   -1    0    0  501    0  0.00000000000E+00  0.00000000000E+00  0.13707615827E+04  0.13707615827E+04  0.50400001928E-02 0. -1.
       -1   -1    0    0    0  501  0.00000000000E+00  0.00000000000E+00 -0.15943797221E+04  0.15943797221E+04  0.50400001928E-02 0.  1.
    10030    2    1    2    0    0  0.00000000000E+00  0.00000000000E+00 -0.22361813938E+03  0.29651413047E+04  0.29566971243E+04 0.  0.
        1    1    3    3  502    0  0.59421106438E+03 -0.28284578947E+03 -0.14393820125E+04  0.15826904648E+04  0.50400001928E-02 0.  1.
       -1    1    3    3    0  502 -0.59421106438E+03  0.28284578947E+03  0.12157638731E+04  0.13824508399E+04  0.50400001928E-02 0. -1.
</event>
<event>
 5   0  0.3896630E-06  0.3014959E+04  0.7818609E-02  0.8239472E-01
       -1   -1    0    0    0  501  0.00000000000E+00  0.00000000000E+00  0.15188181814E+04  0.15188181814E+04  0.50400001928E-02 0.  1.
        1   -1    0    0  501    0  0.00000000000E+00  0.00000000000E+00 -0.14962257131E+04  0.14962257131E+04  0.50400001928E-02 0. -1.
    10030    2    1    2    0    0  0.00000000000E+00  0.00000000000E+00  0.22592468362E+02  0.30150438945E+04  0.30149592479E+04 0.  0.
        5    1    3    3  502    0 -0.96111409342E+01  0.19452034290E+03  0.15061767185E+04  0.15187234558E+04  0.46999998093E+01 0.  1.
       -5    1    3    3    0  502  0.96111409342E+01 -0.19452034290E+03 -0.14835842502E+04  0.14963204387E+04  0.46999998093E+01 0. -1.
</event>
<event>
 5   0  0.3852126E-06  0.3069637E+04  0.7818609E-02  0.8224121E-01
        1   -1    0    0  501    0  0.00000000000E+00  0.00000000000E+00  0.26033688913E+04  0.26033688913E+04  0.50400001928E-02 0.  1.
       -1   -1    0    0    0  501  0.00000000000E+00  0.00000000000E+00 -0.90485338604E+03  0.90485338606E+03  0.50400001928E-02 0. -1.
    10030    2    1    2    0    0  0.00000000000E+00  0.00000000000E+00  0.16985155052E+04  0.35082222773E+04  0.30696365625E+04 0.  0.
        1    1    3    3  502    0 -0.88807908831E+03 -0.53897114291E+03 -0.44198925197E+03  0.11289503350E+04  0.50400001928E-02 0. -1.
       -1    1    3    3    0  502  0.88807908831E+03  0.53897114291E+03  0.21405047572E+04  0.23792719423E+04  0.50400001928E-02 0.  1.
</event>
<event>
 5   0  0.3592331E-06  0.2992021E+04  0.7818609E-02  0.8246013E-01
        1   -1    0    0  501    0  0.00000000000E+00  0.00000000000E+00  0.13509526410E+04  0.13509526410E+04  0.50400001928E-02 0.  1.
       -1   -1    0    0    0  501  0.00000000000E+00  0.00000000000E+00 -0.16566442442E+04  0.16566442442E+04  0.50400001928E-02 0. -1.
    10030    2    1    2    0    0  0.00000000000E+00  0.00000000000E+00 -0.30569160321E+03  0.30075968852E+04  0.29920213348E+04 0.  0.
        3    1    3    3  502    0  0.99693612049E+03  0.48262239420E+03  0.85799431469E+03  0.14010568361E+04  0.10100000352E+00 0.  1.
       -3    1    3    3    0  502 -0.99693612049E+03 -0.48262239420E+03 -0.11636859179E+04  0.16065400491E+04  0.10100000352E+00 0. -1.
</event>
<event>
 5   0  0.1028450E-05  0.3020607E+04  0.7818609E-02  0.8237871E-01
       -2   -1    0    0    0  501  0.00000000000E+00  0.00000000000E+00  0.11504397406E+04  0.11504397406E+04  0.25500000920E-02 0. -1.
        2   -1    0    0  501    0  0.00000000000E+00  0.00000000000E+00 -0.19827342680E+04  0.19827342680E+04  0.25500000920E-02 0.  1.
    10030    2    1    2    0    0  0.00000000000E+00  0.00000000000E+00 -0.83229452741E+03  0.31331740087E+04  0.30206067583E+04 0.  0.
        3    1    3    3  502    0  0.14744735648E+03  0.73213612222E+03 -0.17777949552E+04  0.19282943078E+04  0.10100000352E+00 0.  1.
       -3    1    3    3    0  502 -0.14744735648E+03 -0.73213612222E+03  0.94550042782E+03  0.12048797009E+04  0.10100000352E+00 0. -1.
</event>
<event>
 5   0  0.1029922E-05  0.2956123E+04  0.7818609E-02  0.8256372E-01
        2   -1    0    0  501    0  0.00000000000E+00  0.00000000000E+00  0.15274146592E+04  0.15274146592E+04  0.25500000920E-02 0.  1.
       -2   -1    0    0    0  501  0.00000000000E+00  0.00000000000E+00 -0.14303028016E+04  0.14303028016E+04  0.25500000920E-02 0. -1.
    10030    2    1    2    0    0  0.00000000000E+00  0.00000000000E+00  0.97111857554E+02  0.29577174608E+04  0.29561227757E+04 0.  0.
        1    1    3    3  502    0  0.42099870861E+03  0.20424093844E+02 -0.13688975490E+04  0.14323189435E+04  0.50400001928E-02 0. -1.
       -1    1    3    3    0  502 -0.42099870861E+03 -0.20424093844E+02  0.14660094066E+04  0.15253985173E+04  0.50400001928E-02 0.  1.
</event>
<event>
 5   0  0.1057036E-05  0.2331944E+04  0.7818609E-02  0.8465432E-01
       -2   -1    0    0    0  501  0.00000000000E+00  0.00000000000E+00  0.14078930178E+04  0.14078930178E+04  0.25500000920E-02 0. -1.
        2   -1    0    0  501    0  0.00000000000E+00  0.00000000000E+00 -0.96562039919E+03  0.96562039919E+03  0.25500000920E-02 0.  1.
    10030    2    1    2    0    0  0.00000000000E+00  0.00000000000E+00  0.44227261858E+03  0.23735134170E+04  0.23319435824E+04 0.  0.
        4    1    3    3  502    0 -0.24653838394E+03  0.11332958947E+04  0.99218544126E+02  0.11640389565E+04  0.12699999809E+01 0. -1.
       -4    1    3    3    0  502  0.24653838394E+03 -0.11332958947E+04  0.34305407445E+03  0.12094744605E+04  0.12699999809E+01 0.  1.
</event>
<event>
 5   0  0.3725232E-06  0.3043253E+04  0.7818609E-02  0.8231487E-01
        1   -1    0    0  501    0  0.00000000000E+00  0.00000000000E+00  0.14171461903E+04  0.14171461903E+04  0.50400001928E-02 0. -1.
       -1   -1    0    0    0  501  0.00000000000E+00  0.00000000000E+00 -0.16338094140E+04  0.16338094140E+04  0.50400001928E-02 0.  1.
    10030    2    1    2    0    0  0.00000000000E+00  0.00000000000E+00 -0.21666322368E+03  0.30509556043E+04  0.30432527248E+04 0.  0.
        2    1    3    3  502    0 -0.90829662061E+02  0.14432452153E+04  0.36630098327E+03  0.14917718289E+04  0.25500000920E-02 0. -1.
       -2    1    3    3    0  502  0.90829662061E+02 -0.14432452153E+04 -0.58296420694E+03  0.15591837755E+04  0.25500000920E-02 0.  1.
</event>
<event>
 5   0  0.1089569E-05  0.2209786E+04  0.7818609E-02  0.8514366E-01
       -2   -1    0    0    0  501  0.00000000000E+00  0.00000000000E+00  0.85626668290E+03  0.85626668290E+03  0.25500000920E-02 0. -1.
        2   -1    0    0  501    0  0.00000000000E+00  0.00000000000E+00 -0.14257110052E+04  0.14257110052E+04  0.25500000920E-02 0.  1.
    10030    2    1    2    0    0  0.00000000000E+00  0.00000000000E+00 -0.56944432232E+03  0.22819776881E+04  0.22097862641E+04 0.  0.
        5    1    3    3  502    0  0.10651351947E+04 -0.18438142108E+03 -0.48655636156E+02  0.10820808438E+04  0.46999998093E+01 0.  1.
       -5    1    3    3    0  502 -0.10651351947E+04  0.18438142108E+03 -0.52078868617E+03  0.11998968444E+04  0.46999998093E+01 0. -1.
</event>
<event>
 5   0  0.1089569E-05  0.2921144E+04  0.7818609E-02  0.8266614E-01
        2   -1    0    0  501    0  0.00000000000E+00  0.00000000000E+00  0.30508759978E+04  0.30508759978E+04  0.25500000920E-02 0. -1.
       -2   -1    0    0    0  501  0.00000000000E+00  0.00000000000E+00 -0.69923190761E+03  0.69923190762E+03  0.25500000920E-02 0.  1.
    10030    2    1    2    0    0  0.00000000000E+00  0.00000000000E+00  0.23516440902E+04  0.37501079054E+04  0.29211435048E+04 0.  0.
        5    1    3    3  502    0 -0.33649017137E+03 -0.13220822263E+04  0.18455087322E+04  0.22950057993E+04  0.46999998093E+01 0. -1.
       -5    1    3    3    0  502  0.33649017137E+03  0.13220822263E+04  0.50613535800E+03  0.14551021061E+04  0.46999998093E+01 0.  1.
</event>
<event>
 5   0  0.1028450E-05  0.2738418E+04  0.7818609E-02  0.8322646E-01
       -2   -1    0    0    0  501  0.00000000000E+00  0.00000000000E+00  0.13826608615E+04  0.13826608615E+04  0.25500000920E-02 0. -1.
        2   -1    0    0  501    0  0.00000000000E+00  0.00000000000E+00 -0.13558878235E+04  0.13558878235E+04  0.25500000920E-02 0.  1.
    10030    2    1    2    0    0  0.00000000000E+00  0.00000000000E+00  0.26773038050E+02  0.27385486850E+04  0.27384178104E+04 0.  0.
        3    1    3    3  502    0 -0.75897249840E+03  0.83499255356E+03  0.78897577340E+03  0.13768567823E+04  0.10100000352E+00 0. -1.
       -3    1    3    3    0  502  0.75897249840E+03 -0.83499255356E+03 -0.76220273535E+03  0.13616919027E+04  0.10100000352E+00 0.  1.
</event>
<event>
 5   0  0.1089569E-05  0.2864501E+04  0.7818609E-02  0.8283519E-01
        2   -1    0    0  501    0  0.00000000000E+00  0.00000000000E+00  0.11985845126E+04  0.11985845126E+04  0.25500000920E-02 0.  1.
       -2   -1    0    0    0  501  0.00000000000E+00  0.00000000000E+00 -0.17114697092E+04  0.17114697092E+04  0.25500000920E-02 0. -1.
    10030    2    1    2    0    0  0.00000000000E+00  0.00000000000E+00 -0.51288519658E+03  0.29100542218E+04  0.28645007155E+04 0.  0.
        5    1    3    3  502    0 -0.22760908455E+02 -0.23296731213E+03 -0.16918981800E+04  0.17080203069E+04  0.46999998093E+01 0. -1.
       -5    1    3    3    0  502  0.22760908455E+02  0.23296731213E+03  0.11790129834E+04  0.12020339149E+04  0.46999998093E+01 0.  1.
</event>
<event>
 5   0  0.9647945E-06  0.3274766E+04  0.7818609E-02  0.8169346E-01
        2   -1    0    0  501    0  0.00000000000E+00  0.00000000000E+00  0.11468817831E+04  0.11468817831E+04  0.25500000920E-02 0. -1.
       -2   -1    0    0    0  501  0.00000000000E+00  0.00000000000E+00 -0.23376625923E+04  0.23376625923E+04  0.25500000920E-02 0.  1.
    10030    2    1    2    0    0  0.00000000000E+00  0.00000000000E+00 -0.11907808092E+04  0.34845443754E+04  0.32747657273E+04 0.  0.
        2    1    3    3  502    0 -0.64870197666E+03  0.10885817634E+04 -0.16987320571E+04  0.21193194927E+04  0.25500000920E-02 0.  1.
       -2    1    3    3    0  502  0.64870197666E+03 -0.10885817634E+04  0.50795124790E+03  0.13652248827E+04  0.25500000920E-02 0. -1.
</event>
<event>
 5   0  0.1089569E-05  0.2913871E+04  0.7818609E-02  0.8268763E-01
        2   -1    0    0  501    0  0.00000000000E+00  0.00000000000E+00  0.15671120765E+04  0.15671120765E+04  0.25500000920E-02 0.  1.
       -2   -1    0    0    0  501  0.00000000000E+00  0.00000000000E+00 -0.13545044774E+04  0.13545044774E+04  0.25500000920E-02 0. -1.
    10030    2    1    2    0    0  0.00000000000E+00  0.00000000000E+00  0.21260759915E+03  0.29216165539E+04  0.29138705010E+04 0.  0.
        5    1    3    3  502    0 -0.66185063171E+03 -0.24156435094E+03 -0.11723268415E+04  0.13677616414E+04  0.46999998093E+01 0. -1.
       -5    1    3    3    0  502  0.66185063171E+03  0.24156435094E+03  0.13849344406E+04  0.15538549125E+04  0.46999998093E+01 0.  1.
</event>
<event>
 5   0  0.9647945E-06  0.2969901E+04  0.7818609E-02  0.8252378E-01
       -2   -1    0    0    0  501  0.00000000000E+00  0.00000000000E+00  0.10421843232E+04  0.10421843232E+04  0.25500000920E-02 0. -1.
        2   -1    0    0  501    0  0.00000000000E+00  0.00000000000E+00 -0.21158231112E+04  0.21158231112E+04  0.25500000920E-02 0.  1.
    10030    2    1    2    0    0  0.00000000000E+00  0.00000000000E+00 -0.10736387880E+04  0.31580074345E+04  0.29699007911E+04 0.  0.
        2    1    3    3  502    0  0.30972161330E+03  0.12860633096E+04 -0.12542306933E+04  0.18229045357E+04  0.25500000920E-02 0. -1.
       -2    1    3    3    0  502 -0.30972161330E+03 -0.12860633096E+04  0.18059190535E+03  0.13351028988E+04  0.25500000920E-02 0.  1.
</event>
<event>
 5   0  0.1057036E-05  0.2999665E+04  0.7818609E-02  0.8243827E-01
        2   -1    0    0  501    0  0.00000000000E+00  0.00000000000E+00  0.13149512789E+04  0.13149512789E+04  0.25500000920E-02 0. -1.
       -2   -1    0    0    0  501  0.00000000000E+00  0.00000000000E+00 -0.17107073461E+04  0.17107073462E+04  0.25500000920E-02 0.  1.
    10030    2    1    2    0    0  0.00000000000E+00  0.00000000000E+00 -0.39575606728E+03  0.30256586250E+04  0.29996645230E+04 0.  0.
        4    1    3    3  502    0  0.43780050307E+03 -0.74442385107E+03  0.10389858999E+04  0.13510475431E+04  0.12699999809E+01 0. -1.
       -4    1    3    3    0  502 -0.43780050307E+03  0.74442385107E+03 -0.14347419672E+04  0.16746110820E+04  0.12699999809E+01 0.  1.
</event>
<event>
 5   0  0.1029922E-05  0.2407780E+04  0.7818609E-02  0.8436596E-01
        2   -1    0    0  501    0  0.00000000000E+00  0.00000000000E+00  0.12191944907E+04  0.12191944907E+04  0.25500000920E-02 0.  1.
       -2   -1    0    0    0  501  0.00000000000E+00  0.00000000000E+00 -0.11887779414E+04  0.11887779414E+04  0.25500000920E-02 0. -1.
    10030    2    1    2    0    0  0.00000000000E+00  0.00000000000E+00  0.30416549363E+02  0.24079724321E+04  0.24077803196E+04 0.  0.
        1    1    3    3  502    0  0.11721627788E+04 -0.11196366775E+03 -0.23551089854E+03  0.12008192313E+04  0.50400001928E-02 0.  1.
       -1    1    3    3    0  502 -0.11721627788E+04  0.11196366775E+03  0.26592744791E+03  0.12071532009E+04  0.50400001928E-02 0. -1.
</event>
<event>
 5   0  0.3852126E-06  0.2959650E+04  0.7818609E-02  0.8255348E-01
       -1   -1    0    0    0  501  0.00000000000E+00  0.00000000000E+00  0.15458892159E+04  0.15458892159E+04  0.50400001928E-02 0.  1.
        1   -1    0    0  501    0  0.00000000000E+00  0.00000000000E+00 -0.14165841526E+04  0.14165841526E+04  0.50400001928E-02 0. -1.
    10030    2    1    2    0    0  0.00000000000E+00  0.00000000000E+00  0.12930506332E+03  0.29624733684E+04  0.29596500907E+04 0.  0.
        1    1    3    3  502    0 -0.12926385969E+04  0.76756470832E+01 -0.65638781191E+03  0.14497649524E+04  0.50400001928E-02 0. -1.
       -1    1    3    3    0  502  0.12926385969E+04 -0.76756470832E+01  0.78569287523E+03  0.15127084160E+04  0.50400001928E-02 0.  1.
</event>
<event>
 5   0  0.3896630E-06  0.3031911E+04  0.7818609E-02  0.8234677E-01
        1   -1    0    0  501    0  0.00000000000E+00  0.00000000000E+00  0.94964241272E+03  0.94964241273E+03  0.50400001928E-02 0.  1.
       -1   -1    0    0    0  501  0.00000000000E+00  0.00000000000E+00 -0.24199856310E+04  0.24199856310E+04  0.50400001928E-02 0. -1.
    10030    2    1    2    0    0  0.00000000000E+00  0.00000000000E+00 -0.14703432183E+04  0.33696280437E+04  0.30319109442E+04 0.  0.
        5    1    3    3  502    0  0.16997534616E+03  0.52808640432E+03  0.83276423962E+03  0.10006424124E+04  0.46999998093E+01 0.  1.
       -5    1    3    3    0  502 -0.16997534616E+03 -0.52808640432E+03 -0.23031074579E+04  0.23689856313E+04  0.46999998093E+01 0. -1.
</event>
<event>
 5   0  0.3725232E-06  0.2927740E+04  0.7818609E-02  0.8264672E-01
       -1   -1    0    0    0  501  0.00000000000E+00  0.00000000000E+00  0.17236876146E+04  0.17236876147E+04  0.50400001928E-02 0. -1.
        1   -1    0    0  501    0  0.00000000000E+00  0.00000000000E+00 -0.12432156981E+04  0.12432156982E+04  0.50400001928E-02 0.  1.
    10030    2    1    2    0    0  0.00000000000E+00  0.00000000000E+00  0.48047191650E+03  0.29669033128E+04  0.29277400849E+04 0.  0.
        2    1    3    3  502    0  0.32088561296E+03  0.83926269051E+03  0.14113705625E+04  0.16731097708E+04  0.25500000920E-02 0. -1.
       -2    1    3    3    0  502 -0.32088561296E+03 -0.83926269051E+03 -0.93089864600E+03  0.12937935420E+04  0.25500000920E-02 0.  1.
</event>
<event>
 5   0  0.3313750E-06  0.3054662E+04  0.7818609E-02  0.8228292E-01
        3   -1    0    0  501    0  0.00000000000E+00  0.00000000000E+00  0.10838957812E+04  0.10838957859E+04  0.10100000352E+00 0. -1.
       -3   -1    0    0    0  501  0.00000000000E+00  0.00000000000E+00 -0.21521813816E+04  0.21521813839E+04  0.10100000352E+00 0.  1.
    10030    2    1    2    0    0  0.00000000000E+00  0.00000000000E+00 -0.10682856004E+04  0.32360771698E+04  0.30546622277E+04 0.  0.
        2    1    3    3  502    0  0.12124762828E+04  0.18720299851E+03 -0.14978942231E+04  0.19361897641E+04  0.25500000920E-02 0.  1.
       -2    1    3    3    0  502 -0.12124762828E+04 -0.18720299851E+03  0.42960862265E+03  0.12998874058E+04  0.25500000920E-02 0. -1.
</event>
<event>
 5   0  0.1029922E-05  0.2988020E+04  0.7818609E-02  0.8247160E-01
        2   -1    0    0  501    0  0.00000000000E+00  0.00000000000E+00  0.25189628889E+04  0.25189628889E+04  0.25500000920E-02 0. -1.
       -2   -1    0    0    0  501  0.00000000000E+00  0.00000000000E+00 -0.88610488447E+03  0.88610488448E+03  0.25500000920E-02 0.  1.
    10030    2    1    2    0    0  0.00000000000E+00  0.00000000000E+00  0.16328580044E+04  0.34050677733E+04  0.29880196249E+04 0.  0.
        1    1    3    3  502    0  0.53694475086E+03  0.87118327866E+03 -0.42397736025E+03  0.11077124051E+04  0.50400001928E-02 0.  1.
       -1    1    3    3    0  502 -0.53694475086E+03 -0.87118327866E+03  0.20568353646E+04  0.22973553682E+04  0.50400001928E-02 0. -1.
</event>
<event>
 5   0  0.1057036E-05  0.2884010E+04  0.7818609E-02  0.8277651E-01
       -2   -1    0    0    0  501  0.00000000000E+00  0.00000000000E+00  0.14339862115E+04  0.14339862115E+04  0.25500000920E-02 0.  1.
        2   -1    0    0  501    0  0.00000000000E+00  0.00000000000E+00 -0.14500686752E+04  0.14500686752E+04  0.25500000920E-02 0. -1.
    10030    2    1    2    0    0  0.00000000000E+00  0.00000000000E+00 -0.16082463725E+02  0.28840548866E+04  0.28840100457E+04 0.  0.
        4    1    3    3  502    0 -0.80519866814E+03  0.11184773085E+04 -0.43235961095E+03  0.14443935859E+04  0.12699999809E+01 0. -1.
       -4    1    3    3    0  502  0.80519866814E+03 -0.11184773085E+04  0.41627714722E+03  0.14396613008E+04  0.12699999809E+01 0.  1.
</event>
<event>
 5   0  0.3636718E-06  0.2971717E+04  0.7818609E-02  0.8251854E-01
       -1   -1    0    0    0  501  0.00000000000E+00  0.00000000000E+00  0.15050491934E+04  0.15050491934E+04  0.50400001928E-02 0. -1.
        1   -1    0    0  501    0  0.00000000000E+00  0.00000000000E+00 -0.14669123995E+04  0.14669123995E+04  0.50400001928E-02 0.  1.
    10030    2    1    2    0    0  0.00000000000E+00  0.00000000000E+00  0.38136793819E+02  0.29719615929E+04  0.29717168934E+04 0.  0.
        4    1    3    3  502    0 -0.10948037798E+04  0.29456083229E+03 -0.94143367226E+03  0.14736554456E+04  0.12699999809E+01 0.  1.
       -4    1    3    3    0  502  0.10948037798E+04 -0.29456083229E+03  0.97957046608E+03  0.14983061473E+04  0.12699999809E+01 0. -1.
</event>
<event>
 5   0  0.3725232E-06  0.1900703E+04  0.7818609E-02  0.8654507E-01
       -1   -1    0    0    0  501  0.00000000000E+00  0.00000000000E+00  0.10379965309E+04  0.10379965309E+04  0.50400001928E-02 0.  1.
        1   -1    0    0  501    0  0.00000000000E+00  0.00000000000E+00 -0.87010648867E+03  0.87010648869E+03  0.50400001928E-02 0. -1.
    10030    2    1    2    0    0  0.00000000000E+00  0.00000000000E+00  0.16789004219E+03  0.19081030196E+04  0.19007025193E+04 0.  0.
        2    1    3    3  502    0 -0.87771485273E+03  0.36029053554E+03  0.13869988308E+03  0.95886927695E+03  0.25500000920E-02 0. -1.
       -2    1    3    3    0  502  0.87771485273E+03 -0.36029053554E+03  0.29190159106E+02  0.94923374261E+03  0.25500000920E-02 0.  1.
</event>
<event>
 5   0  0.3725232E-06  0.2963153E+04  0.7818609E-02  0.8254332E-01
        1   -1    0    0  501    0  0.00000000000E+00  0.00000000000E+00  0.18699329881E+04  0.18699329881E+04  0.50400001928E-02 0.  1.
       -1   -1    0    0    0  501  0.00000000000E+00  0.00000000000E+00 -0.11738757115E+04  0.11738757115E+04  0.50400001928E-02 0. -1.
    10030    2    1    2    0    0  0.00000000000E+00  0.00000000000E+00  0.69605727652E+03  0.30438086996E+04  0.29631529943E+04 0.  0.
        2    1    3    3  502    0 -0.99539601483E+03  0.75503114873E+03  0.11660615947E+04  0.17089718852E+04  0.25500000920E-02 0.  1.
       -2    1    3    3    0  502  0.99539601483E+03 -0.75503114873E+03 -0.47000431816E+03  0.13348368144E+04  0.25500000920E-02 0. -1.
</event>
<event>
 5   0  0.9647945E-06  0.2981904E+04  0.7818609E-02  0.8248917E-01
       -2   -1    0    0    0  501  0.00000000000E+00  0.00000000000E+00  0.12414979464E+04  0.12414979464E+04  0.25500000920E-02 0.  1.
        2   -1    0    0  501    0  0.00000000000E+00  0.00000000000E+00 -0.17905284837E+04  0.17905284837E+04  0.25500000920E-02 0. -1.
    10030    2    1    2    0    0  0.00000000000E+00  0.00000000000E+00 -0.54903053736E+03  0.30320264301E+04  0.29819037110E+04 0.  0.
        2    1    3    3  502    0  0.36844222544E+03 -0.53919937947E+03 -0.16373624202E+04  0.17627936179E+04  0.25500000920E-02 0. -1.
       -2    1    3    3    0  502 -0.36844222544E+03  0.53919937947E+03  0.10883318828E+04  0.12692328122E+04  0.25500000920E-02 0.  1.
</event>
<event>
 5   0  0.3852126E-06  0.3047901E+04  0.7818609E-02  0.8230183E-01
       -1   -1    0    0    0  501  0.00000000000E+00  0.00000000000E+00  0.88721732918E+03  0.88721732920E+03  0.50400001928E-02 0.  1.
        1   -1    0    0  501    0  0.00000000000E+00  0.00000000000E+00 -0.26176511123E+04  0.26176511123E+04  0.50400001928E-02 0. -1.
    10030    2    1    2    0    0  0.00000000000E+00  0.00000000000E+00 -0.17304337831E+04  0.35048684415E+04  0.30479011983E+04 0.  0.
        1    1    3    3  502    0 -0.35324570946E+03 -0.11535061327E+03 -0.25647540747E+04  0.25915346339E+04  0.50400001928E-02 0. -1.
       -1    1    3    3    0  502  0.35324570946E+03  0.11535061327E+03  0.83432029153E+03  0.91333380761E+03  0.50400001928E-02 0.  1.
</event>
<event>
 5   0  0.3636718E-06  0.2445296E+04  0.7818609E-02  0.8422738E-01
       -1   -1    0    0    0  501  0.00000000000E+00  0.00000000000E+00  0.10365302649E+04  0.10365302649E+04  0.50400001928E-02 0. -1.
        1   -1    0    0  501    0  0.00000000000E+00  0.00000000000E+00 -0.14421841887E+04  0.14421841887E+04  0.50400001928E-02 0.  1.
    10030    2    1    2    0    0  0.00000000000E+00  0.00000000000E+00 -0.40565392373E+03  0.24787144536E+04  0.24452955316E+04 0.  0.
        4    1    3    3  502    0 -0.17501913813E+03  0.22034524609E+03 -0.14089122884E+04  0.14367390770E+04  0.12699999809E+01 0.  1.
       -4    1    3    3    0  502  0.17501913813E+03 -0.22034524609E+03  0.10032583647E+04  0.10419753766E+04  0.12699999809E+01 0. -1.
</event>
<event>
 5   0  0.3592331E-06  0.2935753E+04  0.7818609E-02  0.8262319E-01
       -1   -1    0    0    0  501  0.00000000000E+00  0.00000000000E+00  0.16802704243E+04  0.16802704243E+04  0.50400001928E-02 0.  1.
        1   -1    0    0  501    0  0.00000000000E+00  0.00000000000E+00 -0.12823305190E+04  0.12823305190E+04  0.50400001928E-02 0. -1.
    10030    2    1    2    0    0  0.00000000000E+00  0.00000000000E+00  0.39793990530E+03  0.29626009434E+04  0.29357534265E+04 0.  0.
        3    1    3    3  502    0 -0.39759893093E+03 -0.67243426789E+03  0.14530775006E+04  0.16497536142E+04  0.10100000352E+00 0.  1.
       -3    1    3    3    0  502  0.39759893093E+03  0.67243426789E+03 -0.10551375953E+04  0.13128473292E+04  0.10100000352E+00 0. -1.
</event>
<event>
 5   0  0.3636718E-06  0.2853396E+04  0.7818609E-02  0.8286880E-01
        1   -1    0    0  501    0  0.00000000000E+00  0.00000000000E+00  0.18567547974E+04  0.18567547974E+04  0.50400001928E-02 0. -1.
       -1   -1    0    0    0  501  0.00000000000E+00  0.00000000000E+00 -0.10962501816E+04  0.10962501816E+04  0.50400001928E-02 0.  1.
    10030    2    1    2    0    0  0.00000000000E+00  0.00000000000E+00  0.76050461580E+03  0.29530049790E+04  0.28533964210E+04 0.  0.
        4    1    3    3  502    0 -0.48915384443E+03  0.39453122019E+03  0.17058002903E+04  0.18178786017E+04  0.12699999809E+01 0. -1.
       -4    1    3    3    0  502  0.48915384443E+03 -0.39453122019E+03 -0.94529567454E+03  0.11351263773E+04  0.12699999809E+01 0.  1.
</event>
<event>
 5   0  0.1057036E-05  0.3022145E+04  0.7818609E-02  0.8237435E-01
        2   -1    0    0  501    0  0.00000000000E+00  0.00000000000E+00  0.16022977451E+04  0.16022977451E+04  0.25500000920E-02 0. -1.
       -2   -1    0    0    0  501  0.00000000000E+00  0.00000000000E+00 -0.14250414735E+04  0.14250414735E+04  0.25500000920E-02 0.  1.
    10030    2    1    2    0    0  0.00000000000E+00  0.00000000000E+00  0.17725627165E+03  0.30273392186E+04  0.30221454231E+04 0.  0.
        4    1    3    3  502    0 -0.24004091912E+03 -0.14224389365E+04  0.53927565817E+03  0.15400558494E+04  0.12699999809E+01 0. -1.
       -4    1    3    3    0  502  0.24004091912E+03  0.14224389365E+04 -0.36201938652E+03  0.14872833691E+04  0.12699999809E+01 0.  1.
</event>
<event>
 5   0  0.9647945E-06  0.2867513E+04  0.7818609E-02  0.8282609E-01
       -2   -1    0    0    0  501  0.00000000000E+00  0.00000000000E+00  0.15017090633E+04  0.15017090633E+04  0.25500000920E-02 0.  1.
        2   -1    0    0  501    0  0.00000000000E+00  0.00000000000E+00 -0.13688788429E+04  0.13688788429E+04  0.25500000920E-02 0. -1.
    10030    2    1    2    0    0  0.00000000000E+00  0.00000000000E+00  0.13283022044E+03  0.28705879062E+04  0.28675130444E+04 0.  0.
        2    1    3    3  502    0  0.38885604373E+03  0.12162937380E+04  0.71909451461E+03  0.14654952749E+04  0.25500000920E-02 0.  1.
       -2    1    3    3    0  502 -0.38885604373E+03 -0.12162937380E+04 -0.58626429417E+03  0.14050926313E+04  0.25500000920E-02 0. -1.
</event>
<event>
 5   0  0.1089569E-05  0.3051381E+04  0.7818609E-02  0.8229209E-01
        2   -1    0    0  501    0  0.00000000000E+00  0.00000000000E+00  0.24836169748E+04  0.24836169748E+04  0.25500000920E-02 0. -1.
       -2   -1    0    0    0  501  0.00000000000E+00  0.00000000000E+00 -0.93723444341E+03  0.93723444341E+03  0.25500000920E-02 0.  1.
    10030    2    1    2    0    0  0.00000000000E+00  0.00000000000E+00  0.15463825314E+04  0.34208514182E+04  0.30513809156E+04 0.  0.
        5    1    3    3  502    0 -0.35941919418E+02 -0.15206289436E+04  0.64004606361E+03  0.16502379402E+04  0.46999998093E+01 0. -1.
       -5    1    3    3    0  502  0.35941919418E+02  0.15206289436E+04  0.90633646780E+03  0.17706134780E+04  0.46999998093E+01 0.  1.
</event>
<event>
 5   0  0.1028450E-05  0.3138281E+04  0.7818609E-02  0.8205310E-01
        2   -1    0    0  501    0  0.00000000000E+00  0.00000000000E+00  0.19986624669E+04  0.19986624669E+04  0.25500000920E-02 0. -1.
       -2   -1    0    0    0  501  0.00000000000E+00  0.00000000000E+00 -0.12319244930E+04  0.12319244930E+04  0.25500000920E-02 0.  1.
    10030    2    1    2    0    0  0.00000000000E+00  0.00000000000E+00  0.76673797384E+03  0.32305869599E+04  0.31382805778E+04 0.  0.
        3    1    3    3  502    0  0.39764965405E+03  0.10951604289E+04  0.14653303932E+04  0.18720830067E+04  0.10100000352E+00 0. -1.
       -3    1    3    3    0  502 -0.39764965405E+03 -0.10951604289E+04 -0.69859241938E+03  0.13585039532E+04  0.10100000352E+00 0.  1.
</event>
<event>
 5   0  0.1029922E-05  0.1981551E+04  0.7818609E-02  0.8615295E-01
        2   -1    0    0  501    0  0.00000000000E+00  0.00000000000E+00  0.15420443061E+04  0.15420443061E+04  0.25500000920E-02 0. -1.
       -2   -1    0    0    0  501  0.00000000000E+00  0.00000000000E+00 -0.63658081791E+03  0.63658081792E+03  0.25500000920E-02 0.  1.
    10030    2    1    2    0    0  0.00000000000E+00  0.00000000000E+00  0.90546348815E+03  0.21786251240E+04  0.19815507317E+04 0.  0.
        1    1    3    3  502    0  0.83389932345E+02 -0.18405221934E+03 -0.61368638296E+03  0.64609602762E+03  0.50400001928E-02 0.  1.
       -1    1    3    3    0  502 -0.83389932345E+02  0.18405221934E+03  0.15191498711E+04  0.15325290964E+04  0.50400001928E-02 0. -1.
</event>
<event>
 5   0  0.3592331E-06  0.3005428E+04  0.7818609E-02  0.8242182E-01
        1   -1    0    0  501    0  0.00000000000E+00  0.00000000000E+00  0.22865386232E+04  0.22865386232E+04  0.50400001928E-02 0.  1.
       -1   -1    0    0    0  501  0.00000000000E+00  0.00000000000E+00 -0.98758444057E+03  0.98758444059E+03  0.50400001928E-02 0. -1.
    10030    2    1    2    0    0  0.00000000000E+00  0.00000000000E+00  0.12989541826E+04  0.32741230638E+04  0.30054284001E+04 0.  0.
        3    1    3    3  502    0 -0.11540041939E+04 -0.55638134447E+02 -0.39733028647E+03  0.12217580154E+04  0.10100000352E+00 0. -1.
       -3    1    3    3    0  502  0.11540041939E+04  0.55638134447E+02  0.16962844691E+04  0.20523650484E+04  0.10100000352E+00 0.  1.
</event>
<event>
 5   0  0.3592331E-06  0.2964785E+04  0.7818609E-02  0.8253859E-01
        1   -1    0    0  501    0  0.00000000000E+00  0.00000000000E+00  0.18370345850E+04  0.18370345850E+04  0.50400001928E-02 0.  1.
       -1   -1    0    0    0  501  0.00000000000E+00  0.00000000000E+00 -0.11962145184E+04  0.11962145184E+04  0.50400001928E-02 0. -1.
    10030    2    1    2    0    0  0.00000000000E+00  0.00000000000E+00  0.64082006658E+03  0.30332491035E+04  0.29647849443E+04 0.  0.
        3    1    3    3  502    0  0.13620795588E+04  0.27554565378E+03  0.84837064601E+03  0.16281642715E+04  0.10100000352E+00 0.  1.
       -3    1    3    3    0  502 -0.13620795588E+04 -0.27554565378E+03 -0.20755057943E+03  0.14050848320E+04  0.10100000352E+00 0. -1.
</event>
<event>
 5   0  0.1089569E-05  0.2891332E+04  0.7818609E-02  0.8275461E-01
        2   -1    0    0  501    0  0.00000000000E+00  0.00000000000E+00  0.21193272893E+04  0.21193272893E+04  0.25500000920E-02 0. -1.
       -2   -1    0    0    0  501  0.00000000000E+00  0.00000000000E+00 -0.98613823620E+03  0.98613823620E+03  0.25500000920E-02 0.  1.
    10030    2    1    2    0    0  0.00000000000E+00  0.00000000000E+00  0.11331890531E+04  0.31054655255E+04  0.28913316483E+04 0.  0.
        5    1    3    3  502    0 -0.11955257020E+04  0.75972213435E+03  0.87689984628E+03  0.16659636419E+04  0.46999998093E+01 0. -1.
       -5    1    3    3    0  502  0.11955257020E+04 -0.75972213435E+03  0.25628920686E+03  0.14395018837E+04  0.46999998093E+01 0.  1.
</event>
<event>
 5   0  0.3636718E-06  0.3031064E+04  0.7818609E-02  0.8234916E-01
        1   -1    0    0  501    0  0.00000000000E+00  0.00000000000E+00  0.20169801886E+04  0.20169801886E+04  0.50400001928E-02 0.  1.
       -1   -1    0    0    0  501  0.00000000000E+00  0.00000000000E+00 -0.11387505147E+04  0.11387505147E+04  0.50400001928E-02 0. -1.
    10030    2    1    2    0    0  0.00000000000E+00  0.00000000000E+00  0.87822967388E+03  0.31557307033E+04  0.30310639901E+04 0.  0.
        4    1    3    3  502    0 -0.87229589068E+03  0.82996331614E+03 -0.51911843230E+03  0.13111921242E+04  0.12699999809E+01 0. -1.
       -4    1    3    3    0  502  0.87229589068E+03 -0.82996331614E+03  0.13973481062E+04  0.18445385791E+04  0.12699999809E+01 0.  1.
</event>
<event>
 5   0  0.1029922E-05  0.3002997E+04  0.7818609E-02  0.8242876E-01
        2   -1    0    0  501    0  0.00000000000E+00  0.00000000000E+00  0.21963271514E+04  0.21963271514E+04  0.25500000920E-02 0. -1.
       -2   -1    0    0    0  501  0.00000000000E+00  0.00000000000E+00 -0.10264852544E+04  0.10264852544E+04  0.25500000920E-02 0.  1.
    10030    2    1    2    0    0  0.00000000000E+00  0.00000000000E+00  0.11698418970E+04  0.32228124058E+04  0.30029967930E+04 0.  0.
        1    1    3    3  502    0  0.98580923551E+03 -0.11143348581E+04  0.80205589717E+03  0.16902235612E+04  0.50400001928E-02 0. -1.
       -1    1    3    3    0  502 -0.98580923551E+03  0.11143348581E+04  0.36778599985E+03  0.15325888446E+04  0.50400001928E-02 0.  1.
</event>
<event>
 5   0  0.1028450E-05  0.2886003E+04  0.7818609E-02  0.8277054E-01
        2   -1    0    0  501    0  0.00000000000E+00  0.00000000000E+00  0.73429936129E+03  0.73429936130E+03  0.25500000920E-02 0.  1.
       -2   -1    0    0    0  501  0.00000000000E+00  0.00000000000E+00 -0.28357010705E+04  0.28357010705E+04  0.25500000920E-02 0. -1.
    10030    2    1    2    0    0  0.00000000000E+00  0.00000000000E+00 -0.21014017092E+04  0.35700004318E+04  0.28860031081E+04 0.  0.
        3    1    3    3  502    0  0.11161603955E+04 -0.67315925864E+03 -0.28485978754E+03  0.13342048286E+04  0.10100000352E+00 0.  1.
       -3    1    3    3    0  502 -0.11161603955E+04  0.67315925864E+03 -0.18165419217E+04  0.22357956032E+04  0.10100000352E+00 0. -1.
</event>
<event>
 5   0  0.3592331E-06  0.2902505E+04  0.7818609E-02  0.8272133E-01
        1   -1    0    0  501    0  0.00000000000E+00  0.00000000000E+00  0.15456006773E+04  0.15456006773E+04  0.50400001928E-02 0.  1.
       -1   -1    0    0    0  501  0.00000000000E+00  0.00000000000E+00 -0.13626632537E+04  0.13626632537E+04  0.50400001928E-02 0. -1.
    10030    2    1    2    0    0  0.00000000000E+00  0.00000000000E+00  0.18293742358E+03  0.29082639310E+04  0.29025046066E+04 0.  0.
        3    1    3    3  502    0  0.27064814598E+03  0.13065141549E+04  0.66348114172E+03  0.14901130465E+04  0.10100000352E+00 0.  1.
       -3    1    3    3    0  502 -0.27064814598E+03 -0.13065141549E+04 -0.48054371814E+03  0.14181508845E+04  0.10100000352E+00 0. -1.
</event>
<event>
 5   0  0.1028450E-05  0.2996680E+04  0.7818609E-02  0.8244680E-01
       -2   -1    0    0    0  501  0.00000000000E+00  0.00000000000E+00  0.12646771745E+04  0.12646771745E+04  0.25500000920E-02 0. -1.
        2   -1    0    0  501    0  0.00000000000E+00  0.00000000000E+00 -0.17751739771E+04  0.17751739771E+04  0.25500000920E-02 0.  1.
    10030    2    1    2    0    0  0.00000000000E+00  0.00000000000E+00 -0.51049680257E+03  0.30398511516E+04  0.29966795021E+04 0.  0.
        3    1    3    3  502    0 -0.53408023342E+03  0.11174461932E+04  0.60016415900E+03  0.13762720365E+04  0.10100000352E+00 0.  1.
       -3    1    3    3    0  502  0.53408023342E+03 -0.11174461932E+04 -0.11106609616E+04  0.16635791151E+04  0.10100000352E+00 0. -1.
</event>
<event>
 5   0  0.1029922E-05  0.2004396E+04  0.7818609E-02  0.8604568E-01
       -2   -1    0    0    0  501  0.00000000000E+00  0.00000000000E+00  0.12991043040E+04  0.12991043040E+04  0.25500000920E-02 0. -1.
        2   -1    0    0  501    0  0.00000000000E+00  0.00000000000E+00 -0.77314888354E+03  0.77314888354E+03  0.25500000920E-02 0.  1.
    10030    2    1    2    0    0  0.00000000000E+00  0.00000000000E+00  0.52595542047E+03  0.20722531876E+04  0.20043962106E+04 0.  0.
        1    1    3    3  502    0 -0.60560248286E+03 -0.24408199560E+03 -0.52307144423E+03  0.83662065694E+03  0.50400001928E-02 0.  1.
       -1    1    3    3    0  502  0.60560248286E+03  0.24408199560E+03  0.10490268647E+04  0.12356325306E+04  0.50400001928E-02 0. -1.
</event>
<event>
 5   0  0.3636718E-06  0.2965789E+04  0.7818609E-02  0.8253568E-01
       -1   -1    0    0    0  501  0.00000000000E+00  0.00000000000E+00  0.11765210747E+04  0.11765210747E+04  0.50400001928E-02 0. -1.
        1   -1    0    0  501    0  0.00000000000E+00  0.00000000000E+00 -0.18690500390E+04  0.18690500390E+04  0.50400001928E-02 0.  1.
    10030    2    1    2    0    0  0.00000000000E+00  0.00000000000E+00 -0.69252896428E+03  0.30455711137E+04  0.29657894467E+04 0.  0.
        4    1    3    3  502    0  0.50564183164E+03  0.10783156534E+04 -0.12535106269E+04  0.17290832296E+04  0.12699999809E+01 0. -1.
       -4    1    3    3    0  502 -0.50564183164E+03 -0.10783156534E+04  0.56098166261E+03  0.13164878841E+04  0.12699999809E+01 0.  1.
</event>
<event>
 5   0  0.1057036E-05  0.2956630E+04  0.7818609E-02  0.8256225E-01
       -2   -1    0    0    0  501  0.00000000000E+00  0.00000000000E+00  0.21750776564E+04  0.21750776564E+04  0.25500000920E-02 0. -1.
        2   -1    0    0  501    0  0.00000000000E+00  0.00000000000E+00 -0.10047529207E+04  0.10047529207E+04  0.25500000920E-02 0.  1.
    10030    2    1    2    0    0  0.00000000000E+00  0.00000000000E+00  0.11703247357E+04  0.31798305771E+04  0.29566302630E+04 0.  0.
        4    1    3    3  502    0  0.63171927430E+03 -0.56677549710E+02 -0.85098419281E+03  0.10613469251E+04  0.12699999809E+01 0.  1.
       -4    1    3    3    0  502 -0.63171927430E+03  0.56677549710E+02  0.20213089285E+04  0.21184836520E+04  0.12699999809E+01 0. -1.
</event>
<event>
 5   0  0.9647945E-06  0.3007715E+04  0.7818609E-02  0.8241531E-01
       -2   -1    0    0    0  501  0.00000000000E+00  0.00000000000E+00  0.11671193182E+04  0.11671193182E+04  0.25500000920E-02 0.  1.
        2   -1    0    0  501    0  0.00000000000E+00  0.00000000000E+00 -0.19377515810E+04  0.19377515810E+04  0.25500000920E-02 0. -1.
    10030    2    1    2    0    0  0.00000000000E+00  0.00000000000E+00 -0.77063226281E+03  0.31048708993E+04  0.30077149494E+04 0.  0.
        2    1    3    3  502    0  0.11119906607E+04  0.16793433833E+03 -0.14159974918E+04  0.18082516606E+04  0.25500000920E-02 0.  1.
       -2    1    3    3    0  502 -0.11119906607E+04 -0.16793433833E+03  0.64536522896E+03  0.12966192387E+04  0.25500000920E-02 0. -1.
</event>
<event>
 5   0  0.3592331E-06  0.2896398E+04  0.7818609E-02  0.8273950E-01
       -1   -1    0    0    0  501  0.00000000000E+00  0.00000000000E+00  0.19741280235E+04  0.19741280235E+04  0.50400001928E-02 0. -1.
        1   -1    0    0  501    0  0.00000000000E+00  0.00000000000E+00 -0.10623829438E+04  0.10623829438E+04  0.50400001928E-02 0.  1.
    10030    2    1    2    0    0  0.00000000000E+00  0.00000000000E+00  0.91174507969E+03  0.30365109674E+04  0.28963977221E+04 0.  0.
        3    1    3    3  502    0  0.91048393653E+03  0.10558284013E+04  0.86665005321E+03  0.16415958505E+04  0.10100000352E+00 0. -1.
       -3    1    3    3    0  502 -0.91048393653E+03 -0.10558284013E+04  0.45095026483E+02  0.13949151168E+04  0.10100000352E+00 0.  1.
</event>
<event>
 5   0  0.3636718E-06  0.2989134E+04  0.7818609E-02  0.8246841E-01
        1   -1    0    0  501    0  0.00000000000E+00  0.00000000000E+00  0.13697562582E+04  0.13697562582E+04  0.50400001928E-02 0. -1.
       -1   -1    0    0    0  501  0.00000000000E+00  0.00000000000E+00 -0.16307500329E+04  0.16307500329E+04  0.50400001928E-02 0.  1.
    10030    2    1    2    0    0  0.00000000000E+00  0.00000000000E+00 -0.26099377465E+03  0.30005062911E+04  0.29891336960E+04 0.  0.
        4    1    3    3  502    0  0.14377963142E+04  0.40391933396E+03 -0.72663618342E+02  0.14952226201E+04  0.12699999809E+01 0. -1.
       -4    1    3    3    0  502 -0.14377963142E+04 -0.40391933396E+03 -0.18833015631E+03  0.15052836710E+04  0.12699999809E+01 0.  1.
</event>
<event>
 5   0  0.3896630E-06  0.2632595E+04  0.7818609E-02  0.8357213E-01
        1   -1    0    0  501    0  0.00000000000E+00  0.00000000000E+00  0.13887270747E+04  0.13887270747E+04  0.50400001928E-02 0. -1.
       -1   -1    0    0    0  501  0.00000000000E+00  0.00000000000E+00 -0.12476452929E+04  0.12476452930E+04  0.50400001928E-02 0.  1.
    10030    2    1    2    0    0  0.00000000000E+00  0.00000000000E+00  0.14108178175E+03  0.26363723677E+04  0.26325947641E+04 0.  0.
        5    1    3    3  502    0 -0.12490246825E+04  0.32823758432E+03 -0.18441063482E+03  0.13045428093E+04  0.46999998093E+01 0.  1.
       -5    1    3    3    0  502  0.12490246825E+04 -0.32823758432E+03  0.32549241656E+03  0.13318295583E+04  0.46999998093E+01 0. -1.
</event>
<event>
 5   0  0.3636718E-06  0.2982324E+04  0.7818609E-02  0.8248796E-01
       -1   -1    0    0    0  501  0.00000000000E+00  0.00000000000E+00  0.14972190307E+04  0.14972190307E+04  0.50400001928E-02 0. -1.
        1   -1    0    0  501    0  0.00000000000E+00  0.00000000000E+00 -0.14851297894E+04  0.14851297894E+04  0.50400001928E-02 0.  1.
    10030    2    1    2    0    0  0.00000000000E+00  0.00000000000E+00  0.12089241269E+02  0.29823488201E+04  0.29823243176E+04 0.  0.
        4    1    3    3  502    0  0.86660536501E+03 -0.11507847061E+04 -0.37899447944E+03  0.14896136166E+04  0.12699999809E+01 0. -1.
       -4    1    3    3    0  502 -0.86660536501E+03  0.11507847061E+04  0.39108372071E+03  0.14927352035E+04  0.12699999809E+01 0.  1.
</event>
<event>
 5   0  0.3852126E-06  0.3013772E+04  0.7818609E-02  0.8239809E-01
        1   -1    0    0  501    0  0.00000000000E+00  0.00000000000E+00  0.23078537927E+04  0.23078537927E+04  0.50400001928E-02 0.  1.
       -1   -1    0    0    0  501  0.00000000000E+00  0.00000000000E+00 -0.98390318758E+03  0.98390318760E+03  0.50400001928E-02 0. -1.
    10030    2    1    2    0    0  0.00000000000E+00  0.00000000000E+00  0.13239506051E+04  0.32917569803E+04  0.30137715263E+04 0.  0.
        1    1    3    3  502    0 -0.89885305681E+03 -0.73917537253E+03 -0.38360418498E+03  0.12253445311E+04  0.50400001928E-02 0. -1.
       -1    1    3    3    0  502  0.89885305681E+03  0.73917537253E+03  0.17075547901E+04  0.20664124492E+04  0.50400001928E-02 0.  1.
</event>
<event>
 5   0  0.1089569E-05  0.2959825E+04  0.7818609E-02  0.8255297E-01
        2   -1    0    0  501    0  0.00000000000E+00  0.00000000000E+00  0.19363349330E+04  0.19363349330E+04  0.25500000920E-02 0.  1.
       -2   -1    0    0    0  501  0.00000000000E+00  0.00000000000E+00 -0.11310752924E+04  0.11310752924E+04  0.25500000920E-02 0. -1.
    10030    2    1    2    0    0  0.00000000000E+00  0.00000000000E+00  0.80525964063E+03  0.30674102254E+04  0.29598247249E+04 0.  0.
        5    1    3    3  502    0  0.23778760431E+03 -0.13368612914E+04  0.10125607749E+04  0.16938248050E+04  0.46999998093E+01 0.  1.
       -5    1    3    3    0  502 -0.23778760431E+03  0.13368612914E+04 -0.20730113426E+03  0.13735854205E+04  0.46999998093E+01 0. -1.
</event>
<event>
 5   0  0.3636718E-06  0.2579623E+04  0.7818609E-02  0.8375156E-01
        1   -1    0    0  501    0  0.00000000000E+00  0.00000000000E+00  0.10223309494E+04  0.10223309494E+04  0.50400001928E-02 0.  1.
       -1   -1    0    0    0  501  0.00000000000E+00  0.00000000000E+00 -0.16272756076E+04  0.16272756076E+04  0.50400001928E-02 0. -1.
    10030    2    1    2    0    0  0.00000000000E+00  0.00000000000E+00 -0.60494465820E+03  0.26496065570E+04  0.25796233964E+04 0.  0.
        4    1    3    3  502    0 -0.34979353444E+03  0.22556802236E+03 -0.15564015681E+04  0.16110940083E+04  0.12699999809E+01 0. -1.
       -4    1    3    3    0  502  0.34979353444E+03 -0.22556802236E+03  0.95145690992E+03  0.10385125487E+04  0.12699999809E+01 0.  1.
</event>
<event>
 5   0  0.3725232E-06  0.2924220E+04  0.7818609E-02  0.8265708E-01
       -1   -1    0    0    0  501  0.00000000000E+00  0.00000000000E+00  0.18186239247E+04  0.18186239247E+04  0.50400001928E-02 0.  1.
        1   -1    0    0  501    0  0.00000000000E+00  0.00000000000E+00 -0.11754849180E+04  0.11754849180E+04  0.50400001928E-02 0. -1.
    10030    2    1    2    0    0  0.00000000000E+00  0.00000000000E+00  0.64313900666E+03  0.29941088427E+04  0.29242195506E+04 0.  0.
        2    1    3    3  502    0  0.13977059384E+04 -0.22404365921E+03  0.69636107848E+03  0.15775602059E+04  0.25500000920E-02 0.  1.
       -2    1    3    3    0  502 -0.13977059384E+04  0.22404365921E+03 -0.53222071825E+02  0.14165486368E+04  0.25500000920E-02 0. -1.
</event>
<event>
 5   0  0.1028450E-05  0.3038371E+04  0.7818609E-02  0.8232858E-01
        2   -1    0    0  501    0  0.00000000000E+00  0.00000000000E+00  0.19562220758E+04  0.19562220758E+04  0.25500000920E-02 0. -1.
       -2   -1    0    0    0  501  0.00000000000E+00  0.00000000000E+00 -0.11797865809E+04  0.11797865809E+04  0.25500000920E-02 0.  1.
    10030    2    1    2    0    0  0.00000000000E+00  0.00000000000E+00  0.77643549492E+03  0.31360086567E+04  0.30383709808E+04 0.  0.
        3    1    3    3  502    0  0.48290129593E+03 -0.48198681682E+03  0.17891938420E+04  0.19148680288E+04  0.10100000352E+00 0. -1.
       -3    1    3    3    0  502 -0.48290129593E+03  0.48198681682E+03 -0.10127583471E+04  0.12211406279E+04  0.10100000352E+00 0.  1.
</event>
<event>
 5   0  0.1028450E-05  0.2877514E+04  0.7818609E-02  0.8279599E-01
       -2   -1    0    0    0  501  0.00000000000E+00  0.00000000000E+00  0.11344121116E+04  0.11344121116E+04  0.25500000920E-02 0. -1.
        2   -1    0    0  501    0  0.00000000000E+00  0.00000000000E+00 -0.18247529155E+04  0.18247529155E+04  0.25500000920E-02 0.  1.
    10030    2    1    2    0    0  0.00000000000E+00  0.00000000000E+00 -0.69034080397E+03  0.29591650271E+04  0.28775140715E+04 0.  0.
        3    1    3    3  502    0  0.40225161524E+03 -0.12347992307E+04  0.29166420203E+03  0.13310159725E+04  0.10100000352E+00 0. -1.
       -3    1    3    3    0  502 -0.40225161524E+03  0.12347992307E+04 -0.98200500600E+03  0.16281490546E+04  0.10100000352E+00 0.  1.
</event>
<event>
 5   0  0.3896630E-06  0.2979688E+04  0.7818609E-02  0.8249555E-01
        1   -1    0    0  501    0  0.00000000000E+00  0.00000000000E+00  0.16429187494E+04  0.16429187494E+04  0.50400001928E-02 0. -1.
       -1   -1    0    0    0  501  0.00000000000E+00  0.00000000000E+00 -0.13510320407E+04  0.13510320407E+04  0.50400001928E-02 0.  1.
    10030    2    1    2    0    0  0.00000000000E+00  0.00000000000E+00  0.29188670866E+03  0.29939507901E+04  0.29796884875E+04 0.  0.
        5    1    3    3  502    0  0.52265095385E+02 -0.40474130995E+03 -0.12937676197E+04  0.13566148724E+04  0.46999998093E+01 0.  1.
       -5    1    3    3    0  502 -0.52265095385E+02  0.40474130995E+03  0.15856543284E+04  0.16373359177E+04  0.46999998093E+01 0. -1.
</event>
<event>
 5   0  0.1089569E-05  0.2956506E+04  0.7818609E-02  0.8256261E-01
       -2   -1    0    0    0  501  0.00000000000E+00  0.00000000000E+00  0.76231448896E+03  0.76231448897E+03  0.25500000920E-02 0. -1.
        2   -1    0    0  501    0  0.00000000000E+00  0.00000000000E+00 -0.28665755988E+04  0.28665755988E+04  0.25500000920E-02 0.  1.
    10030    2    1    2    0    0  0.00000000000E+00  0.00000000000E+00 -0.21042611099E+04  0.36288900878E+04  0.29565061222E+04 0.  0.
        5    1    3    3  502    0 -0.76236168905E+02 -0.13294637803E+04 -0.26435292137E+03  0.13576415041E+04  0.46999998093E+01 0. -1.
       -5    1    3    3    0  502  0.76236168905E+02  0.13294637803E+04 -0.18399081885E+04  0.22712485837E+04  0.46999998093E+01 0.  1.
</event>
<event>
 5   0  0.1028450E-05  0.2965670E+04  0.7818609E-02  0.8253603E-01
        2   -1    0    0  501    0  0.00000000000E+00  0.00000000000E+00  0.11919176265E+04  0.11919176265E+04  0.25500000920E-02 0.  1.
       -2   -1    0    0    0  501  0.00000000000E+00  0.00000000000E+00 -0.18447575597E+04  0.18447575597E+04  0.25500000920E-02 0. -1.
    10030    2    1    2    0    0  0.00000000000E+00  0.00000000000E+00 -0.65283993317E+03  0.30366751862E+04  0.29656696053E+04 0.  0.
        3    1    3    3  502    0  0.75143844875E+03 -0.95143858677E+03  0.54777985993E+03  0.13303976518E+04  0.10100000352E+00 0.  1.
       -3    1    3    3    0  502 -0.75143844875E+03  0.95143858677E+03 -0.12006197931E+04  0.17062775344E+04  0.10100000352E+00 0. -1.
</event>
<event>
 5   0  0.3592331E-06  0.2177626E+04  0.7818609E-02  0.8527799E-01
        1   -1    0    0  501    0  0.00000000000E+00  0.00000000000E+00  0.19537955325E+04  0.19537955325E+04  0.50400001928E-02 0. -1.
       -1   -1    0    0    0  501  0.00000000000E+00  0.00000000000E+00 -0.60677491077E+03  0.60677491079E+03  0.50400001928E-02 0.  1.
    10030    2    1    2    0    0  0.00000000000E+00  0.00000000000E+00  0.13470206217E+04  0.25605704433E+04  0.21776263315E+04 0.  0.
        3    1    3    3  502    0 -0.36273256106E+03 -0.40111245751E+03 -0.43768593716E+03  0.69572631416E+03  0.10100000352E+00 0.  1.
       -3    1    3    3    0  502  0.36273256106E+03  0.40111245751E+03  0.17847065589E+04  0.18648441291E+04  0.10100000352E+00 0. -1.
</event>
<event>
 5   0  0.3592331E-06  0.3020736E+04  0.7818609E-02  0.8237834E-01
        1   -1    0    0  501    0  0.00000000000E+00  0.00000000000E+00  0.20196287536E+04  0.20196287536E+04  0.50400001928E-02 0. -1.
       -1   -1    0    0    0  501  0.00000000000E+00  0.00000000000E+00 -0.11295201790E+04  0.11295201790E+04  0.50400001928E-02 0.  1.
    10030    2    1    2    0    0  0.00000000000E+00  0.00000000000E+00  0.89010857461E+03  0.31491489326E+04  0.30207359575E+04 0.  0.
        3    1    3    3  502    0  0.78108440619E+03 -0.12902192269E+04  0.52879921375E+03  0.15982450131E+04  0.10100000352E+00 0.  1.
       -3    1    3    3    0  502 -0.78108440619E+03  0.12902192269E+04  0.36130936086E+03  0.15509039195E+04  0.10100000352E+00 0. -1.
</event>
<event>
 5   0  0.3636718E-06  0.2975398E+04  0.7818609E-02  0.8250791E-01
       -1   -1    0    0    0  501  0.00000000000E+00  0.00000000000E+00  0.18250482084E+04  0.18250482084E+04  0.50400001928E-02 0.  1.
        1   -1    0    0  501    0  0.00000000000E+00  0.00000000000E+00 -0.12127071054E+04  0.12127071054E+04  0.50400001928E-02 0. -1.
    10030    2    1    2    0    0  0.00000000000E+00  0.00000000000E+00  0.61234110300E+03  0.30377553139E+04  0.29753984137E+04 0.  0.
        4    1    3    3  502    0 -0.68451946000E+03  0.99283940863E+03  0.11956058080E+04  0.16981672013E+04  0.12699999809E+01 0.  1.
       -4    1    3    3    0  502  0.68451946000E+03 -0.99283940863E+03 -0.58326470498E+03  0.13395881126E+04  0.12699999809E+01 0. -1.
</event>
<event>
 5   0  0.1029922E-05  0.2921378E+04  0.7818609E-02  0.8266545E-01
       -2   -1    0    0    0  501  0.00000000000E+00  0.00000000000E+00  0.76326224927E+03  0.76326224928E+03  0.25500000920E-02 0.  1.
        2   -1    0    0  501    0  0.00000000000E+00  0.00000000000E+00 -0.27953848196E+04  0.27953848196E+04  0.25500000920E-02 0. -1.
    10030    2    1    2    0    0  0.00000000000E+00  0.00000000000E+00 -0.20321225704E+04  0.35586470689E+04  0.29213775552E+04 0.  0.
        1    1    3    3  502    0 -0.86329952268E+03  0.81968240873E+03 -0.20471334892E+04  0.23681049047E+04  0.50400001928E-02 0. -1.
       -1    1    3    3    0  502  0.86329952268E+03 -0.81968240873E+03  0.15010918843E+02  0.11905421642E+04  0.50400001928E-02 0.  1.
</event>
<event>
 5   0  0.3725232E-06  0.2915560E+04  0.7818609E-02  0.8268263E-01
       -1   -1    0    0    0  501  0.00000000000E+00  0.00000000000E+00  0.13991803739E+04  0.13991803739E+04  0.50400001928E-02 0.  1.
        1   -1    0    0  501    0  0.00000000000E+00  0.00000000000E+00 -0.15188340930E+04  0.15188340930E+04  0.50400001928E-02 0. -1.
    10030    2    1    2    0    0  0.00000000000E+00  0.00000000000E+00 -0.11965371915E+03  0.29180144669E+04  0.29155602235E+04 0.  0.
        2    1    3    3  502    0 -0.59456460138E+03 -0.20284938304E+03  0.12567529783E+04  0.14050206354E+04  0.25500000920E-02 0.  1.
       -2    1    3    3    0  502  0.59456460138E+03  0.20284938304E+03 -0.13764066975E+04  0.15129938315E+04  0.25500000920E-02 0. -1.
</event>
<event>
 5   0  0.9647945E-06  0.2999278E+04  0.7818609E-02  0.8243937E-01
       -2   -1    0    0    0  501  0.00000000000E+00  0.00000000000E+00  0.12532335337E+04  0.12532335337E+04  0.25500000920E-02 0.  1.
        2   -1    0    0  501    0  0.00000000000E+00  0.00000000000E+00 -0.17944921019E+04  0.17944921019E+04  0.25500000920E-02 0. -1.
    10030    2    1    2    0    0  0.00000000000E+00  0.00000000000E+00 -0.54125856817E+03  0.30477256355E+04  0.29992783652E+04 0.  0.
        2    1    3    3  502    0 -0.14833431384E+04  0.22045521411E+03 -0.26736647127E+03  0.15232833610E+04  0.25500000920E-02 0. -1.
       -2    1    3    3    0  502  0.14833431384E+04 -0.22045521411E+03 -0.27389209691E+03  0.15244422746E+04  0.25500000920E-02 0.  1.
</event>
<event>
 5   0  0.1028450E-05  0.2953293E+04  0.7818609E-02  0.8257195E-01
       -2   -1    0    0    0  501  0.00000000000E+00  0.00000000000E+00  0.11127935748E+04  0.11127935748E+04  0.25500000920E-02 0. -1.
        2   -1    0    0  501    0  0.00000000000E+00  0.00000000000E+00 -0.19594699500E+04  0.19594699500E+04  0.25500000920E-02 0.  1.
    10030    2    1    2    0    0  0.00000000000E+00  0.00000000000E+00 -0.84667637524E+03  0.30722635248E+04  0.29532934635E+04 0.  0.
        3    1    3    3  502    0 -0.14202202730E+04  0.38729500091E+03 -0.54404034149E+03  0.15693957260E+04  0.10100000352E+00 0.  1.
       -3    1    3    3    0  502  0.14202202730E+04 -0.38729500091E+03 -0.30263603375E+03  0.15028677988E+04  0.10100000352E+00 0. -1.
</event>
<event>
 5   0  0.3636718E-06  0.3116926E+04  0.7818609E-02  0.8211108E-01
        1   -1    0    0  501    0  0.00000000000E+00  0.00000000000E+00  0.22895259337E+04  0.22895259337E+04  0.50400001928E-02 0. -1.
       -1   -1    0    0    0  501  0.00000000000E+00  0.00000000000E+00 -0.10608342774E+04  0.10608342774E+04  0.50400001928E-02 0.  1.
    10030    2    1    2    0    0  0.00000000000E+00  0.00000000000E+00  0.12286916563E+04  0.33503602111E+04  0.31169264281E+04 0.  0.
        4    1    3    3  502    0  0.82868098661E+03  0.12902300587E+04  0.31530121920E+03  0.15655102215E+04  0.12699999809E+01 0.  1.
       -4    1    3    3    0  502 -0.82868098661E+03 -0.12902300587E+04  0.91339043709E+03  0.17848499896E+04  0.12699999809E+01 0. -1.
</event>
<event>
 5   0  0.3852126E-06  0.2487532E+04  0.7818609E-02  0.8407441E-01
        1   -1    0    0  501    0  0.00000000000E+00  0.00000000000E+00  0.17077611161E+04  0.17077611161E+04  0.50400001928E-02 0. -1.
       -1   -1    0    0    0  501  0.00000000000E+00  0.00000000000E+00 -0.90583738884E+03  0.90583738886E+03  0.50400001928E-02 0.  1.
    10030    2    1    2    0    0  0.00000000000E+00  0.00000000000E+00  0.80192372728E+03  0.26135985050E+04  0.24875320060E+04 0.  0.
        1    1    3    3  502    0  0.66364369696E+03  0.11357318113E+03  0.14997293749E+04  0.16439312704E+04  0.50400001928E-02 0. -1.
       -1    1    3    3    0  502 -0.66364369696E+03 -0.11357318113E+03 -0.69780564758E+03  0.96966723458E+03  0.50400001928E-02 0.  1.
</event>
<event>
 5   0  0.1028450E-05  0.2706076E+04  0.7818609E-02  0.8333036E-01
        2   -1    0    0  501    0  0.00000000000E+00  0.00000000000E+00  0.14970577355E+04  0.14970577355E+04  0.25500000920E-02 0. -1.
       -2   -1    0    0    0  501  0.00000000000E+00  0.00000000000E+00 -0.12228730859E+04  0.12228730859E+04  0.25500000920E-02 0.  1.
    10030    2    1    2    0    0  0.00000000000E+00  0.00000000000E+00  0.27418464961E+03  0.27199308214E+04  0.27060758399E+04 0.  0.
        3    1    3    3  502    0 -0.50030641586E+03  0.56042384672E+03 -0.99398260775E+03  0.12459465608E+04  0.10100000352E+00 0.  1.
       -3    1    3    3    0  502  0.50030641586E+03 -0.56042384672E+03  0.12681672574E+04  0.14739842606E+04  0.10100000352E+00 0. -1.
</event>
<event>
 5   0  0.1089569E-05  0.2919238E+04  0.7818609E-02  0.8267177E-01
        2   -1    0    0  501    0  0.00000000000E+00  0.00000000000E+00  0.10401310608E+04  0.10401310608E+04  0.25500000920E-02 0.  1.
       -2   -1    0    0    0  501  0.00000000000E+00  0.00000000000E+00 -0.20482873194E+04  0.20482873194E+04  0.25500000920E-02 0. -1.
    10030    2    1    2    0    0  0.00000000000E+00  0.00000000000E+00 -0.10081562587E+04  0.30884183802E+04  0.29192377514E+04 0.  0.
        5    1    3    3  502    0 -0.70377342334E+03 -0.85292497391E+03 -0.15120182920E+04  0.18732323528E+04  0.46999998093E+01 0. -1.
       -5    1    3    3    0  502  0.70377342334E+03  0.85292497391E+03  0.50386203327E+03  0.12151860274E+04  0.46999998093E+01 0.  1.
</event>
<event>
 5   0  0.3592331E-06  0.2926259E+04  0.7818609E-02  0.8265107E-01
       -1   -1    0    0    0  501  0.00000000000E+00  0.00000000000E+00  0.91425974271E+03  0.91425974272E+03  0.50400001928E-02 0. -1.
        1   -1    0    0  501    0  0.00000000000E+00  0.00000000000E+00 -0.23415098529E+04  0.23415098529E+04  0.50400001928E-02 0.  1.
    10030    2    1    2    0    0  0.00000000000E+00  0.00000000000E+00 -0.14272501102E+04  0.32557695957E+04  0.29262591790E+04 0.  0.
        3    1    3    3  502    0 -0.51289347371E+03  0.94444786374E+03  0.39099959145E+03  0.11436442512E+04  0.10100000352E+00 0. -1.
       -3    1    3    3    0  502  0.51289347371E+03 -0.94444786374E+03 -0.18182497017E+04  0.21121253444E+04  0.10100000352E+00 0.  1.
</event>
<event>
 5   0  0.3636718E-06  0.2996008E+04  0.7818609E-02  0.8244872E-01
       -1   -1    0    0    0  501  0.00000000000E+00  0.00000000000E+00  0.10377222431E+04  0.10377222431E+04  0.50400001928E-02 0.  1.
        1   -1    0    0  501    0  0.00000000000E+00  0.00000000000E+00 -0.21624431408E+04  0.21624431408E+04  0.50400001928E-02 0. -1.
    10030    2    1    2    0    0  0.00000000000E+00  0.00000000000E+00 -0.11247208977E+04  0.32001653839E+04  0.29960075745E+04 0.  0.
        4    1    3    3  502    0  0.96160383373E+03  0.10536799240E+04 -0.10507839833E+04  0.17717426189E+04  0.12699999809E+01 0. -1.
       -4    1    3    3    0  502 -0.96160383373E+03 -0.10536799240E+04 -0.73936914387E+02  0.14284227650E+04  0.12699999809E+01 0.  1.
</event>
<event>
 5   0  0.3725232E-06  0.1933389E+04  0.7818609E-02  0.8638413E-01
       -1   -1    0    0    0  501  0.00000000000E+00  0.00000000000E+00  0.87368965654E+03  0.87368965655E+03  0.50400001928E-02 0.  1.
        1   -1    0    0  501    0  0.00000000000E+00  0.00000000000E+00 -0.10695993418E+04  0.10695993418E+04  0.50400001928E-02 0. -1.
    10030    2    1    2    0    0  0.00000000000E+00  0.00000000000E+00 -0.19590968522E+03  0.19432889983E+04  0.19333886123E+04 0.  0.
        2    1    3    3  502    0  0.60501987968E+03 -0.75054371359E+03 -0.25943284619E+02  0.96438476493E+03  0.25500000920E-02 0.  1.
       -2    1    3    3    0  502 -0.60501987968E+03  0.75054371359E+03 -0.16996640061E+03  0.97890423339E+03  0.25500000920E-02 0. -1.
</event>
<event>
 5   0  0.1057036E-05  0.2988412E+04  0.7818609E-02  0.8247048E-01
        2   -1    0    0  501    0  0.00000000000E+00  0.00000000000E+00  0.18425572453E+04  0.18425572453E+04  0.25500000920E-02 0. -1.
       -2   -1    0    0    0  501  0.00000000000E+00  0.00000000000E+00 -0.12117131677E+04  0.12117131677E+04  0.25500000920E-02 0.  1.
    10030    2    1    2    0    0  0.00000000000E+00  0.00000000000E+00  0.63084407762E+03  0.30542704130E+04  0.29884115355E+04 0.  0.
        4    1    3    3  502    0  0.12958857940E+04 -0.66029326139E+03  0.66552354135E+03  0.15994468979E+04  0.12699999809E+01 0.  1.
       -4    1    3    3    0  502 -0.12958857940E+04  0.66029326139E+03 -0.34679463734E+02  0.14548235152E+04  0.12699999809E+01 0. -1.
</event>
<event>
 5   0  0.3896630E-06  0.2549286E+04  0.7818609E-02  0.8385634E-01
        1   -1    0    0  501    0  0.00000000000E+00  0.00000000000E+00  0.95622477762E+03  0.95622477764E+03  0.50400001928E-02 0.  1.
       -1   -1    0    0    0  501  0.00000000000E+00  0.00000000000E+00 -0.16990932740E+04  0.16990932741E+04  0.50400001928E-02 0. -1.
    10030    2    1    2    0    0  0.00000000000E+00  0.00000000000E+00 -0.74286849642E+03  0.26553180517E+04  0.25492862438E+04 0.  0.
        5    1    3    3  502    0 -0.11228829520E+04  0.27767272577E+03 -0.92917261790E+03  0.14836954238E+04  0.46999998093E+01 0. -1.
       -5    1    3    3    0  502  0.11228829520E+04 -0.27767272577E+03  0.18630412148E+03  0.11716226279E+04  0.46999998093E+01 0.  1.
</event>
<event>
 5   0  0.1089569E-05  0.2974002E+04  0.7818609E-02  0.8251194E-01
       -2   -1    0    0    0  501  0.00000000000E+00  0.00000000000E+00  0.17552854132E+04  0.17552854132E+04  0.25500000920E-02 0.  1.
        2   -1    0    0  501    0  0.00000000000E+00  0.00000000000E+00 -0.12597222965E+04  0.12597222965E+04  0.25500000920E-02 0. -1.
    10030    2    1    2    0    0  0.00000000000E+00  0.00000000000E+00  0.49556311671E+03  0.30150077097E+04  0.29740021329E+04 0.  0.
        5    1    3    3  502    0  0.25196156074E+03  0.13636792012E+04 -0.29631620078E+03  0.14180729786E+04  0.46999998093E+01 0. -1.
       -5    1    3    3    0  502 -0.25196156074E+03 -0.13636792012E+04  0.79187931749E+03  0.15969347311E+04  0.46999998093E+01 0.  1.
</event>
<event>
 5   0  0.3725232E-06  0.2878724E+04  0.7818609E-02  0.8279236E-01
       -1   -1    0    0    0  501  0.00000000000E+00  0.00000000000E+00  0.12264347179E+04  0.12264347179E+04  0.50400001928E-02 0. -1.
        1   -1    0    0  501    0  0.00000000000E+00  0.00000000000E+00 -0.16892562252E+04  0.16892562252E+04  0.50400001928E-02 0.  1.
    10030    2    1    2    0    0  0.00000000000E+00  0.00000000000E+00 -0.46282150724E+03  0.29156909431E+04  0.28787236630E+04 0.  0.
        2    1    3    3  502    0  0.13237544017E+04 -0.47838976863E+03 -0.53624071927E+03  0.15062325835E+04  0.25500000920E-02 0. -1.
       -2    1    3    3    0  502 -0.13237544017E+04  0.47838976863E+03  0.73419212029E+02  0.14094583596E+04  0.25500000920E-02 0.  1.
</event>
<event>
 5   0  0.1029922E-05  0.3025218E+04  0.7818609E-02  0.8236566E-01
       -2   -1    0    0    0  501  0.00000000000E+00  0.00000000000E+00  0.88863678928E+03  0.88863678928E+03  0.25500000920E-02 0. -1.
        2   -1    0    0  501    0  0.00000000000E+00  0.00000000000E+00 -0.25747137257E+04  0.25747137257E+04  0.25500000920E-02 0.  1.
    10030    2    1    2    0    0  0.00000000000E+00  0.00000000000E+00 -0.16860769364E+04  0.34633505150E+04  0.30252175714E+04 0.  0.
        1    1    3    3  502    0 -0.40260749937E+03 -0.13014507264E+04 -0.15955987377E+04  0.20980472167E+04  0.50400001928E-02 0.  1.
       -1    1    3    3    0  502  0.40260749937E+03  0.13014507264E+04 -0.90478198692E+02  0.13653032983E+04  0.50400001928E-02 0. -1.
</event>
<event>
 5   0  0.3896630E-06  0.2992858E+04  0.7818609E-02  0.8245773E-01
        1   -1    0    0  501    0  0.00000000000E+00  0.00000000000E+00  0.22830351729E+04  0.22830351729E+04  0.50400001928E-02 0.  1.
       -1   -1    0    0    0  501  0.00000000000E+00  0.00000000000E+00 -0.98084326111E+03  0.98084326112E+03  0.50400001928E-02 0. -1.
    10030    2    1    2    0    0  0.00000000000E+00  0.00000000000E+00  0.13021919118E+04  0.32638784340E+04  0.29928579413E+04 0.  0.
        5    1    3    3  502    0 -0.61769282634E+03  0.84908588125E+03 -0.51165656437E+03  0.11680350129E+04  0.46999998093E+01 0. -1.
       -5    1    3    3    0  502  0.61769282634E+03 -0.84908588125E+03  0.18138484762E+04  0.20958434211E+04  0.46999998093E+01 0.  1.
</event>
<event>
 5   0  0.3725232E-06  0.3014775E+04  0.7818609E-02  0.8239524E-01
        1   -1    0    0  501    0  0.00000000000E+00  0.00000000000E+00  0.14661973629E+04  0.14661973629E+04  0.50400001928E-02 0. -1.
       -1   -1    0    0    0  501  0.00000000000E+00  0.00000000000E+00 -0.15497352310E+04  0.15497352310E+04  0.50400001928E-02 0.  1.
    10030    2    1    2    0    0  0.00000000000E+00  0.00000000000E+00 -0.83537868110E+02  0.30159325939E+04  0.30147754204E+04 0.  0.
        2    1    3    3  502    0 -0.80752108320E+03  0.11141003488E+04  0.57402222634E+03  0.14909095892E+04  0.25500000920E-02 0.  1.
       -2    1    3    3    0  502  0.80752108320E+03 -0.11141003488E+04 -0.65756009445E+03  0.15250230047E+04  0.25500000920E-02 0. -1.
</event>
<event>
 5   0  0.9647945E-06  0.2904839E+04  0.7818609E-02  0.8271439E-01
        2   -1    0    0  501    0  0.00000000000E+00  0.00000000000E+00  0.10427756194E+04  0.10427756194E+04  0.25500000920E-02 0. -1.
       -2   -1    0    0    0  501  0.00000000000E+00  0.00000000000E+00 -0.20229880786E+04  0.20229880786E+04  0.25500000920E-02 0.  1.
    10030    2    1    2    0    0  0.00000000000E+00  0.00000000000E+00 -0.98021245927E+03  0.30657636980E+04  0.29048391671E+04 0.  0.
        2    1    3    3  502    0  0.10035283932E+04 -0.58776811469E+03  0.42814047309E+03  0.12392920791E+04  0.25500000920E-02 0. -1.
       -2    1    3    3    0  502 -0.10035283932E+04  0.58776811469E+03 -0.14083529324E+04  0.18264716189E+04  0.25500000920E-02 0.  1.
</event>
<event>
 5   0  0.9647945E-06  0.1966049E+04  0.7818609E-02  0.8622660E-01
        2   -1    0    0  501    0  0.00000000000E+00  0.00000000000E+00  0.12150801319E+04  0.12150801319E+04  0.25500000920E-02 0. -1.
       -2   -1    0    0    0  501  0.00000000000E+00  0.00000000000E+00 -0.79528716203E+03  0.79528716203E+03  0.25500000920E-02 0.  1.
    10030    2    1    2    0    0  0.00000000000E+00  0.00000000000E+00  0.41979296982E+03  0.20103672939E+04  0.19660494701E+04 0.  0.
        2    1    3    3  502    0  0.94400815697E+03 -0.25091037283E+03  0.96813308699E+02  0.98157028907E+03  0.25500000920E-02 0. -1.
       -2    1    3    3    0  502 -0.94400815697E+03  0.25091037283E+03  0.32297966112E+03  0.10287970048E+04  0.25500000920E-02 0.  1.
</event>
<event>
 5   0  0.1057036E-05  0.2988206E+04  0.7818609E-02  0.8247107E-01
       -2   -1    0    0    0  501  0.00000000000E+00  0.00000000000E+00  0.13136638841E+04  0.13136638841E+04  0.25500000920E-02 0. -1.
        2   -1    0    0  501    0  0.00000000000E+00  0.00000000000E+00 -0.16993262356E+04  0.16993262356E+04  0.25500000920E-02 0.  1.
    10030    2    1    2    0    0  0.00000000000E+00  0.00000000000E+00 -0.38566235143E+03  0.30129901197E+04  0.29882058182E+04 0.  0.
        4    1    3    3  502    0  0.13458525063E+04  0.75830014227E+02 -0.84259257463E+03  0.15896644361E+04  0.12699999809E+01 0.  1.
       -4    1    3    3    0  502 -0.13458525063E+04 -0.75830014227E+02  0.45693022319E+03  0.14233256836E+04  0.12699999809E+01 0. -1.
</event>
<event>
 5   0  0.9647945E-06  0.2687781E+04  0.7818609E-02  0.8338981E-01
        2   -1    0    0  501    0  0.00000000000E+00  0.00000000000E+00  0.11554483865E+04  0.11554483865E+04  0.25500000920E-02 0. -1.
       -2   -1    0    0    0  501  0.00000000000E+00  0.00000000000E+00 -0.15630656199E+04  0.15630656199E+04  0.25500000920E-02 0.  1.
    10030    2    1    2    0    0  0.00000000000E+00  0.00000000000E+00 -0.40761723339E+03  0.27185140064E+04  0.26877809796E+04 0.  0.
        2    1    3    3  502    0 -0.10730695298E+04 -0.16263723961E+03  0.59778903817E+03  0.12390644945E+04  0.25500000920E-02 0. -1.
       -2    1    3    3    0  502  0.10730695298E+04  0.16263723961E+03 -0.10054062716E+04  0.14794495119E+04  0.25500000920E-02 0.  1.
</event>
<event>
 5   0  0.9647945E-06  0.2914031E+04  0.7818609E-02  0.8268715E-01
        2   -1    0    0  501    0  0.00000000000E+00  0.00000000000E+00  0.19199254771E+04  0.19199254771E+04  0.25500000920E-02 0. -1.
       -2   -1    0    0    0  501  0.00000000000E+00  0.00000000000E+00 -0.11057168972E+04  0.11057168972E+04  0.25500000920E-02 0.  1.
    10030    2    1    2    0    0  0.00000000000E+00  0.00000000000E+00  0.81420857997E+03  0.30256423743E+04  0.29140309136E+04 0.  0.
        2    1    3    3  502    0  0.86900996742E+03  0.23811819747E+03 -0.78174647816E+03  0.11928982168E+04  0.25500000920E-02 0.  1.
       -2    1    3    3    0  502 -0.86900996742E+03 -0.23811819747E+03  0.15959550581E+04  0.18327441575E+04  0.25500000920E-02 0. -1.
</event>
<event>
 5   0  0.1028450E-05  0.3004402E+04  0.7818609E-02  0.8242475E-01
        2   -1    0    0  501    0  0.00000000000E+00  0.00000000000E+00  0.17368861032E+04  0.17368861032E+04  0.25500000920E-02 0.  1.
       -2   -1    0    0    0  501  0.00000000000E+00  0.00000000000E+00 -0.12992257327E+04  0.12992257327E+04  0.25500000920E-02 0. -1.
    10030    2    1    2    0    0  0.00000000000E+00  0.00000000000E+00  0.43766037053E+03  0.30361118360E+04  0.30044015179E+04 0.  0.
        3    1    3    3  502    0 -0.49701161792E+03  0.13816909250E+04  0.53922022755E+03  0.15642406543E+04  0.10100000352E+00 0. -1.
       -3    1    3    3    0  502  0.49701161792E+03 -0.13816909250E+04 -0.10155985702E+03  0.14718711816E+04  0.10100000352E+00 0.  1.
</event>
<event>
 5   0  0.3636718E-06  0.2988436E+04  0.7818609E-02  0.8247041E-01
        1   -1    0    0  501    0  0.00000000000E+00  0.00000000000E+00  0.16225132670E+04  0.16225132670E+04  0.50400001928E-02 0.  1.
       -1   -1    0    0    0  501  0.00000000000E+00  0.00000000000E+00 -0.13760671236E+04  0.13760671236E+04  0.50400001928E-02 0. -1.
    10030    2    1    2    0    0  0.00000000000E+00  0.00000000000E+00  0.24644614343E+03  0.29985803906E+04  0.29884358212E+04 0.  0.
        4    1    3    3  502    0 -0.51263819905E+03  0.12639459610E+04  0.73548146775E+03  0.15496102471E+04  0.12699999809E+01 0.  1.
       -4    1    3    3    0  502  0.51263819905E+03 -0.12639459610E+04 -0.48903532432E+03  0.14489701435E+04  0.12699999809E+01 0. -1.
</event>
<event>
 5   0  0.3852126E-06  0.3015629E+04  0.7818609E-02  0.8239282E-01
        1   -1    0    0  501    0  0.00000000000E+00  0.00000000000E+00  0.17903027763E+04  0.17903027763E+04  0.50400001928E-02 0. -1.
       -1   -1    0    0    0  501  0.00000000000E+00  0.00000000000E+00 -0.12698996859E+04  0.12698996859E+04  0.50400001928E-02 0.  1.
    10030    2    1    2    0    0  0.00000000000E+00  0.00000000000E+00  0.52040309041E+03  0.30602024622E+04  0.30156292434E+04 0.  0.
        1    1    3    3  502    0  0.13980462627E+04  0.46858458916E+02 -0.31094592450E+03  0.14329746808E+04  0.50400001928E-02 0.  1.
       -1    1    3    3    0  502 -0.13980462627E+04 -0.46858458916E+02  0.83134901491E+03  0.16272277814E+04  0.50400001928E-02 0. -1.
</event>
<event>
 5   0  0.3592331E-06  0.3019177E+04  0.7818609E-02  0.8238276E-01
        1   -1    0    0  501    0  0.00000000000E+00  0.00000000000E+00  0.18762346278E+04  0.18762346279E+04  0.50400001928E-02 0.  1.
       -1   -1    0    0    0  501  0.00000000000E+00  0.00000000000E+00 -0.12145904725E+04  0.12145904725E+04  0.50400001928E-02 0. -1.
    10030    2    1    2    0    0  0.00000000000E+00  0.00000000000E+00  0.66164415533E+03  0.30908251004E+04  0.30191765124E+04 0.  0.
        3    1    3    3  502    0  0.94181138499E+03 -0.11776329857E+04  0.40341724458E+03  0.15609527915E+04  0.10100000352E+00 0. -1.
       -3    1    3    3    0  502 -0.94181138499E+03  0.11776329857E+04  0.25822691076E+03  0.15298723089E+04  0.10100000352E+00 0.  1.
</event>
<event>
 5   0  0.3725232E-06  0.3014197E+04  0.7818609E-02  0.8239688E-01
        1   -1    0    0  501    0  0.00000000000E+00  0.00000000000E+00  0.13105849023E+04  0.13105849023E+04  0.50400001928E-02 0. -1.
       -1   -1    0    0    0  501  0.00000000000E+00  0.00000000000E+00 -0.17330778139E+04  0.17330778139E+04  0.50400001928E-02 0.  1.
    10030    2    1    2    0    0  0.00000000000E+00  0.00000000000E+00 -0.42249291167E+03  0.30436627162E+04  0.30141968200E+04 0.  0.
        2    1    3    3  502    0  0.10876906012E+04 -0.10431879196E+04 -0.21711166821E+03  0.15226455123E+04  0.25500000920E-02 0.  1.
       -2    1    3    3    0  502 -0.10876906012E+04  0.10431879196E+04 -0.20538124346E+03  0.15210172039E+04  0.25500000920E-02 0. -1.
</event>
<event>
 5   0  0.3592331E-06  0.3044933E+04  0.7818609E-02  0.8231015E-01
        1   -1    0    0  501    0  0.00000000000E+00  0.00000000000E+00  0.12747204215E+04  0.12747204215E+04  0.50400001928E-02 0. -1.
       -1   -1    0    0    0  501  0.00000000000E+00  0.00000000000E+00 -0.18183630944E+04  0.18183630944E+04  0.50400001928E-02 0.  1.
    10030    2    1    2    0    0  0.00000000000E+00  0.00000000000E+00 -0.54364267292E+03  0.30930835159E+04  0.30449332145E+04 0.  0.
        3    1    3    3  502    0  0.81849666396E+02 -0.62991952262E+03  0.11336790356E+04  0.12995099610E+04  0.10100000352E+00 0. -1.
       -3    1    3    3    0  502 -0.81849666396E+02  0.62991952262E+03 -0.16773217085E+04  0.17935735549E+04  0.10100000352E+00 0.  1.
</event>
<event>
 5   0  0.1057036E-05  0.3290314E+04  0.7818609E-02  0.8165364E-01
       -2   -1    0    0    0  501  0.00000000000E+00  0.00000000000E+00  0.16307220659E+04  0.16307220659E+04  0.25500000920E-02 0. -1.
        2   -1    0    0  501    0  0.00000000000E+00  0.00000000000E+00 -0.16597195508E+04  0.16597195508E+04  0.25500000920E-02 0.  1.
    10030    2    1    2    0    0  0.00000000000E+00  0.00000000000E+00 -0.28997484818E+02  0.32904416167E+04  0.32903138420E+04 0.  0.
        4    1    3    3  502    0  0.11736343732E+04  0.61879334238E+03 -0.98727329533E+03  0.16537935225E+04  0.12699999809E+01 0.  1.
       -4    1    3    3    0  502 -0.11736343732E+04 -0.61879334238E+03  0.95827581052E+03  0.16366480942E+04  0.12699999809E+01 0. -1.
</event>
<event>
 5   0  0.1057036E-05  0.3008759E+04  0.7818609E-02  0.8241234E-01
       -2   -1    0    0    0  501  0.00000000000E+00  0.00000000000E+00  0.14405363022E+04  0.14405363022E+04  0.25500000920E-02 0. -1.
        2   -1    0    0  501    0  0.00000000000E+00  0.00000000000E+00 -0.15710519764E+04  0.15710519764E+04  0.25500000920E-02 0.  1.
    10030    2    1    2    0    0  0.00000000000E+00  0.00000000000E+00 -0.13051567418E+03  0.30115882786E+04  0.30087588169E+04 0.  0.
        4    1    3    3  502    0  0.94028359431E+03 -0.77408390765E+03  0.81864489488E+03  0.14674877208E+04  0.12699999809E+01 0. -1.
       -4    1    3    3    0  502 -0.94028359431E+03  0.77408390765E+03 -0.94916056906E+03  0.15441005578E+04  0.12699999809E+01 0.  1.
</event>
<event>
 5   0  0.9647945E-06  0.2905305E+04  0.7818609E-02  0.8271301E-01
       -2   -1    0    0    0  501  0.00000000000E+00  0.00000000000E+00  0.10190313168E+04  0.10190313168E+04  0.25500000920E-02 0.  1.
        2   -1    0    0  501    0  0.00000000000E+00  0.00000000000E+00 -0.20707894903E+04  0.20707894903E+04  0.25500000920E-02 0. -1.
    10030    2    1    2    0    0  0.00000000000E+00  0.00000000000E+00 -0.10517581735E+04  0.30898208071E+04  0.29053050381E+04 0.  0.
        2    1    3    3  502    0 -0.78221411869E+03 -0.22255100324E+03 -0.18059896849E+04  0.19806530788E+04  0.25500000920E-02 0. -1.
       -2    1    3    3    0  502  0.78221411869E+03  0.22255100324E+03  0.75423151142E+03  0.11091677282E+04  0.25500000920E-02 0.  1.
</event>
<event>
 5   0  0.3852126E-06  0.1838438E+04  0.7818609E-02  0.8686121E-01
       -1   -1    0    0    0  501  0.00000000000E+00  0.00000000000E+00  0.56129991609E+03  0.56129991612E+03  0.50400001928E-02 0. -1.
        1   -1    0    0  501    0  0.00000000000E+00  0.00000000000E+00 -0.15053692028E+04  0.15053692028E+04  0.50400001928E-02 0.  1.
    10030    2    1    2    0    0  0.00000000000E+00  0.00000000000E+00 -0.94406928669E+03  0.20666691189E+04  0.18384380406E+04 0.  0.
        1    1    3    3  502    0  0.18874362855E+02 -0.83825483293E+03 -0.48519893345E+02  0.83986998195E+03  0.50400001928E-02 0. -1.
       -1    1    3    3    0  502 -0.18874362855E+02  0.83825483293E+03 -0.89554939334E+03  0.12267991370E+04  0.50400001928E-02 0.  1.
</event>
<event>
 5   0  0.3592331E-06  0.2994889E+04  0.7818609E-02  0.8245192E-01
       -1   -1    0    0    0  501  0.00000000000E+00  0.00000000000E+00  0.11261163019E+04  0.11261163019E+04  0.50400001928E-02 0. -1.
        1   -1    0    0  501    0  0.00000000000E+00  0.00000000000E+00 -0.19912154854E+04  0.19912154854E+04  0.50400001928E-02 0.  1.
    10030    2    1    2    0    0  0.00000000000E+00  0.00000000000E+00 -0.86509918354E+03  0.31173317874E+04  0.29948891257E+04 0.  0.
        3    1    3    3  502    0 -0.69324285230E+03 -0.65544969225E+03 -0.16339208996E+04  0.18920616977E+04  0.10100000352E+00 0.  1.
       -3    1    3    3    0  502  0.69324285230E+03  0.65544969225E+03  0.76882171610E+03  0.12252700897E+04  0.10100000352E+00 0. -1.
</event>
<event>
 5   0  0.3636718E-06  0.2996393E+04  0.7818609E-02  0.8244762E-01
       -1   -1    0    0    0  501  0.00000000000E+00  0.00000000000E+00  0.14349724723E+04  0.14349724723E+04  0.50400001928E-02 0. -1.
        1   -1    0    0  501    0  0.00000000000E+00  0.00000000000E+00 -0.15642066097E+04  0.15642066097E+04  0.50400001928E-02 0.  1.
    10030    2    1    2    0    0  0.00000000000E+00  0.00000000000E+00 -0.12923413747E+03  0.29991790820E+04  0.29963934494E+04 0.  0.
        4    1    3    3  502    0 -0.74209101780E+03 -0.72960677795E+03  0.10141449144E+04  0.14531058631E+04  0.12699999809E+01 0. -1.
       -4    1    3    3    0  502  0.74209101780E+03  0.72960677795E+03 -0.11433790518E+04  0.15460732189E+04  0.12699999809E+01 0.  1.
</event>
<event>
 5   0  0.3636718E-06  0.2993732E+04  0.7818609E-02  0.8245523E-01
        1   -1    0    0  501    0  0.00000000000E+00  0.00000000000E+00  0.16638586355E+04  0.16638586355E+04  0.50400001928E-02 0. -1.
       -1   -1    0    0    0  501  0.00000000000E+00  0.00000000000E+00 -0.13466334255E+04  0.13466334256E+04  0.50400001928E-02 0.  1.
    10030    2    1    2    0    0  0.00000000000E+00  0.00000000000E+00  0.31722520995E+03  0.30104920611E+04  0.29937318878E+04 0.  0.
        4    1    3    3  502    0  0.50021456675E+03  0.13850013969E+04 -0.11152220096E+03  0.14767810591E+04  0.12699999809E+01 0.  1.
       -4    1    3    3    0  502 -0.50021456675E+03 -0.13850013969E+04  0.42874741091E+03  0.15337110020E+04  0.12699999809E+01 0. -1.
</event>
<event>
 5   0  0.1029922E-05  0.2991646E+04  0.7818609E-02  0.8246121E-01
       -2   -1    0    0    0  501  0.00000000000E+00  0.00000000000E+00  0.96551124788E+03  0.96551124788E+03  0.25500000920E-02 0. -1.
        2   -1    0    0  501    0  0.00000000000E+00  0.00000000000E+00 -0.23174103434E+04  0.23174103434E+04  0.25500000920E-02 0.  1.
    10030    2    1    2    0    0  0.00000000000E+00  0.00000000000E+00 -0.13518990955E+04  0.32829215912E+04  0.29916455355E+04 0.  0.
        1    1    3    3  502    0 -0.35994477746E+03 -0.14429426495E+04 -0.85235564941E+03  0.17141043976E+04  0.50400001928E-02 0.  1.
       -1    1    3    3    0  502  0.35994477746E+03  0.14429426495E+04 -0.49954344607E+03  0.15688171937E+04  0.50400001928E-02 0. -1.
</event>
<event>
 5   0  0.9647945E-06  0.2929009E+04  0.7818609E-02  0.8264299E-01
       -2   -1    0    0    0  501  0.00000000000E+00  0.00000000000E+00  0.15459864953E+04  0.15459864953E+04  0.25500000920E-02 0.  1.
        2   -1    0    0  501    0  0.00000000000E+00  0.00000000000E+00 -0.13873166449E+04  0.13873166449E+04  0.25500000920E-02 0. -1.
    10030    2    1    2    0    0  0.00000000000E+00  0.00000000000E+00  0.15866985044E+03  0.29333031402E+04  0.29290085679E+04 0.  0.
        2    1    3    3  502    0 -0.30239860481E+03 -0.35721958782E+03  0.14690734811E+04  0.15418260742E+04  0.25500000920E-02 0.  1.
       -2    1    3    3    0  502  0.30239860481E+03  0.35721958782E+03 -0.13104036307E+04  0.13914770661E+04  0.25500000920E-02 0. -1.
</event>
<event>
 5   0  0.1028450E-05  0.2911633E+04  0.7818609E-02  0.8269425E-01
        2   -1    0    0  501    0  0.00000000000E+00  0.00000000000E+00  0.21926763324E+04  0.21926763324E+04  0.25500000920E-02 0. -1.
       -2   -1    0    0    0  501  0.00000000000E+00  0.00000000000E+00 -0.96658202937E+03  0.96658202937E+03  0.25500000920E-02 0.  1.
    10030    2    1    2    0    0  0.00000000000E+00  0.00000000000E+00  0.12260943031E+04  0.31592583618E+04  0.29116329021E+04 0.  0.
        3    1    3    3  502    0 -0.16409225375E+03 -0.55974140259E+03 -0.83424636625E+03  0.10179409194E+04  0.10100000352E+00 0.  1.
       -3    1    3    3    0  502  0.16409225375E+03  0.55974140259E+03  0.20603406693E+04  0.21413174424E+04  0.10100000352E+00 0. -1.
</event>
<event>
 5   0  0.1089569E-05  0.2959578E+04  0.7818609E-02  0.8255369E-01
        2   -1    0    0  501    0  0.00000000000E+00  0.00000000000E+00  0.11738274336E+04  0.11738274336E+04  0.25500000920E-02 0. -1.
       -2   -1    0    0    0  501  0.00000000000E+00  0.00000000000E+00 -0.18655002925E+04  0.18655002925E+04  0.25500000920E-02 0.  1.
    10030    2    1    2    0    0  0.00000000000E+00  0.00000000000E+00 -0.69167285889E+03  0.30393277262E+04  0.29595779569E+04 0.  0.
        5    1    3    3  502    0  0.93534316994E+03  0.10047676725E+04  0.22161847720E+03  0.13905257138E+04  0.46999998093E+01 0.  1.
       -5    1    3    3    0  502 -0.93534316994E+03 -0.10047676725E+04 -0.91329133609E+03  0.16488020123E+04  0.46999998093E+01 0. -1.
</event>
<event>
 5   0  0.3896630E-06  0.2236103E+04  0.7818609E-02  0.8503550E-01
       -1   -1    0    0    0  501  0.00000000000E+00  0.00000000000E+00  0.18320486979E+04  0.18320486979E+04  0.50400001928E-02 0.  1.
        1   -1    0    0  501    0  0.00000000000E+00  0.00000000000E+00 -0.68231760970E+03  0.68231760971E+03  0.50400001928E-02 0. -1.
    10030    2    1    2    0    0  0.00000000000E+00  0.00000000000E+00  0.11497310882E+04  0.25143663076E+04  0.22361029390E+04 0.  0.
        5    1    3    3  502    0  0.26380313693E+03  0.32339078189E+03  0.17411682064E+04  0.17904922524E+04  0.46999998093E+01 0.  1.
       -5    1    3    3    0  502 -0.26380313693E+03 -0.32339078189E+03 -0.59143711827E+03  0.72387405516E+03  0.46999998093E+01 0. -1.
</event>
<event>
 5   0  0.3725232E-06  0.2641809E+04  0.7818609E-02  0.8354137E-01
       -1   -1    0    0    0  501  0.00000000000E+00  0.00000000000E+00  0.90526344889E+03  0.90526344890E+03  0.50400001928E-02 0. -1.
        1   -1    0    0  501    0  0.00000000000E+00  0.00000000000E+00 -0.19273816048E+04  0.19273816048E+04  0.50400001928E-02 0.  1.
    10030    2    1    2    0    0  0.00000000000E+00  0.00000000000E+00 -0.10221181560E+04  0.28326450537E+04  0.26418085615E+04 0.  0.
        2    1    3    3  502    0 -0.14434810920E+03  0.81565777222E+03 -0.16142936565E+04  0.18144084401E+04  0.25500000920E-02 0.  1.
       -2    1    3    3    0  502  0.14434810920E+03 -0.81565777222E+03  0.59217550053E+03  0.10182366137E+04  0.25500000920E-02 0. -1.
</event>
<event>
 5   0  0.3896630E-06  0.2302535E+04  0.7818609E-02  0.8476922E-01
       -1   -1    0    0    0  501  0.00000000000E+00  0.00000000000E+00  0.12854525420E+04  0.12854525420E+04  0.50400001928E-02 0. -1.
        1   -1    0    0  501    0  0.00000000000E+00  0.00000000000E+00 -0.10310893678E+04  0.10310893678E+04  0.50400001928E-02 0.  1.
    10030    2    1    2    0    0  0.00000000000E+00  0.00000000000E+00  0.25436317418E+03  0.23165419098E+04  0.23025346459E+04 0.  0.
        5    1    3    3  502    0  0.60949432781E+03  0.74971642834E+03 -0.50259472527E+03  0.10891196474E+04  0.46999998093E+01 0.  1.
       -5    1    3    3    0  502 -0.60949432781E+03 -0.74971642834E+03  0.75695789946E+03  0.12274222623E+04  0.46999998093E+01 0. -1.
</event>
<event>
 5   0  0.9647945E-06  0.2990879E+04  0.7818609E-02  0.8246340E-01
        2   -1    0    0  501    0  0.00000000000E+00  0.00000000000E+00  0.14183385400E+04  0.14183385400E+04  0.25500000920E-02 0. -1.
       -2   -1    0    0    0  501  0.00000000000E+00  0.00000000000E+00 -0.15767312012E+04  0.15767312012E+04  0.25500000920E-02 0.  1.
    10030    2    1    2    0    0  0.00000000000E+00  0.00000000000E+00 -0.15839266118E+03  0.29950697412E+04  0.29908785531E+04 0.  0.
        2    1    3    3  502    0  0.38345034049E+02  0.66877824830E+03  0.12596903246E+04  0.14267285660E+04  0.25500000920E-02 0. -1.
       -2    1    3    3    0  502 -0.38345034049E+02 -0.66877824830E+03 -0.14180829858E+04  0.15683411752E+04  0.25500000920E-02 0.  1.
</event>
<event>
 5   0  0.1029922E-05  0.3043443E+04  0.7818609E-02  0.8231433E-01
        2   -1    0    0  501    0  0.00000000000E+00  0.00000000000E+00  0.17447237264E+04  0.17447237264E+04  0.25500000920E-02 0. -1.
       -2   -1    0    0    0  501  0.00000000000E+00  0.00000000000E+00 -0.13272223321E+04  0.13272223321E+04  0.25500000920E-02 0.  1.
    10030    2    1    2    0    0  0.00000000000E+00  0.00000000000E+00  0.41750139431E+03  0.30719460586E+04  0.30434429800E+04 0.  0.
        1    1    3    3  502    0 -0.91797009803E+03  0.10517882307E+04 -0.40248544867E+03  0.14529012766E+04  0.50400001928E-02 0.  1.
       -1    1    3    3    0  502  0.91797009803E+03 -0.10517882307E+04  0.81998684298E+03  0.16190447819E+04  0.50400001928E-02 0. -1.
</event>
<event>
 5   0  0.1029922E-05  0.2985699E+04  0.7818609E-02  0.8247827E-01
        2   -1    0    0  501    0  0.00000000000E+00  0.00000000000E+00  0.32469693529E+04  0.32469693529E+04  0.25500000920E-02 0. -1.
       -2   -1    0    0    0  501  0.00000000000E+00  0.00000000000E+00 -0.68636283351E+03  0.68636283352E+03  0.25500000920E-02 0.  1.
    10030    2    1    2    0    0  0.00000000000E+00  0.00000000000E+00  0.25606065194E+04  0.39333321864E+04  0.29856986354E+04 0.  0.
        1    1    3    3  502    0  0.75995962679E+02  0.35325188513E+03 -0.62788494763E+03  0.72443204525E+03  0.50400001928E-02 0.  1.
       -1    1    3    3    0  502 -0.75995962679E+02 -0.35325188513E+03  0.31884914670E+04  0.32089001411E+04  0.50400001928E-02 0. -1.
</event>
<event>
 5   0  0.1028450E-05  0.2943489E+04  0.7818609E-02  0.8260055E-01
       -2   -1    0    0    0  501  0.00000000000E+00  0.00000000000E+00  0.19500077294E+04  0.19500077294E+04  0.25500000920E-02 0.  1.
        2   -1    0    0  501    0  0.00000000000E+00  0.00000000000E+00 -0.11107812746E+04  0.11107812746E+04  0.25500000920E-02 0. -1.
    10030    2    1    2    0    0  0.00000000000E+00  0.00000000000E+00  0.83922645476E+03  0.30607890039E+04  0.29434891344E+04 0.  0.
        3    1    3    3  502    0  0.91419881478E+03 -0.88596022892E+03 -0.34829168145E+03  0.13198454856E+04  0.10100000352E+00 0. -1.
       -3    1    3    3    0  502 -0.91419881478E+03  0.88596022892E+03  0.11875181362E+04  0.17409435184E+04  0.10100000352E+00 0.  1.
</event>
<event>
 5   0  0.3636718E-06  0.3029549E+04  0.7818609E-02  0.8235343E-01
        1   -1    0    0  501    0  0.00000000000E+00  0.00000000000E+00  0.25014698987E+04  0.25014698987E+04  0.50400001928E-02 0. -1.
       -1   -1    0    0    0  501  0.00000000000E+00  0.00000000000E+00 -0.91727750219E+03  0.91727750220E+03  0.50400001928E-02 0.  1.
    10030    2    1    2    0    0  0.00000000000E+00  0.00000000000E+00  0.15841923965E+04  0.34187474009E+04  0.30295491813E+04 0.  0.
        4    1    3    3  502    0  0.92717900868E+03 -0.54451969453E+03 -0.41191970141E+03  0.11514521550E+04  0.12699999809E+01 0.  1.
       -4    1    3    3    0  502 -0.92717900868E+03  0.54451969453E+03  0.19961120979E+04  0.22672952459E+04  0.12699999809E+01 0. -1.
</event>
<event>
 5   0  0.1028450E-05  0.3023976E+04  0.7818609E-02  0.8236917E-01
        2   -1    0    0  501    0  0.00000000000E+00  0.00000000000E+00  0.21299513223E+04  0.21299513223E+04  0.25500000920E-02 0.  1.
       -2   -1    0    0    0  501  0.00000000000E+00  0.00000000000E+00 -0.10733146906E+04  0.10733146906E+04  0.25500000920E-02 0. -1.
    10030    2    1    2    0    0  0.00000000000E+00  0.00000000000E+00  0.10566366317E+04  0.32032660128E+04  0.30239762197E+04 0.  0.
        3    1    3    3  502    0  0.12015080053E+04  0.91627364471E+03  0.47098780123E+03  0.15827218321E+04  0.10100000352E+00 0.  1.
       -3    1    3    3    0  502 -0.12015080053E+04 -0.91627364471E+03  0.58564883047E+03  0.16205441807E+04  0.10100000352E+00 0. -1.
</event>
<event>
 5   0  0.3725232E-06  0.3190009E+04  0.7818609E-02  0.8191461E-01
        1   -1    0    0  501    0  0.00000000000E+00  0.00000000000E+00  0.10193633669E+04  0.10193633670E+04  0.50400001928E-02 0. -1.
       -1   -1    0    0    0  501  0.00000000000E+00  0.00000000000E+00 -0.24957138897E+04  0.24957138898E+04  0.50400001928E-02 0.  1.
    10030    2    1    2    0    0  0.00000000000E+00  0.00000000000E+00 -0.14763505228E+04  0.35150772567E+04  0.31900089740E+04 0.  0.
        2    1    3    3  502    0 -0.30083297005E+02 -0.12588294848E+04  0.34061022478E+03  0.13044431769E+04  0.25500000920E-02 0. -1.
       -2    1    3    3    0  502  0.30083297005E+02  0.12588294848E+04 -0.18169607476E+04  0.22106340798E+04  0.25500000920E-02 0.  1.
</event>
<event>
 5   0  0.3725232E-06  0.3126187E+04  0.7818609E-02  0.8208588E-01
       -1   -1    0    0    0  501  0.00000000000E+00  0.00000000000E+00  0.14717520935E+04  0.14717520935E+04  0.50400001928E-02 0. -1.
        1   -1    0    0  501    0  0.00000000000E+00  0.00000000000E+00 -0.16601041994E+04  0.16601041994E+04  0.50400001928E-02 0.  1.
    10030    2    1    2    0    0  0.00000000000E+00  0.00000000000E+00 -0.18835210588E+03  0.31318562929E+04  0.31261873462E+04 0.  0.
        2    1    3    3  502    0  0.70663299918E+03 -0.12708468813E+03 -0.14851394000E+04  0.16495816896E+04  0.25500000920E-02 0.  1.
       -2    1    3    3    0  502 -0.70663299918E+03  0.12708468813E+03  0.12967872941E+04  0.14822746033E+04  0.25500000920E-02 0. -1.
</event>
<event>
 5   0  0.1028450E-05  0.3032492E+04  0.7818609E-02  0.8234513E-01
        2   -1    0    0  501    0  0.00000000000E+00  0.00000000000E+00  0.16515567812E+04  0.16515567812E+04  0.25500000920E-02 0.  1.
       -2   -1    0    0    0  501  0.00000000000E+00  0.00000000000E+00 -0.13920214341E+04  0.13920214341E+04  0.25500000920E-02 0. -1.
    10030    2    1    2    0    0  0.00000000000E+00  0.00000000000E+00  0.25953534708E+03  0.30435782153E+04  0.30324923341E+04 0.  0.
        3    1    3    3  502    0 -0.10788298815E+04 -0.98132817732E+03 -0.28662671647E+03  0.14862818675E+04  0.10100000352E+00 0.  1.
       -3    1    3    3    0  502  0.10788298815E+04  0.98132817732E+03  0.54616206354E+03  0.15572963478E+04  0.10100000352E+00 0. -1.
</event>
<event>
 5   0  0.3725232E-06  0.2129671E+04  0.7818609E-02  0.8548285E-01
       -1   -1    0    0    0  501  0.00000000000E+00  0.00000000000E+00  0.58744585423E+03  0.58744585425E+03  0.50400001928E-02 0. -1.
        1   -1    0    0  501    0  0.00000000000E+00  0.00000000000E+00 -0.19301772501E+04  0.19301772502E+04  0.50400001928E-02 0.  1.
    10030    2    1    2    0    0  0.00000000000E+00  0.00000000000E+00 -0.13427313959E+04  0.25176231044E+04  0.21296709826E+04 0.  0.
        2    1    3    3  502    0 -0.93792102386E+01  0.37883451523E+03  0.50503492672E+03  0.63139831860E+03  0.25500000920E-02 0. -1.
       -2    1    3    3    0  502  0.93792102386E+01 -0.37883451523E+03 -0.18477663226E+04  0.18862247858E+04  0.25500000920E-02 0.  1.
</event>
<event>
 5   0  0.3725232E-06  0.2956032E+04  0.7818609E-02  0.8256399E-01
       -1   -1    0    0    0  501  0.00000000000E+00  0.00000000000E+00  0.96255895558E+03  0.96255895559E+03  0.50400001928E-02 0.  1.
        1   -1    0    0  501    0  0.00000000000E+00  0.00000000000E+00 -0.22695032364E+04  0.22695032364E+04  0.50400001928E-02 0. -1.
    10030    2    1    2    0    0  0.00000000000E+00  0.00000000000E+00 -0.13069442808E+04  0.32320621920E+04  0.29560315729E+04 0.  0.
        2    1    3    3  502    0 -0.52723836199E+03 -0.30594662207E+03  0.81871560830E+03  0.10207246804E+04  0.25500000920E-02 0.  1.
       -2    1    3    3    0  502  0.52723836199E+03  0.30594662207E+03 -0.21256598891E+04  0.22113375116E+04  0.25500000920E-02 0. -1.
</event>
<event>
 5   0  0.3313750E-06  0.2961314E+04  0.7818609E-02  0.8254865E-01
        3   -1    0    0  501    0  0.00000000000E+00  0.00000000000E+00  0.17593913618E+04  0.17593913647E+04  0.10100000352E+00 0.  1.
       -3   -1    0    0    0  501  0.00000000000E+00  0.00000000000E+00 -0.12460819558E+04  0.12460819599E+04  0.10100000352E+00 0. -1.
    10030    2    1    2    0    0  0.00000000000E+00  0.00000000000E+00  0.51330940602E+03  0.30054733246E+04  0.29613144647E+04 0.  0.
        1    1    3    3  502    0 -0.88957561565E+03  0.47399788319E+03 -0.84410467826E+03  0.13147362766E+04  0.50400001928E-02 0. -1.
       -1    1    3    3    0  502  0.88957561565E+03 -0.47399788319E+03  0.13574140843E+04  0.16907370480E+04  0.50400001928E-02 0.  1.
</event>
<event>
 5   0  0.9647945E-06  0.2991587E+04  0.7818609E-02  0.8246137E-01
       -2   -1    0    0    0  501  0.00000000000E+00  0.00000000000E+00  0.16580388015E+04  0.16580388015E+04  0.25500000920E-02 0. -1.
        2   -1    0    0  501    0  0.00000000000E+00  0.00000000000E+00 -0.13494242377E+04  0.13494242377E+04  0.25500000920E-02 0.  1.
    10030    2    1    2    0    0  0.00000000000E+00  0.00000000000E+00  0.30861456379E+03  0.30074630392E+04  0.29915867000E+04 0.  0.
        2    1    3    3  502    0  0.60306905175E+03  0.43924990155E+03  0.14576307080E+04  0.16374736755E+04  0.25500000920E-02 0. -1.
       -2    1    3    3    0  502 -0.60306905175E+03 -0.43924990155E+03 -0.11490161442E+04  0.13699893637E+04  0.25500000920E-02 0.  1.
</event>
<event>
 5   0  0.9647945E-06  0.2743379E+04  0.7818609E-02  0.8321066E-01
       -2   -1    0    0    0  501  0.00000000000E+00  0.00000000000E+00  0.10838994079E+04  0.10838994079E+04  0.25500000920E-02 0. -1.
        2   -1    0    0  501    0  0.00000000000E+00  0.00000000000E+00 -0.17358914499E+04  0.17358914499E+04  0.25500000920E-02 0.  1.
    10030    2    1    2    0    0  0.00000000000E+00  0.00000000000E+00 -0.65199204194E+03  0.28197908578E+04  0.27433787305E+04 0.  0.
        2    1    3    3  502    0 -0.10616654290E+04  0.65800285091E+03 -0.90873579243E+03  0.15446365188E+04  0.25500000920E-02 0.  1.
       -2    1    3    3    0  502  0.10616654290E+04 -0.65800285091E+03  0.25674375049E+03  0.12751543390E+04  0.25500000920E-02 0. -1.
</event>
<event>
 5   0  0.3592331E-06  0.3106959E+04  0.7818609E-02  0.8213831E-01
       -1   -1    0    0    0  501  0.00000000000E+00  0.00000000000E+00  0.12716804172E+04  0.12716804172E+04  0.50400001928E-02 0.  1.
        1   -1    0    0  501    0  0.00000000000E+00  0.00000000000E+00 -0.18977240235E+04  0.18977240235E+04  0.50400001928E-02 0. -1.
    10030    2    1    2    0    0  0.00000000000E+00  0.00000000000E+00 -0.62604360630E+03  0.31694044408E+04  0.31069589492E+04 0.  0.
        3    1    3    3  502    0  0.15552697099E+03  0.87292937863E+02 -0.18872457237E+04  0.18956542742E+04  0.10100000352E+00 0. -1.
       -3    1    3    3    0  502 -0.15552697099E+03 -0.87292937863E+02  0.12612021174E+04  0.12737501665E+04  0.10100000352E+00 0.  1.
</event>
<event>
 5   0  0.1057036E-05  0.3018964E+04  0.7818609E-02  0.8238336E-01
       -2   -1    0    0    0  501  0.00000000000E+00  0.00000000000E+00  0.12085759645E+04  0.12085759645E+04  0.25500000920E-02 0.  1.
        2   -1    0    0  501    0  0.00000000000E+00  0.00000000000E+00 -0.18853064830E+04  0.18853064830E+04  0.25500000920E-02 0. -1.
    10030    2    1    2    0    0  0.00000000000E+00  0.00000000000E+00 -0.67673051844E+03  0.30938824475E+04  0.30189641277E+04 0.  0.
        4    1    3    3  502    0 -0.82173429117E+03  0.53900073642E+03  0.83582757298E+03  0.12901078962E+04  0.12699999809E+01 0.  1.
       -4    1    3    3    0  502  0.82173429117E+03 -0.53900073642E+03 -0.15125580914E+04  0.18037745513E+04  0.12699999809E+01 0. -1.
</event>
<event>
 5   0  0.3852126E-06  0.2470906E+04  0.7818609E-02  0.8413424E-01
        1   -1    0    0  501    0  0.00000000000E+00  0.00000000000E+00  0.12252218309E+04  0.12252218309E+04  0.50400001928E-02 0.  1.
       -1   -1    0    0    0  501  0.00000000000E+00  0.00000000000E+00 -0.12457696058E+04  0.12457696058E+04  0.50400001928E-02 0. -1.
    10030    2    1    2    0    0  0.00000000000E+00  0.00000000000E+00 -0.20547774890E+02  0.24709914368E+04  0.24709060018E+04 0.  0.
        1    1    3    3  502    0  0.28992269266E+03 -0.38907995500E+03 -0.11464935007E+04  0.12449440655E+04  0.50400001928E-02 0. -1.
       -1    1    3    3    0  502 -0.28992269266E+03  0.38907995500E+03  0.11259457258E+04  0.12260473713E+04  0.50400001928E-02 0.  1.
</event>
<event>
 5   0  0.9647945E-06  0.2759876E+04  0.7818609E-02  0.8315835E-01
        2   -1    0    0  501    0  0.00000000000E+00  0.00000000000E+00  0.19364622648E+04  0.19364622648E+04  0.25500000920E-02 0. -1.
       -2   -1    0    0    0  501  0.00000000000E+00  0.00000000000E+00 -0.98335415431E+03  0.98335415431E+03  0.25500000920E-02 0.  1.
    10030    2    1    2    0    0  0.00000000000E+00  0.00000000000E+00  0.95310811047E+03  0.29198164191E+04  0.27598755137E+04 0.  0.
        2    1    3    3  502    0 -0.11082170365E+04 -0.74702734996E+03  0.11308418007E+03  0.13412616797E+04  0.25500000920E-02 0.  1.
       -2    1    3    3    0  502  0.11082170365E+04  0.74702734996E+03  0.84002393040E+03  0.15785547394E+04  0.25500000920E-02 0. -1.
</event>
<event>
 5   0  0.3896630E-06  0.2960871E+04  0.7818609E-02  0.8254994E-01
       -1   -1    0    0    0  501  0.00000000000E+00  0.00000000000E+00  0.25534462128E+04  0.25534462128E+04  0.50400001928E-02 0. -1.
        1   -1    0    0  501    0  0.00000000000E+00  0.00000000000E+00 -0.85832586953E+03  0.85832586955E+03  0.50400001928E-02 0.  1.
    10030    2    1    2    0    0  0.00000000000E+00  0.00000000000E+00  0.16951203433E+04  0.34117720823E+04  0.29608707779E+04 0.  0.
        5    1    3    3  502    0  0.46410082603E+03  0.43560635946E+03  0.23877172999E+04  0.24711047067E+04  0.46999998093E+01 0. -1.
       -5    1    3    3    0  502 -0.46410082603E+03 -0.43560635946E+03 -0.69259695669E+03  0.94066737561E+03  0.46999998093E+01 0.  1.
</event>
<event>
 5   0  0.1029922E-05  0.2981219E+04  0.7818609E-02  0.8249114E-01
       -2   -1    0    0    0  501  0.00000000000E+00  0.00000000000E+00  0.13151422960E+04  0.13151422960E+04  0.25500000920E-02 0.  1.
        2   -1    0    0  501    0  0.00000000000E+00  0.00000000000E+00 -0.16894873963E+04  0.16894873963E+04  0.25500000920E-02 0. -1.
    10030    2    1    2    0    0  0.00000000000E+00  0.00000000000E+00 -0.37434510031E+03  0.30046296923E+04  0.29812187665E+04 0.  0.
        1    1    3    3  502    0 -0.94908689269E+03 -0.38466898268E+03 -0.12788126147E+04  0.16383216594E+04  0.50400001928E-02 0. -1.
       -1    1    3    3    0  502  0.94908689269E+03  0.38466898268E+03  0.90446751440E+03  0.13663080329E+04  0.50400001928E-02 0.  1.
</event>
<event>
 5   0  0.3725232E-06  0.3003628E+04  0.7818609E-02  0.8242696E-01
        1   -1    0    0  501    0  0.00000000000E+00  0.00000000000E+00  0.11607089343E+04  0.11607089343E+04  0.50400001928E-02 0. -1.
       -1   -1    0    0    0  501  0.00000000000E+00  0.00000000000E+00 -0.19431614874E+04  0.19431614875E+04  0.50400001928E-02 0.  1.
    10030    2    1    2    0    0  0.00000000000E+00  0.00000000000E+00 -0.78245255318E+03  0.31038704217E+04  0.30036277394E+04 0.  0.
        2    1    3    3  502    0 -0.54092386000E+03  0.14010086748E+04 -0.38649414072E+03  0.15507422900E+04  0.25500000920E-02 0. -1.
       -2    1    3    3    0  502  0.54092386000E+03 -0.14010086748E+04 -0.39595841246E+03  0.15531281317E+04  0.25500000920E-02 0.  1.
</event>
<event>
 5   0  0.3592331E-06  0.2986055E+04  0.7818609E-02  0.8247724E-01
        1   -1    0    0  501    0  0.00000000000E+00  0.00000000000E+00  0.19595115509E+04  0.19595115509E+04  0.50400001928E-02 0. -1.
       -1   -1    0    0    0  501  0.00000000000E+00  0.00000000000E+00 -0.11375955968E+04  0.11375955968E+04  0.50400001928E-02 0.  1.
    10030    2    1    2    0    0  0.00000000000E+00  0.00000000000E+00  0.82191595416E+03  0.30971071477E+04  0.29860553995E+04 0.  0.
        3    1    3    3  502    0 -0.65663485067E+03  0.12411947305E+04  0.93717024295E+03  0.16882007465E+04  0.10100000352E+00 0. -1.
       -3    1    3    3    0  502  0.65663485067E+03 -0.12411947305E+04 -0.11525428879E+03  0.14089064012E+04  0.10100000352E+00 0.  1.
</event>
<event>
 5   0  0.3636718E-06  0.3013890E+04  0.7818609E-02  0.8239776E-01
        1   -1    0    0  501    0  0.00000000000E+00  0.00000000000E+00  0.19703901748E+04  0.19703901748E+04  0.50400001928E-02 0. -1.
       -1   -1    0    0    0  501  0.00000000000E+00  0.00000000000E+00 -0.11525044258E+04  0.11525044258E+04  0.50400001928E-02 0.  1.
    10030    2    1    2    0    0  0.00000000000E+00  0.00000000000E+00  0.81788574901E+03  0.31228946006E+04  0.30138901089E+04 0.  0.
        4    1    3    3  502    0 -0.13376254854E+04 -0.69047374317E+03  0.33651592456E+03  0.15424786902E+04  0.12699999809E+01 0.  1.
       -4    1    3    3    0  502  0.13376254854E+04  0.69047374317E+03  0.48136982445E+03  0.15804159105E+04  0.12699999809E+01 0. -1.
</event>
<event>
 5   0  0.3636718E-06  0.3111210E+04  0.7818609E-02  0.8212668E-01
       -1   -1    0    0    0  501  0.00000000000E+00  0.00000000000E+00  0.11937370811E+04  0.11937370811E+04  0.50400001928E-02 0.  1.
        1   -1    0    0  501    0  0.00000000000E+00  0.00000000000E+00 -0.20271688127E+04  0.20271688127E+04  0.50400001928E-02 0. -1.
    10030    2    1    2    0    0  0.00000000000E+00  0.00000000000E+00 -0.83343173158E+03  0.32209058938E+04  0.31112097849E+04 0.  0.
        4    1    3    3  502    0 -0.69206234127E+03 -0.30055084629E+03 -0.18250568575E+04  0.19748709430E+04  0.12699999809E+01 0. -1.
       -4    1    3    3    0  502  0.69206234127E+03  0.30055084629E+03  0.99162512594E+03  0.12460349508E+04  0.12699999809E+01 0.  1.
</event>
<event>
 5   0  0.9647945E-06  0.2946662E+04  0.7818609E-02  0.8259128E-01
       -2   -1    0    0    0  501  0.00000000000E+00  0.00000000000E+00  0.89766051984E+03  0.89766051984E+03  0.25500000920E-02 0.  1.
        2   -1    0    0  501    0  0.00000000000E+00  0.00000000000E+00 -0.24181799021E+04  0.24181799021E+04  0.25500000920E-02 0. -1.
    10030    2    1    2    0    0  0.00000000000E+00  0.00000000000E+00 -0.15205193823E+04  0.33158404220E+04  0.29466622664E+04 0.  0.
        2    1    3    3  502    0  0.60065351312E+03  0.13340059282E+04 -0.95629283525E+03  0.17478136188E+04  0.25500000920E-02 0. -1.
       -2    1    3    3    0  502 -0.60065351312E+03 -0.13340059282E+04 -0.56422654706E+03  0.15680268032E+04  0.25500000920E-02 0.  1.
</event>
<event>
 5   0  0.9647945E-06  0.2943405E+04  0.7818609E-02  0.8260079E-01
        2   -1    0    0  501    0  0.00000000000E+00  0.00000000000E+00  0.15816758363E+04  0.15816758363E+04  0.25500000920E-02 0. -1.
       -2   -1    0    0    0  501  0.00000000000E+00  0.00000000000E+00 -0.13693758945E+04  0.13693758945E+04  0.25500000920E-02 0.  1.
    10030    2    1    2    0    0  0.00000000000E+00  0.00000000000E+00  0.21229994181E+03  0.29510517308E+04  0.29434053496E+04 0.  0.
        2    1    3    3  502    0 -0.71763556118E+03  0.69844825363E+03 -0.97511259698E+03  0.13977393671E+04  0.25500000920E-02 0.  1.
       -2    1    3    3    0  502  0.71763556118E+03 -0.69844825363E+03  0.11874125388E+04  0.15533123636E+04  0.25500000920E-02 0. -1.
</event>
<event>
 5   0  0.1057036E-05  0.2841882E+04  0.7818609E-02  0.8290383E-01
       -2   -1    0    0    0  501  0.00000000000E+00  0.00000000000E+00  0.90586907263E+03  0.90586907263E+03  0.25500000920E-02 0.  1.
        2   -1    0    0  501    0  0.00000000000E+00  0.00000000000E+00 -0.22288790720E+04  0.22288790720E+04  0.25500000920E-02 0. -1.
    10030    2    1    2    0    0  0.00000000000E+00  0.00000000000E+00 -0.13230099994E+04  0.31347481446E+04  0.28418815021E+04 0.  0.
        4    1    3    3  502    0  0.29330083630E+03 -0.13901564958E+04 -0.68642868268E+03  0.15778930296E+04  0.12699999809E+01 0. -1.
       -4    1    3    3    0  502 -0.29330083630E+03  0.13901564958E+04 -0.63658131667E+03  0.15568551150E+04  0.12699999809E+01 0.  1.
</event>
<event>
 5   0  0.1089569E-05  0.3002221E+04  0.7818609E-02  0.8243097E-01
       -2   -1    0    0    0  501  0.00000000000E+00  0.00000000000E+00  0.16502721879E+04  0.16502721879E+04  0.25500000920E-02 0. -1.
        2   -1    0    0  501    0  0.00000000000E+00  0.00000000000E+00 -0.13654310306E+04  0.13654310306E+04  0.25500000920E-02 0.  1.
    10030    2    1    2    0    0  0.00000000000E+00  0.00000000000E+00  0.28484115736E+03  0.30157032185E+04  0.30022210807E+04 0.  0.
        5    1    3    3  502    0 -0.87792712175E+03  0.78520743122E+03  0.10771929856E+04  0.15961433392E+04  0.46999998093E+01 0. -1.
       -5    1    3    3    0  502  0.87792712175E+03 -0.78520743122E+03 -0.79235182823E+03  0.14195598793E+04  0.46999998093E+01 0.  1.
</event>
<event>
 5   0  0.9647945E-06  0.2998990E+04  0.7818609E-02  0.8244019E-01
        2   -1    0    0  501    0  0.00000000000E+00  0.00000000000E+00  0.13254751078E+04  0.13254751078E+04  0.25500000920E-02 0. -1.
       -2   -1    0    0    0  501  0.00000000000E+00  0.00000000000E+00 -0.16963613351E+04  0.16963613351E+04  0.25500000920E-02 0.  1.
    10030    2    1    2    0    0  0.00000000000E+00  0.00000000000E+00 -0.37088622730E+03  0.30218364429E+04  0.29989896456E+04 0.  0.
        2    1    3    3  502    0  0.14799000631E+04  0.19468416493E+03 -0.41249458858E+02  0.14932205593E+04  0.25500000920E-02 0. -1.
       -2    1    3    3    0  502 -0.14799000631E+04 -0.19468416493E+03 -0.32963676844E+03  0.15286158837E+04  0.25500000920E-02 0.  1.
</event>
<event>
 5   0  0.1029922E-05  0.2986534E+04  0.7818609E-02  0.8247587E-01
        2   -1    0    0  501    0  0.00000000000E+00  0.00000000000E+00  0.12556140321E+04  0.12556140321E+04  0.25500000920E-02 0.  1.
       -2   -1    0    0    0  501  0.00000000000E+00  0.00000000000E+00 -0.17759008322E+04  0.17759008322E+04  0.25500000920E-02 0. -1.
    10030    2    1    2    0    0  0.00000000000E+00  0.00000000000E+00 -0.52028680009E+03  0.30315148644E+04  0.29865337799E+04 0.  0.
        1    1    3    3  502    0 -0.15848484817E+03 -0.97531689261E+03  0.87631078126E+03  0.13207123356E+04  0.50400001928E-02 0.  1.
       -1    1    3    3    0  502  0.15848484817E+03  0.97531689261E+03 -0.13965975814E+04  0.17108025287E+04  0.50400001928E-02 0. -1.
</event>
<event>
 5   0  0.1057036E-05  0.3104842E+04  0.7818609E-02  0.8214410E-01
        2   -1    0    0  501    0  0.00000000000E+00  0.00000000000E+00  0.19266697088E+04  0.19266697088E+04  0.25500000920E-02 0.  1.
       -2   -1    0    0    0  501  0.00000000000E+00  0.00000000000E+00 -0.12508686619E+04  0.12508686619E+04  0.25500000920E-02 0. -1.
    10030    2    1    2    0    0  0.00000000000E+00  0.00000000000E+00  0.67580104695E+03  0.31775383707E+04  0.31048418708E+04 0.  0.
        4    1    3    3  502    0  0.10851826272E+04 -0.23332147650E+03 -0.77284492674E+03  0.13525350788E+04  0.12699999809E+01 0. -1.
       -4    1    3    3    0  502 -0.10851826272E+04  0.23332147650E+03  0.14486459737E+04  0.18250032920E+04  0.12699999809E+01 0.  1.
</event>
<event>
 5   0  0.1057036E-05  0.2853293E+04  0.7818609E-02  0.8286911E-01
       -2   -1    0    0    0  501  0.00000000000E+00  0.00000000000E+00  0.13996394007E+04  0.13996394007E+04  0.25500000920E-02 0. -1.
        2   -1    0    0  501    0  0.00000000000E+00  0.00000000000E+00 -0.14541748633E+04  0.14541748633E+04  0.25500000920E-02 0.  1.
    10030    2    1    2    0    0  0.00000000000E+00  0.00000000000E+00 -0.54535462552E+02  0.28538142640E+04  0.28532931389E+04 0.  0.
        4    1    3    3  502    0  0.64281106965E+03  0.99568352566E+03 -0.82159605104E+03  0.14420864879E+04  0.12699999809E+01 0.  1.
       -4    1    3    3    0  502 -0.64281106965E+03 -0.99568352566E+03  0.76706058849E+03  0.14117277761E+04  0.12699999809E+01 0. -1.
</event>
<event>
 5   0  0.1089569E-05  0.3007475E+04  0.7818609E-02  0.8241599E-01
        2   -1    0    0  501    0  0.00000000000E+00  0.00000000000E+00  0.11217411650E+04  0.11217411650E+04  0.25500000920E-02 0.  1.
       -2   -1    0    0    0  501  0.00000000000E+00  0.00000000000E+00 -0.20158190057E+04  0.20158190057E+04  0.25500000920E-02 0. -1.
    10030    2    1    2    0    0  0.00000000000E+00  0.00000000000E+00 -0.89407784067E+03  0.31375601707E+04  0.30074754595E+04 0.  0.
        5    1    3    3  502    0  0.86719310555E+03  0.10315942828E+04 -0.11429716394E+04  0.17670927834E+04  0.46999998093E+01 0.  1.
       -5    1    3    3    0  502 -0.86719310555E+03 -0.10315942828E+04  0.24889379875E+03  0.13704673873E+04  0.46999998093E+01 0. -1.
</event>
<event>
 5   0  0.3636718E-06  0.3037596E+04  0.7818609E-02  0.8233076E-01
        1   -1    0    0  501    0  0.00000000000E+00  0.00000000000E+00  0.14518911969E+04  0.14518911969E+04  0.50400001928E-02 0.  1.
       -1   -1    0    0    0  501  0.00000000000E+00  0.00000000000E+00 -0.15887885242E+04  0.15887885243E+04  0.50400001928E-02 0. -1.
    10030    2    1    2    0    0  0.00000000000E+00  0.00000000000E+00 -0.13689732732E+03  0.30406797212E+04  0.30375964657E+04 0.  0.
        4    1    3    3  502    0  0.36944892818E+03 -0.13262396504E+04  0.57356209395E+03  0.14914352850E+04  0.12699999809E+01 0.  1.
       -4    1    3    3    0  502 -0.36944892818E+03  0.13262396504E+04 -0.71045942127E+03  0.15492444362E+04  0.12699999809E+01 0. -1.
</event>
<event>
 5   0  0.1089569E-05  0.2965579E+04  0.7818609E-02  0.8253629E-01
       -2   -1    0    0    0  501  0.00000000000E+00  0.00000000000E+00  0.13227225605E+04  0.13227225605E+04  0.25500000920E-02 0. -1.
        2   -1    0    0  501    0  0.00000000000E+00  0.00000000000E+00 -0.16622263208E+04  0.16622263208E+04  0.25500000920E-02 0.  1.
    10030    2    1    2    0    0  0.00000000000E+00  0.00000000000E+00 -0.33950376027E+03  0.29849488814E+04  0.29655786992E+04 0.  0.
        5    1    3    3  502    0  0.82410869015E+03  0.20484808899E+03 -0.13932259218E+04  0.16316306052E+04  0.46999998093E+01 0.  1.
       -5    1    3    3    0  502 -0.82410869015E+03 -0.20484808899E+03  0.10537221615E+04  0.13533182761E+04  0.46999998093E+01 0. -1.
</event>
<event>
 5   0  0.1028450E-05  0.2987715E+04  0.7818609E-02  0.8247248E-01
       -2   -1    0    0    0  501  0.00000000000E+00  0.00000000000E+00  0.12899964359E+04  0.12899964359E+04  0.25500000920E-02 0. -1.
        2   -1    0    0  501    0  0.00000000000E+00  0.00000000000E+00 -0.17299353029E+04  0.17299353029E+04  0.25500000920E-02 0.  1.
    10030    2    1    2    0    0  0.00000000000E+00  0.00000000000E+00 -0.43993886702E+03  0.30199317389E+04  0.29877150970E+04 0.  0.
        3    1    3    3  502    0 -0.71424091027E+03 -0.12061281848E+04 -0.74199272330E+03  0.15860133945E+04  0.10100000352E+00 0.  1.
       -3    1    3    3    0  502  0.71424091027E+03  0.12061281848E+04  0.30205385628E+03  0.14339183444E+04  0.10100000352E+00 0. -1.
</event>
<event>
 5   0  0.3725232E-06  0.2971918E+04  0.7818609E-02  0.8251796E-01
        1   -1    0    0  501    0  0.00000000000E+00  0.00000000000E+00  0.10994976497E+04  0.10994976497E+04  0.50400001928E-02 0. -1.
       -1   -1    0    0    0  501  0.00000000000E+00  0.00000000000E+00 -0.20082576038E+04  0.20082576038E+04  0.50400001928E-02 0.  1.
    10030    2    1    2    0    0  0.00000000000E+00  0.00000000000E+00 -0.90875995407E+03  0.31077552535E+04  0.29719182461E+04 0.  0.
        2    1    3    3  502    0 -0.84540999063E+03  0.70486912312E+01 -0.17322434883E+04  0.19275464298E+04  0.25500000920E-02 0.  1.
       -2    1    3    3    0  502  0.84540999063E+03 -0.70486912312E+01  0.82348353424E+03  0.11802088237E+04  0.25500000920E-02 0. -1.
</event>
<event>
 5   0  0.3852126E-06  0.2993175E+04  0.7818609E-02  0.8245683E-01
       -1   -1    0    0    0  501  0.00000000000E+00  0.00000000000E+00  0.13825478373E+04  0.13825478373E+04  0.50400001928E-02 0. -1.
        1   -1    0    0  501    0  0.00000000000E+00  0.00000000000E+00 -0.16200333932E+04  0.16200333932E+04  0.50400001928E-02 0.  1.
    10030    2    1    2    0    0  0.00000000000E+00  0.00000000000E+00 -0.23748555589E+03  0.30025812306E+04  0.29931746786E+04 0.  0.
        1    1    3    3  502    0  0.27082038001E+03  0.14143530245E+04 -0.52749788389E+03  0.15336206094E+04  0.50400001928E-02 0.  1.
       -1    1    3    3    0  502 -0.27082038001E+03 -0.14143530245E+04  0.29001232800E+03  0.14689606211E+04  0.50400001928E-02 0. -1.
</event>
<event>
 5   0  0.3896630E-06  0.1913569E+04  0.7818609E-02  0.8648132E-01
       -1   -1    0    0    0  501  0.00000000000E+00  0.00000000000E+00  0.11933176078E+04  0.11933176078E+04  0.50400001928E-02 0. -1.
        1   -1    0    0  501    0  0.00000000000E+00  0.00000000000E+00 -0.76713541008E+03  0.76713541010E+03  0.50400001928E-02 0.  1.
    10030    2    1    2    0    0  0.00000000000E+00  0.00000000000E+00  0.42618219770E+03  0.19604530179E+04  0.19135685955E+04 0.  0.
        5    1    3    3  502    0  0.70824139271E+03  0.58903664520E+03  0.47796783900E+03  0.10378079711E+04  0.46999998093E+01 0. -1.
       -5    1    3    3    0  502 -0.70824139271E+03 -0.58903664520E+03 -0.51785641298E+02  0.92264504680E+03  0.46999998093E+01 0.  1.
</event>
<event>
 5   0  0.3896630E-06  0.3006034E+04  0.7818609E-02  0.8242010E-01
        1   -1    0    0  501    0  0.00000000000E+00  0.00000000000E+00  0.21270064997E+04  0.21270064997E+04  0.50400001928E-02 0.  1.
       -1   -1    0    0    0  501  0.00000000000E+00  0.00000000000E+00 -0.10620843993E+04  0.10620843993E+04  0.50400001928E-02 0. -1.
    10030    2    1    2    0    0  0.00000000000E+00  0.00000000000E+00  0.10649221004E+04  0.31890908990E+04  0.30060342117E+04 0.  0.
        5    1    3    3  502    0 -0.10244254329E+04 -0.82707559044E+03  0.13015464343E+04  0.18513634734E+04  0.46999998093E+01 0.  1.
       -5    1    3    3    0  502  0.10244254329E+04  0.82707559044E+03 -0.23662433389E+03  0.13377274256E+04  0.46999998093E+01 0. -1.
</event>
<event>
 5   0  0.1029922E-05  0.3012152E+04  0.7818609E-02  0.8240269E-01
        2   -1    0    0  501    0  0.00000000000E+00  0.00000000000E+00  0.19498641907E+04  0.19498641907E+04  0.25500000920E-02 0.  1.
       -2   -1    0    0    0  501  0.00000000000E+00  0.00000000000E+00 -0.11632936091E+04  0.11632936091E+04  0.25500000920E-02 0. -1.
    10030    2    1    2    0    0  0.00000000000E+00  0.00000000000E+00  0.78657058161E+03  0.31131577998E+04  0.30121517569E+04 0.  0.
        1    1    3    3  502    0 -0.16396169257E+03  0.10568316572E+04  0.14892629257E+04  0.18334886556E+04  0.50400001928E-02 0.  1.
       -1    1    3    3    0  502  0.16396169257E+03 -0.10568316572E+04 -0.70269234405E+03  0.12796691442E+04  0.50400001928E-02 0. -1.
</event>
<event>
 5   0  0.1029922E-05  0.2597483E+04  0.7818609E-02  0.8369057E-01
       -2   -1    0    0    0  501  0.00000000000E+00  0.00000000000E+00  0.81480224768E+03  0.81480224768E+03  0.25500000920E-02 0.  1.
        2   -1    0    0  501    0  0.00000000000E+00  0.00000000000E+00 -0.20701088168E+04  0.20701088168E+04  0.25500000920E-02 0. -1.
    10030    2    1    2    0    0  0.00000000000E+00  0.00000000000E+00 -0.12553065692E+04  0.28849110645E+04  0.25974828715E+04 0.  0.
        1    1    3    3  502    0  0.56803999074E+03  0.27474050688E+03 -0.18884208150E+04  0.19910512178E+04  0.50400001928E-02 0. -1.
       -1    1    3    3    0  502 -0.56803999074E+03 -0.27474050688E+03  0.63311424589E+03  0.89385984671E+03  0.50400001928E-02 0.  1.
</event>
<event>
 5   0  0.3852126E-06  0.3144940E+04  0.7818609E-02  0.8203512E-01
        1   -1    0    0  501    0  0.00000000000E+00  0.00000000000E+00  0.95345534702E+03  0.95345534703E+03  0.50400001928E-02 0.  1.
       -1   -1    0    0    0  501  0.00000000000E+00  0.00000000000E+00 -0.25933690755E+04  0.25933690756E+04  0.50400001928E-02 0. -1.
    10030    2    1    2    0    0  0.00000000000E+00  0.00000000000E+00 -0.16399137285E+04  0.35468244226E+04  0.31449398162E+04 0.  0.
        1    1    3    3  502    0  0.47022341513E+03 -0.14225764274E+04 -0.13582647808E+04  0.20223048649E+04  0.50400001928E-02 0. -1.
       -1    1    3    3    0  502 -0.47022341513E+03  0.14225764274E+04 -0.28164894777E+03  0.15245195577E+04  0.50400001928E-02 0.  1.
</event>
<event>
 5   0  0.9647945E-06  0.2848427E+04  0.7818609E-02  0.8288389E-01
        2   -1    0    0  501    0  0.00000000000E+00  0.00000000000E+00  0.20931270898E+04  0.20931270898E+04  0.25500000920E-02 0.  1.
       -2   -1    0    0    0  501  0.00000000000E+00  0.00000000000E+00 -0.96906892054E+03  0.96906892054E+03  0.25500000920E-02 0. -1.
    10030    2    1    2    0    0  0.00000000000E+00  0.00000000000E+00  0.11240581693E+04  0.30621960103E+04  0.28484272218E+04 0.  0.
        2    1    3    3  502    0  0.90188761689E+03 -0.69300780888E+03 -0.35945909538E+03  0.11928419585E+04  0.25500000920E-02 0. -1.
       -2    1    3    3    0  502 -0.90188761689E+03  0.69300780888E+03  0.14835172646E+04  0.18693540519E+04  0.25500000920E-02 0.  1.
</event>
<event>
 5   0  0.1089569E-05  0.2927523E+04  0.7818609E-02  0.8264735E-01
       -2   -1    0    0    0  501  0.00000000000E+00  0.00000000000E+00  0.18072155807E+04  0.18072155807E+04  0.25500000920E-02 0.  1.
        2   -1    0    0  501    0  0.00000000000E+00  0.00000000000E+00 -0.11855792324E+04  0.11855792324E+04  0.25500000920E-02 0. -1.
    10030    2    1    2    0    0  0.00000000000E+00  0.00000000000E+00  0.62163634837E+03  0.29927948131E+04  0.29275226803E+04 0.  0.
        5    1    3    3  502    0  0.83119101615E+03 -0.65192058273E+03 -0.72503369858E+03  0.12812395973E+04  0.46999998093E+01 0. -1.
       -5    1    3    3    0  502 -0.83119101615E+03  0.65192058273E+03  0.13466700469E+04  0.17115552158E+04  0.46999998093E+01 0.  1.
</event>
<event>
 5   0  0.1089569E-05  0.2937529E+04  0.7818609E-02  0.8261798E-01
       -2   -1    0    0    0  501  0.00000000000E+00  0.00000000000E+00  0.66826225180E+03  0.66826225180E+03  0.25500000920E-02 0.  1.
        2   -1    0    0  501    0  0.00000000000E+00  0.00000000000E+00 -0.32281765341E+04  0.32281765341E+04  0.25500000920E-02 0. -1.
    10030    2    1    2    0    0  0.00000000000E+00  0.00000000000E+00 -0.25599142823E+04  0.38964387859E+04  0.29375285666E+04 0.  0.
        5    1    3    3  502    0  0.84883775962E+03 -0.11799015367E+04 -0.15599361429E+04  0.21321622917E+04  0.46999998093E+01 0. -1.
       -5    1    3    3    0  502 -0.84883775962E+03  0.11799015367E+04 -0.99997813946E+03  0.17642764942E+04  0.46999998093E+01 0.  1.
</event>
<event>
 5   0  0.3852126E-06  0.3020255E+04  0.7818609E-02  0.8237970E-01
        1   -1    0    0  501    0  0.00000000000E+00  0.00000000000E+00  0.13907090715E+04  0.13907090716E+04  0.50400001928E-02 0. -1.
       -1   -1    0    0    0  501  0.00000000000E+00  0.00000000000E+00 -0.16398004387E+04  0.16398004387E+04  0.50400001928E-02 0.  1.
    10030    2    1    2    0    0  0.00000000000E+00  0.00000000000E+00 -0.24909136719E+03  0.30305095103E+04  0.30202551851E+04 0.  0.
        1    1    3    3  502    0 -0.66569765446E+03 -0.12751561778E+04  0.33669828742E+03  0.14773430143E+04  0.50400001928E-02 0. -1.
       -1    1    3    3    0  502  0.66569765446E+03  0.12751561778E+04 -0.58578965462E+03  0.15531664961E+04  0.50400001928E-02 0.  1.
</event>
<event>
 5   0  0.3636718E-06  0.2532469E+04  0.7818609E-02  0.8391509E-01
        1   -1    0    0  501    0  0.00000000000E+00  0.00000000000E+00  0.19801550521E+04  0.19801550521E+04  0.50400001928E-02 0.  1.
       -1   -1    0    0    0  501  0.00000000000E+00  0.00000000000E+00 -0.80970907334E+03  0.80970907336E+03  0.50400001928E-02 0. -1.
    10030    2    1    2    0    0  0.00000000000E+00  0.00000000000E+00  0.11704459787E+04  0.27898641255E+04  0.25324687657E+04 0.  0.
        4    1    3    3  502    0  0.10713331847E+04  0.49135874313E+03  0.10950323694E+04  0.16088150018E+04  0.12699999809E+01 0.  1.
       -4    1    3    3    0  502 -0.10713331847E+04 -0.49135874313E+03  0.75413609350E+02  0.11810491236E+04  0.12699999809E+01 0. -1.
</event>
<event>
 5   0  0.1028450E-05  0.3116684E+04  0.7818609E-02  0.8211174E-01
        2   -1    0    0  501    0  0.00000000000E+00  0.00000000000E+00  0.27078232454E+04  0.27078232454E+04  0.25500000920E-02 0. -1.
       -2   -1    0    0    0  501  0.00000000000E+00  0.00000000000E+00 -0.89682005984E+03  0.89682005985E+03  0.25500000920E-02 0.  1.
    10030    2    1    2    0    0  0.00000000000E+00  0.00000000000E+00  0.18110031855E+04  0.36046433052E+04  0.31166842669E+04 0.  0.
        3    1    3    3  502    0 -0.12981597676E+04  0.95953826193E+02 -0.85373204017E+02  0.13044978011E+04  0.10100000352E+00 0.  1.
       -3    1    3    3    0  502  0.12981597676E+04 -0.95953826193E+02  0.18963763895E+04  0.23001455041E+04  0.10100000352E+00 0. -1.
</event>
<event>
 5   0  0.1029922E-05  0.3047022E+04  0.7818609E-02  0.8230430E-01
        2   -1    0    0  501    0  0.00000000000E+00  0.00000000000E+00  0.12780805947E+04  0.12780805947E+04  0.25500000920E-02 0. -1.
       -2   -1    0    0    0  501  0.00000000000E+00  0.00000000000E+00 -0.18160714201E+04  0.18160714201E+04  0.25500000920E-02 0.  1.
    10030    2    1    2    0    0  0.00000000000E+00  0.00000000000E+00 -0.53799082538E+03  0.30941520148E+04  0.30470219170E+04 0.  0.
        1    1    3    3  502    0  0.59698360212E+03 -0.13982293076E+04 -0.16923626346E+03  0.15297305419E+04  0.50400001928E-02 0. -1.
       -1    1    3    3    0  502 -0.59698360212E+03  0.13982293076E+04 -0.36875456192E+03  0.15644214729E+04  0.50400001928E-02 0.  1.
</event>
<event>
 5   0  0.1089569E-05  0.2996164E+04  0.7818609E-02  0.8244827E-01
        2   -1    0    0  501    0  0.00000000000E+00  0.00000000000E+00  0.13959727532E+04  0.13959727532E+04  0.25500000920E-02 0. -1.
       -2   -1    0    0    0  501  0.00000000000E+00  0.00000000000E+00 -0.16076602634E+04  0.16076602634E+04  0.25500000920E-02 0.  1.
    10030    2    1    2    0    0  0.00000000000E+00  0.00000000000E+00 -0.21168751016E+03  0.30036330166E+04  0.29961641638E+04 0.  0.
        5    1    3    3  502    0 -0.16896217332E+03  0.13216871479E+04 -0.79225688260E+03  0.15501929528E+04  0.46999998093E+01 0.  1.
       -5    1    3    3    0  502  0.16896217332E+03 -0.13216871479E+04  0.58056937243E+03  0.14534400638E+04  0.46999998093E+01 0. -1.
</event>
<event>
 5   0  0.3725232E-06  0.2996042E+04  0.7818609E-02  0.8244862E-01
        1   -1    0    0  501    0  0.00000000000E+00  0.00000000000E+00  0.24827740387E+04  0.24827740387E+04  0.50400001928E-02 0. -1.
       -1   -1    0    0    0  501  0.00000000000E+00  0.00000000000E+00 -0.90385462695E+03  0.90385462697E+03  0.50400001928E-02 0.  1.
    10030    2    1    2    0    0  0.00000000000E+00  0.00000000000E+00  0.15789194118E+04  0.33866286657E+04  0.29960419240E+04 0.  0.
        2    1    3    3  502    0 -0.12432128399E+04  0.41763695238E+03  0.16077615322E+04  0.20748243139E+04  0.25500000920E-02 0. -1.
       -2    1    3    3    0  502  0.12432128399E+04 -0.41763695238E+03 -0.28842120387E+02  0.13118043518E+04  0.25500000920E-02 0.  1.
</event>
<event>
 5   0  0.1028450E-05  0.2997501E+04  0.7818609E-02  0.8244445E-01
        2   -1    0    0  501    0  0.00000000000E+00  0.00000000000E+00  0.15018909693E+04  0.15018909693E+04  0.25500000920E-02 0.  1.
       -2   -1    0    0    0  501  0.00000000000E+00  0.00000000000E+00 -0.14956163833E+04  0.14956163833E+04  0.25500000920E-02 0. -1.
    10030    2    1    2    0    0  0.00000000000E+00  0.00000000000E+00  0.62745859821E+01  0.29975073526E+04  0.29975007854E+04 0.  0.
        3    1    3    3  502    0 -0.63043923620E+03 -0.89128907101E+03  0.10299807625E+04  0.15009031348E+04  0.10100000352E+00 0.  1.
       -3    1    3    3    0  502  0.63043923620E+03  0.89128907101E+03 -0.10237061765E+04  0.14966042178E+04  0.10100000352E+00 0. -1.
</event>
<event>
 5   0  0.1057036E-05  0.3098900E+04  0.7818609E-02  0.8216040E-01
        2   -1    0    0  501    0  0.00000000000E+00  0.00000000000E+00  0.13423501425E+04  0.13423501425E+04  0.25500000920E-02 0. -1.
       -2   -1    0    0    0  501  0.00000000000E+00  0.00000000000E+00 -0.17885012365E+04  0.17885012366E+04  0.25500000920E-02 0.  1.
    10030    2    1    2    0    0  0.00000000000E+00  0.00000000000E+00 -0.44615109407E+03  0.31308513790E+04  0.30988997336E+04 0.  0.
        4    1    3    3  502    0 -0.57019236386E+03  0.61357573715E+03 -0.15400489941E+04  0.17530964133E+04  0.12699999809E+01 0.  1.
       -4    1    3    3    0  502  0.57019236386E+03 -0.61357573715E+03  0.10938979001E+04  0.13777549658E+04  0.12699999809E+01 0. -1.
</event>
<event>
 5   0  0.3313750E-06  0.2943699E+04  0.7818609E-02  0.8259993E-01
       -3   -1    0    0    0  501  0.00000000000E+00  0.00000000000E+00  0.14038549854E+04  0.14038549890E+04  0.10100000352E+00 0.  1.
        3   -1    0    0  501    0  0.00000000000E+00  0.00000000000E+00 -0.15431375595E+04  0.15431375628E+04  0.10100000352E+00 0. -1.
    10030    2    1    2    0    0  0.00000000000E+00  0.00000000000E+00 -0.13928257416E+03  0.29469925518E+04  0.29436992824E+04 0.  0.
        5    1    3    3  502    0 -0.13407816566E+02 -0.14565666814E+04 -0.28095326640E+03  0.14834834326E+04  0.46999998093E+01 0. -1.
       -5    1    3    3    0  502  0.13407816566E+02  0.14565666814E+04  0.14167069223E+03  0.14635091192E+04  0.46999998093E+01 0.  1.
</event>
<event>
 5   0  0.1028450E-05  0.2899773E+04  0.7818609E-02  0.8272945E-01
        2   -1    0    0  501    0  0.00000000000E+00  0.00000000000E+00  0.19065436933E+04  0.19065436933E+04  0.25500000920E-02 0.  1.
       -2   -1    0    0    0  501  0.00000000000E+00  0.00000000000E+00 -0.11026079323E+04  0.11026079323E+04  0.25500000920E-02 0. -1.
    10030    2    1    2    0    0  0.00000000000E+00  0.00000000000E+00  0.80393576106E+03  0.30091516256E+04  0.28997725424E+04 0.  0.
        3    1    3    3  502    0 -0.65622655109E+03 -0.57253586644E+02 -0.93836251789E+03  0.11464883273E+04  0.10100000352E+00 0. -1.
       -3    1    3    3    0  502  0.65622655109E+03  0.57253586644E+02  0.17422982790E+04  0.18626632982E+04  0.10100000352E+00 0.  1.
</event>
<event>
 5   0  0.1057036E-05  0.3031742E+04  0.7818609E-02  0.8234725E-01
        2   -1    0    0  501    0  0.00000000000E+00  0.00000000000E+00  0.15691611725E+04  0.15691611726E+04  0.25500000920E-02 0.  1.
       -2   -1    0    0    0  501  0.00000000000E+00  0.00000000000E+00 -0.14643902069E+04  0.14643902069E+04  0.25500000920E-02 0. -1.
    10030    2    1    2    0    0  0.00000000000E+00  0.00000000000E+00  0.10477096566E+03  0.30335513794E+04  0.30317415814E+04 0.  0.
        4    1    3    3  502    0 -0.13704309689E+04 -0.64714586240E+03  0.21000640404E+02  0.15156917390E+04  0.12699999809E+01 0.  1.
       -4    1    3    3    0  502  0.13704309689E+04  0.64714586240E+03  0.83770325258E+02  0.15178596405E+04  0.12699999809E+01 0. -1.
</event>
<event>
 5   0  0.1029922E-05  0.3033992E+04  0.7818609E-02  0.8234090E-01
        2   -1    0    0  501    0  0.00000000000E+00  0.00000000000E+00  0.26087986336E+04  0.26087986336E+04  0.25500000920E-02 0.  1.
       -2   -1    0    0    0  501  0.00000000000E+00  0.00000000000E+00 -0.88212150427E+03  0.88212150427E+03  0.25500000920E-02 0. -1.
    10030    2    1    2    0    0  0.00000000000E+00  0.00000000000E+00  0.17266771293E+04  0.34909201379E+04  0.30339923369E+04 0.  0.
        1    1    3    3  502    0  0.20950123481E+03 -0.14134299805E+04  0.27709282442E+03  0.14554915014E+04  0.50400001928E-02 0. -1.
       -1    1    3    3    0  502 -0.20950123481E+03  0.14134299805E+04  0.14495843049E+04  0.20354286365E+04  0.50400001928E-02 0.  1.
</event>
<event>
 5   0  0.3636718E-06  0.1842488E+04  0.7818609E-02  0.8684026E-01
        1   -1    0    0  501    0  0.00000000000E+00  0.00000000000E+00  0.17677111985E+04  0.17677111985E+04  0.50400001928E-02 0.  1.
       -1   -1    0    0    0  501  0.00000000000E+00  0.00000000000E+00 -0.48010678063E+03  0.48010678066E+03  0.50400001928E-02 0. -1.
    10030    2    1    2    0    0  0.00000000000E+00  0.00000000000E+00  0.12876044178E+04  0.22478179791E+04  0.18424875930E+04 0.  0.
        4    1    3    3  502    0 -0.40820188867E+03 -0.51108434405E+03  0.14352486677E+04  0.15772686327E+04  0.12699999809E+01 0.  1.
       -4    1    3    3    0  502  0.40820188867E+03  0.51108434405E+03 -0.14764424982E+03  0.67054934647E+03  0.12699999809E+01 0. -1.
</event>
<event>
 5   0  0.1028450E-05  0.3001523E+04  0.7818609E-02  0.8243296E-01
       -2   -1    0    0    0  501  0.00000000000E+00  0.00000000000E+00  0.17482410596E+04  0.17482410596E+04  0.25500000920E-02 0. -1.
        2   -1    0    0  501    0  0.00000000000E+00  0.00000000000E+00 -0.12883146667E+04  0.12883146667E+04  0.25500000920E-02 0.  1.
    10030    2    1    2    0    0  0.00000000000E+00  0.00000000000E+00  0.45992639290E+03  0.30365557263E+04  0.30015226789E+04 0.  0.
        3    1    3    3  502    0 -0.22803891946E+02 -0.33857124402E+03 -0.12489936825E+04  0.12942703481E+04  0.10100000352E+00 0.  1.
       -3    1    3    3    0  502  0.22803891946E+02  0.33857124402E+03  0.17089200754E+04  0.17422853782E+04  0.10100000352E+00 0. -1.
</event>
<event>
 5   0  0.1089569E-05  0.3007919E+04  0.7818609E-02  0.8241473E-01
        2   -1    0    0  501    0  0.00000000000E+00  0.00000000000E+00  0.14614783582E+04  0.14614783582E+04  0.25500000920E-02 0.  1.
       -2   -1    0    0    0  501  0.00000000000E+00  0.00000000000E+00 -0.15476758843E+04  0.15476758843E+04  0.25500000920E-02 0. -1.
    10030    2    1    2    0    0  0.00000000000E+00  0.00000000000E+00 -0.86197526014E+02  0.30091542425E+04  0.30079194207E+04 0.  0.
        5    1    3    3  502    0 -0.12294924869E+04 -0.52674902563E+03  0.64475634097E+03  0.14848734426E+04  0.46999998093E+01 0.  1.
       -5    1    3    3    0  502  0.12294924869E+04  0.52674902563E+03 -0.73095386698E+03  0.15242807999E+04  0.46999998093E+01 0. -1.
</event>
<event>
 5   0  0.3592331E-06  0.3027674E+04  0.7818609E-02  0.8235872E-01
        1   -1    0    0  501    0  0.00000000000E+00  0.00000000000E+00  0.22143949458E+04  0.22143949458E+04  0.50400001928E-02 0. -1.
       -1   -1    0    0    0  501  0.00000000000E+00  0.00000000000E+00 -0.10349112200E+04  0.10349112201E+04  0.50400001928E-02 0.  1.
    10030    2    1    2    0    0  0.00000000000E+00  0.00000000000E+00  0.11794837258E+04  0.32493061659E+04  0.30276738101E+04 0.  0.
        3    1    3    3  502    0 -0.63418159008E+03 -0.11197460866E+04  0.14454041438E+04  0.19352546956E+04  0.10100000352E+00 0. -1.
       -3    1    3    3    0  502  0.63418159008E+03  0.11197460866E+04 -0.26592041801E+03  0.13140514703E+04  0.10100000352E+00 0.  1.
</event>
<event>
 5   0  0.3636718E-06  0.2951252E+04  0.7818609E-02  0.8257790E-01
       -1   -1    0    0    0  501  0.00000000000E+00  0.00000000000E+00  0.15961220436E+04  0.15961220436E+04  0.50400001928E-02 0. -1.
        1   -1    0    0  501    0  0.00000000000E+00  0.00000000000E+00 -0.13642261083E+04  0.13642261084E+04  0.50400001928E-02 0.  1.
    10030    2    1    2    0    0  0.00000000000E+00  0.00000000000E+00  0.23189593524E+03  0.29603481520E+04  0.29512515067E+04 0.  0.
        4    1    3    3  502    0 -0.99737679549E+03 -0.10852624240E+04  0.45626604714E+02  0.14746655218E+04  0.12699999809E+01 0. -1.
       -4    1    3    3    0  502  0.99737679549E+03  0.10852624240E+04  0.18626933053E+03  0.14856826302E+04  0.12699999809E+01 0.  1.
</event>
<event>
 5   0  0.1057036E-05  0.2978888E+04  0.7818609E-02  0.8249785E-01
        2   -1    0    0  501    0  0.00000000000E+00  0.00000000000E+00  0.15834709393E+04  0.15834709393E+04  0.25500000920E-02 0. -1.
       -2   -1    0    0    0  501  0.00000000000E+00  0.00000000000E+00 -0.14010002127E+04  0.14010002127E+04  0.25500000920E-02 0.  1.
    10030    2    1    2    0    0  0.00000000000E+00  0.00000000000E+00  0.18247072655E+03  0.29844711520E+04  0.29788877943E+04 0.  0.
        4    1    3    3  502    0  0.43611384472E+02 -0.13964923367E+04  0.60829250339E+03  0.15238484773E+04  0.12699999809E+01 0. -1.
       -4    1    3    3    0  502 -0.43611384472E+02  0.13964923367E+04 -0.42582177684E+03  0.14606226747E+04  0.12699999809E+01 0.  1.
</event>
<event>
 5   0  0.3592331E-06  0.2982187E+04  0.7818609E-02  0.8248836E-01
       -1   -1    0    0    0  501  0.00000000000E+00  0.00000000000E+00  0.11960802398E+04  0.11960802398E+04  0.50400001928E-02 0.  1.
        1   -1    0    0  501    0  0.00000000000E+00  0.00000000000E+00 -0.18588715941E+04  0.18588715941E+04  0.50400001928E-02 0. -1.
    10030    2    1    2    0    0  0.00000000000E+00  0.00000000000E+00 -0.66279135429E+03  0.30549518338E+04  0.29821868365E+04 0.  0.
        3    1    3    3  502    0 -0.32523019571E+03  0.80221523353E+03  0.91232686596E+03  0.12576423505E+04  0.10100000352E+00 0.  1.
       -3    1    3    3    0  502  0.32523019571E+03 -0.80221523353E+03 -0.15751182202E+04  0.17973094834E+04  0.10100000352E+00 0. -1.
</event>
<event>
 5   0  0.1089569E-05  0.2841261E+04  0.7818609E-02  0.8290572E-01
       -2   -1    0    0    0  501  0.00000000000E+00  0.00000000000E+00  0.16828726958E+04  0.16828726959E+04  0.25500000920E-02 0. -1.
        2   -1    0    0  501    0  0.00000000000E+00  0.00000000000E+00 -0.11992532091E+04  0.11992532091E+04  0.25500000920E-02 0.  1.
    10030    2    1    2    0    0  0.00000000000E+00  0.00000000000E+00  0.48361948678E+03  0.28821259049E+04  0.28412606223E+04 0.  0.
        5    1    3    3  502    0 -0.83543177507E+03 -0.11398553501E+04  0.38863940586E+03  0.14657009066E+04  0.46999998093E+01 0. -1.
       -5    1    3    3    0  502  0.83543177507E+03  0.11398553501E+04  0.94980080924E+02  0.14164249983E+04  0.46999998093E+01 0.  1.
</event>
<event>
 5   0  0.9647945E-06  0.2987887E+04  0.7818609E-02  0.8247198E-01
        2   -1    0    0  501    0  0.00000000000E+00  0.00000000000E+00  0.22701743434E+04  0.22701743434E+04  0.25500000920E-02 0. -1.
       -2   -1    0    0    0  501  0.00000000000E+00  0.00000000000E+00 -0.98312560075E+03  0.98312560075E+03  0.25500000920E-02 0.  1.
    10030    2    1    2    0    0  0.00000000000E+00  0.00000000000E+00  0.12870487427E+04  0.32532999442E+04  0.29878865542E+04 0.  0.
        2    1    3    3  502    0  0.19139706232E+03 -0.14676291943E+04  0.86479598847E+03  0.17141879678E+04  0.25500000920E-02 0.  1.
       -2    1    3    3    0  502 -0.19139706232E+03  0.14676291943E+04  0.42225275423E+03  0.15391119764E+04  0.25500000920E-02 0. -1.
</event>
<event>
 5   0  0.1089569E-05  0.2980847E+04  0.7818609E-02  0.8249221E-01
        2   -1    0    0  501    0  0.00000000000E+00  0.00000000000E+00  0.11717173654E+04  0.11717173654E+04  0.25500000920E-02 0.  1.
       -2   -1    0    0    0  501  0.00000000000E+00  0.00000000000E+00 -0.18958179269E+04  0.18958179269E+04  0.25500000920E-02 0. -1.
    10030    2    1    2    0    0  0.00000000000E+00  0.00000000000E+00 -0.72410056153E+03  0.30675352923E+04  0.29808473873E+04 0.  0.
        5    1    3    3  502    0 -0.10500149406E+04 -0.63771676755E+03  0.50636697468E+03  0.13287752459E+04  0.46999998093E+01 0.  1.
       -5    1    3    3    0  502  0.10500149406E+04  0.63771676755E+03 -0.12304675362E+04  0.17387600464E+04  0.46999998093E+01 0. -1.
</event>
<event>
 5   0  0.3896630E-06  0.2985715E+04  0.7818609E-02  0.8247822E-01
       -1   -1    0    0    0  501  0.00000000000E+00  0.00000000000E+00  0.11747367526E+04  0.11747367526E+04  0.50400001928E-02 0. -1.
        1   -1    0    0  501    0  0.00000000000E+00  0.00000000000E+00 -0.18971260665E+04  0.18971260665E+04  0.50400001928E-02 0.  1.
    10030    2    1    2    0    0  0.00000000000E+00  0.00000000000E+00 -0.72238931391E+03  0.30718628192E+04  0.29857151336E+04 0.  0.
        5    1    3    3  502    0 -0.67430733869E+03  0.38444829457E+03  0.95078925009E+03  0.12274009802E+04  0.46999998093E+01 0. -1.
       -5    1    3    3    0  502  0.67430733869E+03 -0.38444829457E+03 -0.16731785640E+04  0.18444618389E+04  0.46999998093E+01 0.  1.
</event>
<event>
 5   0  0.3636718E-06  0.2958904E+04  0.7818609E-02  0.8255564E-01
       -1   -1    0    0    0  501  0.00000000000E+00  0.00000000000E+00  0.12216015459E+04  0.12216015459E+04  0.50400001928E-02 0.  1.
        1   -1    0    0  501    0  0.00000000000E+00  0.00000000000E+00 -0.17917282324E+04  0.17917282324E+04  0.50400001928E-02 0. -1.
    10030    2    1    2    0    0  0.00000000000E+00  0.00000000000E+00 -0.57012668653E+03  0.30133297783E+04  0.29589038366E+04 0.  0.
        4    1    3    3  502    0 -0.53594901887E+02  0.10923511940E+04  0.72959277413E+03  0.13146903717E+04  0.12699999809E+01 0.  1.
       -4    1    3    3    0  502  0.53594901887E+02 -0.10923511940E+04 -0.12997194607E+04  0.16986394066E+04  0.12699999809E+01 0. -1.
</event>
<event>
 5   0  0.1028450E-05  0.3184797E+04  0.7818609E-02  0.8192844E-01
        2   -1    0    0  501    0  0.00000000000E+00  0.00000000000E+00  0.13730197858E+04  0.13730197858E+04  0.25500000920E-02 0.  1.
       -2   -1    0    0    0  501  0.00000000000E+00  0.00000000000E+00 -0.18468290791E+04  0.18468290791E+04  0.25500000920E-02 0. -1.
    10030    2    1    2    0    0  0.00000000000E+00  0.00000000000E+00 -0.47380929333E+03  0.32198488649E+04  0.31847969270E+04 0.  0.
        3    1    3    3  502    0  0.11242631191E+04  0.99026490507E+02 -0.13726379807E+04  0.17770506023E+04  0.10100000352E+00 0. -1.
       -3    1    3    3    0  502 -0.11242631191E+04 -0.99026490507E+02  0.89882868739E+03  0.14427982625E+04  0.10100000352E+00 0.  1.
</event>
<event>
 5   0  0.3725232E-06  0.2985760E+04  0.7818609E-02  0.8247809E-01
       -1   -1    0    0    0  501  0.00000000000E+00  0.00000000000E+00  0.12587603203E+04  0.12587603203E+04  0.50400001928E-02 0.  1.
        1   -1    0    0  501    0  0.00000000000E+00  0.00000000000E+00 -0.17705445003E+04  0.17705445003E+04  0.50400001928E-02 0. -1.
    10030    2    1    2    0    0  0.00000000000E+00  0.00000000000E+00 -0.51178418003E+03  0.30293048206E+04  0.29857603134E+04 0.  0.
        2    1    3    3  502    0  0.92274595514E+03 -0.11133186664E+04 -0.63245535896E+03  0.15782706776E+04  0.25500000920E-02 0. -1.
       -2    1    3    3    0  502 -0.92274595514E+03  0.11133186664E+04  0.12067117893E+03  0.14510341430E+04  0.25500000920E-02 0.  1.
</event>
<event>
 5   0  0.1057036E-05  0.2960094E+04  0.7818609E-02  0.8255219E-01
       -2   -1    0    0    0  501  0.00000000000E+00  0.00000000000E+00  0.10555609180E+04  0.10555609180E+04  0.25500000920E-02 0. -1.
        2   -1    0    0  501    0  0.00000000000E+00  0.00000000000E+00 -0.20752365019E+04  0.20752365019E+04  0.25500000920E-02 0.  1.
    10030    2    1    2    0    0  0.00000000000E+00  0.00000000000E+00 -0.10196755839E+04  0.31307974200E+04  0.29600936114E+04 0.  0.
        4    1    3    3  502    0  0.13021812520E+04 -0.51423593030E+03 -0.10175432154E+04  0.17307542903E+04  0.12699999809E+01 0.  1.
       -4    1    3    3    0  502 -0.13021812520E+04  0.51423593030E+03 -0.21323684320E+01  0.14000431297E+04  0.12699999809E+01 0. -1.
</event>
<event>
 5   0  0.3636718E-06  0.2996495E+04  0.7818609E-02  0.8244732E-01
       -1   -1    0    0    0  501  0.00000000000E+00  0.00000000000E+00  0.14130706867E+04  0.14130706868E+04  0.50400001928E-02 0.  1.
        1   -1    0    0  501    0  0.00000000000E+00  0.00000000000E+00 -0.15885587736E+04  0.15885587736E+04  0.50400001928E-02 0. -1.
    10030    2    1    2    0    0  0.00000000000E+00  0.00000000000E+00 -0.17548808688E+03  0.30016294604E+04  0.29964951775E+04 0.  0.
        4    1    3    3  502    0 -0.59489068974E+03  0.35445240294E+03 -0.14186336342E+04  0.15786242237E+04  0.12699999809E+01 0. -1.
       -4    1    3    3    0  502  0.59489068974E+03 -0.35445240294E+03  0.12431455474E+04  0.14230052366E+04  0.12699999809E+01 0.  1.
</event>
<event>
 5   0  0.3852126E-06  0.2978218E+04  0.7818609E-02  0.8249978E-01
        1   -1    0    0  501    0  0.00000000000E+00  0.00000000000E+00  0.22175545639E+04  0.22175545639E+04  0.50400001928E-02 0. -1.
       -1   -1    0    0    0  501  0.00000000000E+00  0.00000000000E+00 -0.99995101785E+03  0.99995101786E+03  0.50400001928E-02 0.  1.
    10030    2    1    2    0    0  0.00000000000E+00  0.00000000000E+00  0.12176035461E+04  0.32175055818E+04  0.29782182213E+04 0.  0.
        1    1    3    3  502    0 -0.28283929617E+03 -0.13339256000E+04 -0.37684210359E+02  0.13641025158E+04  0.50400001928E-02 0.  1.
       -1    1    3    3    0  502  0.28283929617E+03  0.13339256000E+04  0.12552877564E+04  0.18534030661E+04  0.50400001928E-02 0. -1.
</event>
<event>
 5   0  0.3896630E-06  0.3014526E+04  0.7818609E-02  0.8239595E-01
        1   -1    0    0  501    0  0.00000000000E+00  0.00000000000E+00  0.23126961571E+04  0.23126961571E+04  0.50400001928E-02 0. -1.
       -1   -1    0    0    0  501  0.00000000000E+00  0.00000000000E+00 -0.98233489516E+03  0.98233489517E+03  0.50400001928E-02 0.  1.
    10030    2    1    2    0    0  0.00000000000E+00  0.00000000000E+00  0.13303612619E+04  0.32950310523E+04  0.30145262560E+04 0.  0.
        5    1    3    3  502    0  0.48087097389E+02  0.75602532762E+02 -0.97941334477E+03  0.98351446447E+03  0.46999998093E+01 0.  1.
       -5    1    3    3    0  502 -0.48087097389E+02 -0.75602532762E+02  0.23097746067E+04  0.23115165878E+04  0.46999998093E+01 0. -1.
</event>
<event>
 5   0  0.3592331E-06  0.2879516E+04  0.7818609E-02  0.8278998E-01
        1   -1    0    0  501    0  0.00000000000E+00  0.00000000000E+00  0.25649189818E+04  0.25649189818E+04  0.50400001928E-02 0.  1.
       -1   -1    0    0    0  501  0.00000000000E+00  0.00000000000E+00 -0.80817460830E+03  0.80817460832E+03  0.50400001928E-02 0. -1.
    10030    2    1    2    0    0  0.00000000000E+00  0.00000000000E+00  0.17567443735E+04  0.33730935901E+04  0.28795155103E+04 0.  0.
        3    1    3    3  502    0 -0.53698205566E+03 -0.32579759764E+03 -0.63922954939E+03  0.89616305979E+03  0.10100000352E+00 0. -1.
       -3    1    3    3    0  502  0.53698205566E+03  0.32579759764E+03  0.23959739229E+04  0.24769305303E+04  0.10100000352E+00 0.  1.
</event>
<event>
 5   0  0.9647945E-06  0.2733710E+04  0.7818609E-02  0.8324149E-01
        2   -1    0    0  501    0  0.00000000000E+00  0.00000000000E+00  0.18279243807E+04  0.18279243807E+04  0.25500000920E-02 0.  1.
       -2   -1    0    0    0  501  0.00000000000E+00  0.00000000000E+00 -0.10220843203E+04  0.10220843203E+04  0.25500000920E-02 0. -1.
    10030    2    1    2    0    0  0.00000000000E+00  0.00000000000E+00  0.80584006042E+03  0.28500087010E+04  0.27337101881E+04 0.  0.
        2    1    3    3  502    0 -0.55931294623E+03  0.81854459266E+03 -0.57809329912E+03  0.11476227971E+04  0.25500000920E-02 0. -1.
       -2    1    3    3    0  502  0.55931294623E+03 -0.81854459266E+03  0.13839333595E+04  0.17023859039E+04  0.25500000920E-02 0.  1.
</event>
<event>
 5   0  0.3636718E-06  0.2814214E+04  0.7818609E-02  0.8298869E-01
       -1   -1    0    0    0  501  0.00000000000E+00  0.00000000000E+00  0.72662917048E+03  0.72662917050E+03  0.50400001928E-02 0.  1.
        1   -1    0    0  501    0  0.00000000000E+00  0.00000000000E+00 -0.27248417825E+04  0.27248417825E+04  0.50400001928E-02 0. -1.
    10030    2    1    2    0    0  0.00000000000E+00  0.00000000000E+00 -0.19982126120E+04  0.34514709530E+04  0.28142135840E+04 0.  0.
        4    1    3    3  502    0  0.13622319245E+04 -0.28494638779E+03 -0.12536563492E+04  0.18731060074E+04  0.12699999809E+01 0.  1.
       -4    1    3    3    0  502 -0.13622319245E+04  0.28494638779E+03 -0.74455626282E+03  0.15783649456E+04  0.12699999809E+01 0. -1.
</event>
<event>
 5   0  0.1089569E-05  0.2955462E+04  0.7818609E-02  0.8256565E-01
       -2   -1    0    0    0  501  0.00000000000E+00  0.00000000000E+00  0.87300961965E+03  0.87300961966E+03  0.25500000920E-02 0.  1.
        2   -1    0    0  501    0  0.00000000000E+00  0.00000000000E+00 -0.25013344202E+04  0.25013344202E+04  0.25500000920E-02 0. -1.
    10030    2    1    2    0    0  0.00000000000E+00  0.00000000000E+00 -0.16283248006E+04  0.33743440399E+04  0.29554620693E+04 0.  0.
        5    1    3    3  502    0  0.81558170300E+03  0.10053595830E+04 -0.60721347088E+00  0.12945825057E+04  0.46999998093E+01 0.  1.
       -5    1    3    3    0  502 -0.81558170300E+03 -0.10053595830E+04 -0.16277175871E+04  0.20797615341E+04  0.46999998093E+01 0. -1.
</event>
<event>
 5   0  0.1057036E-05  0.2996716E+04  0.7818609E-02  0.8244669E-01
       -2   -1    0    0    0  501  0.00000000000E+00  0.00000000000E+00  0.20091503989E+04  0.20091503989E+04  0.25500000920E-02 0. -1.
        2   -1    0    0  501    0  0.00000000000E+00  0.00000000000E+00 -0.11174259121E+04  0.11174259121E+04  0.25500000920E-02 0.  1.
    10030    2    1    2    0    0  0.00000000000E+00  0.00000000000E+00  0.89172448683E+03  0.31265763110E+04  0.29967160139E+04 0.  0.
        4    1    3    3  502    0 -0.12182080725E+04  0.16865785158E+03 -0.44714817104E+03  0.13085944668E+04  0.12699999809E+01 0.  1.
       -4    1    3    3    0  502  0.12182080725E+04 -0.16865785158E+03  0.13388726579E+04  0.18179818442E+04  0.12699999809E+01 0. -1.
</event>
<event>
 5   0  0.3592331E-06  0.3000452E+04  0.7818609E-02  0.8243602E-01
       -1   -1    0    0    0  501  0.00000000000E+00  0.00000000000E+00  0.87407022055E+03  0.87407022057E+03  0.50400001928E-02 0. -1.
        1   -1    0    0  501    0  0.00000000000E+00  0.00000000000E+00 -0.25749401619E+04  0.25749401619E+04  0.50400001928E-02 0.  1.
    10030    2    1    2    0    0  0.00000000000E+00  0.00000000000E+00 -0.17008699414E+04  0.34490103825E+04  0.30004523094E+04 0.  0.
        3    1    3    3  502    0 -0.42302124918E+03 -0.63655587096E+03  0.63349737208E+03  0.99270805615E+03  0.10100000352E+00 0. -1.
       -3    1    3    3    0  502  0.42302124918E+03  0.63655587096E+03 -0.23343673134E+04  0.24563023263E+04  0.10100000352E+00 0.  1.
</event>
<event>
 5   0  0.1089569E-05  0.2983326E+04  0.7818609E-02  0.8248508E-01
       -2   -1    0    0    0  501  0.00000000000E+00  0.00000000000E+00  0.10389910473E+04  0.10389910473E+04  0.25500000920E-02 0.  1.
        2   -1    0    0  501    0  0.00000000000E+00  0.00000000000E+00 -0.21415562495E+04  0.21415562495E+04  0.25500000920E-02 0. -1.
    10030    2    1    2    0    0  0.00000000000E+00  0.00000000000E+00 -0.11025652022E+04  0.31805472969E+04  0.29833255073E+04 0.  0.
        5    1    3    3  502    0 -0.12534517351E+04 -0.72372937532E+03 -0.16672896513E+03  0.14569646868E+04  0.46999998093E+01 0.  1.
       -5    1    3    3    0  502  0.12534517351E+04  0.72372937532E+03 -0.93583623709E+03  0.17235826100E+04  0.46999998093E+01 0. -1.
</event>
<event>
 5   0  0.1029922E-05  0.2975255E+04  0.7818609E-02  0.8250832E-01
       -2   -1    0    0    0  501  0.00000000000E+00  0.00000000000E+00  0.14781965515E+04  0.14781965515E+04  0.25500000920E-02 0. -1.
        2   -1    0    0  501    0  0.00000000000E+00  0.00000000000E+00 -0.14971190806E+04  0.14971190806E+04  0.25500000920E-02 0.  1.
    10030    2    1    2    0    0  0.00000000000E+00  0.00000000000E+00 -0.18922529135E+02  0.29753156322E+04  0.29752554594E+04 0.  0.
        1    1    3    3  502    0  0.87581428440E+03 -0.81319919953E+03  0.87638545100E+03  0.14820239734E+04  0.50400001928E-02 0. -1.
       -1    1    3    3    0  502 -0.87581428440E+03  0.81319919953E+03 -0.89530798014E+03  0.14932916588E+04  0.50400001928E-02 0.  1.
</event>
<event>
 5   0  0.1028450E-05  0.2932611E+04  0.7818609E-02  0.8263240E-01
       -2   -1    0    0    0  501  0.00000000000E+00  0.00000000000E+00  0.13098470928E+04  0.13098470928E+04  0.25500000920E-02 0.  1.
        2   -1    0    0  501    0  0.00000000000E+00  0.00000000000E+00 -0.16414530543E+04  0.16414530543E+04  0.25500000920E-02 0. -1.
    10030    2    1    2    0    0  0.00000000000E+00  0.00000000000E+00 -0.33160596148E+03  0.29513001471E+04  0.29326114718E+04 0.  0.
        3    1    3    3  502    0 -0.12166962786E+04 -0.81830021799E+03 -0.15639354056E+03  0.14745928356E+04  0.10100000352E+00 0. -1.
       -3    1    3    3    0  502  0.12166962786E+04  0.81830021799E+03 -0.17521242092E+03  0.14767073115E+04  0.10100000352E+00 0.  1.
</event>
<event>
 5   0  0.3852126E-06  0.2829436E+04  0.7818609E-02  0.8294187E-01
       -1   -1    0    0    0  501  0.00000000000E+00  0.00000000000E+00  0.10575863278E+04  0.10575863278E+04  0.50400001928E-02 0.  1.
        1   -1    0    0  501    0  0.00000000000E+00  0.00000000000E+00 -0.18924484284E+04  0.18924484284E+04  0.50400001928E-02 0. -1.
    10030    2    1    2    0    0  0.00000000000E+00  0.00000000000E+00 -0.83486210064E+03  0.29500347562E+04  0.28294363989E+04 0.  0.
        1    1    3    3  502    0 -0.17006689224E+03 -0.78623937752E+03 -0.16307915234E+04  0.18183993234E+04  0.50400001928E-02 0. -1.
       -1    1    3    3    0  502  0.17006689224E+03  0.78623937752E+03  0.79592942276E+03  0.11316354327E+04  0.50400001928E-02 0.  1.
</event>
<event>
 5   0  0.3725232E-06  0.2194778E+04  0.7818609E-02  0.8520605E-01
       -1   -1    0    0    0  501  0.00000000000E+00  0.00000000000E+00  0.69068757901E+03  0.69068757903E+03  0.50400001928E-02 0.  1.
        1   -1    0    0  501    0  0.00000000000E+00  0.00000000000E+00 -0.17435705182E+04  0.17435705182E+04  0.50400001928E-02 0. -1.
    10030    2    1    2    0    0  0.00000000000E+00  0.00000000000E+00 -0.10528829392E+04  0.24342580973E+04  0.21947778932E+04 0.  0.
        2    1    3    3  502    0  0.45407345235E+03  0.41501183401E+03 -0.15343597272E+04  0.16530811520E+04  0.25500000920E-02 0. -1.
       -2    1    3    3    0  502 -0.45407345235E+03 -0.41501183401E+03  0.48147678798E+03  0.78117694530E+03  0.25500000920E-02 0.  1.
</event>
<event>
 5   0  0.1029922E-05  0.2884654E+04  0.7818609E-02  0.8277458E-01
       -2   -1    0    0    0  501  0.00000000000E+00  0.00000000000E+00  0.18566770685E+04  0.18566770685E+04  0.25500000920E-02 0. -1.
        2   -1    0    0  501    0  0.00000000000E+00  0.00000000000E+00 -0.11204464883E+04  0.11204464883E+04  0.25500000920E-02 0.  1.
    10030    2    1    2    0    0  0.00000000000E+00  0.00000000000E+00  0.73623058027E+03  0.29771235568E+04  0.28846540876E+04 0.  0.
        1    1    3    3  502    0 -0.14156346487E+04  0.23087806973E+02  0.65217029758E+03  0.15588074296E+04  0.50400001928E-02 0. -1.
       -1    1    3    3    0  502  0.14156346487E+04 -0.23087806973E+02  0.84060282691E+02  0.14183161272E+04  0.50400001928E-02 0.  1.
</event>
<event>
 5   0  0.1028450E-05  0.2680743E+04  0.7818609E-02  0.8341280E-01
       -2   -1    0    0    0  501  0.00000000000E+00  0.00000000000E+00  0.13446950449E+04  0.13446950449E+04  0.25500000920E-02 0. -1.
        2   -1    0    0  501    0  0.00000000000E+00  0.00000000000E+00 -0.13360621159E+04  0.13360621160E+04  0.25500000920E-02 0.  1.
    10030    2    1    2    0    0  0.00000000000E+00  0.00000000000E+00  0.86329289887E+01  0.26807571609E+04  0.26807432604E+04 0.  0.
        3    1    3    3  502    0 -0.17439498156E+03 -0.32946835926E+01  0.13332972577E+04  0.13446583403E+04  0.10100000352E+00 0. -1.
       -3    1    3    3    0  502  0.17439498156E+03  0.32946835926E+01 -0.13246643287E+04  0.13360988206E+04  0.10100000352E+00 0.  1.
</event>
<event>
 5   0  0.3896630E-06  0.3013699E+04  0.7818609E-02  0.8239830E-01
        1   -1    0    0  501    0  0.00000000000E+00  0.00000000000E+00  0.10232378498E+04  0.10232378498E+04  0.50400001928E-02 0. -1.
       -1   -1    0    0    0  501  0.00000000000E+00  0.00000000000E+00 -0.22190304661E+04  0.22190304661E+04  0.50400001928E-02 0.  1.
    10030    2    1    2    0    0  0.00000000000E+00  0.00000000000E+00 -0.11957926162E+04  0.32422683159E+04  0.30136993631E+04 0.  0.
        5    1    3    3  502    0  0.99031662326E+03  0.10917107980E+04 -0.26107934848E+03  0.14969114860E+04  0.46999998093E+01 0. -1.
       -5    1    3    3    0  502 -0.99031662326E+03 -0.10917107980E+04 -0.93471326775E+03  0.17453568299E+04  0.46999998093E+01 0.  1.
</event>
<event>
 5   0  0.1028450E-05  0.2681464E+04  0.7818609E-02  0.8341044E-01
       -2   -1    0    0    0  501  0.00000000000E+00  0.00000000000E+00  0.71458431159E+03  0.71458431160E+03  0.25500000920E-02 0. -1.
        2   -1    0    0  501    0  0.00000000000E+00  0.00000000000E+00 -0.25155361007E+04  0.25155361007E+04  0.25500000920E-02 0.  1.
    10030    2    1    2    0    0  0.00000000000E+00  0.00000000000E+00 -0.18009517891E+04  0.32301204123E+04  0.26814642514E+04 0.  0.
        3    1    3    3  502    0 -0.12417002501E+04 -0.17462419512E+03 -0.14721896226E+04  0.19338188684E+04  0.10100000352E+00 0. -1.
       -3    1    3    3    0  502  0.12417002501E+04  0.17462419512E+03 -0.32876216652E+03  0.12963015440E+04  0.10100000352E+00 0.  1.
</event>
<event>
 5   0  0.3636718E-06  0.3052262E+04  0.7818609E-02  0.8228963E-01
        1   -1    0    0  501    0  0.00000000000E+00  0.00000000000E+00  0.16920885930E+04  0.16920885930E+04  0.50400001928E-02 0.  1.
       -1   -1    0    0    0  501  0.00000000000E+00  0.00000000000E+00 -0.13764505311E+04  0.13764505311E+04  0.50400001928E-02 0. -1.
    10030    2    1    2    0    0  0.00000000000E+00  0.00000000000E+00  0.31563806187E+03  0.30685391241E+04  0.30522622709E+04 0.  0.
        4    1    3    3  502    0 -0.21147711943E+03 -0.29142904210E+03  0.16487722504E+04  0.16876329593E+04  0.12699999809E+01 0.  1.
       -4    1    3    3    0  502  0.21147711943E+03  0.29142904210E+03 -0.13331341885E+04  0.13809061649E+04  0.12699999809E+01 0. -1.
</event>
<event>
 5   0  0.3636718E-06  0.3060311E+04  0.7818609E-02  0.8226715E-01
        1   -1    0    0  501    0  0.00000000000E+00  0.00000000000E+00  0.16989437601E+04  0.16989437601E+04  0.50400001928E-02 0.  1.
       -1   -1    0    0    0  501  0.00000000000E+00  0.00000000000E+00 -0.13781361619E+04  0.13781361619E+04  0.50400001928E-02 0. -1.
    10030    2    1    2    0    0  0.00000000000E+00  0.00000000000E+00  0.32080759816E+03  0.30770799220E+04  0.30603109861E+04 0.  0.
        4    1    3    3  502    0  0.83664648224E+03 -0.15081661797E+03 -0.11188297956E+04  0.14051707060E+04  0.12699999809E+01 0. -1.
       -4    1    3    3    0  502 -0.83664648224E+03  0.15081661797E+03  0.14396373937E+04  0.16719092161E+04  0.12699999809E+01 0.  1.
</event>
<event>
 5   0  0.1028450E-05  0.2500561E+04  0.7818609E-02  0.8402786E-01
        2   -1    0    0  501    0  0.00000000000E+00  0.00000000000E+00  0.11535769746E+04  0.11535769746E+04  0.25500000920E-02 0. -1.
       -2   -1    0    0    0  501  0.00000000000E+00  0.00000000000E+00 -0.13550906184E+04  0.13550906184E+04  0.25500000920E-02 0.  1.
    10030    2    1    2    0    0  0.00000000000E+00  0.00000000000E+00 -0.20151364378E+03  0.25086675929E+04  0.25005610057E+04 0.  0.
        3    1    3    3  502    0 -0.58830251998E+03  0.83897302203E+02  0.10028378743E+04  0.11656853884E+04  0.10100000352E+00 0. -1.
       -3    1    3    3    0  502  0.58830251998E+03 -0.83897302203E+02 -0.12043515181E+04  0.13429822045E+04  0.10100000352E+00 0.  1.
</event>
<event>
 5   0  0.3896630E-06  0.2175106E+04  0.7818609E-02  0.8528861E-01
       -1   -1    0    0    0  501  0.00000000000E+00  0.00000000000E+00  0.91828139896E+03  0.91828139898E+03  0.50400001928E-02 0.  1.
        1   -1    0    0  501    0  0.00000000000E+00  0.00000000000E+00 -0.12880278454E+04  0.12880278454E+04  0.50400001928E-02 0. -1.
    10030    2    1    2    0    0  0.00000000000E+00  0.00000000000E+00 -0.36974644648E+03  0.22063092444E+04  0.21751064451E+04 0.  0.
        5    1    3    3  502    0  0.10463824125E+04 -0.26460519104E+03 -0.32027166259E+03  0.11258454993E+04  0.46999998093E+01 0. -1.
       -5    1    3    3    0  502 -0.10463824125E+04  0.26460519104E+03 -0.49474783887E+02  0.10804637452E+04  0.46999998093E+01 0.  1.
</event>
<event>
 5   0  0.3852126E-06  0.2931971E+04  0.7818609E-02  0.8263428E-01
        1   -1    0    0  501    0  0.00000000000E+00  0.00000000000E+00  0.16189047827E+04  0.16189047827E+04  0.50400001928E-02 0. -1.
       -1   -1    0    0    0  501  0.00000000000E+00  0.00000000000E+00 -0.13275109638E+04  0.13275109638E+04  0.50400001928E-02 0.  1.
    10030    2    1    2    0    0  0.00000000000E+00  0.00000000000E+00  0.29139381895E+03  0.29464157465E+04  0.29319712471E+04 0.  0.
        1    1    3    3  502    0 -0.48386523585E+03 -0.10885870690E+04 -0.71289299435E+03  0.13882952837E+04  0.50400001928E-02 0.  1.
       -1    1    3    3    0  502  0.48386523585E+03  0.10885870690E+04  0.10042868133E+04  0.15581204628E+04  0.50400001928E-02 0. -1.
</event>
<event>
 5   0  0.3636718E-06  0.2965212E+04  0.7818609E-02  0.8253735E-01
       -1   -1    0    0    0  501  0.00000000000E+00  0.00000000000E+00  0.97032855604E+03  0.97032855605E+03  0.50400001928E-02 0. -1.
        1   -1    0    0  501    0  0.00000000000E+00  0.00000000000E+00 -0.22653364646E+04  0.22653364646E+04  0.50400001928E-02 0.  1.
    10030    2    1    2    0    0  0.00000000000E+00  0.00000000000E+00 -0.12950079086E+04  0.32356650207E+04  0.29652120738E+04 0.  0.
        4    1    3    3  502    0  0.12127985212E+03  0.39016916125E+03  0.90768017316E+03  0.99540227374E+03  0.12699999809E+01 0. -1.
       -4    1    3    3    0  502 -0.12127985212E+03 -0.39016916125E+03 -0.22026880818E+04  0.22402627469E+04  0.12699999809E+01 0.  1.
</event>
<event>
 5   0  0.9647945E-06  0.1952255E+04  0.7818609E-02  0.8629274E-01
       -2   -1    0    0    0  501  0.00000000000E+00  0.00000000000E+00  0.75794974535E+03  0.75794974535E+03  0.25500000920E-02 0.  1.
        2   -1    0    0  501    0  0.00000000000E+00  0.00000000000E+00 -0.12571086489E+04  0.12571086489E+04  0.25500000920E-02 0. -1.
    10030    2    1    2    0    0  0.00000000000E+00  0.00000000000E+00 -0.49915890352E+03  0.20150583942E+04  0.19522552910E+04 0.  0.
        2    1    3    3  502    0 -0.66878434999E+03  0.32585334741E+03 -0.90186834041E+03  0.11691105227E+04  0.25500000920E-02 0. -1.
       -2    1    3    3    0  502  0.66878434999E+03 -0.32585334741E+03  0.40270943689E+03  0.84594787154E+03  0.25500000920E-02 0.  1.
</event>
<event>
 5   0  0.9647945E-06  0.3128713E+04  0.7818609E-02  0.8207902E-01
       -2   -1    0    0    0  501  0.00000000000E+00  0.00000000000E+00  0.22871591411E+04  0.22871591411E+04  0.25500000920E-02 0. -1.
        2   -1    0    0  501    0  0.00000000000E+00  0.00000000000E+00 -0.10699784162E+04  0.10699784162E+04  0.25500000920E-02 0.  1.
    10030    2    1    2    0    0  0.00000000000E+00  0.00000000000E+00  0.12171807249E+04  0.33571375572E+04  0.31287127802E+04 0.  0.
        2    1    3    3  502    0  0.42563319710E+03  0.13107228754E+04 -0.18576468054E+03  0.13905634078E+04  0.25500000920E-02 0.  1.
       -2    1    3    3    0  502 -0.42563319710E+03 -0.13107228754E+04  0.14029454054E+04  0.19665741494E+04  0.25500000920E-02 0. -1.
</event>
<event>
 5   0  0.9647945E-06  0.3021353E+04  0.7818609E-02  0.8237660E-01
       -2   -1    0    0    0  501  0.00000000000E+00  0.00000000000E+00  0.15708442728E+04  0.15708442728E+04  0.25500000920E-02 0.  1.
        2   -1    0    0  501    0  0.00000000000E+00  0.00000000000E+00 -0.14528129739E+04  0.14528129739E+04  0.25500000920E-02 0. -1.
    10030    2    1    2    0    0  0.00000000000E+00  0.00000000000E+00  0.11803129889E+03  0.30236572467E+04  0.30213526371E+04 0.  0.
        2    1    3    3  502    0 -0.19350192201E+03 -0.13812713983E+04 -0.52176249601E+03  0.14891574033E+04  0.25500000920E-02 0. -1.
       -2    1    3    3    0  502  0.19350192201E+03  0.13812713983E+04  0.63979379491E+03  0.15344998434E+04  0.25500000920E-02 0.  1.
</event>
<event>
 5   0  0.3725232E-06  0.3116667E+04  0.7818609E-02  0.8211179E-01
       -1   -1    0    0    0  501  0.00000000000E+00  0.00000000000E+00  0.17064731276E+04  0.17064731276E+04  0.50400001928E-02 0.  1.
        1   -1    0    0  501    0  0.00000000000E+00  0.00000000000E+00 -0.14230536735E+04  0.14230536735E+04  0.50400001928E-02 0. -1.
    10030    2    1    2    0    0  0.00000000000E+00  0.00000000000E+00  0.28341945407E+03  0.31295268011E+04  0.31166667150E+04 0.  0.
        2    1    3    3  502    0 -0.77393722857E+03  0.13438088743E+04  0.29597217522E+03  0.15787338765E+04  0.25500000920E-02 0. -1.
       -2    1    3    3    0  502  0.77393722857E+03 -0.13438088743E+04 -0.12552721150E+02  0.15507929246E+04  0.25500000920E-02 0.  1.
</event>
<event>
 5   0  0.3636718E-06  0.2984205E+04  0.7818609E-02  0.8248256E-01
       -1   -1    0    0    0  501  0.00000000000E+00  0.00000000000E+00  0.16141112480E+04  0.16141112480E+04  0.50400001928E-02 0.  1.
        1   -1    0    0  501    0  0.00000000000E+00  0.00000000000E+00 -0.13793166422E+04  0.13793166422E+04  0.50400001928E-02 0. -1.
    10030    2    1    2    0    0  0.00000000000E+00  0.00000000000E+00  0.23479460578E+03  0.29934278902E+04  0.29842054264E+04 0.  0.
        4    1    3    3  502    0 -0.48475616483E+03 -0.74704291046E+03  0.13183052891E+04  0.15909092047E+04  0.12699999809E+01 0.  1.
       -4    1    3    3    0  502  0.48475616483E+03  0.74704291046E+03 -0.10835106833E+04  0.14025186855E+04  0.12699999809E+01 0. -1.
</event>
<event>
 5   0  0.3592331E-06  0.2999701E+04  0.7818609E-02  0.8243816E-01
        1   -1    0    0  501    0  0.00000000000E+00  0.00000000000E+00  0.28025862220E+04  0.28025862220E+04  0.50400001928E-02 0.  1.
       -1   -1    0    0    0  501  0.00000000000E+00  0.00000000000E+00 -0.80266967087E+03  0.80266967088E+03  0.50400001928E-02 0. -1.
    10030    2    1    2    0    0  0.00000000000E+00  0.00000000000E+00  0.19999165512E+04  0.36052558929E+04  0.29997006254E+04 0.  0.
        3    1    3    3  502    0  0.12223096937E+04  0.74738306734E+02 -0.40840687918E+02  0.12252733466E+04  0.10100000352E+00 0. -1.
       -3    1    3    3    0  502 -0.12223096937E+04 -0.74738306734E+02  0.20407572391E+04  0.23799825463E+04  0.10100000352E+00 0.  1.
</event>
<event>
 5   0  0.1089569E-05  0.3007193E+04  0.7818609E-02  0.8241680E-01
       -2   -1    0    0    0  501  0.00000000000E+00  0.00000000000E+00  0.98053205931E+03  0.98053205932E+03  0.25500000920E-02 0. -1.
        2   -1    0    0  501    0  0.00000000000E+00  0.00000000000E+00 -0.23056894622E+04  0.23056894622E+04  0.25500000920E-02 0.  1.
    10030    2    1    2    0    0  0.00000000000E+00  0.00000000000E+00 -0.13251574029E+04  0.32862215215E+04  0.30071930012E+04 0.  0.
        5    1    3    3  502    0 -0.97126064397E+03  0.10507318006E+04 -0.11673892931E+04  0.18466738767E+04  0.46999998093E+01 0.  1.
       -5    1    3    3    0  502  0.97126064397E+03 -0.10507318006E+04 -0.15776810981E+03  0.14395476448E+04  0.46999998093E+01 0. -1.
</event>
<event>
 5   0  0.3636718E-06  0.2933595E+04  0.7818609E-02  0.8262952E-01
       -1   -1    0    0    0  501  0.00000000000E+00  0.00000000000E+00  0.16454322165E+04  0.16454322165E+04  0.50400001928E-02 0. -1.
        1   -1    0    0  501    0  0.00000000000E+00  0.00000000000E+00 -0.13075558853E+04  0.13075558853E+04  0.50400001928E-02 0.  1.
    10030    2    1    2    0    0  0.00000000000E+00  0.00000000000E+00  0.33787633120E+03  0.29529881019E+04  0.29335947768E+04 0.  0.
        4    1    3    3  502    0 -0.78651634706E+03  0.10695026617E+04  0.79679952722E+03  0.15483329768E+04  0.12699999809E+01 0.  1.
       -4    1    3    3    0  502  0.78651634706E+03 -0.10695026617E+04 -0.45892319602E+03  0.14046551251E+04  0.12699999809E+01 0. -1.
</event>
<event>
 5   0  0.1089569E-05  0.2864252E+04  0.7818609E-02  0.8283594E-01
        2   -1    0    0  501    0  0.00000000000E+00  0.00000000000E+00  0.23528902491E+04  0.23528902491E+04  0.25500000920E-02 0. -1.
       -2   -1    0    0    0  501  0.00000000000E+00  0.00000000000E+00 -0.87168753684E+03  0.87168753685E+03  0.25500000920E-02 0.  1.
    10030    2    1    2    0    0  0.00000000000E+00  0.00000000000E+00  0.14812027122E+04  0.32245777859E+04  0.28642521577E+04 0.  0.
        5    1    3    3  502    0  0.78322165075E+03  0.88444062729E+03 -0.17073547426E+03  0.11936683248E+04  0.46999998093E+01 0.  1.
       -5    1    3    3    0  502 -0.78322165075E+03 -0.88444062729E+03  0.16519381865E+04  0.20309094611E+04  0.46999998093E+01 0. -1.
</event>
<event>
 5   0  0.3636718E-06  0.2953969E+04  0.7818609E-02  0.8256999E-01
        1   -1    0    0  501    0  0.00000000000E+00  0.00000000000E+00  0.14601838186E+04  0.14601838186E+04  0.50400001928E-02 0. -1.
       -1   -1    0    0    0  501  0.00000000000E+00  0.00000000000E+00 -0.14939788847E+04  0.14939788847E+04  0.50400001928E-02 0.  1.
    10030    2    1    2    0    0  0.00000000000E+00  0.00000000000E+00 -0.33795066101E+02  0.29541627032E+04  0.29539693923E+04 0.  0.
        4    1    3    3  502    0 -0.22933633005E+03  0.16563213950E+03 -0.14666313271E+04  0.14936660337E+04  0.12699999809E+01 0.  1.
       -4    1    3    3    0  502  0.22933633005E+03 -0.16563213950E+03  0.14328362610E+04  0.14604966695E+04  0.12699999809E+01 0. -1.
</event>
<event>
 5   0  0.3313750E-06  0.2991763E+04  0.7818609E-02  0.8246087E-01
       -3   -1    0    0    0  501  0.00000000000E+00  0.00000000000E+00  0.22738757920E+04  0.22738757943E+04  0.10100000352E+00 0. -1.
        3   -1    0    0  501    0  0.00000000000E+00  0.00000000000E+00 -0.98407390461E+03  0.98407390980E+03  0.10100000352E+00 0.  1.
    10030    2    1    2    0    0  0.00000000000E+00  0.00000000000E+00  0.12898018874E+04  0.32579497041E+04  0.29917632536E+04 0.  0.
        1    1    3    3  502    0 -0.10338574066E+04  0.73961849636E+03  0.15035789747E+04  0.19689201077E+04  0.50400001928E-02 0.  1.
       -1    1    3    3    0  502  0.10338574066E+04 -0.73961849636E+03 -0.21377708727E+03  0.12890295964E+04  0.50400001928E-02 0. -1.
</event>
<event>
 5   0  0.3592331E-06  0.1868223E+04  0.7818609E-02  0.8670837E-01
        1   -1    0    0  501    0  0.00000000000E+00  0.00000000000E+00  0.12113489678E+04  0.12113489679E+04  0.50400001928E-02 0.  1.
       -1   -1    0    0    0  501  0.00000000000E+00  0.00000000000E+00 -0.72032469023E+03  0.72032469025E+03  0.50400001928E-02 0. -1.
    10030    2    1    2    0    0  0.00000000000E+00  0.00000000000E+00  0.49102427761E+03  0.19316736581E+04  0.18682232951E+04 0.  0.
        3    1    3    3  502    0 -0.80883801452E+03  0.37093441289E+03 -0.48310381810E+02  0.89114823435E+03  0.10100000352E+00 0. -1.
       -3    1    3    3    0  502  0.80883801452E+03 -0.37093441289E+03  0.53933465942E+03  0.10405254237E+04  0.10100000352E+00 0.  1.
</event>
<event>
 5   0  0.3592331E-06  0.1866616E+04  0.7818609E-02  0.8671654E-01
       -1   -1    0    0    0  501  0.00000000000E+00  0.00000000000E+00  0.49041358373E+03  0.49041358375E+03  0.50400001928E-02 0. -1.
        1   -1    0    0  501    0  0.00000000000E+00  0.00000000000E+00 -0.17761821171E+04  0.17761821171E+04  0.50400001928E-02 0.  1.
    10030    2    1    2    0    0  0.00000000000E+00  0.00000000000E+00 -0.12857685334E+04  0.22665957009E+04  0.18666160156E+04 0.  0.
        3    1    3    3  502    0  0.81455228169E+03  0.45186109563E+03 -0.57218478583E+03  0.10931922561E+04  0.10100000352E+00 0. -1.
       -3    1    3    3    0  502 -0.81455228169E+03 -0.45186109563E+03 -0.71358374758E+03  0.11734034448E+04  0.10100000352E+00 0.  1.
</event>
<event>
 5   0  0.1057036E-05  0.3017490E+04  0.7818609E-02  0.8238754E-01
        2   -1    0    0  501    0  0.00000000000E+00  0.00000000000E+00  0.20653165846E+04  0.20653165846E+04  0.25500000920E-02 0.  1.
       -2   -1    0    0    0  501  0.00000000000E+00  0.00000000000E+00 -0.11021613040E+04  0.11021613040E+04  0.25500000920E-02 0. -1.
    10030    2    1    2    0    0  0.00000000000E+00  0.00000000000E+00  0.96315528054E+03  0.31674778886E+04  0.30174903613E+04 0.  0.
        4    1    3    3  502    0 -0.38642708832E+03  0.45565483283E+03  0.19358517774E+04  0.20259493918E+04  0.12699999809E+01 0.  1.
       -4    1    3    3    0  502  0.38642708832E+03 -0.45565483283E+03 -0.97269649683E+03  0.11415284968E+04  0.12699999809E+01 0. -1.
</event>
<event>
 5   0  0.9647945E-06  0.2938530E+04  0.7818609E-02  0.8261505E-01
        2   -1    0    0  501    0  0.00000000000E+00  0.00000000000E+00  0.18541121498E+04  0.18541121498E+04  0.25500000920E-02 0. -1.
       -2   -1    0    0    0  501  0.00000000000E+00  0.00000000000E+00 -0.11642983789E+04  0.11642983789E+04  0.25500000920E-02 0.  1.
    10030    2    1    2    0    0  0.00000000000E+00  0.00000000000E+00  0.68981377087E+03  0.30184105287E+04  0.29385300885E+04 0.  0.
        2    1    3    3  502    0 -0.13008452594E+04  0.30077134709E+03 -0.28501560846E+03  0.13652456516E+04  0.25500000920E-02 0.  1.
       -2    1    3    3    0  502  0.13008452594E+04 -0.30077134709E+03  0.97482937933E+03  0.16531648771E+04  0.25500000920E-02 0. -1.
</event>
<event>
 5   0  0.3592331E-06  0.2097357E+04  0.7818609E-02  0.8562409E-01
        1   -1    0    0  501    0  0.00000000000E+00  0.00000000000E+00  0.10392354899E+04  0.10392354899E+04  0.50400001928E-02 0.  1.
       -1   -1    0    0    0  501  0.00000000000E+00  0.00000000000E+00 -0.10582072175E+04  0.10582072176E+04  0.50400001928E-02 0. -1.
    10030    2    1    2    0    0  0.00000000000E+00  0.00000000000E+00 -0.18971727680E+02  0.20974427074E+04  0.20973569044E+04 0.  0.
        3    1    3    3  502    0 -0.29169633919E+03 -0.46225661930E+02  0.99678734192E+03  0.10396194406E+04  0.10100000352E+00 0.  1.
       -3    1    3    3    0  502  0.29169633919E+03  0.46225661930E+02 -0.10157590696E+04  0.10578232668E+04  0.10100000352E+00 0. -1.
</event>
<event>
 5   0  0.1028450E-05  0.2992309E+04  0.7818609E-02  0.8245930E-01
        2   -1    0    0  501    0  0.00000000000E+00  0.00000000000E+00  0.17433767266E+04  0.17433767266E+04  0.25500000920E-02 0.  1.
       -2   -1    0    0    0  501  0.00000000000E+00  0.00000000000E+00 -0.12839903843E+04  0.12839903843E+04  0.25500000920E-02 0. -1.
    10030    2    1    2    0    0  0.00000000000E+00  0.00000000000E+00  0.45938634227E+03  0.30273671110E+04  0.29923094447E+04 0.  0.
        3    1    3    3  502    0  0.58248777653E+03  0.13094434054E+04  0.66431307422E+03  0.15796347402E+04  0.10100000352E+00 0.  1.
       -3    1    3    3    0  502 -0.58248777653E+03 -0.13094434054E+04 -0.20492673195E+03  0.14477323708E+04  0.10100000352E+00 0. -1.
</event>
<event>
 5   0  0.3852126E-06  0.2966188E+04  0.7818609E-02  0.8253453E-01
       -1   -1    0    0    0  501  0.00000000000E+00  0.00000000000E+00  0.18457650716E+04  0.18457650716E+04  0.50400001928E-02 0. -1.
        1   -1    0    0  501    0  0.00000000000E+00  0.00000000000E+00 -0.11916835546E+04  0.11916835546E+04  0.50400001928E-02 0.  1.
    10030    2    1    2    0    0  0.00000000000E+00  0.00000000000E+00  0.65408151702E+03  0.30374486261E+04  0.29661880462E+04 0.  0.
        1    1    3    3  502    0 -0.44178878437E+03  0.14157031174E+04  0.34059641117E+03  0.15216433754E+04  0.50400001928E-02 0. -1.
       -1    1    3    3    0  502  0.44178878437E+03 -0.14157031174E+04  0.31348510584E+03  0.15158052507E+04  0.50400001928E-02 0.  1.
</event>
<event>
 5   0  0.3636718E-06  0.3009082E+04  0.7818609E-02  0.8241142E-01
        1   -1    0    0  501    0  0.00000000000E+00  0.00000000000E+00  0.21475312784E+04  0.21475312784E+04  0.50400001928E-02 0. -1.
       -1   -1    0    0    0  501  0.00000000000E+00  0.00000000000E+00 -0.10540680413E+04  0.10540680413E+04  0.50400001928E-02 0.  1.
    10030    2    1    2    0    0  0.00000000000E+00  0.00000000000E+00  0.10934632370E+04  0.32015993197E+04  0.30090823108E+04 0.  0.
        4    1    3    3  502    0  0.96431629412E+03 -0.98133112116E+03  0.11945590169E+04  0.18220564048E+04  0.12699999809E+01 0. -1.
       -4    1    3    3    0  502 -0.96431629412E+03  0.98133112116E+03 -0.10109577986E+03  0.13795429149E+04  0.12699999809E+01 0.  1.
</event>
<event>
 5   0  0.3896630E-06  0.2970851E+04  0.7818609E-02  0.8252104E-01
       -1   -1    0    0    0  501  0.00000000000E+00  0.00000000000E+00  0.10797695322E+04  0.10797695322E+04  0.50400001928E-02 0.  1.
        1   -1    0    0  501    0  0.00000000000E+00  0.00000000000E+00 -0.20434819720E+04  0.20434819721E+04  0.50400001928E-02 0. -1.
    10030    2    1    2    0    0  0.00000000000E+00  0.00000000000E+00 -0.96371243987E+03  0.31232515042E+04  0.29708514423E+04 0.  0.
        5    1    3    3  502    0 -0.13530300923E+04  0.50126358020E+03 -0.85281991599E+03  0.16760905425E+04  0.46999998093E+01 0.  1.
       -5    1    3    3    0  502  0.13530300923E+04 -0.50126358020E+03 -0.11089252388E+03  0.14471609618E+04  0.46999998093E+01 0. -1.
</event>
<event>
 5   0  0.1028450E-05  0.3015450E+04  0.7818609E-02  0.8239333E-01
        2   -1    0    0  501    0  0.00000000000E+00  0.00000000000E+00  0.27883232577E+04  0.27883232577E+04  0.25500000920E-02 0.  1.
       -2   -1    0    0    0  501  0.00000000000E+00  0.00000000000E+00 -0.81526957200E+03  0.81526957200E+03  0.25500000920E-02 0. -1.
    10030    2    1    2    0    0  0.00000000000E+00  0.00000000000E+00  0.19730536857E+04  0.36035928297E+04  0.30154502874E+04 0.  0.
        3    1    3    3  502    0  0.12979063610E+03 -0.65434235327E+03  0.26023671258E+04  0.26865078061E+04  0.10100000352E+00 0.  1.
       -3    1    3    3    0  502 -0.12979063610E+03  0.65434235327E+03 -0.62931344008E+03  0.91708502363E+03  0.10100000352E+00 0. -1.
</event>
<event>
 5   0  0.3852126E-06  0.2445301E+04  0.7818609E-02  0.8422736E-01
       -1   -1    0    0    0  501  0.00000000000E+00  0.00000000000E+00  0.14625161901E+04  0.14625161901E+04  0.50400001928E-02 0.  1.
        1   -1    0    0  501    0  0.00000000000E+00  0.00000000000E+00 -0.10221251821E+04  0.10221251821E+04  0.50400001928E-02 0. -1.
    10030    2    1    2    0    0  0.00000000000E+00  0.00000000000E+00  0.44039100797E+03  0.24846413722E+04  0.24453013124E+04 0.  0.
        1    1    3    3  502    0 -0.44760215332E+02  0.18049750112E+03 -0.10076710087E+04  0.10246871164E+04  0.50400001928E-02 0. -1.
       -1    1    3    3    0  502  0.44760215332E+02 -0.18049750112E+03  0.14480620167E+04  0.14599542558E+04  0.50400001928E-02 0.  1.
</event>
<event>
 5   0  0.1029922E-05  0.2989787E+04  0.7818609E-02  0.8246653E-01
        2   -1    0    0  501    0  0.00000000000E+00  0.00000000000E+00  0.12430512071E+04  0.12430512071E+04  0.25500000920E-02 0. -1.
       -2   -1    0    0    0  501  0.00000000000E+00  0.00000000000E+00 -0.17977596036E+04  0.17977596036E+04  0.25500000920E-02 0.  1.
    10030    2    1    2    0    0  0.00000000000E+00  0.00000000000E+00 -0.55470839644E+03  0.30408108107E+04  0.29897874476E+04 0.  0.
        1    1    3    3  502    0 -0.13500324410E+04 -0.26252330663E+03  0.31847730858E+03  0.14117130992E+04  0.50400001928E-02 0. -1.
       -1    1    3    3    0  502  0.13500324410E+04  0.26252330663E+03 -0.87318570502E+03  0.16290977115E+04  0.50400001928E-02 0.  1.
</event>
<event>
 5   0  0.3636718E-06  0.2816183E+04  0.7818609E-02  0.8298262E-01
        1   -1    0    0  501    0  0.00000000000E+00  0.00000000000E+00  0.21954409749E+04  0.21954409749E+04  0.50400001928E-02 0.  1.
       -1   -1    0    0    0  501  0.00000000000E+00  0.00000000000E+00 -0.90310844037E+03  0.90310844038E+03  0.50400001928E-02 0. -1.
    10030    2    1    2    0    0  0.00000000000E+00  0.00000000000E+00  0.12923325345E+04  0.30985494152E+04  0.28161827176E+04 0.  0.
        4    1    3    3  502    0  0.39764617612E+03 -0.10466489134E+04 -0.29333650514E+03  0.11574300615E+04  0.12699999809E+01 0. -1.
       -4    1    3    3    0  502 -0.39764617612E+03  0.10466489134E+04  0.15856690396E+04  0.19411193537E+04  0.12699999809E+01 0.  1.
</event>
<event>
 5   0  0.3896630E-06  0.3051569E+04  0.7818609E-02  0.8229156E-01
        1   -1    0    0  501    0  0.00000000000E+00  0.00000000000E+00  0.20286411450E+04  0.20286411450E+04  0.50400001928E-02 0. -1.
       -1   -1    0    0    0  501  0.00000000000E+00  0.00000000000E+00 -0.11475753212E+04  0.11475753212E+04  0.50400001928E-02 0.  1.
    10030    2    1    2    0    0  0.00000000000E+00  0.00000000000E+00  0.88106582383E+03  0.31762164663E+04  0.30515691135E+04 0.  0.
        5    1    3    3  502    0  0.14858066415E+04  0.22611163608E+03  0.16663273951E+03  0.15121297589E+04  0.46999998093E+01 0.  1.
       -5    1    3    3    0  502 -0.14858066415E+04 -0.22611163608E+03  0.71443308432E+03  0.16640867074E+04  0.46999998093E+01 0. -1.
</event>
<event>
 5   0  0.3725232E-06  0.3095917E+04  0.7818609E-02  0.8216859E-01
       -1   -1    0    0    0  501  0.00000000000E+00  0.00000000000E+00  0.13109881407E+04  0.13109881407E+04  0.50400001928E-02 0.  1.
        1   -1    0    0  501    0  0.00000000000E+00  0.00000000000E+00 -0.18277632916E+04  0.18277632916E+04  0.50400001928E-02 0. -1.
    10030    2    1    2    0    0  0.00000000000E+00  0.00000000000E+00 -0.51677515091E+03  0.31387514323E+04  0.30959173111E+04 0.  0.
        2    1    3    3  502    0 -0.31253138436E+03 -0.30896408680E+03 -0.17631879593E+04  0.18171313802E+04  0.25500000920E-02 0. -1.
       -2    1    3    3    0  502  0.31253138436E+03  0.30896408680E+03  0.12464128084E+04  0.13216200521E+04  0.25500000920E-02 0.  1.
</event>
<event>
 5   0  0.3636718E-06  0.2802004E+04  0.7818609E-02  0.8302647E-01
       -1   -1    0    0    0  501  0.00000000000E+00  0.00000000000E+00  0.12938073934E+04  0.12938073934E+04  0.50400001928E-02 0.  1.
        1   -1    0    0  501    0  0.00000000000E+00  0.00000000000E+00 -0.15170776509E+04  0.15170776509E+04  0.50400001928E-02 0. -1.
    10030    2    1    2    0    0  0.00000000000E+00  0.00000000000E+00 -0.22327025751E+03  0.28108850443E+04  0.28020037695E+04 0.  0.
        4    1    3    3  502    0  0.30865666986E+03  0.88147271711E+03 -0.11592351137E+04  0.14886540071E+04  0.12699999809E+01 0. -1.
       -4    1    3    3    0  502 -0.30865666986E+03 -0.88147271711E+03  0.93596485624E+03  0.13222310373E+04  0.12699999809E+01 0.  1.
</event>
<event>
 5   0  0.3896630E-06  0.2569060E+04  0.7818609E-02  0.8378787E-01
        1   -1    0    0  501    0  0.00000000000E+00  0.00000000000E+00  0.19323563957E+04  0.19323563957E+04  0.50400001928E-02 0. -1.
       -1   -1    0    0    0  501  0.00000000000E+00  0.00000000000E+00 -0.85388889679E+03  0.85388889680E+03  0.50400001928E-02 0.  1.
    10030    2    1    2    0    0  0.00000000000E+00  0.00000000000E+00  0.10784674989E+04  0.27862452925E+04  0.25690602725E+04 0.  0.
        5    1    3    3  502    0  0.47157329288E+03  0.11815828896E+04  0.73164719278E+03  0.14675998093E+04  0.46999998093E+01 0.  1.
       -5    1    3    3    0  502 -0.47157329288E+03 -0.11815828896E+04  0.34682030610E+03  0.13186454832E+04  0.46999998093E+01 0. -1.
</event>
<event>
 5   0  0.9647945E-06  0.2873590E+04  0.7818609E-02  0.8280779E-01
       -2   -1    0    0    0  501  0.00000000000E+00  0.00000000000E+00  0.10166299449E+04  0.10166299449E+04  0.25500000920E-02 0.  1.
        2   -1    0    0  501    0  0.00000000000E+00  0.00000000000E+00 -0.20306115350E+04  0.20306115350E+04  0.25500000920E-02 0. -1.
    10030    2    1    2    0    0  0.00000000000E+00  0.00000000000E+00 -0.10139815900E+04  0.30472414799E+04  0.28735904321E+04 0.  0.
        2    1    3    3  502    0  0.10446764961E+04  0.42971931944E+03 -0.14485504117E+04  0.18369284064E+04  0.25500000920E-02 0. -1.
       -2    1    3    3    0  502 -0.10446764961E+04 -0.42971931944E+03  0.43456882165E+03  0.12103130735E+04  0.25500000920E-02 0.  1.
</event>
<event>
 5   0  0.3852126E-06  0.2984454E+04  0.7818609E-02  0.8248184E-01
        1   -1    0    0  501    0  0.00000000000E+00  0.00000000000E+00  0.28759157723E+04  0.28759157723E+04  0.50400001928E-02 0.  1.
       -1   -1    0    0    0  501  0.00000000000E+00  0.00000000000E+00 -0.77427220447E+03  0.77427220449E+03  0.50400001928E-02 0. -1.
    10030    2    1    2    0    0  0.00000000000E+00  0.00000000000E+00  0.21016435678E+04  0.36501879768E+04  0.29844541511E+04 0.  0.
        1    1    3    3  502    0  0.60157111110E+03 -0.13573186153E+04  0.12344449470E+04  0.19308174311E+04  0.50400001928E-02 0.  1.
       -1    1    3    3    0  502 -0.60157111110E+03  0.13573186153E+04  0.86719862084E+03  0.17193705456E+04  0.50400001928E-02 0. -1.
</event>
<event>
 5   0  0.3852126E-06  0.2983767E+04  0.7818609E-02  0.8248382E-01
       -1   -1    0    0    0  501  0.00000000000E+00  0.00000000000E+00  0.88859651965E+03  0.88859651966E+03  0.50400001928E-02 0. -1.
        1   -1    0    0  501    0  0.00000000000E+00  0.00000000000E+00 -0.25047544518E+04  0.25047544518E+04  0.50400001928E-02 0.  1.
    10030    2    1    2    0    0  0.00000000000E+00  0.00000000000E+00 -0.16161579321E+04  0.33933509714E+04  0.29837668062E+04 0.  0.
        1    1    3    3  502    0 -0.67694411418E+03  0.15081493778E+03 -0.23102745283E+04  0.24121291166E+04  0.50400001928E-02 0.  1.
       -1    1    3    3    0  502  0.67694411418E+03 -0.15081493778E+03  0.69411659620E+03  0.98122185479E+03  0.50400001928E-02 0. -1.
</event>
<event>
 5   0  0.3592331E-06  0.1966206E+04  0.7818609E-02  0.8622585E-01
        1   -1    0    0  501    0  0.00000000000E+00  0.00000000000E+00  0.10518012935E+04  0.10518012935E+04  0.50400001928E-02 0.  1.
       -1   -1    0    0    0  501  0.00000000000E+00  0.00000000000E+00 -0.91889176759E+03  0.91889176760E+03  0.50400001928E-02 0. -1.
    10030    2    1    2    0    0  0.00000000000E+00  0.00000000000E+00  0.13290952586E+03  0.19706930611E+04  0.19662060418E+04 0.  0.
        3    1    3    3  502    0  0.21140567535E+02 -0.55443537064E+02 -0.91709532595E+03  0.91901292508E+03  0.10100000352E+00 0. -1.
       -3    1    3    3    0  502 -0.21140567535E+02  0.55443537064E+02  0.10500048518E+04  0.10516801360E+04  0.10100000352E+00 0.  1.
</event>
<event>
 5   0  0.1057036E-05  0.2664088E+04  0.7818609E-02  0.8346752E-01
        2   -1    0    0  501    0  0.00000000000E+00  0.00000000000E+00  0.18871452990E+04  0.18871452990E+04  0.25500000920E-02 0. -1.
       -2   -1    0    0    0  501  0.00000000000E+00  0.00000000000E+00 -0.94022509633E+03  0.94022509634E+03  0.25500000920E-02 0.  1.
    10030    2    1    2    0    0  0.00000000000E+00  0.00000000000E+00  0.94692020267E+03  0.28273703953E+04  0.26640881146E+04 0.  0.
        4    1    3    3  502    0  0.85193126692E+03 -0.84479506394E+03  0.10876107983E+04  0.16193716204E+04  0.12699999809E+01 0. -1.
       -4    1    3    3    0  502 -0.85193126692E+03  0.84479506394E+03 -0.14069059559E+03  0.12079987749E+04  0.12699999809E+01 0.  1.
</event>
<event>
 5   0  0.3592331E-06  0.3022311E+04  0.7818609E-02  0.8237388E-01
       -1   -1    0    0    0  501  0.00000000000E+00  0.00000000000E+00  0.10749572469E+04  0.10749572469E+04  0.50400001928E-02 0. -1.
        1   -1    0    0  501    0  0.00000000000E+00  0.00000000000E+00 -0.21243556169E+04  0.21243556170E+04  0.50400001928E-02 0.  1.
    10030    2    1    2    0    0  0.00000000000E+00  0.00000000000E+00 -0.10493983700E+04  0.31993128639E+04  0.30223113443E+04 0.  0.
        3    1    3    3  502    0  0.59604927065E+03  0.52926241801E+03 -0.18837077829E+04  0.20454213409E+04  0.10100000352E+00 0.  1.
       -3    1    3    3    0  502 -0.59604927065E+03 -0.52926241801E+03  0.83430941290E+03  0.11538915230E+04  0.10100000352E+00 0. -1.
</event>
<event>
 5   0  0.1057036E-05  0.2995488E+04  0.7818609E-02  0.8245021E-01
       -2   -1    0    0    0  501  0.00000000000E+00  0.00000000000E+00  0.10173616136E+04  0.10173616136E+04  0.25500000920E-02 0. -1.
        2   -1    0    0  501    0  0.00000000000E+00  0.00000000000E+00 -0.22049553465E+04  0.22049553465E+04  0.25500000920E-02 0.  1.
    10030    2    1    2    0    0  0.00000000000E+00  0.00000000000E+00 -0.11875937329E+04  0.32223169601E+04  0.29954878930E+04 0.  0.
        4    1    3    3  502    0 -0.10499638793E+04 -0.66072251277E+03 -0.14965442804E+04  0.19438685097E+04  0.12699999809E+01 0.  1.
       -4    1    3    3    0  502  0.10499638793E+04  0.66072251277E+03  0.30895054752E+03  0.12784484504E+04  0.12699999809E+01 0. -1.
</event>
<event>
 5   0  0.1028450E-05  0.3083881E+04  0.7818609E-02  0.8220176E-01
       -2   -1    0    0    0  501  0.00000000000E+00  0.00000000000E+00  0.12995780372E+04  0.12995780372E+04  0.25500000920E-02 0. -1.
        2   -1    0    0  501    0  0.00000000000E+00  0.00000000000E+00 -0.18295014046E+04  0.18295014046E+04  0.25500000920E-02 0.  1.
    10030    2    1    2    0    0  0.00000000000E+00  0.00000000000E+00 -0.52992336743E+03  0.31290794418E+04  0.30838805712E+04 0.  0.
        3    1    3    3  502    0  0.31731006086E+03  0.65339469051E+03  0.11151089891E+04  0.13308186819E+04  0.10100000352E+00 0. -1.
       -3    1    3    3    0  502 -0.31731006086E+03 -0.65339469051E+03 -0.16450323565E+04  0.17982607599E+04  0.10100000352E+00 0.  1.
</event>
<event>
 5   0  0.1029922E-05  0.2966164E+04  0.7818609E-02  0.8253459E-01
       -2   -1    0    0    0  501  0.00000000000E+00  0.00000000000E+00  0.16650108269E+04  0.16650108269E+04  0.25500000920E-02 0.  1.
        2   -1    0    0  501    0  0.00000000000E+00  0.00000000000E+00 -0.13210320164E+04  0.13210320165E+04  0.25500000920E-02 0. -1.
    10030    2    1    2    0    0  0.00000000000E+00  0.00000000000E+00  0.34397881045E+03  0.29860428433E+04  0.29661642639E+04 0.  0.
        1    1    3    3  502    0  0.13764329086E+04 -0.97510151653E+02  0.71919162712E+03  0.15560566758E+04  0.50400001928E-02 0. -1.
       -1    1    3    3    0  502 -0.13764329086E+04  0.97510151653E+02 -0.37521281668E+03  0.14299861676E+04  0.50400001928E-02 0.  1.
</event>
<event>
 5   0  0.1057036E-05  0.2910134E+04  0.7818609E-02  0.8269869E-01
       -2   -1    0    0    0  501  0.00000000000E+00  0.00000000000E+00  0.17842429993E+04  0.17842429993E+04  0.25500000920E-02 0.  1.
        2   -1    0    0  501    0  0.00000000000E+00  0.00000000000E+00 -0.11866205257E+04  0.11866205257E+04  0.25500000920E-02 0. -1.
    10030    2    1    2    0    0  0.00000000000E+00  0.00000000000E+00  0.59762247361E+03  0.29708635251E+04  0.29101335818E+04 0.  0.
        4    1    3    3  502    0  0.20138571495E+03 -0.14678757227E+03 -0.11646722857E+04  0.11910356601E+04  0.12699999809E+01 0. -1.
       -4    1    3    3    0  502 -0.20138571495E+03  0.14678757227E+03  0.17622947593E+04  0.17798278650E+04  0.12699999809E+01 0.  1.
</event>
<event>
 5   0  0.3592331E-06  0.2733824E+04  0.7818609E-02  0.8324113E-01
        1   -1    0    0  501    0  0.00000000000E+00  0.00000000000E+00  0.26378363857E+04  0.26378363857E+04  0.50400001928E-02 0. -1.
       -1   -1    0    0    0  501  0.00000000000E+00  0.00000000000E+00 -0.70832626854E+03  0.70832626856E+03  0.50400001928E-02 0.  1.
    10030    2    1    2    0    0  0.00000000000E+00  0.00000000000E+00  0.19295101172E+04  0.33461626543E+04  0.27338242841E+04 0.  0.
        3    1    3    3  502    0 -0.11691103627E+04  0.89394192818E+02  0.10478974793E+03  0.11771963572E+04  0.10100000352E+00 0.  1.
       -3    1    3    3    0  502  0.11691103627E+04 -0.89394192818E+02  0.18247203692E+04  0.21689662971E+04  0.10100000352E+00 0. -1.
</event>
<event>
 5   0  0.1028450E-05  0.3042618E+04  0.7818609E-02  0.8231665E-01
       -2   -1    0    0    0  501  0.00000000000E+00  0.00000000000E+00  0.76900441821E+03  0.76900441821E+03  0.25500000920E-02 0.  1.
        2   -1    0    0  501    0  0.00000000000E+00  0.00000000000E+00 -0.30095805588E+04  0.30095805588E+04  0.25500000920E-02 0. -1.
    10030    2    1    2    0    0  0.00000000000E+00  0.00000000000E+00 -0.22405761406E+04  0.37785849770E+04  0.30426177852E+04 0.  0.
        3    1    3    3  502    0  0.43662056284E+03  0.14398444941E+03 -0.29212421455E+04  0.29571987962E+04  0.10100000352E+00 0. -1.
       -3    1    3    3    0  502 -0.43662056284E+03 -0.14398444941E+03  0.68066600490E+03  0.82138618079E+03  0.10100000352E+00 0.  1.
</event>
<event>
 5   0  0.3592331E-06  0.2942550E+04  0.7818609E-02  0.8260329E-01
        1   -1    0    0  501    0  0.00000000000E+00  0.00000000000E+00  0.12030446796E+04  0.12030446796E+04  0.50400001928E-02 0. -1.
       -1   -1    0    0    0  501  0.00000000000E+00  0.00000000000E+00 -0.17993094927E+04  0.17993094928E+04  0.50400001928E-02 0.  1.
    10030    2    1    2    0    0  0.00000000000E+00  0.00000000000E+00 -0.59626481318E+03  0.30023541723E+04  0.29425497190E+04 0.  0.
        3    1    3    3  502    0 -0.15557338854E+02  0.87669917288E+03  0.90732169555E+03  0.12617749958E+04  0.10100000352E+00 0. -1.
       -3    1    3    3    0  502  0.15557338854E+02 -0.87669917288E+03 -0.15035865087E+04  0.17405791766E+04  0.10100000352E+00 0.  1.
</event>
<event>
 5   0  0.1057036E-05  0.3059044E+04  0.7818609E-02  0.8227069E-01
       -2   -1    0    0    0  501  0.00000000000E+00  0.00000000000E+00  0.13430943378E+04  0.13430943378E+04  0.25500000920E-02 0.  1.
        2   -1    0    0  501    0  0.00000000000E+00  0.00000000000E+00 -0.17418263486E+04  0.17418263486E+04  0.25500000920E-02 0. -1.
    10030    2    1    2    0    0  0.00000000000E+00  0.00000000000E+00 -0.39873201080E+03  0.30849206863E+04  0.30590437108E+04 0.  0.
        4    1    3    3  502    0  0.27967399227E+03 -0.14322343830E+04 -0.66141490738E+03  0.16021810642E+04  0.12699999809E+01 0. -1.
       -4    1    3    3    0  502 -0.27967399227E+03  0.14322343830E+04  0.26268289659E+03  0.14827396221E+04  0.12699999809E+01 0.  1.
</event>
<event>
 5   0  0.9647945E-06  0.3008788E+04  0.7818609E-02  0.8241226E-01
       -2   -1    0    0    0  501  0.00000000000E+00  0.00000000000E+00  0.11424775480E+04  0.11424775480E+04  0.25500000920E-02 0.  1.
        2   -1    0    0  501    0  0.00000000000E+00  0.00000000000E+00 -0.19809593568E+04  0.19809593568E+04  0.25500000920E-02 0. -1.
    10030    2    1    2    0    0  0.00000000000E+00  0.00000000000E+00 -0.83848180881E+03  0.31234369047E+04  0.30087881870E+04 0.  0.
        2    1    3    3  502    0  0.14899766623E+04 -0.16625177878E+03 -0.28986674283E+03  0.15269881587E+04  0.25500000920E-02 0.  1.
       -2    1    3    3    0  502 -0.14899766623E+04  0.16625177878E+03 -0.54861506598E+03  0.15964487460E+04  0.25500000920E-02 0. -1.
</event>
<event>
 5   0  0.1029922E-05  0.2275053E+04  0.7818609E-02  0.8487823E-01
        2   -1    0    0  501    0  0.00000000000E+00  0.00000000000E+00  0.13211032395E+04  0.13211032395E+04  0.25500000920E-02 0. -1.
       -2   -1    0    0    0  501  0.00000000000E+00  0.00000000000E+00 -0.97945948116E+03  0.97945948117E+03  0.25500000920E-02 0.  1.
    10030    2    1    2    0    0  0.00000000000E+00  0.00000000000E+00  0.34164375836E+03  0.23005627207E+04  0.22750534882E+04 0.  0.
        1    1    3    3  502    0 -0.53017897204E+03  0.31224251300E+03 -0.79666178766E+03  0.10066057487E+04  0.50400001928E-02 0.  1.
       -1    1    3    3    0  502  0.53017897204E+03 -0.31224251300E+03  0.11383055460E+04  0.12939569720E+04  0.50400001928E-02 0. -1.
</event>
<event>
 5   0  0.1028450E-05  0.3058329E+04  0.7818609E-02  0.8227268E-01
       -2   -1    0    0    0  501  0.00000000000E+00  0.00000000000E+00  0.10162208402E+04  0.10162208402E+04  0.25500000920E-02 0. -1.
        2   -1    0    0  501    0  0.00000000000E+00  0.00000000000E+00 -0.23010197632E+04  0.23010197633E+04  0.25500000920E-02 0.  1.
    10030    2    1    2    0    0  0.00000000000E+00  0.00000000000E+00 -0.12847989230E+04  0.33172406035E+04  0.30583291106E+04 0.  0.
        3    1    3    3  502    0 -0.15009868504E+04  0.27919210138E+03 -0.54887659130E+03  0.16223980021E+04  0.10100000352E+00 0. -1.
       -3    1    3    3    0  502  0.15009868504E+04 -0.27919210138E+03 -0.73592233174E+03  0.16948426013E+04  0.10100000352E+00 0.  1.
</event>
<event>
 5   0  0.9647945E-06  0.3168087E+04  0.7818609E-02  0.8197297E-01
       -2   -1    0    0    0  501  0.00000000000E+00  0.00000000000E+00  0.17979335684E+04  0.17979335685E+04  0.25500000920E-02 0.  1.
        2   -1    0    0  501    0  0.00000000000E+00  0.00000000000E+00 -0.13955987290E+04  0.13955987290E+04  0.25500000920E-02 0. -1.
    10030    2    1    2    0    0  0.00000000000E+00  0.00000000000E+00  0.40233483947E+03  0.31935322974E+04  0.31680869956E+04 0.  0.
        2    1    3    3  502    0 -0.18147728047E+03  0.89654025903E+03 -0.11024617766E+04  0.14325293743E+04  0.25500000920E-02 0. -1.
       -2    1    3    3    0  502  0.18147728047E+03 -0.89654025903E+03  0.15047966161E+04  0.17610029231E+04  0.25500000920E-02 0.  1.
</event>
<event>
 5   0  0.3636718E-06  0.3027831E+04  0.7818609E-02  0.8235828E-01
        1   -1    0    0  501    0  0.00000000000E+00  0.00000000000E+00  0.20355339039E+04  0.20355339040E+04  0.50400001928E-02 0.  1.
       -1   -1    0    0    0  501  0.00000000000E+00  0.00000000000E+00 -0.11259648397E+04  0.11259648397E+04  0.50400001928E-02 0. -1.
    10030    2    1    2    0    0  0.00000000000E+00  0.00000000000E+00  0.90956906422E+03  0.31614987437E+04  0.30278306465E+04 0.  0.
        4    1    3    3  502    0 -0.76156518839E+03  0.98890314539E+03  0.13493609765E+04  0.18381206775E+04  0.12699999809E+01 0.  1.
       -4    1    3    3    0  502  0.76156518839E+03 -0.98890314539E+03 -0.43979191229E+03  0.13233780662E+04  0.12699999809E+01 0. -1.
</event>
<event>
 5   0  0.3725232E-06  0.2995911E+04  0.7818609E-02  0.8244900E-01
       -1   -1    0    0    0  501  0.00000000000E+00  0.00000000000E+00  0.23860565118E+04  0.23860565118E+04  0.50400001928E-02 0.  1.
        1   -1    0    0  501    0  0.00000000000E+00  0.00000000000E+00 -0.94040958403E+03  0.94040958404E+03  0.50400001928E-02 0. -1.
    10030    2    1    2    0    0  0.00000000000E+00  0.00000000000E+00  0.14456469278E+04  0.33264660959E+04  0.29959108209E+04 0.  0.
        2    1    3    3  502    0  0.11891188742E+04 -0.90637922125E+03  0.82424409936E+03  0.17073093817E+04  0.25500000920E-02 0.  1.
       -2    1    3    3    0  502 -0.11891188742E+04  0.90637922125E+03  0.62140282841E+03  0.16191567141E+04  0.25500000920E-02 0. -1.
</event>
<event>
 5   0  0.3636718E-06  0.2956536E+04  0.7818609E-02  0.8256252E-01
        1   -1    0    0  501    0  0.00000000000E+00  0.00000000000E+00  0.16396000806E+04  0.16396000807E+04  0.50400001928E-02 0.  1.
       -1   -1    0    0    0  501  0.00000000000E+00  0.00000000000E+00 -0.13328104295E+04  0.13328104295E+04  0.50400001928E-02 0. -1.
    10030    2    1    2    0    0  0.00000000000E+00  0.00000000000E+00  0.30678965116E+03  0.29724105102E+04  0.29565358700E+04 0.  0.
        4    1    3    3  502    0  0.13210381038E+03  0.13979869525E+04 -0.31109836325E+03  0.14382637938E+04  0.12699999809E+01 0. -1.
       -4    1    3    3    0  502 -0.13210381038E+03 -0.13979869525E+04  0.61788801441E+03  0.15341467164E+04  0.12699999809E+01 0.  1.
</event>
<event>
 5   0  0.3896630E-06  0.2782609E+04  0.7818609E-02  0.8308688E-01
       -1   -1    0    0    0  501  0.00000000000E+00  0.00000000000E+00  0.14592920296E+04  0.14592920296E+04  0.50400001928E-02 0.  1.
        1   -1    0    0  501    0  0.00000000000E+00  0.00000000000E+00 -0.13264840097E+04  0.13264840097E+04  0.50400001928E-02 0. -1.
    10030    2    1    2    0    0  0.00000000000E+00  0.00000000000E+00  0.13280801986E+03  0.27857760393E+04  0.27826085192E+04 0.  0.
        5    1    3    3  502    0  0.10432817037E+04 -0.55352906821E+03  0.80268275832E+03  0.14279890907E+04  0.46999998093E+01 0.  1.
       -5    1    3    3    0  502 -0.10432817037E+04  0.55352906821E+03 -0.66987473846E+03  0.13577869486E+04  0.46999998093E+01 0. -1.
</event>
<event>
 5   0  0.3896630E-06  0.2996060E+04  0.7818609E-02  0.8244857E-01
        1   -1    0    0  501    0  0.00000000000E+00  0.00000000000E+00  0.22584482487E+04  0.22584482487E+04  0.50400001928E-02 0.  1.
       -1   -1    0    0    0  501  0.00000000000E+00  0.00000000000E+00 -0.99364410812E+03  0.99364410813E+03  0.50400001928E-02 0. -1.
    10030    2    1    2    0    0  0.00000000000E+00  0.00000000000E+00  0.12648041406E+04  0.32520923569E+04  0.29960599432E+04 0.  0.
        5    1    3    3  502    0 -0.60914032229E+03  0.26201927027E+03  0.20904595697E+04  0.21931140720E+04  0.46999998093E+01 0.  1.
       -5    1    3    3    0  502  0.60914032229E+03 -0.26201927027E+03 -0.82565542909E+03  0.10589782849E+04  0.46999998093E+01 0. -1.
</event>
<event>
 5   0  0.1028450E-05  0.2883237E+04  0.7818609E-02  0.8277883E-01
       -2   -1    0    0    0  501  0.00000000000E+00  0.00000000000E+00  0.94440265139E+03  0.94440265140E+03  0.25500000920E-02 0. -1.
        2   -1    0    0  501    0  0.00000000000E+00  0.00000000000E+00 -0.22006116752E+04  0.22006116752E+04  0.25500000920E-02 0.  1.
    10030    2    1    2    0    0  0.00000000000E+00  0.00000000000E+00 -0.12562090238E+04  0.31450143266E+04  0.28832367234E+04 0.  0.
        3    1    3    3  502    0  0.31361715966E+03  0.11638608393E+04 -0.14906836369E+04  0.19170460328E+04  0.10100000352E+00 0.  1.
       -3    1    3    3    0  502 -0.31361715966E+03 -0.11638608393E+04  0.23447461314E+03  0.12279682938E+04  0.10100000352E+00 0. -1.
</event>
<event>
 5   0  0.1028450E-05  0.2951223E+04  0.7818609E-02  0.8257798E-01
        2   -1    0    0  501    0  0.00000000000E+00  0.00000000000E+00  0.19763665777E+04  0.19763665777E+04  0.25500000920E-02 0.  1.
       -2   -1    0    0    0  501  0.00000000000E+00  0.00000000000E+00 -0.11017338485E+04  0.11017338485E+04  0.25500000920E-02 0. -1.
    10030    2    1    2    0    0  0.00000000000E+00  0.00000000000E+00  0.87463272925E+03  0.30781004262E+04  0.29512234450E+04 0.  0.
        3    1    3    3  502    0  0.22634301968E+03 -0.55815813588E+03 -0.96768944428E+03  0.11398221519E+04  0.10100000352E+00 0. -1.
       -3    1    3    3    0  502 -0.22634301968E+03  0.55815813588E+03  0.18423221735E+04  0.19382782743E+04  0.10100000352E+00 0.  1.
</event>
<event>
 5   0  0.3313750E-06  0.2894519E+04  0.7818609E-02  0.8274510E-01
       -3   -1    0    0    0  501  0.00000000000E+00  0.00000000000E+00  0.10651337222E+04  0.10651337270E+04  0.10100000352E+00 0. -1.
        3   -1    0    0  501    0  0.00000000000E+00  0.00000000000E+00 -0.19664763113E+04  0.19664763139E+04  0.10100000352E+00 0.  1.
    10030    2    1    2    0    0  0.00000000000E+00  0.00000000000E+00 -0.90134258908E+03  0.30316100409E+04  0.28945191271E+04 0.  0.
        1    1    3    3  502    0 -0.63197467300E+03  0.12954187327E+04 -0.58746563979E+03  0.15564760064E+04  0.50400001928E-02 0. -1.
       -1    1    3    3    0  502  0.63197467300E+03 -0.12954187327E+04 -0.31387694929E+03  0.14751340345E+04  0.50400001928E-02 0.  1.
</event>
<event>
 5   0  0.1029922E-05  0.2997269E+04  0.7818609E-02  0.8244511E-01
        2   -1    0    0  501    0  0.00000000000E+00  0.00000000000E+00  0.17288942070E+04  0.17288942070E+04  0.25500000920E-02 0. -1.
       -2   -1    0    0    0  501  0.00000000000E+00  0.00000000000E+00 -0.12990416678E+04  0.12990416678E+04  0.25500000920E-02 0.  1.
    10030    2    1    2    0    0  0.00000000000E+00  0.00000000000E+00  0.42985253913E+03  0.30279358748E+04  0.29972691665E+04 0.  0.
        1    1    3    3  502    0 -0.12627251365E+04  0.47001161708E+03  0.87777977096E+03  0.16080681008E+04  0.50400001928E-02 0. -1.
       -1    1    3    3    0  502  0.12627251365E+04 -0.47001161708E+03 -0.44792723183E+03  0.14198677740E+04  0.50400001928E-02 0.  1.
</event>
<event>
 5   0  0.3725232E-06  0.2848023E+04  0.7818609E-02  0.8288512E-01
        1   -1    0    0  501    0  0.00000000000E+00  0.00000000000E+00  0.26257148525E+04  0.26257148525E+04  0.50400001928E-02 0.  1.
       -1   -1    0    0    0  501  0.00000000000E+00  0.00000000000E+00 -0.77228825635E+03  0.77228825637E+03  0.50400001928E-02 0. -1.
    10030    2    1    2    0    0  0.00000000000E+00  0.00000000000E+00  0.18534265961E+04  0.33980031089E+04  0.28480229951E+04 0.  0.
        2    1    3    3  502    0 -0.60983793835E+02 -0.14094101384E+04  0.69519846286E+03  0.15727227550E+04  0.25500000920E-02 0. -1.
       -2    1    3    3    0  502  0.60983793835E+02  0.14094101384E+04  0.11582281333E+04  0.18252803538E+04  0.25500000920E-02 0.  1.
</event>
<event>
 5   0  0.1028450E-05  0.2568249E+04  0.7818609E-02  0.8379067E-01
       -2   -1    0    0    0  501  0.00000000000E+00  0.00000000000E+00  0.16445303748E+04  0.16445303748E+04  0.25500000920E-02 0. -1.
        2   -1    0    0  501    0  0.00000000000E+00  0.00000000000E+00 -0.10027031213E+04  0.10027031213E+04  0.25500000920E-02 0.  1.
    10030    2    1    2    0    0  0.00000000000E+00  0.00000000000E+00  0.64182725352E+03  0.26472334960E+04  0.25682490065E+04 0.  0.
        3    1    3    3  502    0 -0.11417623482E+04  0.37813533468E+03 -0.14277472798E+03  0.12111945444E+04  0.10100000352E+00 0.  1.
       -3    1    3    3    0  502  0.11417623482E+04 -0.37813533468E+03  0.78460198151E+03  0.14360389517E+04  0.10100000352E+00 0. -1.
</event>
<event>
 5   0  0.1057036E-05  0.2615469E+04  0.7818609E-02  0.8362966E-01
       -2   -1    0    0    0  501  0.00000000000E+00  0.00000000000E+00  0.10362475991E+04  0.10362475991E+04  0.25500000920E-02 0. -1.
        2   -1    0    0  501    0  0.00000000000E+00  0.00000000000E+00 -0.16503487547E+04  0.16503487547E+04  0.25500000920E-02 0.  1.
    10030    2    1    2    0    0  0.00000000000E+00  0.00000000000E+00 -0.61410115563E+03  0.26865963538E+04  0.26154693152E+04 0.  0.
        4    1    3    3  502    0 -0.82036567546E+03  0.60151771281E+03 -0.11511927760E+04  0.15362518741E+04  0.12699999809E+01 0.  1.
       -4    1    3    3    0  502  0.82036567546E+03 -0.60151771281E+03  0.53709162035E+03  0.11503444796E+04  0.12699999809E+01 0. -1.
</event>
<event>
 5   0  0.1089569E-05  0.3010092E+04  0.7818609E-02  0.8240855E-01
       -2   -1    0    0    0  501  0.00000000000E+00  0.00000000000E+00  0.13559611152E+04  0.13559611152E+04  0.25500000920E-02 0.  1.
        2   -1    0    0  501    0  0.00000000000E+00  0.00000000000E+00 -0.16705222427E+04  0.16705222427E+04  0.25500000920E-02 0. -1.
    10030    2    1    2    0    0  0.00000000000E+00  0.00000000000E+00 -0.31456112747E+03  0.30264833580E+04  0.30100918280E+04 0.  0.
        5    1    3    3  502    0 -0.19249676574E+03 -0.10166921243E+04 -0.12561286765E+04  0.16274517573E+04  0.46999998093E+01 0. -1.
       -5    1    3    3    0  502  0.19249676574E+03  0.10166921243E+04  0.94156754901E+03  0.13990316007E+04  0.46999998093E+01 0.  1.
</event>
<event>
 5   0  0.3852126E-06  0.3004030E+04  0.7818609E-02  0.8242581E-01
        1   -1    0    0  501    0  0.00000000000E+00  0.00000000000E+00  0.17157871769E+04  0.17157871769E+04  0.50400001928E-02 0. -1.
       -1   -1    0    0    0  501  0.00000000000E+00  0.00000000000E+00 -0.13148766725E+04  0.13148766725E+04  0.50400001928E-02 0.  1.
    10030    2    1    2    0    0  0.00000000000E+00  0.00000000000E+00  0.40091050443E+03  0.30306638494E+04  0.30040296495E+04 0.  0.
        1    1    3    3  502    0 -0.97734987830E+03  0.10760650186E+04  0.58185446424E+03  0.15657852108E+04  0.50400001928E-02 0. -1.
       -1    1    3    3    0  502  0.97734987830E+03 -0.10760650186E+04 -0.18094395981E+03  0.14648786385E+04  0.50400001928E-02 0.  1.
</event>
<event>
 5   0  0.3592331E-06  0.1959182E+04  0.7818609E-02  0.8625946E-01
       -1   -1    0    0    0  501  0.00000000000E+00  0.00000000000E+00  0.15184011309E+04  0.15184011309E+04  0.50400001928E-02 0. -1.
        1   -1    0    0  501    0  0.00000000000E+00  0.00000000000E+00 -0.63197972082E+03  0.63197972084E+03  0.50400001928E-02 0.  1.
    10030    2    1    2    0    0  0.00000000000E+00  0.00000000000E+00  0.88642141010E+03  0.21503808518E+04  0.19591821996E+04 0.  0.
        3    1    3    3  502    0  0.35641244331E+03 -0.37242163206E+03  0.13574921998E+04  0.14520718937E+04  0.10100000352E+00 0. -1.
       -3    1    3    3    0  502 -0.35641244331E+03  0.37242163206E+03 -0.47107078972E+03  0.69830895805E+03  0.10100000352E+00 0.  1.
</event>
<event>
 5   0  0.3636718E-06  0.2103447E+04  0.7818609E-02  0.8559726E-01
       -1   -1    0    0    0  501  0.00000000000E+00  0.00000000000E+00  0.56915624293E+03  0.56915624295E+03  0.50400001928E-02 0. -1.
        1   -1    0    0  501    0  0.00000000000E+00  0.00000000000E+00 -0.19434431761E+04  0.19434431761E+04  0.50400001928E-02 0.  1.
    10030    2    1    2    0    0  0.00000000000E+00  0.00000000000E+00 -0.13742869331E+04  0.25125994190E+04  0.21034474716E+04 0.  0.
        4    1    3    3  502    0 -0.48043595007E+03 -0.92245157697E+03 -0.50060937598E+03  0.11542733533E+04  0.12699999809E+01 0.  1.
       -4    1    3    3    0  502  0.48043595007E+03  0.92245157697E+03 -0.87367755713E+03  0.13583260657E+04  0.12699999809E+01 0. -1.
</event>
<event>
 5   0  0.3896630E-06  0.3047634E+04  0.7818609E-02  0.8230258E-01
        1   -1    0    0  501    0  0.00000000000E+00  0.00000000000E+00  0.19099617438E+04  0.19099617438E+04  0.50400001928E-02 0.  1.
       -1   -1    0    0    0  501  0.00000000000E+00  0.00000000000E+00 -0.12157403887E+04  0.12157403887E+04  0.50400001928E-02 0. -1.
    10030    2    1    2    0    0  0.00000000000E+00  0.00000000000E+00  0.69422135510E+03  0.31257021325E+04  0.30476335953E+04 0.  0.
        5    1    3    3  502    0  0.20667862295E+03 -0.72010463623E+03  0.17080258973E+04  0.18651116042E+04  0.46999998093E+01 0.  1.
       -5    1    3    3    0  502 -0.20667862295E+03  0.72010463623E+03 -0.10138045422E+04  0.12605905283E+04  0.46999998093E+01 0. -1.
</event>
<event>
 5   0  0.1028450E-05  0.2088029E+04  0.7818609E-02  0.8566535E-01
       -2   -1    0    0    0  501  0.00000000000E+00  0.00000000000E+00  0.56959532369E+03  0.56959532369E+03  0.25500000920E-02 0. -1.
        2   -1    0    0  501    0  0.00000000000E+00  0.00000000000E+00 -0.19135795467E+04  0.19135795467E+04  0.25500000920E-02 0.  1.
    10030    2    1    2    0    0  0.00000000000E+00  0.00000000000E+00 -0.13439842230E+04  0.24831748704E+04  0.20880286984E+04 0.  0.
        3    1    3    3  502    0  0.16844219414E+03 -0.96140298419E+03 -0.23133363893E+03  0.10030871016E+04  0.10100000352E+00 0.  1.
       -3    1    3    3    0  502 -0.16844219414E+03  0.96140298419E+03 -0.11126505841E+04  0.14800877688E+04  0.10100000352E+00 0. -1.
</event>
<event>
 5   0  0.3725232E-06  0.2939638E+04  0.7818609E-02  0.8261181E-01
       -1   -1    0    0    0  501  0.00000000000E+00  0.00000000000E+00  0.15748453183E+04  0.15748453183E+04  0.50400001928E-02 0. -1.
        1   -1    0    0  501    0  0.00000000000E+00  0.00000000000E+00 -0.13717966345E+04  0.13717966345E+04  0.50400001928E-02 0.  1.
    10030    2    1    2    0    0  0.00000000000E+00  0.00000000000E+00  0.20304868380E+03  0.29466419529E+04  0.29396377379E+04 0.  0.
        2    1    3    3  502    0 -0.15008124661E+03 -0.65448779245E+03 -0.12090651782E+04  0.13830102155E+04  0.25500000920E-02 0.  1.
       -2    1    3    3    0  502  0.15008124661E+03  0.65448779245E+03  0.14121138620E+04  0.15636317374E+04  0.25500000920E-02 0. -1.
</event>
<event>
 5   0  0.3636718E-06  0.2453163E+04  0.7818609E-02  0.8419864E-01
        1   -1    0    0  501    0  0.00000000000E+00  0.00000000000E+00  0.13297672142E+04  0.13297672143E+04  0.50400001928E-02 0. -1.
       -1   -1    0    0    0  501  0.00000000000E+00  0.00000000000E+00 -0.11314023389E+04  0.11314023389E+04  0.50400001928E-02 0.  1.
    10030    2    1    2    0    0  0.00000000000E+00  0.00000000000E+00  0.19836487540E+03  0.24611695531E+04  0.24531626415E+04 0.  0.
        4    1    3    3  502    0 -0.11500806321E+04 -0.36772563175E+03 -0.11737510005E+03  0.12131307133E+04  0.12699999809E+01 0. -1.
       -4    1    3    3    0  502  0.11500806321E+04  0.36772563175E+03  0.31573997545E+03  0.12480388398E+04  0.12699999809E+01 0.  1.
</event>
<event>
 5   0  0.3592331E-06  0.2979637E+04  0.7818609E-02  0.8249570E-01
       -1   -1    0    0    0  501  0.00000000000E+00  0.00000000000E+00  0.10234170249E+04  0.10234170249E+04  0.50400001928E-02 0. -1.
        1   -1    0    0  501    0  0.00000000000E+00  0.00000000000E+00 -0.21687734085E+04  0.21687734085E+04  0.50400001928E-02 0.  1.
    10030    2    1    2    0    0  0.00000000000E+00  0.00000000000E+00 -0.11453563836E+04  0.31921904335E+04  0.29796373132E+04 0.  0.
        3    1    3    3  502    0  0.13155937853E+04 -0.59122695865E+03 -0.17293475575E+03  0.14526674652E+04  0.10100000352E+00 0.  1.
       -3    1    3    3    0  502 -0.13155937853E+04  0.59122695865E+03 -0.97242162787E+03  0.17395229683E+04  0.10100000352E+00 0. -1.
</event>
<event>
 5   0  0.3636718E-06  0.2879282E+04  0.7818609E-02  0.8279069E-01
       -1   -1    0    0    0  501  0.00000000000E+00  0.00000000000E+00  0.29508319409E+04  0.29508319409E+04  0.50400001928E-02 0. -1.
        1   -1    0    0  501    0  0.00000000000E+00  0.00000000000E+00 -0.70236658127E+03  0.70236658128E+03  0.50400001928E-02 0.  1.
    10030    2    1    2    0    0  0.00000000000E+00  0.00000000000E+00  0.22484653597E+04  0.36531985222E+04  0.28792816759E+04 0.  0.
        4    1    3    3  502    0  0.17738660056E+03 -0.12418209909E+04  0.22798066445E+03  0.12749753628E+04  0.12699999809E+01 0.  1.
       -4    1    3    3    0  502 -0.17738660056E+03  0.12418209909E+04  0.20204846952E+04  0.23782231594E+04  0.12699999809E+01 0. -1.
</event>
<event>
 5   0  0.9647945E-06  0.3001959E+04  0.7818609E-02  0.8243172E-01
        2   -1    0    0  501    0  0.00000000000E+00  0.00000000000E+00  0.28791207974E+04  0.28791207974E+04  0.25500000920E-02 0. -1.
       -2   -1    0    0    0  501  0.00000000000E+00  0.00000000000E+00 -0.78250973049E+03  0.78250973049E+03  0.25500000920E-02 0.  1.
    10030    2    1    2    0    0  0.00000000000E+00  0.00000000000E+00  0.20966110669E+04  0.36616305279E+04  0.30019593863E+04 0.  0.
        2    1    3    3  502    0 -0.71051167931E+03  0.10240259160E+04  0.28168212065E+02  0.12466953803E+04  0.25500000920E-02 0.  1.
       -2    1    3    3    0  502  0.71051167931E+03 -0.10240259160E+04  0.20684428548E+04  0.24149351475E+04  0.25500000920E-02 0. -1.
</event>
<event>
 5   0  0.1089569E-05  0.2943722E+04  0.7818609E-02  0.8259987E-01
       -2   -1    0    0    0  501  0.00000000000E+00  0.00000000000E+00  0.17215394531E+04  0.17215394531E+04  0.25500000920E-02 0.  1.
        2   -1    0    0  501    0  0.00000000000E+00  0.00000000000E+00 -0.12583936166E+04  0.12583936166E+04  0.25500000920E-02 0. -1.
    10030    2    1    2    0    0  0.00000000000E+00  0.00000000000E+00  0.46314583645E+03  0.29799330697E+04  0.29437216299E+04 0.  0.
        5    1    3    3  502    0  0.60265193446E+03  0.68914071179E+03 -0.93510059635E+03  0.13086403211E+04  0.46999998093E+01 0. -1.
       -5    1    3    3    0  502 -0.60265193446E+03 -0.68914071179E+03  0.13982464328E+04  0.16712927486E+04  0.46999998093E+01 0.  1.
</event>
<event>
 5   0  0.1028450E-05  0.2939619E+04  0.7818609E-02  0.8261186E-01
       -2   -1    0    0    0  501  0.00000000000E+00  0.00000000000E+00  0.86323280110E+03  0.86323280111E+03  0.25500000920E-02 0. -1.
        2   -1    0    0  501    0  0.00000000000E+00  0.00000000000E+00 -0.25026157289E+04  0.25026157289E+04  0.25500000920E-02 0.  1.
    10030    2    1    2    0    0  0.00000000000E+00  0.00000000000E+00 -0.16393829278E+04  0.33658485300E+04  0.29396190133E+04 0.  0.
        3    1    3    3  502    0 -0.12092699147E+04 -0.69811072709E+03 -0.13452025007E+04  0.19388816601E+04  0.10100000352E+00 0. -1.
       -3    1    3    3    0  502  0.12092699147E+04  0.69811072709E+03 -0.29418042713E+03  0.14269668699E+04  0.10100000352E+00 0.  1.
</event>
<event>
 5   0  0.1089569E-05  0.3034801E+04  0.7818609E-02  0.8233863E-01
        2   -1    0    0  501    0  0.00000000000E+00  0.00000000000E+00  0.18599042348E+04  0.18599042348E+04  0.25500000920E-02 0.  1.
       -2   -1    0    0    0  501  0.00000000000E+00  0.00000000000E+00 -0.12379690533E+04  0.12379690533E+04  0.25500000920E-02 0. -1.
    10030    2    1    2    0    0  0.00000000000E+00  0.00000000000E+00  0.62193518152E+03  0.30978732881E+04  0.30348007413E+04 0.  0.
        5    1    3    3  502    0  0.14387521273E+04  0.28306716748E+03  0.70939623116E+03  0.16289259676E+04  0.46999998093E+01 0.  1.
       -5    1    3    3    0  502 -0.14387521273E+04 -0.28306716748E+03 -0.87461049637E+02  0.14689473205E+04  0.46999998093E+01 0. -1.
</event>
<event>
 5   0  0.3636718E-06  0.2941381E+04  0.7818609E-02  0.8260671E-01
       -1   -1    0    0    0  501  0.00000000000E+00  0.00000000000E+00  0.74667690703E+03  0.74667690704E+03  0.50400001928E-02 0.  1.
        1   -1    0    0  501    0  0.00000000000E+00  0.00000000000E+00 -0.28967415455E+04  0.28967415455E+04  0.50400001928E-02 0. -1.
    10030    2    1    2    0    0  0.00000000000E+00  0.00000000000E+00 -0.21500646385E+04  0.36434184525E+04  0.29413806402E+04 0.  0.
        4    1    3    3  502    0 -0.27765016165E+03 -0.10074834210E+04 -0.23568174799E+04  0.25781199938E+04  0.12699999809E+01 0. -1.
       -4    1    3    3    0  502  0.27765016165E+03  0.10074834210E+04  0.20675284142E+03  0.10652984588E+04  0.12699999809E+01 0.  1.
</event>
<event>
 5   0  0.3896630E-06  0.2984753E+04  0.7818609E-02  0.8248098E-01
        1   -1    0    0  501    0  0.00000000000E+00  0.00000000000E+00  0.14508291399E+04  0.14508291399E+04  0.50400001928E-02 0.  1.
       -1   -1    0    0    0  501  0.00000000000E+00  0.00000000000E+00 -0.15351135932E+04  0.15351135932E+04  0.50400001928E-02 0. -1.
    10030    2    1    2    0    0  0.00000000000E+00  0.00000000000E+00 -0.84284453253E+02  0.29859427331E+04  0.29847529439E+04 0.  0.
        5    1    3    3  502    0  0.10629491065E+04  0.43063137862E+03 -0.99743714349E+03  0.15199365554E+04  0.46999998093E+01 0. -1.
       -5    1    3    3    0  502 -0.10629491065E+04 -0.43063137862E+03  0.91315269023E+03  0.14660061777E+04  0.46999998093E+01 0.  1.
</event>
<event>
 5   0  0.3592331E-06  0.2981079E+04  0.7818609E-02  0.8249155E-01
        1   -1    0    0  501    0  0.00000000000E+00  0.00000000000E+00  0.16933875892E+04  0.16933875892E+04  0.50400001928E-02 0. -1.
       -1   -1    0    0    0  501  0.00000000000E+00  0.00000000000E+00 -0.13119904225E+04  0.13119904225E+04  0.50400001928E-02 0.  1.
    10030    2    1    2    0    0  0.00000000000E+00  0.00000000000E+00  0.38139716676E+03  0.30053780117E+04  0.29810791996E+04 0.  0.
        3    1    3    3  502    0  0.25793529108E+03 -0.51075244990E+03  0.15782563463E+04  0.16787768715E+04  0.10100000352E+00 0. -1.
       -3    1    3    3    0  502 -0.25793529108E+03  0.51075244990E+03 -0.11968591795E+04  0.13266011402E+04  0.10100000352E+00 0.  1.
</event>
<event>
 5   0  0.3896630E-06  0.3024823E+04  0.7818609E-02  0.8236678E-01
       -1   -1    0    0    0  501  0.00000000000E+00  0.00000000000E+00  0.10143869561E+04  0.10143869561E+04  0.50400001928E-02 0. -1.
        1   -1    0    0  501    0  0.00000000000E+00  0.00000000000E+00 -0.22549474339E+04  0.22549474340E+04  0.50400001928E-02 0.  1.
    10030    2    1    2    0    0  0.00000000000E+00  0.00000000000E+00 -0.12405604779E+04  0.32693343901E+04  0.30248234750E+04 0.  0.
        5    1    3    3  502    0  0.90681838320E+03 -0.51389623959E+02  0.68677334442E+03  0.11387010978E+04  0.46999998093E+01 0. -1.
       -5    1    3    3    0  502 -0.90681838320E+03  0.51389623959E+02 -0.19273338223E+04  0.21306332922E+04  0.46999998093E+01 0.  1.
</event>
<event>
 5   0  0.9647945E-06  0.2994965E+04  0.7818609E-02  0.8245170E-01
       -2   -1    0    0    0  501  0.00000000000E+00  0.00000000000E+00  0.11582344741E+04  0.11582344741E+04  0.25500000920E-02 0.  1.
        2   -1    0    0  501    0  0.00000000000E+00  0.00000000000E+00 -0.19360960877E+04  0.19360960877E+04  0.25500000920E-02 0. -1.
    10030    2    1    2    0    0  0.00000000000E+00  0.00000000000E+00 -0.77786161363E+03  0.30943305618E+04  0.29949645967E+04 0.  0.
        2    1    3    3  502    0  0.94935736678E+03 -0.55165484430E+03  0.66311133858E+03  0.12826999355E+04  0.25500000920E-02 0.  1.
       -2    1    3    3    0  502 -0.94935736678E+03  0.55165484430E+03 -0.14409729522E+04  0.18116306263E+04  0.25500000920E-02 0. -1.
</event>
<event>
 5   0  0.1028450E-05  0.2175599E+04  0.7818609E-02  0.8528654E-01
       -2   -1    0    0    0  501  0.00000000000E+00  0.00000000000E+00  0.10863349348E+04  0.10863349348E+04  0.25500000920E-02 0. -1.
        2   -1    0    0  501    0  0.00000000000E+00  0.00000000000E+00 -0.10892657318E+04  0.10892657318E+04  0.25500000920E-02 0.  1.
    10030    2    1    2    0    0  0.00000000000E+00  0.00000000000E+00 -0.29307969238E+01  0.21756006666E+04  0.21755986925E+04 0.  0.
        3    1    3    3  502    0  0.27183305419E+03 -0.77447529578E+03  0.71239953220E+03  0.10868386710E+04  0.10100000352E+00 0. -1.
       -3    1    3    3    0  502 -0.27183305419E+03  0.77447529578E+03 -0.71533032912E+03  0.10887619956E+04  0.10100000352E+00 0.  1.
</event>
<event>
 5   0  0.1028450E-05  0.2970463E+04  0.7818609E-02  0.8252216E-01
       -2   -1    0    0    0  501  0.00000000000E+00  0.00000000000E+00  0.18414232608E+04  0.18414232608E+04  0.25500000920E-02 0.  1.
        2   -1    0    0  501    0  0.00000000000E+00  0.00000000000E+00 -0.11979386883E+04  0.11979386883E+04  0.25500000920E-02 0. -1.
    10030    2    1    2    0    0  0.00000000000E+00  0.00000000000E+00  0.64348457252E+03  0.30393619492E+04  0.29704627018E+04 0.  0.
        3    1    3    3  502    0 -0.13353987320E+03  0.10949296616E+04 -0.69591651505E+03  0.13042253133E+04  0.10100000352E+00 0. -1.
       -3    1    3    3    0  502  0.13353987320E+03 -0.10949296616E+04  0.13394010876E+04  0.17351366359E+04  0.10100000352E+00 0.  1.
</event>
<event>
 5   0  0.3725232E-06  0.2837157E+04  0.7818609E-02  0.8291825E-01
       -1   -1    0    0    0  501  0.00000000000E+00  0.00000000000E+00  0.14565874564E+04  0.14565874564E+04  0.50400001928E-02 0.  1.
        1   -1    0    0  501    0  0.00000000000E+00  0.00000000000E+00 -0.13815610660E+04  0.13815610660E+04  0.50400001928E-02 0. -1.
    10030    2    1    2    0    0  0.00000000000E+00  0.00000000000E+00  0.75026390416E+02  0.28381485225E+04  0.28371566887E+04 0.  0.
        2    1    3    3  502    0 -0.72497691546E+03 -0.94965210861E+03  0.80259025410E+03  0.14392990556E+04  0.25500000920E-02 0.  1.
       -2    1    3    3    0  502  0.72497691546E+03  0.94965210861E+03 -0.72756386368E+03  0.13988494669E+04  0.25500000920E-02 0. -1.
</event>
<event>
 5   0  0.1057036E-05  0.2980163E+04  0.7818609E-02  0.8249418E-01
       -2   -1    0    0    0  501  0.00000000000E+00  0.00000000000E+00  0.10434213858E+04  0.10434213858E+04  0.25500000920E-02 0. -1.
        2   -1    0    0  501    0  0.00000000000E+00  0.00000000000E+00 -0.21279448372E+04  0.21279448372E+04  0.25500000920E-02 0.  1.
    10030    2    1    2    0    0  0.00000000000E+00  0.00000000000E+00 -0.10845234514E+04  0.31713662230E+04  0.29801631841E+04 0.  0.
        4    1    3    3  502    0 -0.10677932592E+04 -0.45678929665E+03  0.45117612441E+03  0.12459536163E+04  0.12699999809E+01 0. -1.
       -4    1    3    3    0  502  0.10677932592E+04  0.45678929665E+03 -0.15356995758E+04  0.19254126067E+04  0.12699999809E+01 0.  1.
</event>
<event>
 5   0  0.1028450E-05  0.2986710E+04  0.7818609E-02  0.8247536E-01
        2   -1    0    0  501    0  0.00000000000E+00  0.00000000000E+00  0.16784440835E+04  0.16784440835E+04  0.25500000920E-02 0. -1.
       -2   -1    0    0    0  501  0.00000000000E+00  0.00000000000E+00 -0.13286762053E+04  0.13286762053E+04  0.25500000920E-02 0.  1.
    10030    2    1    2    0    0  0.00000000000E+00  0.00000000000E+00  0.34976787812E+03  0.30071202888E+04  0.29867097051E+04 0.  0.
        3    1    3    3  502    0  0.68534002794E+03  0.13203932807E+04  0.43688681119E+02  0.14883004000E+04  0.10100000352E+00 0. -1.
       -3    1    3    3    0  502 -0.68534002794E+03 -0.13203932807E+04  0.30607919700E+03  0.15188198888E+04  0.10100000352E+00 0.  1.
</event>
<event>
 5   0  0.1028450E-05  0.3019721E+04  0.7818609E-02  0.8238122E-01
       -2   -1    0    0    0  501  0.00000000000E+00  0.00000000000E+00  0.14820388693E+04  0.14820388693E+04  0.25500000920E-02 0.  1.
        2   -1    0    0  501    0  0.00000000000E+00  0.00000000000E+00 -0.15382047864E+04  0.15382047864E+04  0.25500000920E-02 0. -1.
    10030    2    1    2    0    0  0.00000000000E+00  0.00000000000E+00 -0.56165917077E+02  0.30202436558E+04  0.30197213663E+04 0.  0.
        3    1    3    3  502    0 -0.12552644220E+04 -0.28239369393E+03  0.76214502215E+03  0.14954263648E+04  0.10100000352E+00 0.  1.
       -3    1    3    3    0  502  0.12552644220E+04  0.28239369393E+03 -0.81831093922E+03  0.15248172910E+04  0.10100000352E+00 0. -1.
</event>
<event>
 5   0  0.1028450E-05  0.3077193E+04  0.7818609E-02  0.8222025E-01
        2   -1    0    0  501    0  0.00000000000E+00  0.00000000000E+00  0.18394018788E+04  0.18394018788E+04  0.25500000920E-02 0. -1.
       -2   -1    0    0    0  501  0.00000000000E+00  0.00000000000E+00 -0.12869827331E+04  0.12869827331E+04  0.25500000920E-02 0.  1.
    10030    2    1    2    0    0  0.00000000000E+00  0.00000000000E+00  0.55241914566E+03  0.31263846119E+04  0.30771925238E+04 0.  0.
        3    1    3    3  502    0  0.75619671986E+03 -0.16336864907E+03  0.16274158564E+04  0.18019448311E+04  0.10100000352E+00 0. -1.
       -3    1    3    3    0  502 -0.75619671986E+03  0.16336864907E+03 -0.10749967107E+04  0.13244397808E+04  0.10100000352E+00 0.  1.
</event>
<event>
 5   0  0.1089569E-05  0.3043195E+04  0.7818609E-02  0.8231503E-01
        2   -1    0    0  501    0  0.00000000000E+00  0.00000000000E+00  0.20500650754E+04  0.20500650754E+04  0.25500000920E-02 0. -1.
       -2   -1    0    0    0  501  0.00000000000E+00  0.00000000000E+00 -0.11293588002E+04  0.11293588002E+04  0.25500000920E-02 0.  1.
    10030    2    1    2    0    0  0.00000000000E+00  0.00000000000E+00  0.92070627515E+03  0.31794238756E+04  0.30431950539E+04 0.  0.
        5    1    3    3  502    0  0.75961048763E+03  0.12624286797E+04  0.63201285557E+02  0.14747036166E+04  0.46999998093E+01 0.  1.
       -5    1    3    3    0  502 -0.75961048763E+03 -0.12624286797E+04  0.85750498960E+03  0.17047202590E+04  0.46999998093E+01 0. -1.
</event>
<event>
 5   0  0.3592331E-06  0.3017658E+04  0.7818609E-02  0.8238706E-01
       -1   -1    0    0    0  501  0.00000000000E+00  0.00000000000E+00  0.95839453745E+03  0.95839453746E+03  0.50400001928E-02 0. -1.
        1   -1    0    0  501    0  0.00000000000E+00  0.00000000000E+00 -0.23753947021E+04  0.23753947021E+04  0.50400001928E-02 0.  1.
    10030    2    1    2    0    0  0.00000000000E+00  0.00000000000E+00 -0.14170001647E+04  0.33337892396E+04  0.30176582357E+04 0.  0.
        3    1    3    3  502    0 -0.38013082663E+03  0.13605918252E+04 -0.12939769459E+04  0.19157468274E+04  0.10100000352E+00 0.  1.
       -3    1    3    3    0  502  0.38013082663E+03 -0.13605918252E+04 -0.12302321873E+03  0.14180424121E+04  0.10100000352E+00 0. -1.
</event>
<event>
 5   0  0.3725232E-06  0.2928319E+04  0.7818609E-02  0.8264501E-01
        1   -1    0    0  501    0  0.00000000000E+00  0.00000000000E+00  0.19123469680E+04  0.19123469680E+04  0.50400001928E-02 0.  1.
       -1   -1    0    0    0  501  0.00000000000E+00  0.00000000000E+00 -0.11210115384E+04  0.11210115384E+04  0.50400001928E-02 0. -1.
    10030    2    1    2    0    0  0.00000000000E+00  0.00000000000E+00  0.79133542954E+03  0.30333585064E+04  0.29283189830E+04 0.  0.
        2    1    3    3  502    0  0.80620164557E+03 -0.11341248411E+02  0.16616661466E+04  0.18469499451E+04  0.25500000920E-02 0.  1.
       -2    1    3    3    0  502 -0.80620164557E+03  0.11341248411E+02 -0.87033071701E+03  0.11864085613E+04  0.25500000920E-02 0. -1.
</event>
<event>
 5   0  0.3636718E-06  0.2971312E+04  0.7818609E-02  0.8251971E-01
        1   -1    0    0  501    0  0.00000000000E+00  0.00000000000E+00  0.18402397482E+04  0.18402397482E+04  0.50400001928E-02 0. -1.
       -1   -1    0    0    0  501  0.00000000000E+00  0.00000000000E+00 -0.11993942794E+04  0.11993942794E+04  0.50400001928E-02 0.  1.
    10030    2    1    2    0    0  0.00000000000E+00  0.00000000000E+00  0.64084546881E+03  0.30396340277E+04  0.29713115130E+04 0.  0.
        4    1    3    3  502    0  0.52074505152E+03  0.90808507838E+03 -0.75803694122E+03  0.12924455638E+04  0.12699999809E+01 0.  1.
       -4    1    3    3    0  502 -0.52074505152E+03 -0.90808507838E+03  0.13988824100E+04  0.17471884639E+04  0.12699999809E+01 0. -1.
</event>
<event>
 5   0  0.1028450E-05  0.2907360E+04  0.7818609E-02  0.8270691E-01
       -2   -1    0    0    0  501  0.00000000000E+00  0.00000000000E+00  0.11903697619E+04  0.11903697619E+04  0.25500000920E-02 0.  1.
        2   -1    0    0  501    0  0.00000000000E+00  0.00000000000E+00 -0.17752347113E+04  0.17752347113E+04  0.25500000920E-02 0. -1.
    10030    2    1    2    0    0  0.00000000000E+00  0.00000000000E+00 -0.58486494943E+03  0.29656044732E+04  0.29073601226E+04 0.  0.
        3    1    3    3  502    0 -0.22324203307E+03  0.10371820205E+03 -0.17538208024E+04  0.17710115437E+04  0.10100000352E+00 0. -1.
       -3    1    3    3    0  502  0.22324203307E+03 -0.10371820205E+03  0.11689558530E+04  0.11945929295E+04  0.10100000352E+00 0.  1.
</event>
<event>
 5   0  0.1028450E-05  0.3014338E+04  0.7818609E-02  0.8239648E-01
       -2   -1    0    0    0  501  0.00000000000E+00  0.00000000000E+00  0.10744864959E+04  0.10744864959E+04  0.25500000920E-02 0.  1.
        2   -1    0    0  501    0  0.00000000000E+00  0.00000000000E+00 -0.21140876690E+04  0.21140876690E+04  0.25500000920E-02 0. -1.
    10030    2    1    2    0    0  0.00000000000E+00  0.00000000000E+00 -0.10396011731E+04  0.31885741650E+04  0.30143381705E+04 0.  0.
        3    1    3    3  502    0  0.11056795730E+04  0.71756440220E+02 -0.16005632288E+04  0.19466584098E+04  0.10100000352E+00 0. -1.
       -3    1    3    3    0  502 -0.11056795730E+04 -0.71756440220E+02  0.56096205568E+03  0.12419157552E+04  0.10100000352E+00 0.  1.
</event>
<event>
 5   0  0.1029922E-05  0.2376477E+04  0.7818609E-02  0.8448363E-01
       -2   -1    0    0    0  501  0.00000000000E+00  0.00000000000E+00  0.16929505448E+04  0.16929505448E+04  0.25500000920E-02 0. -1.
        2   -1    0    0  501    0  0.00000000000E+00  0.00000000000E+00 -0.83399374498E+03  0.83399374499E+03  0.25500000920E-02 0.  1.
    10030    2    1    2    0    0  0.00000000000E+00  0.00000000000E+00  0.85895679980E+03  0.25269442898E+04  0.23764765220E+04 0.  0.
        1    1    3    3  502    0 -0.72149803431E+03  0.78515052740E+03 -0.12801680523E+03  0.10739688388E+04  0.50400001928E-02 0.  1.
       -1    1    3    3    0  502  0.72149803431E+03 -0.78515052740E+03  0.98697360503E+03  0.14529754510E+04  0.50400001928E-02 0. -1.
</event>
<event>
 5   0  0.3852126E-06  0.3027889E+04  0.7818609E-02  0.8235811E-01
        1   -1    0    0  501    0  0.00000000000E+00  0.00000000000E+00  0.21256714056E+04  0.21256714056E+04  0.50400001928E-02 0. -1.
       -1   -1    0    0    0  501  0.00000000000E+00  0.00000000000E+00 -0.10782609492E+04  0.10782609492E+04  0.50400001928E-02 0.  1.
    10030    2    1    2    0    0  0.00000000000E+00  0.00000000000E+00  0.10474104564E+04  0.32039323548E+04  0.30278893424E+04 0.  0.
        1    1    3    3  502    0  0.48155651666E+03 -0.76008031959E+03  0.18120362441E+04  0.20231396692E+04  0.50400001928E-02 0. -1.
       -1    1    3    3    0  502 -0.48155651666E+03  0.76008031959E+03 -0.76462578777E+03  0.11807926856E+04  0.50400001928E-02 0.  1.
</event>
<event>
 5   0  0.9647945E-06  0.3051285E+04  0.7818609E-02  0.8229236E-01
        2   -1    0    0  501    0  0.00000000000E+00  0.00000000000E+00  0.14914849375E+04  0.14914849375E+04  0.25500000920E-02 0.  1.
       -2   -1    0    0    0  501  0.00000000000E+00  0.00000000000E+00 -0.15605819946E+04  0.15605819946E+04  0.25500000920E-02 0. -1.
    10030    2    1    2    0    0  0.00000000000E+00  0.00000000000E+00 -0.69097057122E+02  0.30520669322E+04  0.30512846729E+04 0.  0.
        2    1    3    3  502    0 -0.14019054908E+04  0.29768953948E+03 -0.55777581111E+03  0.15378790338E+04  0.25500000920E-02 0. -1.
       -2    1    3    3    0  502  0.14019054908E+04 -0.29768953948E+03  0.48867875399E+03  0.15141878984E+04  0.25500000920E-02 0.  1.
</event>
<event>
 5   0  0.1028450E-05  0.3017048E+04  0.7818609E-02  0.8238879E-01
        2   -1    0    0  501    0  0.00000000000E+00  0.00000000000E+00  0.16583591280E+04  0.16583591280E+04  0.25500000920E-02 0.  1.
       -2   -1    0    0    0  501  0.00000000000E+00  0.00000000000E+00 -0.13722270757E+04  0.13722270757E+04  0.25500000920E-02 0. -1.
    10030    2    1    2    0    0  0.00000000000E+00  0.00000000000E+00  0.28613205232E+03  0.30305862037E+04  0.30170484230E+04 0.  0.
        3    1    3    3  502    0  0.57237478917E+03  0.75182952759E+03 -0.10381291147E+04  0.14037708526E+04  0.10100000352E+00 0. -1.
       -3    1    3    3    0  502 -0.57237478917E+03 -0.75182952759E+03  0.13242611670E+04  0.16268153510E+04  0.10100000352E+00 0.  1.
</event>
<event>
 5   0  0.3852126E-06  0.2972229E+04  0.7818609E-02  0.8251706E-01
        1   -1    0    0  501    0  0.00000000000E+00  0.00000000000E+00  0.25841595041E+04  0.25841595041E+04  0.50400001928E-02 0. -1.
       -1   -1    0    0    0  501  0.00000000000E+00  0.00000000000E+00 -0.85464413631E+03  0.85464413632E+03  0.50400001928E-02 0.  1.
    10030    2    1    2    0    0  0.00000000000E+00  0.00000000000E+00  0.17295153678E+04  0.34388036404E+04  0.29722293098E+04 0.  0.
        1    1    3    3  502    0  0.20530702279E+03 -0.12660751579E+04  0.17332154553E+04  0.21561848468E+04  0.50400001928E-02 0. -1.
       -1    1    3    3    0  502 -0.20530702279E+03  0.12660751579E+04 -0.37000875243E+01  0.12826187936E+04  0.50400001928E-02 0.  1.
</event>
<event>
 5   0  0.1057036E-05  0.2702891E+04  0.7818609E-02  0.8334068E-01
       -2   -1    0    0    0  501  0.00000000000E+00  0.00000000000E+00  0.16720667918E+04  0.16720667918E+04  0.25500000920E-02 0. -1.
        2   -1    0    0  501    0  0.00000000000E+00  0.00000000000E+00 -0.10923036757E+04  0.10923036757E+04  0.25500000920E-02 0.  1.
    10030    2    1    2    0    0  0.00000000000E+00  0.00000000000E+00  0.57976311616E+03  0.27643704675E+04  0.27028908248E+04 0.  0.
        4    1    3    3  502    0 -0.92982112726E+03 -0.97967266976E+03  0.24326833650E+03  0.13724091828E+04  0.12699999809E+01 0.  1.
       -4    1    3    3    0  502  0.92982112726E+03  0.97967266976E+03  0.33649477966E+03  0.13919612847E+04  0.12699999809E+01 0. -1.
</event>
<event>
 5   0  0.3313750E-06  0.3037773E+04  0.7818609E-02  0.8233026E-01
       -3   -1    0    0    0  501  0.00000000000E+00  0.00000000000E+00  0.16027288308E+04  0.16027288340E+04  0.10100000352E+00 0. -1.
        3   -1    0    0  501    0  0.00000000000E+00  0.00000000000E+00 -0.14394301108E+04  0.14394301143E+04  0.10100000352E+00 0.  1.
    10030    2    1    2    0    0  0.00000000000E+00  0.00000000000E+00  0.16329872000E+03  0.30421589483E+04  0.30377729663E+04 0.  0.
        3    1    3    3  502    0  0.28448041178E+03 -0.28072029868E+03 -0.13858274483E+04  0.14423074282E+04  0.10100000352E+00 0.  1.
       -3    1    3    3    0  502 -0.28448041178E+03  0.28072029868E+03  0.15491261683E+04  0.15998515201E+04  0.10100000352E+00 0. -1.
</event>
<event>
 5   0  0.1089569E-05  0.2913582E+04  0.7818609E-02  0.8268848E-01
        2   -1    0    0  501    0  0.00000000000E+00  0.00000000000E+00  0.13849771284E+04  0.13849771284E+04  0.25500000920E-02 0.  1.
       -2   -1    0    0    0  501  0.00000000000E+00  0.00000000000E+00 -0.15323288336E+04  0.15323288336E+04  0.25500000920E-02 0. -1.
    10030    2    1    2    0    0  0.00000000000E+00  0.00000000000E+00 -0.14735170518E+03  0.29173059620E+04  0.29135822540E+04 0.  0.
        5    1    3    3  502    0 -0.98446537889E+03  0.36877467404E+03 -0.10834544445E+04  0.15096564065E+04  0.46999998093E+01 0. -1.
       -5    1    3    3    0  502  0.98446537889E+03 -0.36877467404E+03  0.93610273933E+03  0.14076495555E+04  0.46999998093E+01 0.  1.
</event>
<event>
 5   0  0.9647945E-06  0.3037580E+04  0.7818609E-02  0.8233080E-01
       -2   -1    0    0    0  501  0.00000000000E+00  0.00000000000E+00  0.13044153074E+04  0.13044153074E+04  0.25500000920E-02 0. -1.
        2   -1    0    0  501    0  0.00000000000E+00  0.00000000000E+00 -0.17683967733E+04  0.17683967733E+04  0.25500000920E-02 0.  1.
    10030    2    1    2    0    0  0.00000000000E+00  0.00000000000E+00 -0.46398146586E+03  0.30728120807E+04  0.30375804981E+04 0.  0.
        2    1    3    3  502    0 -0.24746393978E+03 -0.24521225188E+03 -0.17274319275E+04  0.17622112570E+04  0.25500000920E-02 0.  1.
       -2    1    3    3    0  502  0.24746393978E+03  0.24521225188E+03  0.12634504617E+04  0.13106008237E+04  0.25500000920E-02 0. -1.
</event>
<event>
 5   0  0.1028450E-05  0.3145704E+04  0.7818609E-02  0.8203306E-01
        2   -1    0    0  501    0  0.00000000000E+00  0.00000000000E+00  0.14934497897E+04  0.14934497897E+04  0.25500000920E-02 0.  1.
       -2   -1    0    0    0  501  0.00000000000E+00  0.00000000000E+00 -0.16564753628E+04  0.16564753628E+04  0.25500000920E-02 0. -1.
    10030    2    1    2    0    0  0.00000000000E+00  0.00000000000E+00 -0.16302557310E+03  0.31499251525E+04  0.31457035984E+04 0.  0.
        3    1    3    3  502    0  0.10626304384E+04  0.96497404512E+03 -0.72541884454E+03  0.16082881789E+04  0.10100000352E+00 0. -1.
       -3    1    3    3    0  502 -0.10626304384E+04 -0.96497404512E+03  0.56239327144E+03  0.15416369736E+04  0.10100000352E+00 0.  1.
</event>
<event>
 5   0  0.1089569E-05  0.2961359E+04  0.7818609E-02  0.8254852E-01
        2   -1    0    0  501    0  0.00000000000E+00  0.00000000000E+00  0.12700456020E+04  0.12700456020E+04  0.25500000920E-02 0.  1.
       -2   -1    0    0    0  501  0.00000000000E+00  0.00000000000E+00 -0.17262460705E+04  0.17262460705E+04  0.25500000920E-02 0. -1.
    10030    2    1    2    0    0  0.00000000000E+00  0.00000000000E+00 -0.45620046848E+03  0.29962916725E+04  0.29613586273E+04 0.  0.
        5    1    3    3  502    0  0.14179172923E+04 -0.14052863364E+03 -0.63553063158E+03  0.15601791623E+04  0.46999998093E+01 0. -1.
       -5    1    3    3    0  502 -0.14179172923E+04  0.14052863364E+03  0.17933016310E+03  0.14361125102E+04  0.46999998093E+01 0.  1.
</event>
<event>
 5   0  0.9647945E-06  0.2613339E+04  0.7818609E-02  0.8363684E-01
        2   -1    0    0  501    0  0.00000000000E+00  0.00000000000E+00  0.19785153690E+04  0.19785153690E+04  0.25500000920E-02 0.  1.
       -2   -1    0    0    0  501  0.00000000000E+00  0.00000000000E+00 -0.86296300787E+03  0.86296300788E+03  0.25500000920E-02 0. -1.
    10030    2    1    2    0    0  0.00000000000E+00  0.00000000000E+00  0.11155523612E+04  0.28414783769E+04  0.26133392998E+04 0.  0.
        2    1    3    3  502    0 -0.21811695462E+03 -0.15923523928E+03  0.19478408366E+04  0.19664726777E+04  0.25500000920E-02 0.  1.
       -2    1    3    3    0  502  0.21811695462E+03  0.15923523928E+03 -0.83228847544E+03  0.87500569923E+03  0.25500000920E-02 0. -1.
</event>
<event>
 5   0  0.1028450E-05  0.3229176E+04  0.7818609E-02  0.8181154E-01
       -2   -1    0    0    0  501  0.00000000000E+00  0.00000000000E+00  0.12934655599E+04  0.12934655599E+04  0.25500000920E-02 0. -1.
        2   -1    0    0  501    0  0.00000000000E+00  0.00000000000E+00 -0.20154337068E+04  0.20154337068E+04  0.25500000920E-02 0.  1.
    10030    2    1    2    0    0  0.00000000000E+00  0.00000000000E+00 -0.72196814683E+03  0.33088992667E+04  0.32291758007E+04 0.  0.
        3    1    3    3  502    0 -0.41505571164E+03  0.17073830023E+03  0.12282649150E+04  0.13076916771E+04  0.10100000352E+00 0. -1.
       -3    1    3    3    0  502  0.41505571164E+03 -0.17073830023E+03 -0.19502330618E+04  0.20012075895E+04  0.10100000352E+00 0.  1.
</event>
<event>
 5   0  0.3896630E-06  0.3020318E+04  0.7818609E-02  0.8237953E-01
       -1   -1    0    0    0  501  0.00000000000E+00  0.00000000000E+00  0.14625824978E+04  0.14625824979E+04  0.50400001928E-02 0. -1.
        1   -1    0    0  501    0  0.00000000000E+00  0.00000000000E+00 -0.15592827658E+04  0.15592827658E+04  0.50400001928E-02 0.  1.
    10030    2    1    2    0    0  0.00000000000E+00  0.00000000000E+00 -0.96700267988E+02  0.30218652637E+04  0.30203176538E+04 0.  0.
        5    1    3    3  502    0 -0.12624320736E+04  0.11281096751E+03 -0.86980465395E+03  0.15372193340E+04  0.46999998093E+01 0. -1.
       -5    1    3    3    0  502  0.12624320736E+04 -0.11281096751E+03  0.77310438596E+03  0.14846459297E+04  0.46999998093E+01 0.  1.
</event>
<event>
 5   0  0.1029922E-05  0.3010380E+04  0.7818609E-02  0.8240773E-01
        2   -1    0    0  501    0  0.00000000000E+00  0.00000000000E+00  0.29398943201E+04  0.29398943201E+04  0.25500000920E-02 0.  1.
       -2   -1    0    0    0  501  0.00000000000E+00  0.00000000000E+00 -0.77063892981E+03  0.77063892981E+03  0.25500000920E-02 0. -1.
    10030    2    1    2    0    0  0.00000000000E+00  0.00000000000E+00  0.21692553903E+04  0.37105332500E+04  0.30103800508E+04 0.  0.
        1    1    3    3  502    0  0.46627467693E+03  0.22006232663E+03 -0.65839751513E+03  0.83625760977E+03  0.50400001928E-02 0. -1.
       -1    1    3    3    0  502 -0.46627467693E+03 -0.22006232663E+03  0.28276529055E+04  0.28742756402E+04  0.50400001928E-02 0.  1.
</event>
<event>
 5   0  0.3592331E-06  0.2957321E+04  0.7818609E-02  0.8256024E-01
        1   -1    0    0  501    0  0.00000000000E+00  0.00000000000E+00  0.25645589456E+04  0.25645589456E+04  0.50400001928E-02 0.  1.
       -1   -1    0    0    0  501  0.00000000000E+00  0.00000000000E+00 -0.85255882977E+03  0.85255882979E+03  0.50400001928E-02 0. -1.
    10030    2    1    2    0    0  0.00000000000E+00  0.00000000000E+00  0.17120001158E+04  0.34171177754E+04  0.29573213377E+04 0.  0.
        3    1    3    3  502    0  0.70229848629E+02  0.11704471332E+04 -0.18492960270E+03  0.11870457832E+04  0.10100000352E+00 0. -1.
       -3    1    3    3    0  502 -0.70229848629E+02 -0.11704471332E+04  0.18969297185E+04  0.22300719922E+04  0.10100000352E+00 0.  1.
</event>
<event>
 5   0  0.1057036E-05  0.2930281E+04  0.7818609E-02  0.8263925E-01
        2   -1    0    0  501    0  0.00000000000E+00  0.00000000000E+00  0.14212261274E+04  0.14212261274E+04  0.25500000920E-02 0. -1.
       -2   -1    0    0    0  501  0.00000000000E+00  0.00000000000E+00 -0.15104120771E+04  0.15104120771E+04  0.25500000920E-02 0.  1.
    10030    2    1    2    0    0  0.00000000000E+00  0.00000000000E+00 -0.89185949746E+02  0.29316382045E+04  0.29302812883E+04 0.  0.
        4    1    3    3  502    0 -0.99890665438E+02  0.96074707097E+03 -0.11467484320E+04  0.14993487448E+04  0.12699999809E+01 0.  1.
       -4    1    3    3    0  502  0.99890665438E+02 -0.96074707097E+03  0.10575624823E+04  0.14322894597E+04  0.12699999809E+01 0. -1.
</event>
<event>
 5   0  0.1057036E-05  0.2869149E+04  0.7818609E-02  0.8282116E-01
       -2   -1    0    0    0  501  0.00000000000E+00  0.00000000000E+00  0.72525090369E+03  0.72525090370E+03  0.25500000920E-02 0. -1.
        2   -1    0    0  501    0  0.00000000000E+00  0.00000000000E+00 -0.28376450769E+04  0.28376450769E+04  0.25500000920E-02 0.  1.
    10030    2    1    2    0    0  0.00000000000E+00  0.00000000000E+00 -0.21123941732E+04  0.35628959806E+04  0.28691494603E+04 0.  0.
        4    1    3    3  502    0 -0.10639346768E+04 -0.16317163427E+03  0.12149429905E+03  0.10832102549E+04  0.12699999809E+01 0. -1.
       -4    1    3    3    0  502  0.10639346768E+04  0.16317163427E+03 -0.22338884723E+04  0.24796857257E+04  0.12699999809E+01 0.  1.
</event>
<event>
 5   0  0.1057036E-05  0.2936811E+04  0.7818609E-02  0.8262009E-01
       -2   -1    0    0    0  501  0.00000000000E+00  0.00000000000E+00  0.13646036345E+04  0.13646036346E+04  0.25500000920E-02 0. -1.
        2   -1    0    0  501    0  0.00000000000E+00  0.00000000000E+00 -0.15801029932E+04  0.15801029932E+04  0.25500000920E-02 0.  1.
    10030    2    1    2    0    0  0.00000000000E+00  0.00000000000E+00 -0.21549935870E+03  0.29447066278E+04  0.29368107107E+04 0.  0.
        4    1    3    3  502    0 -0.81321901903E+03 -0.82304171028E+03 -0.10143320335E+04  0.15386987739E+04  0.12699999809E+01 0.  1.
       -4    1    3    3    0  502  0.81321901903E+03  0.82304171028E+03  0.79883267485E+03  0.14060078538E+04  0.12699999809E+01 0. -1.
</event>
<event>
 5   0  0.1029922E-05  0.3072493E+04  0.7818609E-02  0.8223328E-01
        2   -1    0    0  501    0  0.00000000000E+00  0.00000000000E+00  0.15983664133E+04  0.15983664133E+04  0.25500000920E-02 0.  1.
       -2   -1    0    0    0  501  0.00000000000E+00  0.00000000000E+00 -0.14765406595E+04  0.14765406595E+04  0.25500000920E-02 0. -1.
    10030    2    1    2    0    0  0.00000000000E+00  0.00000000000E+00  0.12182575373E+03  0.30749070728E+04  0.30724927977E+04 0.  0.
        1    1    3    3  502    0  0.91642765319E+03  0.14604638814E+03  0.12861639902E+04  0.15859971629E+04  0.50400001928E-02 0.  1.
       -1    1    3    3    0  502 -0.91642765319E+03 -0.14604638814E+03 -0.11643382364E+04  0.14889099099E+04  0.50400001928E-02 0. -1.
</event>
<event>
 5   0  0.3852126E-06  0.3048323E+04  0.7818609E-02  0.8230065E-01
        1   -1    0    0  501    0  0.00000000000E+00  0.00000000000E+00  0.15064303012E+04  0.15064303012E+04  0.50400001928E-02 0. -1.
       -1   -1    0    0    0  501  0.00000000000E+00  0.00000000000E+00 -0.15421015300E+04  0.15421015300E+04  0.50400001928E-02 0.  1.
    10030    2    1    2    0    0  0.00000000000E+00  0.00000000000E+00 -0.35671228740E+02  0.30485318312E+04  0.30483231275E+04 0.  0.
        1    1    3    3  502    0  0.95800166106E+03 -0.72677922638E+03 -0.95443229945E+03  0.15352251433E+04  0.50400001928E-02 0.  1.
       -1    1    3    3    0  502 -0.95800166106E+03  0.72677922638E+03  0.91876107071E+03  0.15133066879E+04  0.50400001928E-02 0. -1.
</event>
<event>
 5   0  0.3896630E-06  0.3245353E+04  0.7818609E-02  0.8176941E-01
        1   -1    0    0  501    0  0.00000000000E+00  0.00000000000E+00  0.17632562993E+04  0.17632562993E+04  0.50400001928E-02 0.  1.
       -1   -1    0    0    0  501  0.00000000000E+00  0.00000000000E+00 -0.14933051521E+04  0.14933051521E+04  0.50400001928E-02 0. -1.
    10030    2    1    2    0    0  0.00000000000E+00  0.00000000000E+00  0.26995114719E+03  0.32565614514E+04  0.32453534268E+04 0.  0.
        5    1    3    3  502    0 -0.25783576841E+03  0.14271737996E+04  0.86533074540E+03  0.16888231780E+04  0.46999998093E+01 0.  1.
       -5    1    3    3    0  502  0.25783576841E+03 -0.14271737996E+04 -0.59537959821E+03  0.15677382733E+04  0.46999998093E+01 0. -1.
</event>
<event>
 5   0  0.1057036E-05  0.2988799E+04  0.7818609E-02  0.8246937E-01
        2   -1    0    0  501    0  0.00000000000E+00  0.00000000000E+00  0.21600265152E+04  0.21600265152E+04  0.25500000920E-02 0. -1.
       -2   -1    0    0    0  501  0.00000000000E+00  0.00000000000E+00 -0.10338901935E+04  0.10338901935E+04  0.25500000920E-02 0.  1.
    10030    2    1    2    0    0  0.00000000000E+00  0.00000000000E+00  0.11261363217E+04  0.31939167087E+04  0.29887992450E+04 0.  0.
        4    1    3    3  502    0  0.37836201425E+03 -0.60993923651E+03 -0.83762852310E+03  0.11030896798E+04  0.12699999809E+01 0.  1.
       -4    1    3    3    0  502 -0.37836201425E+03  0.60993923651E+03  0.19637648448E+04  0.20908270289E+04  0.12699999809E+01 0. -1.
</event>
<event>
 5   0  0.1029922E-05  0.2941782E+04  0.7818609E-02  0.8260553E-01
       -2   -1    0    0    0  501  0.00000000000E+00  0.00000000000E+00  0.79383332932E+03  0.79383332932E+03  0.25500000920E-02 0.  1.
        2   -1    0    0  501    0  0.00000000000E+00  0.00000000000E+00 -0.27254094303E+04  0.27254094303E+04  0.25500000920E-02 0. -1.
    10030    2    1    2    0    0  0.00000000000E+00  0.00000000000E+00 -0.19315761009E+04  0.35192427596E+04  0.29417823453E+04 0.  0.
        1    1    3    3  502    0  0.11844293010E+04  0.13183960341E+03 -0.19971496001E+04  0.23256958045E+04  0.50400001928E-02 0. -1.
       -1    1    3    3    0  502 -0.11844293010E+04 -0.13183960341E+03  0.65573499119E+02  0.11935469551E+04  0.50400001928E-02 0.  1.
</event>
<event>
 5   0  0.9647945E-06  0.2891996E+04  0.7818609E-02  0.8275263E-01
       -2   -1    0    0    0  501  0.00000000000E+00  0.00000000000E+00  0.11408201445E+04  0.11408201445E+04  0.25500000920E-02 0. -1.
        2   -1    0    0  501    0  0.00000000000E+00  0.00000000000E+00 -0.18328129899E+04  0.18328129899E+04  0.25500000920E-02 0.  1.
    10030    2    1    2    0    0  0.00000000000E+00  0.00000000000E+00 -0.69199284538E+03  0.29736331344E+04  0.28919958368E+04 0.  0.
        2    1    3    3  502    0 -0.41376054848E+03 -0.63830185774E+03 -0.16104597800E+04  0.17810692732E+04  0.25500000920E-02 0.  1.
       -2    1    3    3    0  502  0.41376054848E+03  0.63830185774E+03  0.91846693461E+03  0.11925638612E+04  0.25500000920E-02 0. -1.
</event>
<event>
 5   0  0.1089569E-05  0.3010152E+04  0.7818609E-02  0.8240838E-01
       -2   -1    0    0    0  501  0.00000000000E+00  0.00000000000E+00  0.96339802849E+03  0.96339802850E+03  0.25500000920E-02 0. -1.
        2   -1    0    0  501    0  0.00000000000E+00  0.00000000000E+00 -0.23513162802E+04  0.23513162802E+04  0.25500000920E-02 0.  1.
    10030    2    1    2    0    0  0.00000000000E+00  0.00000000000E+00 -0.13879182517E+04  0.33147143087E+04  0.30101518026E+04 0.  0.
        5    1    3    3  502    0  0.71834497056E+03 -0.11067245763E+04  0.10344356742E+03  0.13234732510E+04  0.46999998093E+01 0. -1.
       -5    1    3    3    0  502 -0.71834497056E+03  0.11067245763E+04 -0.14913618191E+04  0.19912410577E+04  0.46999998093E+01 0.  1.
</event>
<event>
 5   0  0.9647945E-06  0.2961487E+04  0.7818609E-02  0.8254815E-01
       -2   -1    0    0    0  501  0.00000000000E+00  0.00000000000E+00  0.64888458971E+03  0.64888458971E+03  0.25500000920E-02 0.  1.
        2   -1    0    0  501    0  0.00000000000E+00  0.00000000000E+00 -0.33790306847E+04  0.33790306847E+04  0.25500000920E-02 0. -1.
    10030    2    1    2    0    0  0.00000000000E+00  0.00000000000E+00 -0.27301460950E+04  0.40279152744E+04  0.29614867479E+04 0.  0.
        2    1    3    3  502    0 -0.43940697324E+03  0.89106579112E+03  0.12826627461E+03  0.10017629308E+04  0.25500000920E-02 0.  1.
       -2    1    3    3    0  502  0.43940697324E+03 -0.89106579112E+03 -0.28584123696E+04  0.30261523437E+04  0.25500000920E-02 0. -1.
</event>
<event>
 5   0  0.3592331E-06  0.3055252E+04  0.7818609E-02  0.8228127E-01
        1   -1    0    0  501    0  0.00000000000E+00  0.00000000000E+00  0.22006660520E+04  0.22006660520E+04  0.50400001928E-02 0.  1.
       -1   -1    0    0    0  501  0.00000000000E+00  0.00000000000E+00 -0.10604248707E+04  0.10604248707E+04  0.50400001928E-02 0. -1.
    10030    2    1    2    0    0  0.00000000000E+00  0.00000000000E+00  0.11402411813E+04  0.32610909227E+04  0.30552518808E+04 0.  0.
        3    1    3    3  502    0 -0.13716454345E+04 -0.64547836233E+03  0.36876459648E+03  0.15601412923E+04  0.10100000352E+00 0.  1.
       -3    1    3    3    0  502  0.13716454345E+04  0.64547836233E+03  0.77147658483E+03  0.17009496304E+04  0.10100000352E+00 0. -1.
</event>
<event>
 5   0  0.1029922E-05  0.2993301E+04  0.7818609E-02  0.8245646E-01
        2   -1    0    0  501    0  0.00000000000E+00  0.00000000000E+00  0.17816982747E+04  0.17816982747E+04  0.25500000920E-02 0.  1.
       -2   -1    0    0    0  501  0.00000000000E+00  0.00000000000E+00 -0.12572068649E+04  0.12572068649E+04  0.25500000920E-02 0. -1.
    10030    2    1    2    0    0  0.00000000000E+00  0.00000000000E+00  0.52449140979E+03  0.30389051396E+04  0.29933013895E+04 0.  0.
        1    1    3    3  502    0 -0.40443545330E+03  0.85646495831E+03  0.14387203097E+04  0.17225029434E+04  0.50400001928E-02 0.  1.
       -1    1    3    3    0  502  0.40443545330E+03 -0.85646495831E+03 -0.91422889986E+03  0.13164021962E+04  0.50400001928E-02 0. -1.
</event>
<event>
 5   0  0.3636718E-06  0.2975602E+04  0.7818609E-02  0.8250732E-01
       -1   -1    0    0    0  501  0.00000000000E+00  0.00000000000E+00  0.19561545827E+04  0.19561545827E+04  0.50400001928E-02 0. -1.
        1   -1    0    0  501    0  0.00000000000E+00  0.00000000000E+00 -0.11315836228E+04  0.11315836228E+04  0.50400001928E-02 0.  1.
    10030    2    1    2    0    0  0.00000000000E+00  0.00000000000E+00  0.82457095995E+03  0.30877382055E+04  0.29756024529E+04 0.  0.
        4    1    3    3  502    0  0.16074610591E+02  0.13917964407E+04  0.95763330859E+03  0.16895025576E+04  0.12699999809E+01 0. -1.
       -4    1    3    3    0  502 -0.16074610591E+02 -0.13917964407E+04 -0.13306234864E+03  0.13982356479E+04  0.12699999809E+01 0.  1.
</event>
<event>
 5   0  0.3636718E-06  0.2400873E+04  0.7818609E-02  0.8439177E-01
        1   -1    0    0  501    0  0.00000000000E+00  0.00000000000E+00  0.13196157693E+04  0.13196157693E+04  0.50400001928E-02 0. -1.
       -1   -1    0    0    0  501  0.00000000000E+00  0.00000000000E+00 -0.10920209240E+04  0.10920209240E+04  0.50400001928E-02 0.  1.
    10030    2    1    2    0    0  0.00000000000E+00  0.00000000000E+00  0.22759484532E+03  0.24116366934E+04  0.24008732010E+04 0.  0.
        4    1    3    3  502    0 -0.42428883743E+03 -0.37959577212E+03  0.11753856987E+04  0.13060042578E+04  0.12699999809E+01 0. -1.
       -4    1    3    3    0  502  0.42428883743E+03  0.37959577212E+03 -0.94779085343E+03  0.11056324355E+04  0.12699999809E+01 0.  1.
</event>
<event>
 5   0  0.1028450E-05  0.3019212E+04  0.7818609E-02  0.8238266E-01
        2   -1    0    0  501    0  0.00000000000E+00  0.00000000000E+00  0.15259527793E+04  0.15259527793E+04  0.25500000920E-02 0.  1.
       -2   -1    0    0    0  501  0.00000000000E+00  0.00000000000E+00 -0.14934345107E+04  0.14934345107E+04  0.25500000920E-02 0. -1.
    10030    2    1    2    0    0  0.00000000000E+00  0.00000000000E+00  0.32518268596E+02  0.30193872899E+04  0.30192121769E+04 0.  0.
        3    1    3    3  502    0  0.86653467695E+03  0.43251874641E+03 -0.11418044537E+04  0.14972215044E+04  0.10100000352E+00 0. -1.
       -3    1    3    3    0  502 -0.86653467695E+03 -0.43251874641E+03  0.11743227223E+04  0.15221657856E+04  0.10100000352E+00 0.  1.
</event>
<event>
 5   0  0.1089569E-05  0.3051746E+04  0.7818609E-02  0.8229107E-01
        2   -1    0    0  501    0  0.00000000000E+00  0.00000000000E+00  0.19031350952E+04  0.19031350952E+04  0.25500000920E-02 0. -1.
       -2   -1    0    0    0  501  0.00000000000E+00  0.00000000000E+00 -0.12233963160E+04  0.12233963161E+04  0.25500000920E-02 0.  1.
    10030    2    1    2    0    0  0.00000000000E+00  0.00000000000E+00  0.67973877915E+03  0.31265314113E+04  0.30517460343E+04 0.  0.
        5    1    3    3  502    0  0.28366467933E+03  0.53609862655E+03  0.17743234430E+04  0.18751301710E+04  0.46999998093E+01 0. -1.
       -5    1    3    3    0  502 -0.28366467933E+03 -0.53609862655E+03 -0.10945846639E+04  0.12514012403E+04  0.46999998093E+01 0.  1.
</event>
<event>
 5   0  0.1089569E-05  0.2718310E+04  0.7818609E-02  0.8329088E-01
        2   -1    0    0  501    0  0.00000000000E+00  0.00000000000E+00  0.86815433417E+03  0.86815433417E+03  0.25500000920E-02 0. -1.
       -2   -1    0    0    0  501  0.00000000000E+00  0.00000000000E+00 -0.21278503090E+04  0.21278503090E+04  0.25500000920E-02 0.  1.
    10030    2    1    2    0    0  0.00000000000E+00  0.00000000000E+00 -0.12596959748E+04  0.29960046431E+04  0.27183101134E+04 0.  0.
        5    1    3    3  502    0 -0.56506416322E+03  0.11029426735E+04 -0.12449862415E+04  0.17566425024E+04  0.46999998093E+01 0.  1.
       -5    1    3    3    0  502  0.56506416322E+03 -0.11029426735E+04 -0.14709733269E+02  0.12393621407E+04  0.46999998093E+01 0. -1.
</event>
<event>
 5   0  0.1029922E-05  0.2093814E+04  0.7818609E-02  0.8563973E-01
        2   -1    0    0  501    0  0.00000000000E+00  0.00000000000E+00  0.53765995889E+03  0.53765995890E+03  0.25500000920E-02 0.  1.
       -2   -1    0    0    0  501  0.00000000000E+00  0.00000000000E+00 -0.20384897980E+04  0.20384897980E+04  0.25500000920E-02 0. -1.
    10030    2    1    2    0    0  0.00000000000E+00  0.00000000000E+00 -0.15008298391E+04  0.25761497569E+04  0.20938140710E+04 0.  0.
        1    1    3    3  502    0 -0.10065708473E+04  0.11432161836E+03 -0.10753797382E+04  0.14773949656E+04  0.50400001928E-02 0. -1.
       -1    1    3    3    0  502  0.10065708473E+04 -0.11432161836E+03 -0.42545010098E+03  0.10987547914E+04  0.50400001928E-02 0.  1.
</event>
<event>
 5   0  0.3852126E-06  0.3119408E+04  0.7818609E-02  0.8210432E-01
       -1   -1    0    0    0  501  0.00000000000E+00  0.00000000000E+00  0.13309333068E+04  0.13309333068E+04  0.50400001928E-02 0.  1.
        1   -1    0    0  501    0  0.00000000000E+00  0.00000000000E+00 -0.18277976239E+04  0.18277976239E+04  0.50400001928E-02 0. -1.
    10030    2    1    2    0    0  0.00000000000E+00  0.00000000000E+00 -0.49686431710E+03  0.31587309306E+04  0.31194081077E+04 0.  0.
        1    1    3    3  502    0 -0.14753251120E+04  0.23732791951E+02  0.26343915633E+03  0.14988487651E+04  0.50400001928E-02 0.  1.
       -1    1    3    3    0  502  0.14753251120E+04 -0.23732791951E+02 -0.76030347343E+03  0.16598821655E+04  0.50400001928E-02 0. -1.
</event>
<event>
 5   0  0.3313750E-06  0.2993688E+04  0.7818609E-02  0.8245536E-01
        3   -1    0    0  501    0  0.00000000000E+00  0.00000000000E+00  0.15957541152E+04  0.15957541184E+04  0.10100000352E+00 0. -1.
       -3   -1    0    0    0  501  0.00000000000E+00  0.00000000000E+00 -0.14040648600E+04  0.14040648637E+04  0.10100000352E+00 0.  1.
    10030    2    1    2    0    0  0.00000000000E+00  0.00000000000E+00  0.19168925513E+03  0.29998189820E+04  0.29936882193E+04 0.  0.
        3    1    3    3  502    0  0.26276611230E+03  0.10028171723E+04  0.11778030153E+04  0.15690469285E+04  0.10100000352E+00 0. -1.
       -3    1    3    3    0  502 -0.26276611230E+03 -0.10028171723E+04 -0.98611376022E+03  0.14307720535E+04  0.10100000352E+00 0.  1.
</event>
<event>
 5   0  0.1089569E-05  0.2983879E+04  0.7818609E-02  0.8248349E-01
        2   -1    0    0  501    0  0.00000000000E+00  0.00000000000E+00  0.19296650979E+04  0.19296650979E+04  0.25500000920E-02 0.  1.
       -2   -1    0    0    0  501  0.00000000000E+00  0.00000000000E+00 -0.11535074711E+04  0.11535074711E+04  0.25500000920E-02 0. -1.
    10030    2    1    2    0    0  0.00000000000E+00  0.00000000000E+00  0.77615762682E+03  0.30831725691E+04  0.29838787557E+04 0.  0.
        5    1    3    3  502    0  0.33480210961E+02  0.13900255046E+04 -0.17081712707E+03  0.14008898632E+04  0.46999998093E+01 0. -1.
       -5    1    3    3    0  502 -0.33480210961E+02 -0.13900255046E+04  0.94697475389E+03  0.16822827059E+04  0.46999998093E+01 0.  1.
</event>
<event>
 5   0  0.9647945E-06  0.2947055E+04  0.7818609E-02  0.8259013E-01
        2   -1    0    0  501    0  0.00000000000E+00  0.00000000000E+00  0.13711623046E+04  0.13711623046E+04  0.25500000920E-02 0.  1.
       -2   -1    0    0    0  501  0.00000000000E+00  0.00000000000E+00 -0.15835343547E+04  0.15835343548E+04  0.25500000920E-02 0. -1.
    10030    2    1    2    0    0  0.00000000000E+00  0.00000000000E+00 -0.21237205019E+03  0.29546966593E+04  0.29470545398E+04 0.  0.
        2    1    3    3  502    0 -0.13000818468E+04 -0.69350692832E+03 -0.95297511801E+02  0.14765657059E+04  0.25500000920E-02 0.  1.
       -2    1    3    3    0  502  0.13000818468E+04  0.69350692832E+03 -0.11707453839E+03  0.14781309534E+04  0.25500000920E-02 0. -1.
</event>
<event>
 5   0  0.1028450E-05  0.3218588E+04  0.7818609E-02  0.8183925E-01
       -2   -1    0    0    0  501  0.00000000000E+00  0.00000000000E+00  0.11241079267E+04  0.11241079267E+04  0.25500000920E-02 0. -1.
        2   -1    0    0  501    0  0.00000000000E+00  0.00000000000E+00 -0.23038961352E+04  0.23038961352E+04  0.25500000920E-02 0.  1.
    10030    2    1    2    0    0  0.00000000000E+00  0.00000000000E+00 -0.11797882086E+04  0.34280040619E+04  0.32185884533E+04 0.  0.
        3    1    3    3  502    0  0.24542662569E+03  0.15690937169E+04 -0.86668501900E+03  0.18092629033E+04  0.10100000352E+00 0. -1.
       -3    1    3    3    0  502 -0.24542662569E+03 -0.15690937169E+04 -0.31310318955E+03  0.16187411586E+04  0.10100000352E+00 0.  1.
</event>
<event>
 5   0  0.3852126E-06  0.2524954E+04  0.7818609E-02  0.8394149E-01
       -1   -1    0    0    0  501  0.00000000000E+00  0.00000000000E+00  0.13752945142E+04  0.13752945142E+04  0.50400001928E-02 0. -1.
        1   -1    0    0  501    0  0.00000000000E+00  0.00000000000E+00 -0.11589138499E+04  0.11589138499E+04  0.50400001928E-02 0.  1.
    10030    2    1    2    0    0  0.00000000000E+00  0.00000000000E+00  0.21638066425E+03  0.25342083641E+04  0.25249537503E+04 0.  0.
        1    1    3    3  502    0  0.10029125206E+04 -0.76675609485E+03  0.98182461034E+02  0.12662496707E+04  0.50400001928E-02 0. -1.
       -1    1    3    3    0  502 -0.10029125206E+04  0.76675609485E+03  0.11819820322E+03  0.12679586934E+04  0.50400001928E-02 0.  1.
</event>
<event>
 5   0  0.1028450E-05  0.3008494E+04  0.7818609E-02  0.8241309E-01
       -2   -1    0    0    0  501  0.00000000000E+00  0.00000000000E+00  0.89691779577E+03  0.89691779577E+03  0.25500000920E-02 0.  1.
        2   -1    0    0  501    0  0.00000000000E+00  0.00000000000E+00 -0.25228169767E+04  0.25228169767E+04  0.25500000920E-02 0. -1.
    10030    2    1    2    0    0  0.00000000000E+00  0.00000000000E+00 -0.16258991809E+04  0.34197347725E+04  0.30084942692E+04 0.  0.
        3    1    3    3  502    0  0.84510304167E+03  0.12207166526E+04 -0.53822909733E+03  0.15792526297E+04  0.10100000352E+00 0.  1.
       -3    1    3    3    0  502 -0.84510304167E+03 -0.12207166526E+04 -0.10876700836E+04  0.18404821428E+04  0.10100000352E+00 0. -1.
</event>
<event>
 5   0  0.3313750E-06  0.3007364E+04  0.7818609E-02  0.8241631E-01
       -4   -1    0    0    0  501  0.00000000000E+00  0.00000000000E+00  0.13620423053E+04  0.13620428974E+04  0.12699999809E+01 0. -1.
        4   -1    0    0  501    0  0.00000000000E+00  0.00000000000E+00 -0.16600501301E+04  0.16600506159E+04  0.12699999809E+01 0.  1.
    10030    2    1    2    0    0  0.00000000000E+00  0.00000000000E+00 -0.29800782480E+03  0.30220935133E+04  0.30073643842E+04 0.  0.
        5    1    3    3  502    0 -0.32544625503E+03 -0.13098373480E+04  0.51715223246E+03  0.14453572792E+04  0.46999998093E+01 0. -1.
       -5    1    3    3    0  502  0.32544625503E+03  0.13098373480E+04 -0.81516005726E+03  0.15767362341E+04  0.46999998093E+01 0.  1.
</event>
<event>
 5   0  0.3852126E-06  0.2979779E+04  0.7818609E-02  0.8249529E-01
        1   -1    0    0  501    0  0.00000000000E+00  0.00000000000E+00  0.27611055802E+04  0.27611055802E+04  0.50400001928E-02 0.  1.
       -1   -1    0    0    0  501  0.00000000000E+00  0.00000000000E+00 -0.80394250044E+03  0.80394250046E+03  0.50400001928E-02 0. -1.
    10030    2    1    2    0    0  0.00000000000E+00  0.00000000000E+00  0.19571630798E+04  0.35650480807E+04  0.29797785986E+04 0.  0.
        1    1    3    3  502    0  0.35706036520E+03  0.14304296437E+04  0.12355991005E+04  0.19236231978E+04  0.50400001928E-02 0.  1.
       -1    1    3    3    0  502 -0.35706036520E+03 -0.14304296437E+04  0.72156397923E+03  0.16414248829E+04  0.50400001928E-02 0. -1.
</event>
<event>
 5   0  0.3725232E-06  0.3034017E+04  0.7818609E-02  0.8234083E-01
       -1   -1    0    0    0  501  0.00000000000E+00  0.00000000000E+00  0.13345612672E+04  0.13345612672E+04  0.50400001928E-02 0. -1.
        1   -1    0    0  501    0  0.00000000000E+00  0.00000000000E+00 -0.17243982349E+04  0.17243982349E+04  0.50400001928E-02 0.  1.
    10030    2    1    2    0    0  0.00000000000E+00  0.00000000000E+00 -0.38983696770E+03  0.30589595020E+04  0.30340172006E+04 0.  0.
        2    1    3    3  502    0  0.51837451081E+03  0.11025011623E+04  0.71644524153E+03  0.14133346138E+04  0.25500000920E-02 0. -1.
       -2    1    3    3    0  502 -0.51837451081E+03 -0.11025011623E+04 -0.11062822092E+04  0.16456248883E+04  0.25500000920E-02 0.  1.
</event>
<event>
 5   0  0.1057036E-05  0.3059262E+04  0.7818609E-02  0.8227008E-01
        2   -1    0    0  501    0  0.00000000000E+00  0.00000000000E+00  0.18106257675E+04  0.18106257675E+04  0.25500000920E-02 0.  1.
       -2   -1    0    0    0  501  0.00000000000E+00  0.00000000000E+00 -0.12922443990E+04  0.12922443990E+04  0.25500000920E-02 0. -1.
    10030    2    1    2    0    0  0.00000000000E+00  0.00000000000E+00  0.51838136845E+03  0.31028701665E+04  0.30592620069E+04 0.  0.
        4    1    3    3  502    0 -0.38944684878E+03  0.73754673000E+03  0.15597027792E+04  0.17687052890E+04  0.12699999809E+01 0.  1.
       -4    1    3    3    0  502  0.38944684878E+03 -0.73754673000E+03 -0.10413214107E+04  0.13341648775E+04  0.12699999809E+01 0. -1.
</event>
<event>
 5   0  0.1057036E-05  0.2891808E+04  0.7818609E-02  0.8275319E-01
        2   -1    0    0  501    0  0.00000000000E+00  0.00000000000E+00  0.13525301813E+04  0.13525301813E+04  0.25500000920E-02 0.  1.
       -2   -1    0    0    0  501  0.00000000000E+00  0.00000000000E+00 -0.15457241802E+04  0.15457241802E+04  0.25500000920E-02 0. -1.
    10030    2    1    2    0    0  0.00000000000E+00  0.00000000000E+00 -0.19319399895E+03  0.28982543615E+04  0.28918081580E+04 0.  0.
        4    1    3    3  502    0 -0.61155243528E+03 -0.12573965550E+04 -0.46564943943E+03  0.14737277533E+04  0.12699999809E+01 0. -1.
       -4    1    3    3    0  502  0.61155243528E+03  0.12573965550E+04  0.27245544049E+03  0.14245266082E+04  0.12699999809E+01 0.  1.
</event>
<event>
 5   0  0.9647945E-06  0.3004680E+04  0.7818609E-02  0.8242396E-01
       -2   -1    0    0    0  501  0.00000000000E+00  0.00000000000E+00  0.17792149552E+04  0.17792149552E+04  0.25500000920E-02 0.  1.
        2   -1    0    0  501    0  0.00000000000E+00  0.00000000000E+00 -0.12685514511E+04  0.12685514511E+04  0.25500000920E-02 0. -1.
    10030    2    1    2    0    0  0.00000000000E+00  0.00000000000E+00  0.51066350414E+03  0.30477664063E+04  0.30046801582E+04 0.  0.
        2    1    3    3  502    0 -0.51707097827E+03 -0.41592841231E+03  0.16224972096E+04  0.17529563703E+04  0.25500000920E-02 0.  1.
       -2    1    3    3    0  502  0.51707097827E+03  0.41592841231E+03 -0.11118337055E+04  0.12948100360E+04  0.25500000920E-02 0. -1.
</event>
<event>
 5   0  0.1029922E-05  0.3021115E+04  0.7818609E-02  0.8237727E-01
        2   -1    0    0  501    0  0.00000000000E+00  0.00000000000E+00  0.29930100027E+04  0.29930100027E+04  0.25500000920E-02 0. -1.
       -2   -1    0    0    0  501  0.00000000000E+00  0.00000000000E+00 -0.76237101553E+03  0.76237101553E+03  0.25500000920E-02 0.  1.
    10030    2    1    2    0    0  0.00000000000E+00  0.00000000000E+00  0.22306389872E+04  0.37553810183E+04  0.30211150758E+04 0.  0.
        1    1    3    3  502    0  0.13543702864E+04  0.42146272840E+03  0.17610263131E+04  0.22612305012E+04  0.50400001928E-02 0. -1.
       -1    1    3    3    0  502 -0.13543702864E+04 -0.42146272840E+03  0.46961267408E+03  0.14941505171E+04  0.50400001928E-02 0.  1.
</event>
<event>
 5   0  0.1057036E-05  0.3258870E+04  0.7818609E-02  0.8173440E-01
       -2   -1    0    0    0  501  0.00000000000E+00  0.00000000000E+00  0.19510716031E+04  0.19510716031E+04  0.25500000920E-02 0.  1.
        2   -1    0    0  501    0  0.00000000000E+00  0.00000000000E+00 -0.13608207004E+04  0.13608207004E+04  0.25500000920E-02 0. -1.
    10030    2    1    2    0    0  0.00000000000E+00  0.00000000000E+00  0.59025090268E+03  0.33118923034E+04  0.32588701265E+04 0.  0.
        4    1    3    3  502    0  0.22394737232E+03 -0.50308526436E+03 -0.12633869089E+04  0.13781855112E+04  0.12699999809E+01 0. -1.
       -4    1    3    3    0  502 -0.22394737232E+03  0.50308526436E+03  0.18536378116E+04  0.19337067922E+04  0.12699999809E+01 0.  1.
</event>
<event>
 5   0  0.1089569E-05  0.2239509E+04  0.7818609E-02  0.8502161E-01
        2   -1    0    0  501    0  0.00000000000E+00  0.00000000000E+00  0.13813520057E+04  0.13813520057E+04  0.25500000920E-02 0.  1.
       -2   -1    0    0    0  501  0.00000000000E+00  0.00000000000E+00 -0.90769744487E+03  0.90769744487E+03  0.25500000920E-02 0. -1.
    10030    2    1    2    0    0  0.00000000000E+00  0.00000000000E+00  0.47365456085E+03  0.22890494506E+04  0.22395085944E+04 0.  0.
        5    1    3    3  502    0  0.90832616356E+02  0.71869975576E+03  0.11095582980E+04  0.13251119235E+04  0.46999998093E+01 0.  1.
       -5    1    3    3    0  502 -0.90832616356E+02 -0.71869975576E+03 -0.63590373719E+03  0.96393752707E+03  0.46999998093E+01 0. -1.
</event>
<event>
 5   0  0.3592331E-06  0.2732565E+04  0.7818609E-02  0.8324515E-01
       -1   -1    0    0    0  501  0.00000000000E+00  0.00000000000E+00  0.19437085896E+04  0.19437085896E+04  0.50400001928E-02 0.  1.
        1   -1    0    0  501    0  0.00000000000E+00  0.00000000000E+00 -0.96039496745E+03  0.96039496746E+03  0.50400001928E-02 0. -1.
    10030    2    1    2    0    0  0.00000000000E+00  0.00000000000E+00  0.98331362218E+03  0.29041035571E+04  0.27325650570E+04 0.  0.
        3    1    3    3  502    0 -0.59403354037E+03 -0.81812148080E+03 -0.48501568452E+03  0.11213557994E+04  0.10100000352E+00 0. -1.
       -3    1    3    3    0  502  0.59403354037E+03  0.81812148080E+03  0.14683293067E+04  0.17827477577E+04  0.10100000352E+00 0.  1.
</event>
<event>
 5   0  0.3592331E-06  0.3015871E+04  0.7818609E-02  0.8239213E-01
       -1   -1    0    0    0  501  0.00000000000E+00  0.00000000000E+00  0.15792523695E+04  0.15792523695E+04  0.50400001928E-02 0.  1.
        1   -1    0    0  501    0  0.00000000000E+00  0.00000000000E+00 -0.14398394347E+04  0.14398394347E+04  0.50400001928E-02 0. -1.
    10030    2    1    2    0    0  0.00000000000E+00  0.00000000000E+00  0.13941293480E+03  0.30190918042E+04  0.30158712433E+04 0.  0.
        3    1    3    3  502    0 -0.28465975182E+03  0.12285503154E+04 -0.75791865414E+03  0.14713285657E+04  0.10100000352E+00 0. -1.
       -3    1    3    3    0  502  0.28465975182E+03 -0.12285503154E+04  0.89733158894E+03  0.15477632385E+04  0.10100000352E+00 0.  1.
</event>
<event>
 5   0  0.3636718E-06  0.3003026E+04  0.7818609E-02  0.8242867E-01
        1   -1    0    0  501    0  0.00000000000E+00  0.00000000000E+00  0.12524342055E+04  0.12524342056E+04  0.50400001928E-02 0. -1.
       -1   -1    0    0    0  501  0.00000000000E+00  0.00000000000E+00 -0.18001275040E+04  0.18001275040E+04  0.50400001928E-02 0.  1.
    10030    2    1    2    0    0  0.00000000000E+00  0.00000000000E+00 -0.54769329845E+03  0.30525617096E+04  0.30030259808E+04 0.  0.
        4    1    3    3  502    0 -0.46680237677E+03  0.37632512978E+03  0.11254559511E+04  0.12752167553E+04  0.12699999809E+01 0. -1.
       -4    1    3    3    0  502  0.46680237677E+03 -0.37632512978E+03 -0.16731492495E+04  0.17773449543E+04  0.12699999809E+01 0.  1.
</event>
<event>
 5   0  0.3852126E-06  0.3003978E+04  0.7818609E-02  0.8242596E-01
        1   -1    0    0  501    0  0.00000000000E+00  0.00000000000E+00  0.20024772892E+04  0.20024772892E+04  0.50400001928E-02 0. -1.
       -1   -1    0    0    0  501  0.00000000000E+00  0.00000000000E+00 -0.11265898071E+04  0.11265898071E+04  0.50400001928E-02 0.  1.
    10030    2    1    2    0    0  0.00000000000E+00  0.00000000000E+00  0.87588748217E+03  0.31290670963E+04  0.30039776983E+04 0.  0.
        1    1    3    3  502    0  0.96884277628E+03  0.11324842441E+04  0.24364591274E+03  0.15101457609E+04  0.50400001928E-02 0. -1.
       -1    1    3    3    0  502 -0.96884277628E+03 -0.11324842441E+04  0.63224156944E+03  0.16189213355E+04  0.50400001928E-02 0.  1.
</event>
<event>
 5   0  0.1029922E-05  0.3025153E+04  0.7818609E-02  0.8236585E-01
       -2   -1    0    0    0  501  0.00000000000E+00  0.00000000000E+00  0.14594709343E+04  0.14594709343E+04  0.25500000920E-02 0.  1.
        2   -1    0    0  501    0  0.00000000000E+00  0.00000000000E+00 -0.15676142222E+04  0.15676142222E+04  0.25500000920E-02 0. -1.
    10030    2    1    2    0    0  0.00000000000E+00  0.00000000000E+00 -0.10814328788E+03  0.30270851564E+04  0.30251528182E+04 0.  0.
        1    1    3    3  502    0  0.54874019866E+03  0.68709820743E+03 -0.12855761177E+04  0.15575383484E+04  0.50400001928E-02 0. -1.
       -1    1    3    3    0  502 -0.54874019866E+03 -0.68709820743E+03  0.11774328298E+04  0.14695468080E+04  0.50400001928E-02 0.  1.
</event>
<event>
 5   0  0.1057036E-05  0.2882849E+04  0.7818609E-02  0.8277999E-01
        2   -1    0    0  501    0  0.00000000000E+00  0.00000000000E+00  0.89341310134E+03  0.89341310134E+03  0.25500000920E-02 0. -1.
       -2   -1    0    0    0  501  0.00000000000E+00  0.00000000000E+00 -0.23255804313E+04  0.23255804313E+04  0.25500000920E-02 0.  1.
    10030    2    1    2    0    0  0.00000000000E+00  0.00000000000E+00 -0.14321673300E+04  0.32189935327E+04  0.28828486090E+04 0.  0.
        4    1    3    3  502    0 -0.12072846181E+04  0.51423610574E+03 -0.50110112514E+02  0.13131974558E+04  0.12699999809E+01 0.  1.
       -4    1    3    3    0  502  0.12072846181E+04 -0.51423610574E+03 -0.13820572175E+04  0.19057960769E+04  0.12699999809E+01 0. -1.
</event>
<event>
 5   0  0.9647945E-06  0.2507439E+04  0.7818609E-02  0.8400340E-01
        2   -1    0    0  501    0  0.00000000000E+00  0.00000000000E+00  0.18998310583E+04  0.18998310583E+04  0.25500000920E-02 0.  1.
       -2   -1    0    0    0  501  0.00000000000E+00  0.00000000000E+00 -0.82734301790E+03  0.82734301791E+03  0.25500000920E-02 0. -1.
    10030    2    1    2    0    0  0.00000000000E+00  0.00000000000E+00  0.10724880404E+04  0.27271740762E+04  0.25074385028E+04 0.  0.
        2    1    3    3  502    0 -0.11948985170E+04 -0.26129466624E+03  0.83559939031E+03  0.14813114830E+04  0.25500000920E-02 0.  1.
       -2    1    3    3    0  502  0.11948985170E+04  0.26129466624E+03  0.23688865011E+03  0.12458625932E+04  0.25500000920E-02 0. -1.
</event>
<event>
 5   0  0.3313750E-06  0.3025452E+04  0.7818609E-02  0.8236500E-01
       -3   -1    0    0    0  501  0.00000000000E+00  0.00000000000E+00  0.12931706696E+04  0.12931706735E+04  0.10100000352E+00 0.  1.
        3   -1    0    0  501    0  0.00000000000E+00  0.00000000000E+00 -0.17695578707E+04  0.17695578736E+04  0.10100000352E+00 0. -1.
    10030    2    1    2    0    0  0.00000000000E+00  0.00000000000E+00 -0.47638720112E+03  0.30627285471E+04  0.30254522617E+04 0.  0.
        4    1    3    3  502    0  0.75678185800E+03 -0.56513834346E+03 -0.14343776940E+04  0.17174228104E+04  0.12699999809E+01 0. -1.
       -4    1    3    3    0  502 -0.75678185800E+03  0.56513834346E+03  0.95799049287E+03  0.13453057367E+04  0.12699999809E+01 0.  1.
</event>
<event>
 5   0  0.3592331E-06  0.3152376E+04  0.7818609E-02  0.8201509E-01
       -1   -1    0    0    0  501  0.00000000000E+00  0.00000000000E+00  0.10768503844E+04  0.10768503844E+04  0.50400001928E-02 0. -1.
        1   -1    0    0  501    0  0.00000000000E+00  0.00000000000E+00 -0.23070700757E+04  0.23070700757E+04  0.50400001928E-02 0.  1.
    10030    2    1    2    0    0  0.00000000000E+00  0.00000000000E+00 -0.12302196913E+04  0.33839204600E+04  0.31523764355E+04 0.  0.
        3    1    3    3  502    0  0.10747666439E+04  0.25020949814E+02 -0.18524310353E+04  0.21417866695E+04  0.10100000352E+00 0.  1.
       -3    1    3    3    0  502 -0.10747666439E+04 -0.25020949814E+02  0.62221134403E+03  0.12421337906E+04  0.10100000352E+00 0. -1.
</event>
<event>
 5   0  0.1029922E-05  0.2989132E+04  0.7818609E-02  0.8246841E-01
        2   -1    0    0  501    0  0.00000000000E+00  0.00000000000E+00  0.23888593655E+04  0.23888593655E+04  0.25500000920E-02 0.  1.
       -2   -1    0    0    0  501  0.00000000000E+00  0.00000000000E+00 -0.93506033626E+03  0.93506033626E+03  0.25500000920E-02 0. -1.
    10030    2    1    2    0    0  0.00000000000E+00  0.00000000000E+00  0.14537990293E+04  0.33239197018E+04  0.29891320758E+04 0.  0.
        1    1    3    3  502    0 -0.69340881706E+03 -0.13232570319E+04  0.77540473424E+03  0.16831748162E+04  0.50400001928E-02 0. -1.
       -1    1    3    3    0  502  0.69340881706E+03  0.13232570319E+04  0.67839429501E+03  0.16407448856E+04  0.50400001928E-02 0.  1.
</event>
<event>
 5   0  0.3636718E-06  0.2509637E+04  0.7818609E-02  0.8399560E-01
       -1   -1    0    0    0  501  0.00000000000E+00  0.00000000000E+00  0.10238419120E+04  0.10238419120E+04  0.50400001928E-02 0.  1.
        1   -1    0    0  501    0  0.00000000000E+00  0.00000000000E+00 -0.15379033657E+04  0.15379033657E+04  0.50400001928E-02 0. -1.
    10030    2    1    2    0    0  0.00000000000E+00  0.00000000000E+00 -0.51406145371E+03  0.25617452778E+04  0.25096373622E+04 0.  0.
        4    1    3    3  502    0  0.73934703784E+03 -0.18894853399E+02 -0.12917730517E+04  0.14885127772E+04  0.12699999809E+01 0. -1.
       -4    1    3    3    0  502 -0.73934703784E+03  0.18894853399E+02  0.77771159795E+03  0.10732325006E+04  0.12699999809E+01 0.  1.
</event>
<event>
 5   0  0.3592331E-06  0.3030111E+04  0.7818609E-02  0.8235184E-01
       -1   -1    0    0    0  501  0.00000000000E+00  0.00000000000E+00  0.13309781065E+04  0.13309781065E+04  0.50400001928E-02 0. -1.
        1   -1    0    0  501    0  0.00000000000E+00  0.00000000000E+00 -0.17245910117E+04  0.17245910117E+04  0.50400001928E-02 0.  1.
    10030    2    1    2    0    0  0.00000000000E+00  0.00000000000E+00 -0.39361290522E+03  0.30555691182E+04  0.30301108093E+04 0.  0.
        3    1    3    3  502    0 -0.34008339509E+03 -0.10887854146E+04 -0.12023213135E+04  0.16573131707E+04  0.10100000352E+00 0.  1.
       -3    1    3    3    0  502  0.34008339509E+03  0.10887854146E+04  0.80870840833E+03  0.13982559474E+04  0.10100000352E+00 0. -1.
</event>
<event>
 5   0  0.3852126E-06  0.3013950E+04  0.7818609E-02  0.8239759E-01
        1   -1    0    0  501    0  0.00000000000E+00  0.00000000000E+00  0.14954113460E+04  0.14954113460E+04  0.50400001928E-02 0. -1.
       -1   -1    0    0    0  501  0.00000000000E+00  0.00000000000E+00 -0.15186278163E+04  0.15186278163E+04  0.50400001928E-02 0.  1.
    10030    2    1    2    0    0  0.00000000000E+00  0.00000000000E+00 -0.23216470348E+02  0.30140391623E+04  0.30139497453E+04 0.  0.
        1    1    3    3  502    0 -0.59093840478E+03 -0.13852650264E+04 -0.64580319582E+02  0.15074276133E+04  0.50400001928E-02 0.  1.
       -1    1    3    3    0  502  0.59093840478E+03  0.13852650264E+04  0.41363849234E+02  0.15066115490E+04  0.50400001928E-02 0. -1.
</event>
<event>
 5   0  0.3313750E-06  0.3012440E+04  0.7818609E-02  0.8240187E-01
        3   -1    0    0  501    0  0.00000000000E+00  0.00000000000E+00  0.12808777927E+04  0.12808777966E+04  0.10100000352E+00 0.  1.
       -3   -1    0    0    0  501  0.00000000000E+00  0.00000000000E+00 -0.17712066585E+04  0.17712066613E+04  0.10100000352E+00 0. -1.
    10030    2    1    2    0    0  0.00000000000E+00  0.00000000000E+00 -0.49032886580E+03  0.30520844580E+04  0.30124403964E+04 0.  0.
        4    1    3    3  502    0 -0.11726659695E+04 -0.94274369915E+03 -0.17506931658E+03  0.15147811845E+04  0.12699999809E+01 0. -1.
       -4    1    3    3    0  502  0.11726659695E+04  0.94274369915E+03 -0.31525954922E+03  0.15373032735E+04  0.12699999809E+01 0.  1.
</event>
<event>
 5   0  0.3592331E-06  0.2840480E+04  0.7818609E-02  0.8290810E-01
       -1   -1    0    0    0  501  0.00000000000E+00  0.00000000000E+00  0.74572497316E+03  0.74572497318E+03  0.50400001928E-02 0. -1.
        1   -1    0    0  501    0  0.00000000000E+00  0.00000000000E+00 -0.27048607546E+04  0.27048607546E+04  0.50400001928E-02 0.  1.
    10030    2    1    2    0    0  0.00000000000E+00  0.00000000000E+00 -0.19591357815E+04  0.34505857278E+04  0.28404803915E+04 0.  0.
        3    1    3    3  502    0 -0.81773435134E+03 -0.11068760016E+04 -0.55314692777E+03  0.14831842388E+04  0.10100000352E+00 0. -1.
       -3    1    3    3    0  502  0.81773435134E+03  0.11068760016E+04 -0.14059888537E+04  0.19674014890E+04  0.10100000352E+00 0.  1.
</event>
<event>
 5   0  0.1057036E-05  0.3069769E+04  0.7818609E-02  0.8224084E-01
       -2   -1    0    0    0  501  0.00000000000E+00  0.00000000000E+00  0.10809744113E+04  0.10809744113E+04  0.25500000920E-02 0. -1.
        2   -1    0    0  501    0  0.00000000000E+00  0.00000000000E+00 -0.21793945039E+04  0.21793945039E+04  0.25500000920E-02 0.  1.
    10030    2    1    2    0    0  0.00000000000E+00  0.00000000000E+00 -0.10984200926E+04  0.32603689152E+04  0.30697685195E+04 0.  0.
        4    1    3    3  502    0  0.10283185605E+04 -0.10812662393E+04 -0.16731193846E+03  0.15015227736E+04  0.12699999809E+01 0. -1.
       -4    1    3    3    0  502 -0.10283185605E+04  0.10812662393E+04 -0.93110815416E+03  0.17588461416E+04  0.12699999809E+01 0.  1.
</event>
<event>
 5   0  0.1029922E-05  0.2951414E+04  0.7818609E-02  0.8257743E-01
       -2   -1    0    0    0  501  0.00000000000E+00  0.00000000000E+00  0.11203175145E+04  0.11203175145E+04  0.25500000920E-02 0. -1.
        2   -1    0    0  501    0  0.00000000000E+00  0.00000000000E+00 -0.19438336398E+04  0.19438336398E+04  0.25500000920E-02 0.  1.
    10030    2    1    2    0    0  0.00000000000E+00  0.00000000000E+00 -0.82351612530E+03  0.30641511543E+04  0.29514138117E+04 0.  0.
        1    1    3    3  502    0 -0.98526311226E+03 -0.20859152662E+03  0.70808008303E+03  0.12311097552E+04  0.50400001928E-02 0. -1.
       -1    1    3    3    0  502  0.98526311226E+03  0.20859152662E+03 -0.15315962083E+04  0.18330413991E+04  0.50400001928E-02 0.  1.
</event>
<event>
 5   0  0.3636718E-06  0.2949236E+04  0.7818609E-02  0.8258377E-01
        1   -1    0    0  501    0  0.00000000000E+00  0.00000000000E+00  0.13461368267E+04  0.13461368267E+04  0.50400001928E-02 0. -1.
       -1   -1    0    0    0  501  0.00000000000E+00  0.00000000000E+00 -0.16153615789E+04  0.16153615789E+04  0.50400001928E-02 0.  1.
    10030    2    1    2    0    0  0.00000000000E+00  0.00000000000E+00 -0.26922475220E+03  0.29614984056E+04  0.29492356364E+04 0.  0.
        4    1    3    3  502    0 -0.41976417879E+03  0.11135056087E+04 -0.10090946646E+04  0.15602468912E+04  0.12699999809E+01 0.  1.
       -4    1    3    3    0  502  0.41976417879E+03 -0.11135056087E+04  0.73986991245E+03  0.14012515144E+04  0.12699999809E+01 0. -1.
</event>
<event>
 5   0  0.1089569E-05  0.2821685E+04  0.7818609E-02  0.8296568E-01
        2   -1    0    0  501    0  0.00000000000E+00  0.00000000000E+00  0.18012885991E+04  0.18012885991E+04  0.25500000920E-02 0. -1.
       -2   -1    0    0    0  501  0.00000000000E+00  0.00000000000E+00 -0.11050289461E+04  0.11050289461E+04  0.25500000920E-02 0.  1.
    10030    2    1    2    0    0  0.00000000000E+00  0.00000000000E+00  0.69625965299E+03  0.29063175451E+04  0.28216846331E+04 0.  0.
        5    1    3    3  502    0  0.12348498163E+04  0.52841486344E+03 -0.96533657468E+02  0.13466317884E+04  0.46999998093E+01 0.  1.
       -5    1    3    3    0  502 -0.12348498163E+04 -0.52841486344E+03  0.79279331046E+03  0.15596857567E+04  0.46999998093E+01 0. -1.
</event>
<event>
 5   0  0.3636718E-06  0.3047091E+04  0.7818609E-02  0.8230410E-01
       -1   -1    0    0    0  501  0.00000000000E+00  0.00000000000E+00  0.11527468663E+04  0.11527468663E+04  0.50400001928E-02 0. -1.
        1   -1    0    0  501    0  0.00000000000E+00  0.00000000000E+00 -0.20136177086E+04  0.20136177086E+04  0.50400001928E-02 0.  1.
    10030    2    1    2    0    0  0.00000000000E+00  0.00000000000E+00 -0.86087084238E+03  0.31663645749E+04  0.30470914023E+04 0.  0.
        4    1    3    3  502    0  0.31884728341E+03 -0.12552139395E+04  0.40344988425E+03  0.13564656450E+04  0.12699999809E+01 0. -1.
       -4    1    3    3    0  502 -0.31884728341E+03  0.12552139395E+04 -0.12643207266E+04  0.18098989300E+04  0.12699999809E+01 0.  1.
</event>
<event>
 5   0  0.3852126E-06  0.2991873E+04  0.7818609E-02  0.8246055E-01
        1   -1    0    0  501    0  0.00000000000E+00  0.00000000000E+00  0.20297113673E+04  0.20297113673E+04  0.50400001928E-02 0.  1.
       -1   -1    0    0    0  501  0.00000000000E+00  0.00000000000E+00 -0.11025342682E+04  0.11025342682E+04  0.50400001928E-02 0. -1.
    10030    2    1    2    0    0  0.00000000000E+00  0.00000000000E+00  0.92717709917E+03  0.31322456355E+04  0.29918732172E+04 0.  0.
        1    1    3    3  502    0 -0.11735354649E+04  0.80496896216E+03 -0.19205016284E+02  0.14232109296E+04  0.50400001928E-02 0. -1.
       -1    1    3    3    0  502  0.11735354649E+04 -0.80496896216E+03  0.94638211546E+03  0.17090347059E+04  0.50400001928E-02 0.  1.
</event>
<event>
 5   0  0.3592331E-06  0.2998313E+04  0.7818609E-02  0.8244213E-01
       -1   -1    0    0    0  501  0.00000000000E+00  0.00000000000E+00  0.16486732331E+04  0.16486732331E+04  0.50400001928E-02 0. -1.
        1   -1    0    0  501    0  0.00000000000E+00  0.00000000000E+00 -0.13631996854E+04  0.13631996854E+04  0.50400001928E-02 0.  1.
    10030    2    1    2    0    0  0.00000000000E+00  0.00000000000E+00  0.28547354774E+03  0.30118729186E+04  0.29983134144E+04 0.  0.
        3    1    3    3  502    0 -0.76876746280E+03 -0.89979850232E+03  0.10671321196E+04  0.15935531768E+04  0.10100000352E+00 0. -1.
       -3    1    3    3    0  502  0.76876746280E+03  0.89979850232E+03 -0.78165857182E+03  0.14183197417E+04  0.10100000352E+00 0.  1.
</event>
<event>
 5   0  0.3592331E-06  0.2954057E+04  0.7818609E-02  0.8256973E-01
        1   -1    0    0  501    0  0.00000000000E+00  0.00000000000E+00  0.20344074819E+04  0.20344074819E+04  0.50400001928E-02 0.  1.
       -1   -1    0    0    0  501  0.00000000000E+00  0.00000000000E+00 -0.10723578858E+04  0.10723578858E+04  0.50400001928E-02 0. -1.
    10030    2    1    2    0    0  0.00000000000E+00  0.00000000000E+00  0.96204959609E+03  0.31067653677E+04  0.29540568080E+04 0.  0.
        3    1    3    3  502    0  0.36864813647E+02  0.94959240292E+03  0.16701970305E+04  0.19216250616E+04  0.10100000352E+00 0.  1.
       -3    1    3    3    0  502 -0.36864813647E+02 -0.94959240292E+03 -0.70814743445E+03  0.11851403062E+04  0.10100000352E+00 0. -1.
</event>
<event>
 5   0  0.1089569E-05  0.3022874E+04  0.7818609E-02  0.8237229E-01
        2   -1    0    0  501    0  0.00000000000E+00  0.00000000000E+00  0.22328321987E+04  0.22328321987E+04  0.25500000920E-02 0. -1.
       -2   -1    0    0    0  501  0.00000000000E+00  0.00000000000E+00 -0.10231142937E+04  0.10231142937E+04  0.25500000920E-02 0.  1.
    10030    2    1    2    0    0  0.00000000000E+00  0.00000000000E+00  0.12097179051E+04  0.32559464924E+04  0.30228744849E+04 0.  0.
        5    1    3    3  502    0 -0.98646382582E+03  0.11405410376E+04  0.49461649768E+03  0.15870136445E+04  0.46999998093E+01 0.  1.
       -5    1    3    3    0  502  0.98646382582E+03 -0.11405410376E+04  0.71510140740E+03  0.16689328479E+04  0.46999998093E+01 0. -1.
</event>
<event>
 5   0  0.1029922E-05  0.2954355E+04  0.7818609E-02  0.8256886E-01
       -2   -1    0    0    0  501  0.00000000000E+00  0.00000000000E+00  0.14494939676E+04  0.14494939676E+04  0.25500000920E-02 0. -1.
        2   -1    0    0  501    0  0.00000000000E+00  0.00000000000E+00 -0.15053901087E+04  0.15053901087E+04  0.25500000920E-02 0.  1.
    10030    2    1    2    0    0  0.00000000000E+00  0.00000000000E+00 -0.55896141106E+02  0.29548840763E+04  0.29543553486E+04 0.  0.
        1    1    3    3  502    0  0.69205626559E+03 -0.82497758929E+03 -0.10393283203E+04  0.14965738388E+04  0.50400001928E-02 0.  1.
       -1    1    3    3    0  502 -0.69205626559E+03  0.82497758929E+03  0.98343217920E+03  0.14583102375E+04  0.50400001928E-02 0. -1.
</event>
<event>
 5   0  0.3636718E-06  0.3001876E+04  0.7818609E-02  0.8243195E-01
       -1   -1    0    0    0  501  0.00000000000E+00  0.00000000000E+00  0.14930536555E+04  0.14930536555E+04  0.50400001928E-02 0. -1.
        1   -1    0    0  501    0  0.00000000000E+00  0.00000000000E+00 -0.15088642428E+04  0.15088642428E+04  0.50400001928E-02 0.  1.
    10030    2    1    2    0    0  0.00000000000E+00  0.00000000000E+00 -0.15810587334E+02  0.30019178983E+04  0.30018762622E+04 0.  0.
        4    1    3    3  502    0  0.40098260701E+03 -0.16006892804E+03 -0.14454246397E+04  0.15085301173E+04  0.12699999809E+01 0.  1.
       -4    1    3    3    0  502 -0.40098260701E+03  0.16006892804E+03  0.14296140524E+04  0.14933877810E+04  0.12699999809E+01 0. -1.
</event>
<event>
 5   0  0.3592331E-06  0.2042421E+04  0.7818609E-02  0.8587041E-01
       -1   -1    0    0    0  501  0.00000000000E+00  0.00000000000E+00  0.87294659248E+03  0.87294659249E+03  0.50400001928E-02 0. -1.
        1   -1    0    0  501    0  0.00000000000E+00  0.00000000000E+00 -0.11946554255E+04  0.11946554255E+04  0.50400001928E-02 0.  1.
    10030    2    1    2    0    0  0.00000000000E+00  0.00000000000E+00 -0.32170883301E+03  0.20676020180E+04  0.20424205080E+04 0.  0.
        3    1    3    3  502    0 -0.30260142059E+03 -0.97154807676E+03 -0.73787700811E+02  0.10202538509E+04  0.10100000352E+00 0. -1.
       -3    1    3    3    0  502  0.30260142059E+03  0.97154807676E+03 -0.24792113220E+03  0.10473481671E+04  0.10100000352E+00 0.  1.
</event>
<event>
 5   0  0.1089569E-05  0.2755179E+04  0.7818609E-02  0.8317320E-01
        2   -1    0    0  501    0  0.00000000000E+00  0.00000000000E+00  0.32868927201E+04  0.32868927201E+04  0.25500000920E-02 0.  1.
       -2   -1    0    0    0  501  0.00000000000E+00  0.00000000000E+00 -0.57736973980E+03  0.57736973980E+03  0.25500000920E-02 0. -1.
    10030    2    1    2    0    0  0.00000000000E+00  0.00000000000E+00  0.27095229803E+04  0.38642624599E+04  0.27551786835E+04 0.  0.
        5    1    3    3  502    0  0.11172174073E+03 -0.12908789890E+04  0.20109367912E+04  0.23922247344E+04  0.46999998093E+01 0.  1.
       -5    1    3    3    0  502 -0.11172174073E+03  0.12908789890E+04  0.69858618910E+03  0.14720377255E+04  0.46999998093E+01 0. -1.
</event>
<event>
 5   0  0.3896630E-06  0.3101640E+04  0.7818609E-02  0.8215288E-01
        1   -1    0    0  501    0  0.00000000000E+00  0.00000000000E+00  0.19386286842E+04  0.19386286842E+04  0.50400001928E-02 0. -1.
       -1   -1    0    0    0  501  0.00000000000E+00  0.00000000000E+00 -0.12405892653E+04  0.12405892653E+04  0.50400001928E-02 0.  1.
    10030    2    1    2    0    0  0.00000000000E+00  0.00000000000E+00  0.69803941887E+03  0.31792179495E+04  0.31016395245E+04 0.  0.
        5    1    3    3  502    0  0.49102419639E+03 -0.36258764090E+03 -0.11122770157E+04  0.12687619196E+04  0.46999998093E+01 0.  1.
       -5    1    3    3    0  502 -0.49102419639E+03  0.36258764090E+03  0.18103164346E+04  0.19104560299E+04  0.46999998093E+01 0. -1.
</event>
<event>
 5   0  0.3592331E-06  0.3022498E+04  0.7818609E-02  0.8237336E-01
        1   -1    0    0  501    0  0.00000000000E+00  0.00000000000E+00  0.20658238284E+04  0.20658238284E+04  0.50400001928E-02 0. -1.
       -1   -1    0    0    0  501  0.00000000000E+00  0.00000000000E+00 -0.11055506179E+04  0.11055506180E+04  0.50400001928E-02 0.  1.
    10030    2    1    2    0    0  0.00000000000E+00  0.00000000000E+00  0.96027321043E+03  0.31713744463E+04  0.30224975170E+04 0.  0.
        3    1    3    3  502    0  0.10150654200E+03  0.49222933952E+03  0.19755677195E+04  0.20384948185E+04  0.10100000352E+00 0. -1.
       -3    1    3    3    0  502 -0.10150654200E+03 -0.49222933952E+03 -0.10152945091E+04  0.11328796278E+04  0.10100000352E+00 0.  1.
</event>
<event>
 5   0  0.1057036E-05  0.3013247E+04  0.7818609E-02  0.8239958E-01
        2   -1    0    0  501    0  0.00000000000E+00  0.00000000000E+00  0.18576653140E+04  0.18576653140E+04  0.25500000920E-02 0.  1.
       -2   -1    0    0    0  501  0.00000000000E+00  0.00000000000E+00 -0.12219174354E+04  0.12219174354E+04  0.25500000920E-02 0. -1.
    10030    2    1    2    0    0  0.00000000000E+00  0.00000000000E+00  0.63574787861E+03  0.30795827494E+04  0.30132465125E+04 0.  0.
        4    1    3    3  502    0  0.60025710207E+03  0.57900437637E+03  0.16002307301E+04  0.18045206175E+04  0.12699999809E+01 0.  1.
       -4    1    3    3    0  502 -0.60025710207E+03 -0.57900437637E+03 -0.96448285152E+03  0.12750621319E+04  0.12699999809E+01 0. -1.
</event>
<event>
 5   0  0.9647945E-06  0.2524729E+04  0.7818609E-02  0.8394228E-01
       -2   -1    0    0    0  501  0.00000000000E+00  0.00000000000E+00  0.92808479229E+03  0.92808479229E+03  0.25500000920E-02 0.  1.
        2   -1    0    0  501    0  0.00000000000E+00  0.00000000000E+00 -0.17170464466E+04  0.17170464466E+04  0.25500000920E-02 0. -1.
    10030    2    1    2    0    0  0.00000000000E+00  0.00000000000E+00 -0.78896165427E+03  0.26451312388E+04  0.25247294467E+04 0.  0.
        2    1    3    3  502    0  0.25735402101E+03  0.26223323035E+03 -0.16597869827E+04  0.16999677018E+04  0.25500000920E-02 0. -1.
       -2    1    3    3    0  502 -0.25735402101E+03 -0.26223323035E+03  0.87082532840E+03  0.94516353708E+03  0.25500000920E-02 0.  1.
</event>
<event>
 5   0  0.3725232E-06  0.3005680E+04  0.7818609E-02  0.8242111E-01
        1   -1    0    0  501    0  0.00000000000E+00  0.00000000000E+00  0.17291903448E+04  0.17291903448E+04  0.50400001928E-02 0. -1.
       -1   -1    0    0    0  501  0.00000000000E+00  0.00000000000E+00 -0.13061188101E+04  0.13061188101E+04  0.50400001928E-02 0.  1.
    10030    2    1    2    0    0  0.00000000000E+00  0.00000000000E+00  0.42307153471E+03  0.30353091548E+04  0.30056799800E+04 0.  0.
        2    1    3    3  502    0  0.19858049620E+03 -0.17600445500E+03  0.17053458597E+04  0.17258668208E+04  0.25500000920E-02 0. -1.
       -2    1    3    3    0  502 -0.19858049620E+03  0.17600445500E+03 -0.12822743250E+04  0.13094423341E+04  0.25500000920E-02 0.  1.
</event>
<event>
 5   0  0.9647945E-06  0.2982564E+04  0.7818609E-02  0.8248727E-01
        2   -1    0    0  501    0  0.00000000000E+00  0.00000000000E+00  0.14004236522E+04  0.14004236522E+04  0.25500000920E-02 0. -1.
       -2   -1    0    0    0  501  0.00000000000E+00  0.00000000000E+00 -0.15880353484E+04  0.15880353484E+04  0.25500000920E-02 0.  1.
    10030    2    1    2    0    0  0.00000000000E+00  0.00000000000E+00 -0.18761169626E+03  0.29884590006E+04  0.29825641736E+04 0.  0.
        2    1    3    3  502    0 -0.67086340003E+03 -0.11697013594E+04 -0.73198168979E+03  0.15342933767E+04  0.25500000920E-02 0.  1.
       -2    1    3    3    0  502  0.67086340003E+03  0.11697013594E+04  0.54436999353E+03  0.14541656239E+04  0.25500000920E-02 0. -1.
</event>
<event>
 5   0  0.3725232E-06  0.2946440E+04  0.7818609E-02  0.8259193E-01
       -1   -1    0    0    0  501  0.00000000000E+00  0.00000000000E+00  0.28451136470E+04  0.28451136470E+04  0.50400001928E-02 0.  1.
        1   -1    0    0  501    0  0.00000000000E+00  0.00000000000E+00 -0.76284396386E+03  0.76284396387E+03  0.50400001928E-02 0. -1.
    10030    2    1    2    0    0  0.00000000000E+00  0.00000000000E+00  0.20822696832E+04  0.36079576109E+04  0.29464404098E+04 0.  0.
        2    1    3    3  502    0 -0.14031837930E+04 -0.13951562619E+03  0.15635137386E+04  0.21054606568E+04  0.25500000920E-02 0.  1.
       -2    1    3    3    0  502  0.14031837930E+04  0.13951562619E+03  0.51875594460E+03  0.15024969540E+04  0.25500000920E-02 0. -1.
</event>
<event>
 5   0  0.3852126E-06  0.2615164E+04  0.7818609E-02  0.8363069E-01
       -1   -1    0    0    0  501  0.00000000000E+00  0.00000000000E+00  0.91889800904E+03  0.91889800905E+03  0.50400001928E-02 0. -1.
        1   -1    0    0  501    0  0.00000000000E+00  0.00000000000E+00 -0.18606750136E+04  0.18606750136E+04  0.50400001928E-02 0.  1.
    10030    2    1    2    0    0  0.00000000000E+00  0.00000000000E+00 -0.94177700460E+03  0.27795730227E+04  0.26151639073E+04 0.  0.
        1    1    3    3  502    0  0.26908743668E+03  0.12006023476E+04 -0.94133983476E+03  0.15491851827E+04  0.50400001928E-02 0.  1.
       -1    1    3    3    0  502 -0.26908743668E+03 -0.12006023476E+04 -0.43716983677E+00  0.12303878400E+04  0.50400001928E-02 0. -1.
</event>
<event>
 5   0  0.9647945E-06  0.3062371E+04  0.7818609E-02  0.8226141E-01
        2   -1    0    0  501    0  0.00000000000E+00  0.00000000000E+00  0.15123335396E+04  0.15123335396E+04  0.25500000920E-02 0. -1.
       -2   -1    0    0    0  501  0.00000000000E+00  0.00000000000E+00 -0.15502720976E+04  0.15502720976E+04  0.25500000920E-02 0.  1.
    10030    2    1    2    0    0  0.00000000000E+00  0.00000000000E+00 -0.37938558007E+02  0.30626056372E+04  0.30623706430E+04 0.  0.
        2    1    3    3  502    0  0.12782049872E+04 -0.84129704367E+03 -0.73193213023E+02  0.15319745270E+04  0.25500000920E-02 0. -1.
       -2    1    3    3    0  502 -0.12782049872E+04  0.84129704367E+03  0.35254655016E+02  0.15306311102E+04  0.25500000920E-02 0.  1.
</event>
<event>
 5   0  0.1057036E-05  0.3178758E+04  0.7818609E-02  0.8194450E-01
        2   -1    0    0  501    0  0.00000000000E+00  0.00000000000E+00  0.17483970674E+04  0.17483970674E+04  0.25500000920E-02 0.  1.
       -2   -1    0    0    0  501  0.00000000000E+00  0.00000000000E+00 -0.14448238474E+04  0.14448238474E+04  0.25500000920E-02 0. -1.
    10030    2    1    2    0    0  0.00000000000E+00  0.00000000000E+00  0.30357322004E+03  0.31932209148E+04  0.31787581082E+04 0.  0.
        4    1    3    3  502    0  0.38191438022E+03  0.13547634004E+02  0.17015573144E+04  0.17439441044E+04  0.12699999809E+01 0.  1.
       -4    1    3    3    0  502 -0.38191438022E+03 -0.13547634004E+02 -0.13979840943E+04  0.14492768104E+04  0.12699999809E+01 0. -1.
</event>
<event>
 5   0  0.1029922E-05  0.3102124E+04  0.7818609E-02  0.8215155E-01
       -2   -1    0    0    0  501  0.00000000000E+00  0.00000000000E+00  0.11216779094E+04  0.11216779094E+04  0.25500000920E-02 0.  1.
        2   -1    0    0  501    0  0.00000000000E+00  0.00000000000E+00 -0.21448160834E+04  0.21448160834E+04  0.25500000920E-02 0. -1.
    10030    2    1    2    0    0  0.00000000000E+00  0.00000000000E+00 -0.10231381740E+04  0.32664939928E+04  0.31021236729E+04 0.  0.
        1    1    3    3  502    0  0.69508821001E+03 -0.77457341635E+02 -0.19693546998E+04  0.20898576968E+04  0.50400001928E-02 0. -1.
       -1    1    3    3    0  502 -0.69508821001E+03  0.77457341635E+02  0.94621652576E+03  0.11766362960E+04  0.50400001928E-02 0.  1.
</event>
<event>
 5   0  0.1029922E-05  0.3023413E+04  0.7818609E-02  0.8237077E-01
       -2   -1    0    0    0  501  0.00000000000E+00  0.00000000000E+00  0.11073241157E+04  0.11073241157E+04  0.25500000920E-02 0. -1.
        2   -1    0    0  501    0  0.00000000000E+00  0.00000000000E+00 -0.20637645214E+04  0.20637645214E+04  0.25500000920E-02 0.  1.
    10030    2    1    2    0    0  0.00000000000E+00  0.00000000000E+00 -0.95644040573E+03  0.31710886371E+04  0.30234127894E+04 0.  0.
        1    1    3    3  502    0  0.19392950369E+03 -0.11725078692E+04 -0.14581307513E+04  0.18810977230E+04  0.50400001928E-02 0.  1.
       -1    1    3    3    0  502 -0.19392950369E+03  0.11725078692E+04  0.50169034558E+03  0.12899909141E+04  0.50400001928E-02 0. -1.
</event>
<event>
 5   0  0.3725232E-06  0.2935091E+04  0.7818609E-02  0.8262513E-01
       -1   -1    0    0    0  501  0.00000000000E+00  0.00000000000E+00  0.24962449530E+04  0.24962449530E+04  0.50400001928E-02 0.  1.
        1   -1    0    0  501    0  0.00000000000E+00  0.00000000000E+00 -0.86277204390E+03  0.86277204392E+03  0.50400001928E-02 0. -1.
    10030    2    1    2    0    0  0.00000000000E+00  0.00000000000E+00  0.16334729091E+04  0.33590169969E+04  0.29350913854E+04 0.  0.
        2    1    3    3  502    0  0.13162257045E+04 -0.64831076858E+03  0.85170077080E+03  0.16965114679E+04  0.25500000920E-02 0.  1.
       -2    1    3    3    0  502 -0.13162257045E+04  0.64831076858E+03  0.78177213831E+03  0.16625055290E+04  0.25500000920E-02 0. -1.
</event>
<event>
 5   0  0.3725232E-06  0.3020135E+04  0.7818609E-02  0.8238004E-01
        1   -1    0    0  501    0  0.00000000000E+00  0.00000000000E+00  0.10169426424E+04  0.10169426424E+04  0.50400001928E-02 0. -1.
       -1   -1    0    0    0  501  0.00000000000E+00  0.00000000000E+00 -0.22423133695E+04  0.22423133695E+04  0.50400001928E-02 0.  1.
    10030    2    1    2    0    0  0.00000000000E+00  0.00000000000E+00 -0.12253707271E+04  0.32592560119E+04  0.30201351513E+04 0.  0.
        2    1    3    3  502    0 -0.11881821092E+04  0.92722842572E+03 -0.51159475010E+03  0.15916213326E+04  0.25500000920E-02 0. -1.
       -2    1    3    3    0  502  0.11881821092E+04 -0.92722842572E+03 -0.71377597704E+03  0.16676346793E+04  0.25500000920E-02 0.  1.
</event>
<event>
 5   0  0.1029922E-05  0.3031669E+04  0.7818609E-02  0.8234745E-01
        2   -1    0    0  501    0  0.00000000000E+00  0.00000000000E+00  0.15183056688E+04  0.15183056688E+04  0.25500000920E-02 0. -1.
       -2   -1    0    0    0  501  0.00000000000E+00  0.00000000000E+00 -0.15133671999E+04  0.15133671999E+04  0.25500000920E-02 0.  1.
    10030    2    1    2    0    0  0.00000000000E+00  0.00000000000E+00  0.49384689514E+01  0.30316728687E+04  0.30316688465E+04 0.  0.
        1    1    3    3  502    0 -0.11601945246E+04  0.60103466487E+03 -0.76594573286E+03  0.15145847184E+04  0.50400001928E-02 0.  1.
       -1    1    3    3    0  502  0.11601945246E+04 -0.60103466487E+03  0.77088420182E+03  0.15170881504E+04  0.50400001928E-02 0. -1.
</event>
<event>
 5   0  0.1089569E-05  0.3020637E+04  0.7818609E-02  0.8237862E-01
        2   -1    0    0  501    0  0.00000000000E+00  0.00000000000E+00  0.23034212534E+04  0.23034212534E+04  0.25500000920E-02 0. -1.
       -2   -1    0    0    0  501  0.00000000000E+00  0.00000000000E+00 -0.99029288176E+03  0.99029288176E+03  0.25500000920E-02 0.  1.
    10030    2    1    2    0    0  0.00000000000E+00  0.00000000000E+00  0.13131283717E+04  0.32937141352E+04  0.30206368010E+04 0.  0.
        5    1    3    3  502    0  0.93690049741E+03  0.11762588490E+03  0.19418637297E+04  0.21592765515E+04  0.46999998093E+01 0. -1.
       -5    1    3    3    0  502 -0.93690049741E+03 -0.11762588490E+03 -0.62873535808E+03  0.11344375837E+04  0.46999998093E+01 0.  1.
</event>
<event>
 5   0  0.1057036E-05  0.2843543E+04  0.7818609E-02  0.8289876E-01
        2   -1    0    0  501    0  0.00000000000E+00  0.00000000000E+00  0.17392865063E+04  0.17392865063E+04  0.25500000920E-02 0.  1.
       -2   -1    0    0    0  501  0.00000000000E+00  0.00000000000E+00 -0.11622199696E+04  0.11622199696E+04  0.25500000920E-02 0. -1.
    10030    2    1    2    0    0  0.00000000000E+00  0.00000000000E+00  0.57706653673E+03  0.29015064759E+04  0.28435425163E+04 0.  0.
        4    1    3    3  502    0 -0.64655668771E+03  0.12647384374E+04  0.35170678501E+03  0.14633175120E+04  0.12699999809E+01 0. -1.
       -4    1    3    3    0  502  0.64655668771E+03 -0.12647384374E+04  0.22535975172E+03  0.14381889639E+04  0.12699999809E+01 0.  1.
</event>
<event>
 5   0  0.3852126E-06  0.2613899E+04  0.7818609E-02  0.8363495E-01
        1   -1    0    0  501    0  0.00000000000E+00  0.00000000000E+00  0.71378930870E+03  0.71378930871E+03  0.50400001928E-02 0. -1.
       -1   -1    0    0    0  501  0.00000000000E+00  0.00000000000E+00 -0.23930260792E+04  0.23930260792E+04  0.50400001928E-02 0.  1.
    10030    2    1    2    0    0  0.00000000000E+00  0.00000000000E+00 -0.16792367705E+04  0.31068153879E+04  0.26138985679E+04 0.  0.
        1    1    3    3  502    0 -0.80662768934E+03 -0.88731965589E+03 -0.14573712352E+04  0.18873037165E+04  0.50400001928E-02 0.  1.
       -1    1    3    3    0  502  0.80662768934E+03  0.88731965589E+03 -0.22186553523E+03  0.12195116714E+04  0.50400001928E-02 0. -1.
</event>
<event>
 5   0  0.1028450E-05  0.2286126E+04  0.7818609E-02  0.8483412E-01
        2   -1    0    0  501    0  0.00000000000E+00  0.00000000000E+00  0.19799389152E+04  0.19799389152E+04  0.25500000920E-02 0. -1.
       -2   -1    0    0    0  501  0.00000000000E+00  0.00000000000E+00 -0.65991581013E+03  0.65991581013E+03  0.25500000920E-02 0.  1.
    10030    2    1    2    0    0  0.00000000000E+00  0.00000000000E+00  0.13200231051E+04  0.26398547254E+04  0.22861259749E+04 0.  0.
        3    1    3    3  502    0  0.88915115463E+03 -0.55044234015E+03  0.12706159962E+03  0.10534330572E+04  0.10100000352E+00 0.  1.
       -3    1    3    3    0  502 -0.88915115463E+03  0.55044234015E+03  0.11929615055E+04  0.15864216682E+04  0.10100000352E+00 0. -1.
</event>
<event>
 5   0  0.1029922E-05  0.3024623E+04  0.7818609E-02  0.8236734E-01
        2   -1    0    0  501    0  0.00000000000E+00  0.00000000000E+00  0.20115476079E+04  0.20115476079E+04  0.25500000920E-02 0.  1.
       -2   -1    0    0    0  501  0.00000000000E+00  0.00000000000E+00 -0.11369783511E+04  0.11369783511E+04  0.25500000920E-02 0. -1.
    10030    2    1    2    0    0  0.00000000000E+00  0.00000000000E+00  0.87456925677E+03  0.31485259590E+04  0.30246230062E+04 0.  0.
        1    1    3    3  502    0  0.64743604973E+03  0.73928519202E+03 -0.75931332682E+03  0.12418827489E+04  0.50400001928E-02 0. -1.
       -1    1    3    3    0  502 -0.64743604973E+03 -0.73928519202E+03  0.16338825836E+04  0.19066432101E+04  0.50400001928E-02 0.  1.
</event>
<event>
 5   0  0.3636718E-06  0.3046203E+04  0.7818609E-02  0.8230659E-01
       -1   -1    0    0    0  501  0.00000000000E+00  0.00000000000E+00  0.85335736227E+03  0.85335736228E+03  0.50400001928E-02 0. -1.
        1   -1    0    0  501    0  0.00000000000E+00  0.00000000000E+00 -0.27184832585E+04  0.27184832585E+04  0.50400001928E-02 0.  1.
    10030    2    1    2    0    0  0.00000000000E+00  0.00000000000E+00 -0.18651258963E+04  0.35718406208E+04  0.30462026872E+04 0.  0.
        4    1    3    3  502    0 -0.74589513346E+03 -0.61931028722E+03 -0.23099690708E+04  0.25051673602E+04  0.12699999809E+01 0.  1.
       -4    1    3    3    0  502  0.74589513346E+03  0.61931028722E+03  0.44484317453E+03  0.10666732606E+04  0.12699999809E+01 0. -1.
</event>
<event>
 5   0  0.1028450E-05  0.1900847E+04  0.7818609E-02  0.8654435E-01
        2   -1    0    0  501    0  0.00000000000E+00  0.00000000000E+00  0.13721221891E+04  0.13721221891E+04  0.25500000920E-02 0. -1.
       -2   -1    0    0    0  501  0.00000000000E+00  0.00000000000E+00 -0.65832685365E+03  0.65832685366E+03  0.25500000920E-02 0.  1.
    10030    2    1    2    0    0  0.00000000000E+00  0.00000000000E+00  0.71379533547E+03  0.20304490428E+04  0.19008470571E+04 0.  0.
        3    1    3    3  502    0 -0.82863096824E+03 -0.38754638508E+03  0.63232149072E+03  0.11120485421E+04  0.10100000352E+00 0.  1.
       -3    1    3    3    0  502  0.82863096824E+03  0.38754638508E+03  0.81473844755E+02  0.91840050071E+03  0.10100000352E+00 0. -1.
</event>
<event>
 5   0  0.1029922E-05  0.2996221E+04  0.7818609E-02  0.8244811E-01
       -2   -1    0    0    0  501  0.00000000000E+00  0.00000000000E+00  0.15614691171E+04  0.15614691171E+04  0.25500000920E-02 0. -1.
        2   -1    0    0  501    0  0.00000000000E+00  0.00000000000E+00 -0.14373229889E+04  0.14373229889E+04  0.25500000920E-02 0.  1.
    10030    2    1    2    0    0  0.00000000000E+00  0.00000000000E+00  0.12414612819E+03  0.29987921060E+04  0.29962212591E+04 0.  0.
        1    1    3    3  502    0  0.32660265430E+03  0.97227485588E+02 -0.13980182643E+04  0.14389501538E+04  0.50400001928E-02 0.  1.
       -1    1    3    3    0  502 -0.32660265430E+03 -0.97227485588E+02  0.15221643925E+04  0.15598419521E+04  0.50400001928E-02 0. -1.
</event>
<event>
 5   0  0.3725232E-06  0.2940201E+04  0.7818609E-02  0.8261016E-01
       -1   -1    0    0    0  501  0.00000000000E+00  0.00000000000E+00  0.14507806615E+04  0.14507806615E+04  0.50400001928E-02 0.  1.
        1   -1    0    0  501    0  0.00000000000E+00  0.00000000000E+00 -0.14896771468E+04  0.14896771468E+04  0.50400001928E-02 0. -1.
    10030    2    1    2    0    0  0.00000000000E+00  0.00000000000E+00 -0.38896485277E+02  0.29404578083E+04  0.29402005349E+04 0.  0.
        2    1    3    3  502    0 -0.43971228330E+03 -0.21362870207E+03 -0.14060076864E+04  0.14885703640E+04  0.25500000920E-02 0. -1.
       -2    1    3    3    0  502  0.43971228330E+03  0.21362870207E+03  0.13671112011E+04  0.14518874442E+04  0.25500000920E-02 0.  1.
</event>
<event>
 5   0  0.1089569E-05  0.3014475E+04  0.7818609E-02  0.8239610E-01
        2   -1    0    0  501    0  0.00000000000E+00  0.00000000000E+00  0.16711390667E+04  0.16711390667E+04  0.25500000920E-02 0.  1.
       -2   -1    0    0    0  501  0.00000000000E+00  0.00000000000E+00 -0.13594107977E+04  0.13594107977E+04  0.25500000920E-02 0. -1.
    10030    2    1    2    0    0  0.00000000000E+00  0.00000000000E+00  0.31172826904E+03  0.30305498644E+04  0.30144747414E+04 0.  0.
        5    1    3    3  502    0 -0.10067827741E+04  0.10705409668E+04  0.49242224638E+03  0.15498939559E+04  0.46999998093E+01 0.  1.
       -5    1    3    3    0  502  0.10067827741E+04 -0.10705409668E+04 -0.18069397734E+03  0.14806559085E+04  0.46999998093E+01 0. -1.
</event>
<event>
 5   0  0.3852126E-06  0.2718687E+04  0.7818609E-02  0.8328967E-01
       -1   -1    0    0    0  501  0.00000000000E+00  0.00000000000E+00  0.15790434402E+04  0.15790434402E+04  0.50400001928E-02 0. -1.
        1   -1    0    0  501    0  0.00000000000E+00  0.00000000000E+00 -0.11702118668E+04  0.11702118668E+04  0.50400001928E-02 0.  1.
    10030    2    1    2    0    0  0.00000000000E+00  0.00000000000E+00  0.40883157334E+03  0.27492553070E+04  0.27186874568E+04 0.  0.
        1    1    3    3  502    0 -0.20960213298E+03 -0.74929097234E+03  0.13315988049E+04  0.15422468650E+04  0.50400001928E-02 0. -1.
       -1    1    3    3    0  502  0.20960213298E+03  0.74929097234E+03 -0.92276723159E+03  0.12070084420E+04  0.50400001928E-02 0.  1.
</event>
<event>
 5   0  0.1029922E-05  0.2849282E+04  0.7818609E-02  0.8288130E-01
        2   -1    0    0  501    0  0.00000000000E+00  0.00000000000E+00  0.27238213183E+04  0.27238213183E+04  0.25500000920E-02 0. -1.
       -2   -1    0    0    0  501  0.00000000000E+00  0.00000000000E+00 -0.74513014244E+03  0.74513014244E+03  0.25500000920E-02 0.  1.
    10030    2    1    2    0    0  0.00000000000E+00  0.00000000000E+00  0.19786911759E+04  0.34689514608E+04  0.28492815704E+04 0.  0.
        1    1    3    3  502    0 -0.13331676809E+04 -0.48490596871E+03  0.82999246208E+03  0.16435806494E+04  0.50400001928E-02 0. -1.
       -1    1    3    3    0  502  0.13331676809E+04  0.48490596871E+03  0.11486987138E+04  0.18253708114E+04  0.50400001928E-02 0.  1.
</event>
<event>
 5   0  0.9647945E-06  0.2756569E+04  0.7818609E-02  0.8316880E-01
        2   -1    0    0  501    0  0.00000000000E+00  0.00000000000E+00  0.23884299949E+04  0.23884299949E+04  0.25500000920E-02 0. -1.
       -2   -1    0    0    0  501  0.00000000000E+00  0.00000000000E+00 -0.79536249681E+03  0.79536249681E+03  0.25500000920E-02 0.  1.
    10030    2    1    2    0    0  0.00000000000E+00  0.00000000000E+00  0.15930674981E+04  0.31837924917E+04  0.27565686236E+04 0.  0.
        2    1    3    3  502    0  0.11495575716E+04  0.31166327197E+03  0.15976056973E+04  0.19927269180E+04  0.25500000920E-02 0. -1.
       -2    1    3    3    0  502 -0.11495575716E+04 -0.31166327197E+03 -0.45381992444E+01  0.11910655737E+04  0.25500000920E-02 0.  1.
</event>
<event>
 5   0  0.3313750E-06  0.2759329E+04  0.7818609E-02  0.8316007E-01
        3   -1    0    0  501    0  0.00000000000E+00  0.00000000000E+00  0.16622041416E+04  0.16622041447E+04  0.10100000352E+00 0.  1.
       -3   -1    0    0    0  501  0.00000000000E+00  0.00000000000E+00 -0.11451509397E+04  0.11451509442E+04  0.10100000352E+00 0. -1.
    10030    2    1    2    0    0  0.00000000000E+00  0.00000000000E+00  0.51705320190E+03  0.28073550889E+04  0.27593293717E+04 0.  0.
        4    1    3    3  502    0  0.13013013718E+04  0.57024826490E+02  0.72123438728E+03  0.14888981649E+04  0.12699999809E+01 0.  1.
       -4    1    3    3    0  502 -0.13013013718E+04 -0.57024826490E+02 -0.20418118537E+03  0.13184569240E+04  0.12699999809E+01 0. -1.
</event>
<event>
 5   0  0.3592331E-06  0.3076334E+04  0.7818609E-02  0.8222263E-01
       -1   -1    0    0    0  501  0.00000000000E+00  0.00000000000E+00  0.15817825863E+04  0.15817825863E+04  0.50400001928E-02 0.  1.
        1   -1    0    0  501    0  0.00000000000E+00  0.00000000000E+00 -0.14957543303E+04  0.14957543303E+04  0.50400001928E-02 0. -1.
    10030    2    1    2    0    0  0.00000000000E+00  0.00000000000E+00  0.86028256067E+02  0.30775369166E+04  0.30763342816E+04 0.  0.
        3    1    3    3  502    0  0.47023322521E+03 -0.86289338996E+02 -0.14195399669E+04  0.14978847966E+04  0.10100000352E+00 0. -1.
       -3    1    3    3    0  502 -0.47023322521E+03  0.86289338996E+02  0.15055682229E+04  0.15796521200E+04  0.10100000352E+00 0.  1.
</event>
<event>
 5   0  0.1028450E-05  0.2458900E+04  0.7818609E-02  0.8417776E-01
        2   -1    0    0  501    0  0.00000000000E+00  0.00000000000E+00  0.16835374291E+04  0.16835374291E+04  0.25500000920E-02 0.  1.
       -2   -1    0    0    0  501  0.00000000000E+00  0.00000000000E+00 -0.89783984796E+03  0.89783984796E+03  0.25500000920E-02 0. -1.
    10030    2    1    2    0    0  0.00000000000E+00  0.00000000000E+00  0.78569758111E+03  0.25813772770E+04  0.24588997453E+04 0.  0.
        3    1    3    3  502    0 -0.38760783282E+03 -0.82842807653E+03 -0.46966703681E+03  0.10281634334E+04  0.10100000352E+00 0.  1.
       -3    1    3    3    0  502  0.38760783282E+03  0.82842807653E+03  0.12553646179E+04  0.15532138437E+04  0.10100000352E+00 0. -1.
</event>
<event>
 5   0  0.1089569E-05  0.1937689E+04  0.7818609E-02  0.8636320E-01
        2   -1    0    0  501    0  0.00000000000E+00  0.00000000000E+00  0.85920860832E+03  0.85920860833E+03  0.25500000920E-02 0. -1.
       -2   -1    0    0    0  501  0.00000000000E+00  0.00000000000E+00 -0.10924697996E+04  0.10924697996E+04  0.25500000920E-02 0.  1.
    10030    2    1    2    0    0  0.00000000000E+00  0.00000000000E+00 -0.23326119129E+03  0.19516784079E+04  0.19376887843E+04 0.  0.
        5    1    3    3  502    0 -0.92992219039E+03  0.16483952783E+03 -0.33431596456E+03  0.10018565787E+04  0.46999998093E+01 0. -1.
       -5    1    3    3    0  502  0.92992219039E+03 -0.16483952783E+03  0.10105477327E+03  0.94982182925E+03  0.46999998093E+01 0.  1.
</event>
<event>
 5   0  0.3313750E-06  0.2953156E+04  0.7818609E-02  0.8257235E-01
        3   -1    0    0  501    0  0.00000000000E+00  0.00000000000E+00  0.10791903897E+04  0.10791903945E+04  0.10100000352E+00 0.  1.
       -3   -1    0    0    0  501  0.00000000000E+00  0.00000000000E+00 -0.20202944556E+04  0.20202944582E+04  0.10100000352E+00 0. -1.
    10030    2    1    2    0    0  0.00000000000E+00  0.00000000000E+00 -0.94110406592E+03  0.30994848526E+04  0.29531558524E+04 0.  0.
        4    1    3    3  502    0  0.82860730556E+03  0.70551899644E+03  0.57686191139E+03  0.12317136026E+04  0.12699999809E+01 0.  1.
       -4    1    3    3    0  502 -0.82860730556E+03 -0.70551899644E+03 -0.15179659773E+04  0.18677712500E+04  0.12699999809E+01 0. -1.
</event>
<event>
 5   0  0.1029922E-05  0.3039439E+04  0.7818609E-02  0.8232558E-01
        2   -1    0    0  501    0  0.00000000000E+00  0.00000000000E+00  0.15856936319E+04  0.15856936319E+04  0.25500000920E-02 0. -1.
       -2   -1    0    0    0  501  0.00000000000E+00  0.00000000000E+00 -0.14564899308E+04  0.14564899308E+04  0.25500000920E-02 0.  1.
    10030    2    1    2    0    0  0.00000000000E+00  0.00000000000E+00  0.12920370111E+03  0.30421835627E+04  0.30394386378E+04 0.  0.
        1    1    3    3  502    0 -0.10887292067E+04  0.39623327699E+01 -0.99663859112E+03  0.14760201445E+04  0.50400001928E-02 0.  1.
       -1    1    3    3    0  502  0.10887292067E+04 -0.39623327699E+01  0.11258422922E+04  0.15661634182E+04  0.50400001928E-02 0. -1.
</event>
<event>
 5   0  0.3852126E-06  0.2934465E+04  0.7818609E-02  0.8262696E-01
       -1   -1    0    0    0  501  0.00000000000E+00  0.00000000000E+00  0.27103138965E+04  0.27103138965E+04  0.50400001928E-02 0. -1.
        1   -1    0    0  501    0  0.00000000000E+00  0.00000000000E+00 -0.79428846316E+03  0.79428846318E+03  0.50400001928E-02 0.  1.
    10030    2    1    2    0    0  0.00000000000E+00  0.00000000000E+00  0.19160254334E+04  0.35046023597E+04  0.29344648981E+04 0.  0.
        1    1    3    3  502    0  0.60215131751E+03  0.58514616858E+03 -0.47900604479E+03  0.96665869817E+03  0.50400001928E-02 0.  1.
       -1    1    3    3    0  502 -0.60215131751E+03 -0.58514616858E+03  0.23950314782E+04  0.25379436615E+04  0.50400001928E-02 0. -1.
</event>
<event>
 5   0  0.1028450E-05  0.2961625E+04  0.7818609E-02  0.8254775E-01
        2   -1    0    0  501    0  0.00000000000E+00  0.00000000000E+00  0.12917354041E+04  0.12917354041E+04  0.25500000920E-02 0.  1.
       -2   -1    0    0    0  501  0.00000000000E+00  0.00000000000E+00 -0.16975655364E+04  0.16975655364E+04  0.25500000920E-02 0. -1.
    10030    2    1    2    0    0  0.00000000000E+00  0.00000000000E+00 -0.40583013225E+03  0.29893009405E+04  0.29616248947E+04 0.  0.
        3    1    3    3  502    0 -0.14504963245E+04 -0.11579254855E+03 -0.48017825216E+03  0.15322919649E+04  0.10100000352E+00 0. -1.
       -3    1    3    3    0  502  0.14504963245E+04  0.11579254855E+03  0.74348119915E+02  0.14570089756E+04  0.10100000352E+00 0.  1.
</event>
<event>
 5   0  0.1057036E-05  0.1994298E+04  0.7818609E-02  0.8609291E-01
       -2   -1    0    0    0  501  0.00000000000E+00  0.00000000000E+00  0.43891022827E+03  0.43891022828E+03  0.25500000920E-02 0. -1.
        2   -1    0    0  501    0  0.00000000000E+00  0.00000000000E+00 -0.22653971804E+04  0.22653971804E+04  0.25500000920E-02 0.  1.
    10030    2    1    2    0    0  0.00000000000E+00  0.00000000000E+00 -0.18264869521E+04  0.27043074086E+04  0.19942978650E+04 0.  0.
        4    1    3    3  502    0  0.61057559657E+01  0.74655184012E+03 -0.16907766339E+02  0.74676931894E+03  0.12699999809E+01 0. -1.
       -4    1    3    3    0  502 -0.61057559657E+01 -0.74655184012E+03 -0.18095791857E+04  0.19575380897E+04  0.12699999809E+01 0.  1.
</event>
<event>
 5   0  0.9647945E-06  0.3127232E+04  0.7818609E-02  0.8208304E-01
       -2   -1    0    0    0  501  0.00000000000E+00  0.00000000000E+00  0.16340031729E+04  0.16340031729E+04  0.25500000920E-02 0. -1.
        2   -1    0    0  501    0  0.00000000000E+00  0.00000000000E+00 -0.14962609964E+04  0.14962609964E+04  0.25500000920E-02 0.  1.
    10030    2    1    2    0    0  0.00000000000E+00  0.00000000000E+00  0.13774217647E+03  0.31302641692E+04  0.31272321407E+04 0.  0.
        2    1    3    3  502    0  0.93053873697E+03  0.58972216776E+03 -0.10418085563E+04  0.15162584358E+04  0.25500000920E-02 0.  1.
       -2    1    3    3    0  502 -0.93053873697E+03 -0.58972216776E+03  0.11795507328E+04  0.16140057334E+04  0.25500000920E-02 0. -1.
</event>
<event>
 5   0  0.9647945E-06  0.3010532E+04  0.7818609E-02  0.8240730E-01
       -2   -1    0    0    0  501  0.00000000000E+00  0.00000000000E+00  0.91423221685E+03  0.91423221685E+03  0.25500000920E-02 0. -1.
        2   -1    0    0  501    0  0.00000000000E+00  0.00000000000E+00 -0.24783918751E+04  0.24783918751E+04  0.25500000920E-02 0.  1.
    10030    2    1    2    0    0  0.00000000000E+00  0.00000000000E+00 -0.15641596583E+04  0.33926240920E+04  0.30105319784E+04 0.  0.
        2    1    3    3  502    0  0.12752696019E+04  0.64233643324E+03 -0.24526307843E+03  0.14488142146E+04  0.25500000920E-02 0. -1.
       -2    1    3    3    0  502 -0.12752696019E+04 -0.64233643324E+03 -0.13188965799E+04  0.19438098773E+04  0.25500000920E-02 0.  1.
</event>
<event>
 5   0  0.1029922E-05  0.3071752E+04  0.7818609E-02  0.8223533E-01
       -2   -1    0    0    0  501  0.00000000000E+00  0.00000000000E+00  0.82236573309E+03  0.82236573310E+03  0.25500000920E-02 0. -1.
        2   -1    0    0  501    0  0.00000000000E+00  0.00000000000E+00 -0.28684497414E+04  0.28684497414E+04  0.25500000920E-02 0.  1.
    10030    2    1    2    0    0  0.00000000000E+00  0.00000000000E+00 -0.20460840083E+04  0.36908154745E+04  0.30717517962E+04 0.  0.
        1    1    3    3  502    0 -0.92477832018E+03 -0.57825784434E+03  0.27623715846E+03  0.11251240126E+04  0.50400001928E-02 0. -1.
       -1    1    3    3    0  502  0.92477832018E+03  0.57825784434E+03 -0.23223211667E+04  0.25656914619E+04  0.50400001928E-02 0.  1.
</event>
<event>
 5   0  0.3313750E-06  0.1879719E+04  0.7818609E-02  0.8665018E-01
        3   -1    0    0  501    0  0.00000000000E+00  0.00000000000E+00  0.17723569402E+04  0.17723569431E+04  0.10100000352E+00 0.  1.
       -3   -1    0    0    0  501  0.00000000000E+00  0.00000000000E+00 -0.49839631941E+03  0.49839632965E+03  0.10100000352E+00 0. -1.
    10030    2    1    2    0    0  0.00000000000E+00  0.00000000000E+00  0.12739606208E+04  0.22707532728E+04  0.18797193307E+04 0.  0.
        4    1    3    3  502    0 -0.24306681176E+03 -0.98105000554E+02 -0.45334663294E+03  0.52367055351E+03  0.12699999809E+01 0. -1.
       -4    1    3    3    0  502  0.24306681176E+03  0.98105000554E+02  0.17273072538E+04  0.17470827192E+04  0.12699999809E+01 0.  1.
</event>
<event>
 5   0  0.3852126E-06  0.3087888E+04  0.7818609E-02  0.8219070E-01
        1   -1    0    0  501    0  0.00000000000E+00  0.00000000000E+00  0.15087788015E+04  0.15087788015E+04  0.50400001928E-02 0. -1.
       -1   -1    0    0    0  501  0.00000000000E+00  0.00000000000E+00 -0.15799289950E+04  0.15799289950E+04  0.50400001928E-02 0.  1.
    10030    2    1    2    0    0  0.00000000000E+00  0.00000000000E+00 -0.71150193583E+02  0.30887077965E+04  0.30878881946E+04 0.  0.
        1    1    3    3  502    0  0.10113340351E+04 -0.99697611107E+03 -0.64154566496E+03  0.15583127853E+04  0.50400001928E-02 0.  1.
       -1    1    3    3    0  502 -0.10113340351E+04  0.99697611107E+03  0.57039547137E+03  0.15303950112E+04  0.50400001928E-02 0. -1.
</event>
<event>
 5   0  0.1029922E-05  0.2916748E+04  0.7818609E-02  0.8267912E-01
       -2   -1    0    0    0  501  0.00000000000E+00  0.00000000000E+00  0.14479271739E+04  0.14479271739E+04  0.25500000920E-02 0. -1.
        2   -1    0    0  501    0  0.00000000000E+00  0.00000000000E+00 -0.14688966492E+04  0.14688966492E+04  0.25500000920E-02 0.  1.
    10030    2    1    2    0    0  0.00000000000E+00  0.00000000000E+00 -0.20969475358E+02  0.29168238231E+04  0.29167484458E+04 0.  0.
        1    1    3    3  502    0 -0.13982110098E+04  0.68160584507E+02 -0.41941520064E+03  0.14613517728E+04  0.50400001928E-02 0.  1.
       -1    1    3    3    0  502  0.13982110098E+04 -0.68160584507E+02  0.39844572528E+03  0.14554720503E+04  0.50400001928E-02 0. -1.
</event>
<event>
 5   0  0.3636718E-06  0.2965129E+04  0.7818609E-02  0.8253759E-01
        1   -1    0    0  501    0  0.00000000000E+00  0.00000000000E+00  0.13248617909E+04  0.13248617909E+04  0.50400001928E-02 0.  1.
       -1   -1    0    0    0  501  0.00000000000E+00  0.00000000000E+00 -0.16590385537E+04  0.16590385537E+04  0.50400001928E-02 0. -1.
    10030    2    1    2    0    0  0.00000000000E+00  0.00000000000E+00 -0.33417676279E+03  0.29839003445E+04  0.29651285229E+04 0.  0.
        4    1    3    3  502    0  0.14215185885E+04 -0.38245090047E+03  0.10126991642E+02  0.14721032428E+04  0.12699999809E+01 0. -1.
       -4    1    3    3    0  502 -0.14215185885E+04  0.38245090047E+03 -0.34430375444E+03  0.15117971017E+04  0.12699999809E+01 0.  1.
</event>
<event>
 5   0  0.3592331E-06  0.2984232E+04  0.7818609E-02  0.8248248E-01
       -1   -1    0    0    0  501  0.00000000000E+00  0.00000000000E+00  0.98051134249E+03  0.98051134250E+03  0.50400001928E-02 0. -1.
        1   -1    0    0  501    0  0.00000000000E+00  0.00000000000E+00 -0.22706624357E+04  0.22706624357E+04  0.50400001928E-02 0.  1.
    10030    2    1    2    0    0  0.00000000000E+00  0.00000000000E+00 -0.12901510932E+04  0.32511737782E+04  0.29842320776E+04 0.  0.
        3    1    3    3  502    0 -0.65739129636E+03 -0.88362730295E+03 -0.17418282061E+04  0.20608071323E+04  0.10100000352E+00 0.  1.
       -3    1    3    3    0  502  0.65739129636E+03  0.88362730295E+03  0.45167711288E+03  0.11903666458E+04  0.10100000352E+00 0. -1.
</event>
<event>
 5   0  0.3636718E-06  0.2821024E+04  0.7818609E-02  0.8296771E-01
        1   -1    0    0  501    0  0.00000000000E+00  0.00000000000E+00  0.19269119905E+04  0.19269119905E+04  0.50400001928E-02 0.  1.
       -1   -1    0    0    0  501  0.00000000000E+00  0.00000000000E+00 -0.10325037074E+04  0.10325037074E+04  0.50400001928E-02 0. -1.
    10030    2    1    2    0    0  0.00000000000E+00  0.00000000000E+00  0.89440828315E+03  0.29594156979E+04  0.28210237673E+04 0.  0.
        4    1    3    3  502    0  0.91722106046E+02 -0.16936339178E+03  0.19130512041E+04  0.19227229196E+04  0.12699999809E+01 0.  1.
       -4    1    3    3    0  502 -0.91722106046E+02  0.16936339178E+03 -0.10186429209E+04  0.10366927783E+04  0.12699999809E+01 0. -1.
</event>
<event>
 5   0  0.1029922E-05  0.3017670E+04  0.7818609E-02  0.8238703E-01
       -2   -1    0    0    0  501  0.00000000000E+00  0.00000000000E+00  0.14737021503E+04  0.14737021503E+04  0.25500000920E-02 0.  1.
        2   -1    0    0  501    0  0.00000000000E+00  0.00000000000E+00 -0.15448050145E+04  0.15448050145E+04  0.25500000920E-02 0. -1.
    10030    2    1    2    0    0  0.00000000000E+00  0.00000000000E+00 -0.71102864208E+02  0.30185071648E+04  0.30176696120E+04 0.  0.
        1    1    3    3  502    0 -0.58522826385E+03 -0.13477797546E+04  0.30744326398E+03  0.15011741233E+04  0.50400001928E-02 0.  1.
       -1    1    3    3    0  502  0.58522826385E+03  0.13477797546E+04 -0.37854612819E+03  0.15173330416E+04  0.50400001928E-02 0. -1.
</event>
<event>
 5   0  0.3725232E-06  0.2947115E+04  0.7818609E-02  0.8258996E-01
        1   -1    0    0  501    0  0.00000000000E+00  0.00000000000E+00  0.17558048100E+04  0.17558048100E+04  0.50400001928E-02 0. -1.
       -1   -1    0    0    0  501  0.00000000000E+00  0.00000000000E+00 -0.12366813873E+04  0.12366813873E+04  0.50400001928E-02 0.  1.
    10030    2    1    2    0    0  0.00000000000E+00  0.00000000000E+00  0.51912342270E+03  0.29924861972E+04  0.29471146080E+04 0.  0.
        2    1    3    3  502    0 -0.95932745428E+03  0.37231764106E+03 -0.81139946934E+03  0.13104574351E+04  0.25500000920E-02 0.  1.
       -2    1    3    3    0  502  0.95932745428E+03 -0.37231764106E+03  0.13305228920E+04  0.16820287621E+04  0.25500000920E-02 0. -1.
</event>
<event>
 5   0  0.3896630E-06  0.2071139E+04  0.7818609E-02  0.8574065E-01
       -1   -1    0    0    0  501  0.00000000000E+00  0.00000000000E+00  0.15928689867E+04  0.15928689867E+04  0.50400001928E-02 0. -1.
        1   -1    0    0  501    0  0.00000000000E+00  0.00000000000E+00 -0.67325291270E+03  0.67325291272E+03  0.50400001928E-02 0.  1.
    10030    2    1    2    0    0  0.00000000000E+00  0.00000000000E+00  0.91961607403E+03  0.22661218995E+04  0.20711385129E+04 0.  0.
        5    1    3    3  502    0  0.29956922891E+03 -0.39856890987E+03  0.14528793943E+04  0.15360597394E+04  0.46999998093E+01 0. -1.
       -5    1    3    3    0  502 -0.29956922891E+03  0.39856890987E+03 -0.53326332022E+03  0.73006216004E+03  0.46999998093E+01 0.  1.
</event>
<event>
 5   0  0.3896630E-06  0.3028339E+04  0.7818609E-02  0.8235685E-01
       -1   -1    0    0    0  501  0.00000000000E+00  0.00000000000E+00  0.81980484022E+03  0.81980484024E+03  0.50400001928E-02 0. -1.
        1   -1    0    0  501    0  0.00000000000E+00  0.00000000000E+00 -0.27966522692E+04  0.27966522692E+04  0.50400001928E-02 0.  1.
    10030    2    1    2    0    0  0.00000000000E+00  0.00000000000E+00 -0.19768474289E+04  0.36164571094E+04  0.30283388626E+04 0.  0.
        5    1    3    3  502    0 -0.97400506635E+03 -0.94614171636E+03 -0.18838043977E+03  0.13709045542E+04  0.46999998093E+01 0. -1.
       -5    1    3    3    0  502  0.97400506635E+03  0.94614171636E+03 -0.17884669892E+04  0.22455525552E+04  0.46999998093E+01 0.  1.
</event>
<event>
 5   0  0.1029922E-05  0.2957363E+04  0.7818609E-02  0.8256012E-01
       -2   -1    0    0    0  501  0.00000000000E+00  0.00000000000E+00  0.73783640010E+03  0.73783640010E+03  0.25500000920E-02 0. -1.
        2   -1    0    0  501    0  0.00000000000E+00  0.00000000000E+00 -0.29633930966E+04  0.29633930966E+04  0.25500000920E-02 0.  1.
    10030    2    1    2    0    0  0.00000000000E+00  0.00000000000E+00 -0.22255566965E+04  0.37012294967E+04  0.29573632137E+04 0.  0.
        1    1    3    3  502    0 -0.13166038397E+04  0.17447850497E+03 -0.29917695724E+03  0.13613946052E+04  0.50400001928E-02 0. -1.
       -1    1    3    3    0  502  0.13166038397E+04 -0.17447850497E+03 -0.19263797393E+04  0.23398348915E+04  0.50400001928E-02 0.  1.
</event>
<event>
 5   0  0.3896630E-06  0.2984871E+04  0.7818609E-02  0.8248064E-01
       -1   -1    0    0    0  501  0.00000000000E+00  0.00000000000E+00  0.10841921179E+04  0.10841921180E+04  0.50400001928E-02 0. -1.
        1   -1    0    0  501    0  0.00000000000E+00  0.00000000000E+00 -0.20543995238E+04  0.20543995238E+04  0.50400001928E-02 0.  1.
    10030    2    1    2    0    0  0.00000000000E+00  0.00000000000E+00 -0.97020740584E+03  0.31385916417E+04  0.29848710329E+04 0.  0.
        5    1    3    3  502    0 -0.11408183964E+04  0.15524296732E+03  0.51341973434E+03  0.12606303606E+04  0.46999998093E+01 0. -1.
       -5    1    3    3    0  502  0.11408183964E+04 -0.15524296732E+03 -0.14836271402E+04  0.18779612812E+04  0.46999998093E+01 0.  1.
</event>
<event>
 5   0  0.9647945E-06  0.2224912E+04  0.7818609E-02  0.8508130E-01
        2   -1    0    0  501    0  0.00000000000E+00  0.00000000000E+00  0.21492529653E+04  0.21492529653E+04  0.25500000920E-02 0.  1.
       -2   -1    0    0    0  501  0.00000000000E+00  0.00000000000E+00 -0.57580842577E+03  0.57580842578E+03  0.25500000920E-02 0. -1.
    10030    2    1    2    0    0  0.00000000000E+00  0.00000000000E+00  0.15734445395E+04  0.27250613911E+04  0.22249116536E+04 0.  0.
        2    1    3    3  502    0  0.22116349101E+03  0.71629008416E+03  0.17934214703E+04  0.19437966315E+04  0.25500000920E-02 0.  1.
       -2    1    3    3    0  502 -0.22116349101E+03 -0.71629008416E+03 -0.21997693082E+03  0.78126475956E+03  0.25500000920E-02 0. -1.
</event>
<event>
 5   0  0.3725232E-06  0.2816982E+04  0.7818609E-02  0.8298015E-01
       -1   -1    0    0    0  501  0.00000000000E+00  0.00000000000E+00  0.10302374774E+04  0.10302374774E+04  0.50400001928E-02 0. -1.
        1   -1    0    0  501    0  0.00000000000E+00  0.00000000000E+00 -0.19256211329E+04  0.19256211329E+04  0.50400001928E-02 0.  1.
    10030    2    1    2    0    0  0.00000000000E+00  0.00000000000E+00 -0.89538365549E+03  0.29558586103E+04  0.28169821145E+04 0.  0.
        2    1    3    3  502    0  0.12539482224E+04 -0.55976759285E+03 -0.11900606376E+03  0.13783643734E+04  0.25500000920E-02 0. -1.
       -2    1    3    3    0  502 -0.12539482224E+04  0.55976759285E+03 -0.77637759173E+03  0.15774942369E+04  0.25500000920E-02 0.  1.
</event>
<event>
 5   0  0.3313750E-06  0.2052464E+04  0.7818609E-02  0.8582477E-01
       -4   -1    0    0    0  501  0.00000000000E+00  0.00000000000E+00  0.46428859036E+03  0.46429032732E+03  0.12699999809E+01 0.  1.
        4   -1    0    0  501    0  0.00000000000E+00  0.00000000000E+00 -0.22683078809E+04  0.22683082364E+04  0.12699999809E+01 0. -1.
    10030    2    1    2    0    0  0.00000000000E+00  0.00000000000E+00 -0.18040192905E+04  0.27325985637E+04  0.20524642043E+04 0.  0.
        2    1    3    3  502    0  0.21037452924E+03  0.35442034181E+03 -0.21532758488E+04  0.21923658687E+04  0.25500000920E-02 0. -1.
       -2    1    3    3    0  502 -0.21037452924E+03 -0.35442034181E+03  0.34925655829E+03  0.54023269501E+03  0.25500000920E-02 0.  1.
</event>
<event>
 5   0  0.1057036E-05  0.3050017E+04  0.7818609E-02  0.8229591E-01
        2   -1    0    0  501    0  0.00000000000E+00  0.00000000000E+00  0.10410655211E+04  0.10410655211E+04  0.25500000920E-02 0.  1.
       -2   -1    0    0    0  501  0.00000000000E+00  0.00000000000E+00 -0.22339136012E+04  0.22339136012E+04  0.25500000920E-02 0. -1.
    10030    2    1    2    0    0  0.00000000000E+00  0.00000000000E+00 -0.11928480802E+04  0.32749791223E+04  0.30500166736E+04 0.  0.
        4    1    3    3  502    0 -0.95335548831E+03  0.10865282940E+04 -0.74553023178E+02  0.14474080927E+04  0.12699999809E+01 0. -1.
       -4    1    3    3    0  502  0.95335548831E+03 -0.10865282940E+04 -0.11182950570E+04  0.18275710296E+04  0.12699999809E+01 0.  1.
</event>
<event>
 5   0  0.1057036E-05  0.2985250E+04  0.7818609E-02  0.8247955E-01
       -2   -1    0    0    0  501  0.00000000000E+00  0.00000000000E+00  0.16441684911E+04  0.16441684911E+04  0.25500000920E-02 0.  1.
        2   -1    0    0  501    0  0.00000000000E+00  0.00000000000E+00 -0.13550493062E+04  0.13550493062E+04  0.25500000920E-02 0. -1.
    10030    2    1    2    0    0  0.00000000000E+00  0.00000000000E+00  0.28911918486E+03  0.29992177972E+04  0.29852499882E+04 0.  0.
        4    1    3    3  502    0 -0.48439287510E+03  0.10921862257E+04  0.10434079198E+04  0.15862562558E+04  0.12699999809E+01 0.  1.
       -4    1    3    3    0  502  0.48439287510E+03 -0.10921862257E+04 -0.75428873490E+03  0.14129615414E+04  0.12699999809E+01 0. -1.
</event>
<event>
 5   0  0.3313750E-06  0.2991744E+04  0.7818609E-02  0.8246092E-01
        3   -1    0    0  501    0  0.00000000000E+00  0.00000000000E+00  0.18293200812E+04  0.18293200839E+04  0.10100000352E+00 0.  1.
       -3   -1    0    0    0  501  0.00000000000E+00  0.00000000000E+00 -0.12232049840E+04  0.12232049882E+04  0.10100000352E+00 0. -1.
    10030    2    1    2    0    0  0.00000000000E+00  0.00000000000E+00  0.60611509713E+03  0.30525250721E+04  0.29917442747E+04 0.  0.
        1    1    3    3  502    0  0.14165046746E+04  0.48062758527E+03  0.31534727061E+03  0.15287028063E+04  0.50400001928E-02 0. -1.
       -1    1    3    3    0  502 -0.14165046746E+04 -0.48062758527E+03  0.29076782652E+03  0.15238222658E+04  0.50400001928E-02 0.  1.
</event>
<event>
 5   0  0.3313750E-06  0.2955812E+04  0.7818609E-02  0.8256463E-01
        3   -1    0    0  501    0  0.00000000000E+00  0.00000000000E+00  0.13185091634E+04  0.13185091673E+04  0.10100000352E+00 0. -1.
       -3   -1    0    0    0  501  0.00000000000E+00  0.00000000000E+00 -0.16565722457E+04  0.16565722487E+04  0.10100000352E+00 0.  1.
    10030    2    1    2    0    0  0.00000000000E+00  0.00000000000E+00 -0.33806308223E+03  0.29750814160E+04  0.29558116964E+04 0.  0.
        5    1    3    3  502    0 -0.76238696405E+03  0.43379862818E+03 -0.13662262217E+04  0.16235797830E+04  0.46999998093E+01 0.  1.
       -5    1    3    3    0  502  0.76238696405E+03 -0.43379862818E+03  0.10281631395E+04  0.13515016331E+04  0.46999998093E+01 0. -1.
</event>
<event>
 5   0  0.3896630E-06  0.2979367E+04  0.7818609E-02  0.8249647E-01
        1   -1    0    0  501    0  0.00000000000E+00  0.00000000000E+00  0.17632990239E+04  0.17632990240E+04  0.50400001928E-02 0.  1.
       -1   -1    0    0    0  501  0.00000000000E+00  0.00000000000E+00 -0.12585259104E+04  0.12585259104E+04  0.50400001928E-02 0. -1.
    10030    2    1    2    0    0  0.00000000000E+00  0.00000000000E+00  0.50477311355E+03  0.30218249344E+04  0.29793673888E+04 0.  0.
        5    1    3    3  502    0 -0.11281263842E+04  0.80377197781E+03 -0.30352718852E+03  0.14180512597E+04  0.46999998093E+01 0. -1.
       -5    1    3    3    0  502  0.11281263842E+04 -0.80377197781E+03  0.80830030208E+03  0.16037736746E+04  0.46999998093E+01 0.  1.
</event>
<event>
 5   0  0.1029922E-05  0.2412721E+04  0.7818609E-02  0.8434756E-01
       -2   -1    0    0    0  501  0.00000000000E+00  0.00000000000E+00  0.89318687774E+03  0.89318687774E+03  0.25500000920E-02 0.  1.
        2   -1    0    0  501    0  0.00000000000E+00  0.00000000000E+00 -0.16293411232E+04  0.16293411232E+04  0.25500000920E-02 0. -1.
    10030    2    1    2    0    0  0.00000000000E+00  0.00000000000E+00 -0.73615424547E+03  0.25225280010E+04  0.24127213769E+04 0.  0.
        1    1    3    3  502    0  0.71412832363E+03 -0.41983096040E+03  0.54880060608E+03  0.99368979223E+03  0.50400001928E-02 0.  1.
       -1    1    3    3    0  502 -0.71412832363E+03  0.41983096040E+03 -0.12849548515E+04  0.15288382087E+04  0.50400001928E-02 0. -1.
</event>
<event>
 5   0  0.1089569E-05  0.2982065E+04  0.7818609E-02  0.8248871E-01
       -2   -1    0    0    0  501  0.00000000000E+00  0.00000000000E+00  0.11127964749E+04  0.11127964749E+04  0.25500000920E-02 0. -1.
        2   -1    0    0  501    0  0.00000000000E+00  0.00000000000E+00 -0.19978296468E+04  0.19978296468E+04  0.25500000920E-02 0.  1.
    10030    2    1    2    0    0  0.00000000000E+00  0.00000000000E+00 -0.88503317185E+03  0.31106261217E+04  0.29820649145E+04 0.  0.
        5    1    3    3  502    0  0.58812374869E+03 -0.13444339949E+04 -0.16700205838E+03  0.14769238599E+04  0.46999998093E+01 0. -1.
       -5    1    3    3    0  502 -0.58812374869E+03  0.13444339949E+04 -0.71803111348E+03  0.16337022618E+04  0.46999998093E+01 0.  1.
</event>
<event>
 5   0  0.3896630E-06  0.3189997E+04  0.7818609E-02  0.8191464E-01
        1   -1    0    0  501    0  0.00000000000E+00  0.00000000000E+00  0.19457860934E+04  0.19457860934E+04  0.50400001928E-02 0.  1.
       -1   -1    0    0    0  501  0.00000000000E+00  0.00000000000E+00 -0.13074513746E+04  0.13074513746E+04  0.50400001928E-02 0. -1.
    10030    2    1    2    0    0  0.00000000000E+00  0.00000000000E+00  0.63833471879E+03  0.32532374680E+04  0.31899973056E+04 0.  0.
        5    1    3    3  502    0 -0.39219814635E+03  0.82803187655E+03  0.16506311444E+04  0.18878721989E+04  0.46999998093E+01 0.  1.
       -5    1    3    3    0  502  0.39219814635E+03 -0.82803187655E+03 -0.10122964256E+04  0.13653652691E+04  0.46999998093E+01 0. -1.
</event>
<event>
 5   0  0.1057036E-05  0.2009020E+04  0.7818609E-02  0.8602415E-01
        2   -1    0    0  501    0  0.00000000000E+00  0.00000000000E+00  0.10839844939E+04  0.10839844939E+04  0.25500000920E-02 0. -1.
       -2   -1    0    0    0  501  0.00000000000E+00  0.00000000000E+00 -0.93086214278E+03  0.93086214278E+03  0.25500000920E-02 0.  1.
    10030    2    1    2    0    0  0.00000000000E+00  0.00000000000E+00  0.15312235111E+03  0.20148466367E+04  0.20090197896E+04 0.  0.
        4    1    3    3  502    0  0.29058135735E+03  0.11242251817E+03 -0.88117565999E+03  0.93463816768E+03  0.12699999809E+01 0.  1.
       -4    1    3    3    0  502 -0.29058135735E+03 -0.11242251817E+03  0.10342980111E+04  0.10802084690E+04  0.12699999809E+01 0. -1.
</event>
<event>
 5   0  0.1029922E-05  0.3108475E+04  0.7818609E-02  0.8213416E-01
        2   -1    0    0  501    0  0.00000000000E+00  0.00000000000E+00  0.23098607693E+04  0.23098607693E+04  0.25500000920E-02 0. -1.
       -2   -1    0    0    0  501  0.00000000000E+00  0.00000000000E+00 -0.10458010101E+04  0.10458010101E+04  0.25500000920E-02 0.  1.
    10030    2    1    2    0    0  0.00000000000E+00  0.00000000000E+00  0.12640597592E+04  0.33556617795E+04  0.31084753342E+04 0.  0.
        1    1    3    3  502    0 -0.90053094013E+02  0.14919765667E+04  0.17205915994E+03  0.15045623915E+04  0.50400001928E-02 0.  1.
       -1    1    3    3    0  502  0.90053094013E+02 -0.14919765667E+04  0.10920005993E+04  0.18510993880E+04  0.50400001928E-02 0. -1.
</event>
<event>
 5   0  0.3592331E-06  0.2576223E+04  0.7818609E-02  0.8376323E-01
       -1   -1    0    0    0  501  0.00000000000E+00  0.00000000000E+00  0.17002222330E+04  0.17002222330E+04  0.50400001928E-02 0. -1.
        1   -1    0    0  501    0  0.00000000000E+00  0.00000000000E+00 -0.97589073789E+03  0.97589073790E+03  0.50400001928E-02 0.  1.
    10030    2    1    2    0    0  0.00000000000E+00  0.00000000000E+00  0.72433149514E+03  0.26761129709E+04  0.25762229171E+04 0.  0.
        3    1    3    3  502    0  0.20117710762E+03  0.31340029614E+03 -0.91874776292E+03  0.99135737064E+03  0.10100000352E+00 0.  1.
       -3    1    3    3    0  502 -0.20117710762E+03 -0.31340029614E+03  0.16430792581E+04  0.16847556003E+04  0.10100000352E+00 0. -1.
</event>
<event>
 5   0  0.1028450E-05  0.2864389E+04  0.7818609E-02  0.8283552E-01
       -2   -1    0    0    0  501  0.00000000000E+00  0.00000000000E+00  0.92343278165E+03  0.92343278165E+03  0.25500000920E-02 0.  1.
        2   -1    0    0  501    0  0.00000000000E+00  0.00000000000E+00 -0.22212572374E+04  0.22212572374E+04  0.25500000920E-02 0. -1.
    10030    2    1    2    0    0  0.00000000000E+00  0.00000000000E+00 -0.12978244557E+04  0.31446900190E+04  0.28643894634E+04 0.  0.
        3    1    3    3  502    0  0.81029671690E+03 -0.10676751843E+04 -0.12029447269E+04  0.18009961396E+04  0.10100000352E+00 0. -1.
       -3    1    3    3    0  502 -0.81029671690E+03  0.10676751843E+04 -0.94879728853E+02  0.13436938795E+04  0.10100000352E+00 0.  1.
</event>
<event>
 5   0  0.3592331E-06  0.2766537E+04  0.7818609E-02  0.8313733E-01
        1   -1    0    0  501    0  0.00000000000E+00  0.00000000000E+00  0.10121444082E+04  0.10121444082E+04  0.50400001928E-02 0.  1.
       -1   -1    0    0    0  501  0.00000000000E+00  0.00000000000E+00 -0.18904732093E+04  0.18904732093E+04  0.50400001928E-02 0. -1.
    10030    2    1    2    0    0  0.00000000000E+00  0.00000000000E+00 -0.87832880109E+03  0.29026176175E+04  0.27665371045E+04 0.  0.
        3    1    3    3  502    0  0.48702870023E+03  0.91437579903E+03  0.52251920861E+03  0.11603044386E+04  0.10100000352E+00 0.  1.
       -3    1    3    3    0  502 -0.48702870023E+03 -0.91437579903E+03 -0.14008480097E+04  0.17423131788E+04  0.10100000352E+00 0. -1.
</event>
<event>
 5   0  0.3896630E-06  0.3044138E+04  0.7818609E-02  0.8231238E-01
        1   -1    0    0  501    0  0.00000000000E+00  0.00000000000E+00  0.21760206275E+04  0.21760206275E+04  0.50400001928E-02 0.  1.
       -1   -1    0    0    0  501  0.00000000000E+00  0.00000000000E+00 -0.10646468558E+04  0.10646468558E+04  0.50400001928E-02 0. -1.
    10030    2    1    2    0    0  0.00000000000E+00  0.00000000000E+00  0.11113737717E+04  0.32406674834E+04  0.30441376574E+04 0.  0.
        5    1    3    3  502    0  0.12974150908E+04  0.28949904498E+03 -0.23350750528E+03  0.13496827256E+04  0.46999998093E+01 0. -1.
       -5    1    3    3    0  502 -0.12974150908E+04 -0.28949904498E+03  0.13448812770E+04  0.18909847577E+04  0.46999998093E+01 0.  1.
</event>
<event>
 5   0  0.3852126E-06  0.2983630E+04  0.7818609E-02  0.8248421E-01
       -1   -1    0    0    0  501  0.00000000000E+00  0.00000000000E+00  0.14329424392E+04  0.14329424392E+04  0.50400001928E-02 0.  1.
        1   -1    0    0  501    0  0.00000000000E+00  0.00000000000E+00 -0.15531065513E+04  0.15531065513E+04  0.50400001928E-02 0. -1.
    10030    2    1    2    0    0  0.00000000000E+00  0.00000000000E+00 -0.12016411207E+03  0.29860489905E+04  0.29836301983E+04 0.  0.
        1    1    3    3  502    0 -0.47084397266E+03 -0.85105271710E+03  0.10719969834E+04  0.14474675493E+04  0.50400001928E-02 0.  1.
       -1    1    3    3    0  502  0.47084397266E+03  0.85105271710E+03 -0.11921610954E+04  0.15385814413E+04  0.50400001928E-02 0. -1.
</event>
<event>
 5   0  0.3852126E-06  0.2350613E+04  0.7818609E-02  0.8458228E-01
        1   -1    0    0  501    0  0.00000000000E+00  0.00000000000E+00  0.13121041798E+04  0.13121041798E+04  0.50400001928E-02 0.  1.
       -1   -1    0    0    0  501  0.00000000000E+00  0.00000000000E+00 -0.10527714493E+04  0.10527714493E+04  0.50400001928E-02 0. -1.
    10030    2    1    2    0    0  0.00000000000E+00  0.00000000000E+00  0.25933273048E+03  0.23648756292E+04  0.23506133830E+04 0.  0.
        1    1    3    3  502    0 -0.11017365198E+04 -0.19596410635E+03  0.49118005664E+03  0.12220814777E+04  0.50400001928E-02 0. -1.
       -1    1    3    3    0  502  0.11017365198E+04  0.19596410635E+03 -0.23184732617E+03  0.11427941515E+04  0.50400001928E-02 0.  1.
</event>
<event>
 5   0  0.1028450E-05  0.3076581E+04  0.7818609E-02  0.8222195E-01
        2   -1    0    0  501    0  0.00000000000E+00  0.00000000000E+00  0.21607307207E+04  0.21607307207E+04  0.25500000920E-02 0.  1.
       -2   -1    0    0    0  501  0.00000000000E+00  0.00000000000E+00 -0.10951561881E+04  0.10951561881E+04  0.25500000920E-02 0. -1.
    10030    2    1    2    0    0  0.00000000000E+00  0.00000000000E+00  0.10655745326E+04  0.32558869089E+04  0.30765809723E+04 0.  0.
        3    1    3    3  502    0  0.13291318948E+04  0.81869291671E+02  0.13477621282E+04  0.18946653898E+04  0.10100000352E+00 0.  1.
       -3    1    3    3    0  502 -0.13291318948E+04 -0.81869291671E+02 -0.28218759561E+03  0.13612215191E+04  0.10100000352E+00 0. -1.
</event>
<event>
 5   0  0.3852126E-06  0.2988193E+04  0.7818609E-02  0.8247111E-01
       -1   -1    0    0    0  501  0.00000000000E+00  0.00000000000E+00  0.22210777896E+04  0.22210777896E+04  0.50400001928E-02 0.  1.
        1   -1    0    0  501    0  0.00000000000E+00  0.00000000000E+00 -0.10050632902E+04  0.10050632902E+04  0.50400001928E-02 0. -1.
    10030    2    1    2    0    0  0.00000000000E+00  0.00000000000E+00  0.12160144994E+04  0.32261410798E+04  0.29881925983E+04 0.  0.
        1    1    3    3  502    0 -0.93216348213E+03 -0.81730684560E+03  0.15083202520E+04  0.19524213735E+04  0.50400001928E-02 0.  1.
       -1    1    3    3    0  502  0.93216348213E+03  0.81730684560E+03 -0.29230575256E+03  0.12737197063E+04  0.50400001928E-02 0. -1.
</event>
<event>
 5   0  0.3725232E-06  0.2918389E+04  0.7818609E-02  0.8267427E-01
       -1   -1    0    0    0  501  0.00000000000E+00  0.00000000000E+00  0.17768877758E+04  0.17768877758E+04  0.50400001928E-02 0. -1.
        1   -1    0    0  501    0  0.00000000000E+00  0.00000000000E+00 -0.11983026332E+04  0.11983026332E+04  0.50400001928E-02 0.  1.
    10030    2    1    2    0    0  0.00000000000E+00  0.00000000000E+00  0.57858514263E+03  0.29751904090E+04  0.29183894878E+04 0.  0.
        2    1    3    3  502    0  0.67798633299E+03 -0.61933137683E+03  0.14453891192E+04  0.17124212472E+04  0.25500000920E-02 0. -1.
       -2    1    3    3    0  502 -0.67798633299E+03  0.61933137683E+03 -0.86680397656E+03  0.12627691617E+04  0.25500000920E-02 0.  1.
</event>
<event>
 5   0  0.3896630E-06  0.2816774E+04  0.7818609E-02  0.8298080E-01
        1   -1    0    0  501    0  0.00000000000E+00  0.00000000000E+00  0.14088860844E+04  0.14088860844E+04  0.50400001928E-02 0.  1.
       -1   -1    0    0    0  501  0.00000000000E+00  0.00000000000E+00 -0.14078880620E+04  0.14078880620E+04  0.50400001928E-02 0. -1.
    10030    2    1    2    0    0  0.00000000000E+00  0.00000000000E+00  0.99802242022E+00  0.28167741464E+04  0.28167739695E+04 0.  0.
        5    1    3    3  502    0 -0.42676136631E+03  0.10535343609E+04 -0.83104893223E+03  0.14080924441E+04  0.46999998093E+01 0. -1.
       -5    1    3    3    0  502  0.42676136631E+03 -0.10535343609E+04  0.83204695465E+03  0.14086817022E+04  0.46999998093E+01 0.  1.
</event>
<event>
 5   0  0.1029922E-05  0.2914088E+04  0.7818609E-02  0.8268698E-01
       -2   -1    0    0    0  501  0.00000000000E+00  0.00000000000E+00  0.16836119983E+04  0.16836119983E+04  0.25500000920E-02 0.  1.
        2   -1    0    0  501    0  0.00000000000E+00  0.00000000000E+00 -0.12609659435E+04  0.12609659435E+04  0.25500000920E-02 0. -1.
    10030    2    1    2    0    0  0.00000000000E+00  0.00000000000E+00  0.42264605477E+03  0.29445779419E+04  0.29140881195E+04 0.  0.
        1    1    3    3  502    0  0.26293540181E+03 -0.13224577109E+04  0.76932180420E+03  0.15523805787E+04  0.50400001928E-02 0.  1.
       -1    1    3    3    0  502 -0.26293540181E+03  0.13224577109E+04 -0.34667574944E+03  0.13921973632E+04  0.50400001928E-02 0. -1.
</event>
<event>
 5   0  0.1028450E-05  0.2959639E+04  0.7818609E-02  0.8255351E-01
        2   -1    0    0  501    0  0.00000000000E+00  0.00000000000E+00  0.20352054546E+04  0.20352054546E+04  0.25500000920E-02 0.  1.
       -2   -1    0    0    0  501  0.00000000000E+00  0.00000000000E+00 -0.10759921712E+04  0.10759921712E+04  0.25500000920E-02 0. -1.
    10030    2    1    2    0    0  0.00000000000E+00  0.00000000000E+00  0.95921328339E+03  0.31111976258E+04  0.29596385833E+04 0.  0.
        3    1    3    3  502    0  0.33854309776E+02  0.12812818553E+04 -0.29788691809E+03  0.13158897877E+04  0.10100000352E+00 0. -1.
       -3    1    3    3    0  502 -0.33854309776E+02 -0.12812818553E+04  0.12571002015E+04  0.17953078382E+04  0.10100000352E+00 0.  1.
</event>
<event>
 5   0  0.3852126E-06  0.2984827E+04  0.7818609E-02  0.8248077E-01
       -1   -1    0    0    0  501  0.00000000000E+00  0.00000000000E+00  0.90969997212E+03  0.90969997213E+03  0.50400001928E-02 0. -1.
        1   -1    0    0  501    0  0.00000000000E+00  0.00000000000E+00 -0.24483867887E+04  0.24483867887E+04  0.50400001928E-02 0.  1.
    10030    2    1    2    0    0  0.00000000000E+00  0.00000000000E+00 -0.15386868166E+04  0.33580867608E+04  0.29848265567E+04 0.  0.
        1    1    3    3  502    0  0.31949346630E+03 -0.65080943693E+02 -0.24078254730E+04  0.24298014554E+04  0.50400001928E-02 0.  1.
       -1    1    3    3    0  502 -0.31949346630E+03  0.65080943693E+02  0.86913865640E+03  0.92828530545E+03  0.50400001928E-02 0. -1.
</event>
<event>
 5   0  0.3725232E-06  0.2964841E+04  0.7818609E-02  0.8253842E-01
        1   -1    0    0  501    0  0.00000000000E+00  0.00000000000E+00  0.18871933122E+04  0.18871933123E+04  0.50400001928E-02 0. -1.
       -1   -1    0    0    0  501  0.00000000000E+00  0.00000000000E+00 -0.11644653802E+04  0.11644653802E+04  0.50400001928E-02 0.  1.
    10030    2    1    2    0    0  0.00000000000E+00  0.00000000000E+00  0.72272793207E+03  0.30516586924E+04  0.29648414985E+04 0.  0.
        2    1    3    3  502    0  0.77216314605E+03 -0.11053105066E+04 -0.27281426503E+03  0.13756361668E+04  0.25500000920E-02 0.  1.
       -2    1    3    3    0  502 -0.77216314605E+03  0.11053105066E+04  0.99554219711E+03  0.16760225256E+04  0.25500000920E-02 0. -1.
</event>
<event>
 5   0  0.3636718E-06  0.2969606E+04  0.7818609E-02  0.8252464E-01
        1   -1    0    0  501    0  0.00000000000E+00  0.00000000000E+00  0.14374009189E+04  0.14374009189E+04  0.50400001928E-02 0.  1.
       -1   -1    0    0    0  501  0.00000000000E+00  0.00000000000E+00 -0.15337685780E+04  0.15337685780E+04  0.50400001928E-02 0. -1.
    10030    2    1    2    0    0  0.00000000000E+00  0.00000000000E+00 -0.96367659176E+02  0.29711694969E+04  0.29696062792E+04 0.  0.
        4    1    3    3  502    0  0.12894888067E+04  0.64897441155E+03 -0.39577076517E+03  0.14968584706E+04  0.12699999809E+01 0. -1.
       -4    1    3    3    0  502 -0.12894888067E+04 -0.64897441155E+03  0.29940310599E+03  0.14743110263E+04  0.12699999809E+01 0.  1.
</event>
<event>
 5   0  0.3592331E-06  0.2031842E+04  0.7818609E-02  0.8591877E-01
       -1   -1    0    0    0  501  0.00000000000E+00  0.00000000000E+00  0.28855689150E+04  0.28855689151E+04  0.50400001928E-02 0. -1.
        1   -1    0    0  501    0  0.00000000000E+00  0.00000000000E+00 -0.35767475289E+03  0.35767475293E+03  0.50400001928E-02 0.  1.
    10030    2    1    2    0    0  0.00000000000E+00  0.00000000000E+00  0.25278941622E+04  0.32432436680E+04  0.20318416756E+04 0.  0.
        3    1    3    3  502    0 -0.69311610475E+03 -0.71518993867E+03  0.94395376060E+03  0.13722081822E+04  0.10100000352E+00 0.  1.
       -3    1    3    3    0  502  0.69311610475E+03  0.71518993867E+03  0.15839404016E+04  0.18710354857E+04  0.10100000352E+00 0. -1.
</event>
<event>
 5   0  0.3852126E-06  0.2943560E+04  0.7818609E-02  0.8260034E-01
       -1   -1    0    0    0  501  0.00000000000E+00  0.00000000000E+00  0.11152181420E+04  0.11152181420E+04  0.50400001928E-02 0.  1.
        1   -1    0    0  501    0  0.00000000000E+00  0.00000000000E+00 -0.19423430599E+04  0.19423430599E+04  0.50400001928E-02 0. -1.
    10030    2    1    2    0    0  0.00000000000E+00  0.00000000000E+00 -0.82712491787E+03  0.30575612019E+04  0.29435598980E+04 0.  0.
        1    1    3    3  502    0  0.13697230529E+04  0.25325677129E+03  0.80086337451E+02  0.13952397842E+04  0.50400001928E-02 0. -1.
       -1    1    3    3    0  502 -0.13697230529E+04 -0.25325677129E+03 -0.90721125532E+03  0.16623214177E+04  0.50400001928E-02 0.  1.
</event>
<event>
 5   0  0.1057036E-05  0.3119671E+04  0.7818609E-02  0.8210360E-01
       -2   -1    0    0    0  501  0.00000000000E+00  0.00000000000E+00  0.14294269182E+04  0.14294269182E+04  0.25500000920E-02 0. -1.
        2   -1    0    0  501    0  0.00000000000E+00  0.00000000000E+00 -0.17021418478E+04  0.17021418478E+04  0.25500000920E-02 0.  1.
    10030    2    1    2    0    0  0.00000000000E+00  0.00000000000E+00 -0.27271492958E+03  0.31315687660E+04  0.31196713775E+04 0.  0.
        4    1    3    3  502    0 -0.25722637942E+03  0.41145109094E+03 -0.16244509973E+04  0.16953760839E+04  0.12699999809E+01 0.  1.
       -4    1    3    3    0  502  0.25722637942E+03 -0.41145109094E+03  0.13517360677E+04  0.14361926821E+04  0.12699999809E+01 0. -1.
</event>
<event>
 5   0  0.1057036E-05  0.3004049E+04  0.7818609E-02  0.8242576E-01
        2   -1    0    0  501    0  0.00000000000E+00  0.00000000000E+00  0.23341065294E+04  0.23341065294E+04  0.25500000920E-02 0.  1.
       -2   -1    0    0    0  501  0.00000000000E+00  0.00000000000E+00 -0.96657009757E+03  0.96657009757E+03  0.25500000920E-02 0. -1.
    10030    2    1    2    0    0  0.00000000000E+00  0.00000000000E+00  0.13675364318E+04  0.33006766269E+04  0.30040489848E+04 0.  0.
        4    1    3    3  502    0  0.92077252033E+03  0.60237059620E+03  0.18071773794E+04  0.21157892293E+04  0.12699999809E+01 0.  1.
       -4    1    3    3    0  502 -0.92077252033E+03 -0.60237059620E+03 -0.43964094760E+03  0.11848873976E+04  0.12699999809E+01 0. -1.
</event>
<event>
 5   0  0.3592331E-06  0.2997299E+04  0.7818609E-02  0.8244503E-01
        1   -1    0    0  501    0  0.00000000000E+00  0.00000000000E+00  0.28749991007E+04  0.28749991007E+04  0.50400001928E-02 0. -1.
       -1   -1    0    0    0  501  0.00000000000E+00  0.00000000000E+00 -0.78120012259E+03  0.78120012261E+03  0.50400001928E-02 0.  1.
    10030    2    1    2    0    0  0.00000000000E+00  0.00000000000E+00  0.20937989781E+04  0.36561992233E+04  0.29972985503E+04 0.  0.
        3    1    3    3  502    0 -0.36831368977E+03  0.13900605539E+04  0.15615850190E+04  0.21228450484E+04  0.10100000352E+00 0. -1.
       -3    1    3    3    0  502  0.36831368977E+03 -0.13900605539E+04  0.53221395908E+03  0.15333541750E+04  0.10100000352E+00 0.  1.
</event>
<event>
 5   0  0.3636718E-06  0.3031875E+04  0.7818609E-02  0.8234687E-01
       -1   -1    0    0    0  501  0.00000000000E+00  0.00000000000E+00  0.11880935560E+04  0.11880935560E+04  0.50400001928E-02 0. -1.
        1   -1    0    0  501    0  0.00000000000E+00  0.00000000000E+00 -0.19342465993E+04  0.19342465993E+04  0.50400001928E-02 0.  1.
    10030    2    1    2    0    0  0.00000000000E+00  0.00000000000E+00 -0.74615304332E+03  0.31223401553E+04  0.30318746151E+04 0.  0.
        4    1    3    3  502    0  0.53932605177E+03  0.12918612096E+04  0.22590193617E+03  0.14180307729E+04  0.12699999809E+01 0.  1.
       -4    1    3    3    0  502 -0.53932605177E+03 -0.12918612096E+04 -0.97205497949E+03  0.17043093825E+04  0.12699999809E+01 0. -1.
</event>
<event>
 5   0  0.1057036E-05  0.3052196E+04  0.7818609E-02  0.8228981E-01
        2   -1    0    0  501    0  0.00000000000E+00  0.00000000000E+00  0.18674842660E+04  0.18674842660E+04  0.25500000920E-02 0. -1.
       -2   -1    0    0    0  501  0.00000000000E+00  0.00000000000E+00 -0.12471193210E+04  0.12471193210E+04  0.25500000920E-02 0.  1.
    10030    2    1    2    0    0  0.00000000000E+00  0.00000000000E+00  0.62036494506E+03  0.31146035870E+04  0.30521963959E+04 0.  0.
        4    1    3    3  502    0  0.13296128445E+03  0.14510498230E+04  0.77305352405E+03  0.16494961824E+04  0.12699999809E+01 0. -1.
       -4    1    3    3    0  502 -0.13296128445E+03 -0.14510498230E+04 -0.15268857899E+03  0.14651074046E+04  0.12699999809E+01 0.  1.
</event>
<event>
 5   0  0.1057036E-05  0.2566147E+04  0.7818609E-02  0.8379792E-01
       -2   -1    0    0    0  501  0.00000000000E+00  0.00000000000E+00  0.81857240293E+03  0.81857240293E+03  0.25500000920E-02 0.  1.
        2   -1    0    0  501    0  0.00000000000E+00  0.00000000000E+00 -0.20111570800E+04  0.20111570800E+04  0.25500000920E-02 0. -1.
    10030    2    1    2    0    0  0.00000000000E+00  0.00000000000E+00 -0.11925846770E+04  0.28297294829E+04  0.25661470602E+04 0.  0.
        4    1    3    3  502    0 -0.63966957359E+03  0.13369390738E+03  0.62130945963E+03  0.90170853483E+03  0.12699999809E+01 0.  1.
       -4    1    3    3    0  502  0.63966957359E+03 -0.13369390738E+03 -0.18138941367E+04  0.19280209481E+04  0.12699999809E+01 0. -1.
</event>
<event>
 5   0  0.1089569E-05  0.2910933E+04  0.7818609E-02  0.8269632E-01
       -2   -1    0    0    0  501  0.00000000000E+00  0.00000000000E+00  0.78766151671E+03  0.78766151671E+03  0.25500000920E-02 0. -1.
        2   -1    0    0  501    0  0.00000000000E+00  0.00000000000E+00 -0.26894585624E+04  0.26894585624E+04  0.25500000920E-02 0.  1.
    10030    2    1    2    0    0  0.00000000000E+00  0.00000000000E+00 -0.19017970457E+04  0.34771200791E+04  0.29109331908E+04 0.  0.
        5    1    3    3  502    0 -0.53722746938E+03 -0.66630225140E+03  0.45526551353E+03  0.96946419319E+03  0.46999998093E+01 0. -1.
       -5    1    3    3    0  502  0.53722746938E+03  0.66630225140E+03 -0.23570625592E+04  0.25076558859E+04  0.46999998093E+01 0.  1.
</event>
<event>
 5   0  0.1029922E-05  0.2963494E+04  0.7818609E-02  0.8254233E-01
        2   -1    0    0  501    0  0.00000000000E+00  0.00000000000E+00  0.20752165772E+04  0.20752165772E+04  0.25500000920E-02 0.  1.
       -2   -1    0    0    0  501  0.00000000000E+00  0.00000000000E+00 -0.10579977382E+04  0.10579977382E+04  0.25500000920E-02 0. -1.
    10030    2    1    2    0    0  0.00000000000E+00  0.00000000000E+00  0.10172188390E+04  0.31332143154E+04  0.29634941843E+04 0.  0.
        1    1    3    3  502    0  0.10314742805E+04 -0.25470153229E+02  0.16329936296E+04  0.19316459599E+04  0.50400001928E-02 0.  1.
       -1    1    3    3    0  502 -0.10314742805E+04  0.25470153229E+02 -0.61577479063E+03  0.12015683555E+04  0.50400001928E-02 0. -1.
</event>
<event>
 5   0  0.3313750E-06  0.3004074E+04  0.7818609E-02  0.8242568E-01
       -3   -1    0    0    0  501  0.00000000000E+00  0.00000000000E+00  0.21748366210E+04  0.21748366233E+04  0.10100000352E+00 0. -1.
        3   -1    0    0  501    0  0.00000000000E+00  0.00000000000E+00 -0.10373723071E+04  0.10373723120E+04  0.10100000352E+00 0.  1.
    10030    2    1    2    0    0  0.00000000000E+00  0.00000000000E+00  0.11374643139E+04  0.32122089353E+04  0.30040740967E+04 0.  0.
        4    1    3    3  502    0 -0.14656384399E+04  0.52976396658E+02  0.91556803964E+03  0.17289213352E+04  0.12699999809E+01 0. -1.
       -4    1    3    3    0  502  0.14656384399E+04 -0.52976396658E+02  0.22189627426E+03  0.14832876001E+04  0.12699999809E+01 0.  1.
</event>
<event>
 5   0  0.1089569E-05  0.2895035E+04  0.7818609E-02  0.8274356E-01
       -2   -1    0    0    0  501  0.00000000000E+00  0.00000000000E+00  0.18003106549E+04  0.18003106549E+04  0.25500000920E-02 0. -1.
        2   -1    0    0  501    0  0.00000000000E+00  0.00000000000E+00 -0.11638589017E+04  0.11638589017E+04  0.25500000920E-02 0.  1.
    10030    2    1    2    0    0  0.00000000000E+00  0.00000000000E+00  0.63645175320E+03  0.29641695566E+04  0.28950354620E+04 0.  0.
        5    1    3    3  502    0 -0.52562486972E+03  0.12069162717E+04  0.93456188705E+03  0.16144213828E+04  0.46999998093E+01 0. -1.
       -5    1    3    3    0  502  0.52562486972E+03 -0.12069162717E+04 -0.29811013385E+03  0.13497481738E+04  0.46999998093E+01 0.  1.
</event>
<event>
 5   0  0.3725232E-06  0.2877872E+04  0.7818609E-02  0.8279492E-01
        1   -1    0    0  501    0  0.00000000000E+00  0.00000000000E+00  0.17316468184E+04  0.17316468184E+04  0.50400001928E-02 0.  1.
       -1   -1    0    0    0  501  0.00000000000E+00  0.00000000000E+00 -0.11957037870E+04  0.11957037871E+04  0.50400001928E-02 0. -1.
    10030    2    1    2    0    0  0.00000000000E+00  0.00000000000E+00  0.53594303137E+03  0.29273506055E+04  0.28778718933E+04 0.  0.
        2    1    3    3  502    0  0.24333468494E+02 -0.97110879061E+03 -0.81183136159E+03  0.12659836336E+04  0.25500000920E-02 0. -1.
       -2    1    3    3    0  502 -0.24333468494E+02  0.97110879061E+03  0.13477743930E+04  0.16613669719E+04  0.25500000920E-02 0.  1.
</event>
<event>
 5   0  0.1089569E-05  0.2713211E+04  0.7818609E-02  0.8330731E-01
        2   -1    0    0  501    0  0.00000000000E+00  0.00000000000E+00  0.25002256393E+04  0.25002256393E+04  0.25500000920E-02 0. -1.
       -2   -1    0    0    0  501  0.00000000000E+00  0.00000000000E+00 -0.73608498849E+03  0.73608498849E+03  0.25500000920E-02 0.  1.
    10030    2    1    2    0    0  0.00000000000E+00  0.00000000000E+00  0.17641406508E+04  0.32363106278E+04  0.27132110577E+04 0.  0.
        5    1    3    3  502    0  0.17646618597E+03 -0.10518964373E+04 -0.11783960376E+03  0.10730958446E+04  0.46999998093E+01 0.  1.
       -5    1    3    3    0  502 -0.17646618597E+03  0.10518964373E+04  0.18819802545E+04  0.21632147831E+04  0.46999998093E+01 0. -1.
</event>
<event>
 5   0  0.3592331E-06  0.2991157E+04  0.7818609E-02  0.8246260E-01
        1   -1    0    0  501    0  0.00000000000E+00  0.00000000000E+00  0.15840754531E+04  0.15840754531E+04  0.50400001928E-02 0. -1.
       -1   -1    0    0    0  501  0.00000000000E+00  0.00000000000E+00 -0.14120259681E+04  0.14120259681E+04  0.50400001928E-02 0.  1.
    10030    2    1    2    0    0  0.00000000000E+00  0.00000000000E+00  0.17204948499E+03  0.29961014213E+04  0.29911574183E+04 0.  0.
        3    1    3    3  502    0 -0.40321748253E+03  0.14362239134E+04  0.19312292531E+03  0.15042007652E+04  0.10100000352E+00 0.  1.
       -3    1    3    3    0  502  0.40321748253E+03 -0.14362239134E+04 -0.21073440315E+02  0.14919006561E+04  0.10100000352E+00 0. -1.
</event>
<event>
 5   0  0.3636718E-06  0.3007657E+04  0.7818609E-02  0.8241548E-01
        1   -1    0    0  501    0  0.00000000000E+00  0.00000000000E+00  0.11768682126E+04  0.11768682126E+04  0.50400001928E-02 0. -1.
       -1   -1    0    0    0  501  0.00000000000E+00  0.00000000000E+00 -0.19216259622E+04  0.19216259622E+04  0.50400001928E-02 0.  1.
    10030    2    1    2    0    0  0.00000000000E+00  0.00000000000E+00 -0.74475774963E+03  0.30984941748E+04  0.30076572354E+04 0.  0.
        4    1    3    3  502    0  0.44410457284E+03 -0.19714600415E+03 -0.18385279107E+04  0.19016524156E+04  0.12699999809E+01 0.  1.
       -4    1    3    3    0  502 -0.44410457284E+03  0.19714600415E+03  0.10937701610E+04  0.11968417592E+04  0.12699999809E+01 0. -1.
</event>
<event>
 5   0  0.3592331E-06  0.2977348E+04  0.7818609E-02  0.8250229E-01
       -1   -1    0    0    0  501  0.00000000000E+00  0.00000000000E+00  0.24895760697E+04  0.24895760698E+04  0.50400001928E-02 0. -1.
        1   -1    0    0  501    0  0.00000000000E+00  0.00000000000E+00 -0.89017148838E+03  0.89017148839E+03  0.50400001928E-02 0.  1.
    10030    2    1    2    0    0  0.00000000000E+00  0.00000000000E+00  0.15994045814E+04  0.33797475581E+04  0.29773475682E+04 0.  0.
        3    1    3    3  502    0 -0.10878709503E+04  0.35563519051E+03  0.18803127323E+04  0.22012531828E+04  0.10100000352E+00 0. -1.
       -3    1    3    3    0  502  0.10878709503E+04 -0.35563519051E+03 -0.28090815096E+03  0.11784943753E+04  0.10100000352E+00 0.  1.
</event>
<event>
 5   0  0.3592331E-06  0.2684651E+04  0.7818609E-02  0.8340002E-01
       -1   -1    0    0    0  501  0.00000000000E+00  0.00000000000E+00  0.72662209845E+03  0.72662209847E+03  0.50400001928E-02 0.  1.
        1   -1    0    0  501    0  0.00000000000E+00  0.00000000000E+00 -0.24797452554E+04  0.24797452554E+04  0.50400001928E-02 0. -1.
    10030    2    1    2    0    0  0.00000000000E+00  0.00000000000E+00 -0.17531231569E+04  0.32063673538E+04  0.26846509651E+04 0.  0.
        3    1    3    3  502    0 -0.17513472523E+02  0.86737627883E+03 -0.20999162546E+04  0.22720687968E+04  0.10100000352E+00 0. -1.
       -3    1    3    3    0  502  0.17513472523E+02 -0.86737627883E+03  0.34679309773E+03  0.93429855701E+03  0.10100000352E+00 0.  1.
</event>
<event>
 5   0  0.9647945E-06  0.2980732E+04  0.7818609E-02  0.8249254E-01
       -2   -1    0    0    0  501  0.00000000000E+00  0.00000000000E+00  0.10345098268E+04  0.10345098268E+04  0.25500000920E-02 0.  1.
        2   -1    0    0  501    0  0.00000000000E+00  0.00000000000E+00 -0.21470950102E+04  0.21470950102E+04  0.25500000920E-02 0. -1.
    10030    2    1    2    0    0  0.00000000000E+00  0.00000000000E+00 -0.11125851834E+04  0.31816048370E+04  0.29807320491E+04 0.  0.
        2    1    3    3  502    0 -0.74609754722E+03 -0.11264533390E+04  0.11508852694E+03  0.13560250897E+04  0.25500000920E-02 0.  1.
       -2    1    3    3    0  502  0.74609754722E+03  0.11264533390E+04 -0.12276737103E+04  0.18255797473E+04  0.25500000920E-02 0. -1.
</event>
<event>
 5   0  0.3896630E-06  0.2968900E+04  0.7818609E-02  0.8252668E-01
        1   -1    0    0  501    0  0.00000000000E+00  0.00000000000E+00  0.18020769364E+04  0.18020769364E+04  0.50400001928E-02 0.  1.
       -1   -1    0    0    0  501  0.00000000000E+00  0.00000000000E+00 -0.12228068407E+04  0.12228068407E+04  0.50400001928E-02 0. -1.
    10030    2    1    2    0    0  0.00000000000E+00  0.00000000000E+00  0.57927009564E+03  0.30248837771E+04  0.29689001366E+04 0.  0.
        5    1    3    3  502    0  0.47234677030E+03 -0.14040851357E+04  0.19295968957E+03  0.14939284024E+04  0.46999998093E+01 0. -1.
       -5    1    3    3    0  502 -0.47234677030E+03  0.14040851357E+04  0.38631040607E+03  0.15309553747E+04  0.46999998093E+01 0.  1.
</event>
<event>
 5   0  0.3725232E-06  0.3068012E+04  0.7818609E-02  0.8224572E-01
        1   -1    0    0  501    0  0.00000000000E+00  0.00000000000E+00  0.15943959323E+04  0.15943959323E+04  0.50400001928E-02 0.  1.
       -1   -1    0    0    0  501  0.00000000000E+00  0.00000000000E+00 -0.14759031749E+04  0.14759031749E+04  0.50400001928E-02 0. -1.
    10030    2    1    2    0    0  0.00000000000E+00  0.00000000000E+00  0.11849275740E+03  0.30702991072E+04  0.30680117461E+04 0.  0.
        2    1    3    3  502    0 -0.44832176501E+03  0.13843982072E+04  0.54501863721E+03  0.15538970738E+04  0.25500000920E-02 0.  1.
       -2    1    3    3    0  502  0.44832176501E+03 -0.13843982072E+04 -0.42652587981E+03  0.15164020335E+04  0.25500000920E-02 0. -1.
</event>
<event>
 5   0  0.3592331E-06  0.2951613E+04  0.7818609E-02  0.8257685E-01
       -1   -1    0    0    0  501  0.00000000000E+00  0.00000000000E+00  0.88952259266E+03  0.88952259268E+03  0.50400001928E-02 0. -1.
        1   -1    0    0  501    0  0.00000000000E+00  0.00000000000E+00 -0.24485105503E+04  0.24485105503E+04  0.50400001928E-02 0.  1.
    10030    2    1    2    0    0  0.00000000000E+00  0.00000000000E+00 -0.15589879577E+04  0.33380331430E+04  0.29516134252E+04 0.  0.
        3    1    3    3  502    0  0.22938469722E+03  0.48357272917E+02 -0.24273195788E+04  0.24386135637E+04  0.10100000352E+00 0.  1.
       -3    1    3    3    0  502 -0.22938469722E+03 -0.48357272917E+02  0.86833162115E+03  0.89941957931E+03  0.10100000352E+00 0. -1.
</event>
<event>
 5   0  0.1029922E-05  0.3007740E+04  0.7818609E-02  0.8241524E-01
        2   -1    0    0  501    0  0.00000000000E+00  0.00000000000E+00  0.23365097980E+04  0.23365097980E+04  0.25500000920E-02 0.  1.
       -2   -1    0    0    0  501  0.00000000000E+00  0.00000000000E+00 -0.96795003419E+03  0.96795003420E+03  0.25500000920E-02 0. -1.
    10030    2    1    2    0    0  0.00000000000E+00  0.00000000000E+00  0.13685597638E+04  0.33044598322E+04  0.30077398417E+04 0.  0.
        1    1    3    3  502    0  0.11038748053E+04 -0.13051874736E+03 -0.42859021468E+03  0.11913287964E+04  0.50400001928E-02 0. -1.
       -1    1    3    3    0  502 -0.11038748053E+04  0.13051874736E+03  0.17971499785E+04  0.21131310358E+04  0.50400001928E-02 0.  1.
</event>
<event>
 5   0  0.9647945E-06  0.2988664E+04  0.7818609E-02  0.8246975E-01
        2   -1    0    0  501    0  0.00000000000E+00  0.00000000000E+00  0.16102747271E+04  0.16102747271E+04  0.25500000920E-02 0.  1.
       -2   -1    0    0    0  501  0.00000000000E+00  0.00000000000E+00 -0.13867373925E+04  0.13867373925E+04  0.25500000920E-02 0. -1.
    10030    2    1    2    0    0  0.00000000000E+00  0.00000000000E+00  0.22353733458E+03  0.29970121196E+04  0.29886640335E+04 0.  0.
        2    1    3    3  502    0 -0.20862829368E+03 -0.49159489577E+03  0.15113163293E+04  0.16028937438E+04  0.25500000920E-02 0.  1.
       -2    1    3    3    0  502  0.20862829368E+03  0.49159489577E+03 -0.12877789948E+04  0.13941183758E+04  0.25500000920E-02 0. -1.
</event>
<event>
 5   0  0.3592331E-06  0.1833735E+04  0.7818609E-02  0.8688562E-01
       -1   -1    0    0    0  501  0.00000000000E+00  0.00000000000E+00  0.83906139818E+03  0.83906139820E+03  0.50400001928E-02 0. -1.
        1   -1    0    0  501    0  0.00000000000E+00  0.00000000000E+00 -0.10018886296E+04  0.10018886296E+04  0.50400001928E-02 0.  1.
    10030    2    1    2    0    0  0.00000000000E+00  0.00000000000E+00 -0.16282723139E+03  0.18409500278E+04  0.18337350674E+04 0.  0.
        3    1    3    3  502    0 -0.90892345370E+03  0.97881958172E+02 -0.10971011804E+02  0.91424454919E+03  0.10100000352E+00 0. -1.
       -3    1    3    3    0  502  0.90892345370E+03 -0.97881958172E+02 -0.15185621958E+03  0.92670547859E+03  0.10100000352E+00 0.  1.
</event>
<event>
 5   0  0.1029922E-05  0.2991646E+04  0.7818609E-02  0.8246120E-01
       -2   -1    0    0    0  501  0.00000000000E+00  0.00000000000E+00  0.13308921178E+04  0.13308921178E+04  0.25500000920E-02 0. -1.
        2   -1    0    0  501    0  0.00000000000E+00  0.00000000000E+00 -0.16811933130E+04  0.16811933130E+04  0.25500000920E-02 0.  1.
    10030    2    1    2    0    0  0.00000000000E+00  0.00000000000E+00 -0.35030119517E+03  0.30120854308E+04  0.29916463219E+04 0.  0.
        1    1    3    3  502    0  0.90617898588E+02  0.16338597902E+03 -0.16693993994E+04  0.16798216978E+04  0.50400001928E-02 0.  1.
       -1    1    3    3    0  502 -0.90617898588E+02 -0.16338597902E+03  0.13190982043E+04  0.13322637330E+04  0.50400001928E-02 0. -1.
</event>
<event>
 5   0  0.3852126E-06  0.2032156E+04  0.7818609E-02  0.8591733E-01
        1   -1    0    0  501    0  0.00000000000E+00  0.00000000000E+00  0.11018716243E+04  0.11018716243E+04  0.50400001928E-02 0. -1.
       -1   -1    0    0    0  501  0.00000000000E+00  0.00000000000E+00 -0.93696432611E+03  0.93696432612E+03  0.50400001928E-02 0.  1.
    10030    2    1    2    0    0  0.00000000000E+00  0.00000000000E+00  0.16490729816E+03  0.20388359504E+04  0.20321559034E+04 0.  0.
        1    1    3    3  502    0 -0.18344579959E+03  0.99893419579E+03  0.52480455678E+02  0.10169936515E+04  0.50400001928E-02 0. -1.
       -1    1    3    3    0  502  0.18344579959E+03 -0.99893419579E+03  0.11242684248E+03  0.10218422989E+04  0.50400001928E-02 0.  1.
</event>
<event>
 5   0  0.3592331E-06  0.2983203E+04  0.7818609E-02  0.8248544E-01
       -1   -1    0    0    0  501  0.00000000000E+00  0.00000000000E+00  0.10318404453E+04  0.10318404453E+04  0.50400001928E-02 0. -1.
        1   -1    0    0  501    0  0.00000000000E+00  0.00000000000E+00 -0.21562202245E+04  0.21562202245E+04  0.50400001928E-02 0.  1.
    10030    2    1    2    0    0  0.00000000000E+00  0.00000000000E+00 -0.11243797792E+04  0.31880606698E+04  0.29832031353E+04 0.  0.
        3    1    3    3  502    0 -0.94604178094E+02  0.44698236496E+03  0.95522114041E+03  0.10588628912E+04  0.10100000352E+00 0. -1.
       -3    1    3    3    0  502  0.94604178094E+02 -0.44698236496E+03 -0.20796009196E+04  0.21291977786E+04  0.10100000352E+00 0.  1.
</event>
<event>
 5   0  0.1057036E-05  0.3020839E+04  0.7818609E-02  0.8237805E-01
       -2   -1    0    0    0  501  0.00000000000E+00  0.00000000000E+00  0.97366267472E+03  0.97366267472E+03  0.25500000920E-02 0.  1.
        2   -1    0    0  501    0  0.00000000000E+00  0.00000000000E+00 -0.23430774055E+04  0.23430774055E+04  0.25500000920E-02 0. -1.
    10030    2    1    2    0    0  0.00000000000E+00  0.00000000000E+00 -0.13694147308E+04  0.33167400802E+04  0.30208389654E+04 0.  0.
        4    1    3    3  502    0  0.13930965320E+04 -0.24854951902E+03 -0.12645167254E+04  0.18977615690E+04  0.12699999809E+01 0. -1.
       -4    1    3    3    0  502 -0.13930965320E+04  0.24854951902E+03 -0.10489800535E+03  0.14189785112E+04  0.12699999809E+01 0.  1.
</event>
<event>
 5   0  0.3725232E-06  0.2909412E+04  0.7818609E-02  0.8270083E-01
        1   -1    0    0  501    0  0.00000000000E+00  0.00000000000E+00  0.17826498277E+04  0.17826498277E+04  0.50400001928E-02 0. -1.
       -1   -1    0    0    0  501  0.00000000000E+00  0.00000000000E+00 -0.11870917407E+04  0.11870917407E+04  0.50400001928E-02 0.  1.
    10030    2    1    2    0    0  0.00000000000E+00  0.00000000000E+00  0.59555808701E+03  0.29697415684E+04  0.29094115467E+04 0.  0.
        2    1    3    3  502    0 -0.11962943920E+04 -0.71820188663E+03  0.71769092448E+03  0.15690807772E+04  0.25500000920E-02 0. -1.
       -2    1    3    3    0  502  0.11962943920E+04  0.71820188663E+03 -0.12213283747E+03  0.14006607913E+04  0.25500000920E-02 0.  1.
</event>
<event>
 5   0  0.1029922E-05  0.2990582E+04  0.7818609E-02  0.8246425E-01
       -2   -1    0    0    0  501  0.00000000000E+00  0.00000000000E+00  0.12212092120E+04  0.12212092120E+04  0.25500000920E-02 0.  1.
        2   -1    0    0  501    0  0.00000000000E+00  0.00000000000E+00 -0.18308865107E+04  0.18308865107E+04  0.25500000920E-02 0. -1.
    10030    2    1    2    0    0  0.00000000000E+00  0.00000000000E+00 -0.60967729866E+03  0.30520957227E+04  0.29905821995E+04 0.  0.
        1    1    3    3  502    0  0.38921146418E+03  0.87500619944E+03 -0.14768386295E+04  0.17601629897E+04  0.50400001928E-02 0. -1.
       -1    1    3    3    0  502 -0.38921146418E+03 -0.87500619944E+03  0.86716133082E+03  0.12919327330E+04  0.50400001928E-02 0.  1.
</event>
<event>
 5   0  0.1089569E-05  0.3015454E+04  0.7818609E-02  0.8239332E-01
       -2   -1    0    0    0  501  0.00000000000E+00  0.00000000000E+00  0.11592009023E+04  0.11592009023E+04  0.25500000920E-02 0.  1.
        2   -1    0    0  501    0  0.00000000000E+00  0.00000000000E+00 -0.19610407830E+04  0.19610407830E+04  0.25500000920E-02 0. -1.
    10030    2    1    2    0    0  0.00000000000E+00  0.00000000000E+00 -0.80183988074E+03  0.31202416853E+04  0.30154536940E+04 0.  0.
        5    1    3    3  502    0  0.11841905310E+04  0.83838211977E+03 -0.82507464041E+03  0.16691201409E+04  0.46999998093E+01 0. -1.
       -5    1    3    3    0  502 -0.11841905310E+04 -0.83838211977E+03  0.23234759666E+02  0.14511215444E+04  0.46999998093E+01 0.  1.
</event>
<event>
 5   0  0.1057036E-05  0.2876288E+04  0.7818609E-02  0.8279968E-01
       -2   -1    0    0    0  501  0.00000000000E+00  0.00000000000E+00  0.12099312900E+04  0.12099312900E+04  0.25500000920E-02 0.  1.
        2   -1    0    0  501    0  0.00000000000E+00  0.00000000000E+00 -0.17094011744E+04  0.17094011744E+04  0.25500000920E-02 0. -1.
    10030    2    1    2    0    0  0.00000000000E+00  0.00000000000E+00 -0.49946988447E+03  0.29193324644E+04  0.28762878632E+04 0.  0.
        4    1    3    3  502    0 -0.99279589485E+03  0.10146280071E+04 -0.48371180194E+03  0.14996974368E+04  0.12699999809E+01 0. -1.
       -4    1    3    3    0  502  0.99279589485E+03 -0.10146280071E+04 -0.15758082529E+02  0.14196350276E+04  0.12699999809E+01 0.  1.
</event>
<event>
 5   0  0.3592331E-06  0.2955292E+04  0.7818609E-02  0.8256614E-01
       -1   -1    0    0    0  501  0.00000000000E+00  0.00000000000E+00  0.86755777986E+03  0.86755777987E+03  0.50400001928E-02 0. -1.
        1   -1    0    0  501    0  0.00000000000E+00  0.00000000000E+00 -0.25167635045E+04  0.25167635045E+04  0.50400001928E-02 0.  1.
    10030    2    1    2    0    0  0.00000000000E+00  0.00000000000E+00 -0.16492057247E+04  0.33843212844E+04  0.29552920387E+04 0.  0.
        3    1    3    3  502    0 -0.13315218596E+04 -0.26810155577E+03 -0.14909803678E+04  0.20168915127E+04  0.10100000352E+00 0.  1.
       -3    1    3    3    0  502  0.13315218596E+04  0.26810155577E+03 -0.15822535683E+03  0.13674297717E+04  0.10100000352E+00 0. -1.
</event>
<event>
 5   0  0.3592331E-06  0.2930269E+04  0.7818609E-02  0.8263928E-01
        1   -1    0    0  501    0  0.00000000000E+00  0.00000000000E+00  0.23268212000E+04  0.23268212000E+04  0.50400001928E-02 0.  1.
       -1   -1    0    0    0  501  0.00000000000E+00  0.00000000000E+00 -0.92255446872E+03  0.92255446873E+03  0.50400001928E-02 0. -1.
    10030    2    1    2    0    0  0.00000000000E+00  0.00000000000E+00  0.14042667313E+04  0.32493756688E+04  0.29302691317E+04 0.  0.
        3    1    3    3  502    0  0.52964611299E+03  0.11812487341E+04 -0.58693078516E+02  0.12958852050E+04  0.10100000352E+00 0. -1.
       -3    1    3    3    0  502 -0.52964611299E+03 -0.11812487341E+04  0.14629598098E+04  0.19534904638E+04  0.10100000352E+00 0.  1.
</event>
<event>
 5   0  0.1028450E-05  0.2986339E+04  0.7818609E-02  0.8247643E-01
        2   -1    0    0  501    0  0.00000000000E+00  0.00000000000E+00  0.24186858479E+04  0.24186858479E+04  0.25500000920E-02 0. -1.
       -2   -1    0    0    0  501  0.00000000000E+00  0.00000000000E+00 -0.92180448053E+03  0.92180448053E+03  0.25500000920E-02 0.  1.
    10030    2    1    2    0    0  0.00000000000E+00  0.00000000000E+00  0.14968813673E+04  0.33404903284E+04  0.29863391981E+04 0.  0.
        3    1    3    3  502    0 -0.12846783924E+04 -0.17536110820E+03 -0.79924669277E+02  0.12990527522E+04  0.10100000352E+00 0.  1.
       -3    1    3    3    0  502  0.12846783924E+04  0.17536110820E+03  0.15768060366E+04  0.20414375762E+04  0.10100000352E+00 0. -1.
</event>
<event>
 5   0  0.1057036E-05  0.2972750E+04  0.7818609E-02  0.8251555E-01
       -2   -1    0    0    0  501  0.00000000000E+00  0.00000000000E+00  0.11282926314E+04  0.11282926314E+04  0.25500000920E-02 0. -1.
        2   -1    0    0  501    0  0.00000000000E+00  0.00000000000E+00 -0.19581005257E+04  0.19581005258E+04  0.25500000920E-02 0.  1.
    10030    2    1    2    0    0  0.00000000000E+00  0.00000000000E+00 -0.82980789433E+03  0.30863931572E+04  0.29727498346E+04 0.  0.
        4    1    3    3  502    0 -0.10255960535E+04  0.19874922411E+03  0.68285267931E+03  0.12480536502E+04  0.12699999809E+01 0. -1.
       -4    1    3    3    0  502  0.10255960535E+04 -0.19874922411E+03 -0.15126605736E+04  0.18383395070E+04  0.12699999809E+01 0.  1.
</event>
<event>
 5   0  0.3636718E-06  0.2985649E+04  0.7818609E-02  0.8247841E-01
        1   -1    0    0  501    0  0.00000000000E+00  0.00000000000E+00  0.18637336466E+04  0.18637336466E+04  0.50400001928E-02 0. -1.
       -1   -1    0    0    0  501  0.00000000000E+00  0.00000000000E+00 -0.11957314323E+04  0.11957314323E+04  0.50400001928E-02 0.  1.
    10030    2    1    2    0    0  0.00000000000E+00  0.00000000000E+00  0.66800221430E+03  0.30594650789E+04  0.29856489430E+04 0.  0.
        4    1    3    3  502    0  0.35544647128E+02  0.11704926163E+04  0.12827463011E+04  0.17368811337E+04  0.12699999809E+01 0. -1.
       -4    1    3    3    0  502 -0.35544647128E+02 -0.11704926163E+04 -0.61474408680E+03  0.13225839452E+04  0.12699999809E+01 0.  1.
</event>
<event>
 5   0  0.3852126E-06  0.1839947E+04  0.7818609E-02  0.8685340E-01
        1   -1    0    0  501    0  0.00000000000E+00  0.00000000000E+00  0.16042763608E+04  0.16042763608E+04  0.50400001928E-02 0.  1.
       -1   -1    0    0    0  501  0.00000000000E+00  0.00000000000E+00 -0.52755946382E+03  0.52755946385E+03  0.50400001928E-02 0. -1.
    10030    2    1    2    0    0  0.00000000000E+00  0.00000000000E+00  0.10767168970E+04  0.21318358246E+04  0.18399469305E+04 0.  0.
        1    1    3    3  502    0 -0.15331737976E+03 -0.40894887755E+02  0.15883013342E+04  0.15962079247E+04  0.50400001928E-02 0.  1.
       -1    1    3    3    0  502  0.15331737976E+03  0.40894887755E+02 -0.51158443720E+03  0.53562789993E+03  0.50400001928E-02 0. -1.
</event>
<event>
 5   0  0.3725232E-06  0.2081545E+04  0.7818609E-02  0.8569417E-01
       -1   -1    0    0    0  501  0.00000000000E+00  0.00000000000E+00  0.10152506423E+04  0.10152506423E+04  0.50400001928E-02 0. -1.
        1   -1    0    0  501    0  0.00000000000E+00  0.00000000000E+00 -0.10669360023E+04  0.10669360023E+04  0.50400001928E-02 0.  1.
    10030    2    1    2    0    0  0.00000000000E+00  0.00000000000E+00 -0.51685360038E+02  0.20821866446E+04  0.20815450623E+04 0.  0.
        2    1    3    3  502    0  0.12226709716E+03  0.85679026709E+03 -0.60409408397E+03  0.10554470461E+04  0.25500000920E-02 0.  1.
       -2    1    3    3    0  502 -0.12226709716E+03 -0.85679026709E+03  0.55240872394E+03  0.10267395985E+04  0.25500000920E-02 0. -1.
</event>
<event>
 5   0  0.1057036E-05  0.3036624E+04  0.7818609E-02  0.8233349E-01
       -2   -1    0    0    0  501  0.00000000000E+00  0.00000000000E+00  0.11530823904E+04  0.11530823904E+04  0.25500000920E-02 0. -1.
        2   -1    0    0  501    0  0.00000000000E+00  0.00000000000E+00 -0.19992248629E+04  0.19992248629E+04  0.25500000920E-02 0.  1.
    10030    2    1    2    0    0  0.00000000000E+00  0.00000000000E+00 -0.84614247252E+03  0.31523072533E+04  0.30366237725E+04 0.  0.
        4    1    3    3  502    0  0.19745600346E+03  0.71195118451E+03 -0.18000289048E+04  0.19457566738E+04  0.12699999809E+01 0.  1.
       -4    1    3    3    0  502 -0.19745600346E+03 -0.71195118451E+03  0.95388643230E+03  0.12065505796E+04  0.12699999809E+01 0. -1.
</event>
<event>
 5   0  0.1057036E-05  0.2913081E+04  0.7818609E-02  0.8268996E-01
        2   -1    0    0  501    0  0.00000000000E+00  0.00000000000E+00  0.17239412413E+04  0.17239412413E+04  0.25500000920E-02 0.  1.
       -2   -1    0    0    0  501  0.00000000000E+00  0.00000000000E+00 -0.12306162269E+04  0.12306162269E+04  0.25500000920E-02 0. -1.
    10030    2    1    2    0    0  0.00000000000E+00  0.00000000000E+00  0.49332501434E+03  0.29545574682E+04  0.29130808886E+04 0.  0.
        4    1    3    3  502    0  0.91408410943E+03 -0.72813402006E+03 -0.63507124149E+03  0.13300548879E+04  0.12699999809E+01 0. -1.
       -4    1    3    3    0  502 -0.91408410943E+03  0.72813402006E+03  0.11283962558E+04  0.16245025803E+04  0.12699999809E+01 0.  1.
</event>
<event>
 5   0  0.1089569E-05  0.2436890E+04  0.7818609E-02  0.8425820E-01
        2   -1    0    0  501    0  0.00000000000E+00  0.00000000000E+00  0.17283050426E+04  0.17283050426E+04  0.25500000920E-02 0. -1.
       -2   -1    0    0    0  501  0.00000000000E+00  0.00000000000E+00 -0.85899685488E+03  0.85899685489E+03  0.25500000920E-02 0.  1.
    10030    2    1    2    0    0  0.00000000000E+00  0.00000000000E+00  0.86930818775E+03  0.25873018975E+04  0.24368903101E+04 0.  0.
        5    1    3    3  502    0  0.62084254106E+03  0.62293374309E+03 -0.46065875110E+03  0.99283457032E+03  0.46999998093E+01 0.  1.
       -5    1    3    3    0  502 -0.62084254106E+03 -0.62293374309E+03  0.13299669388E+04  0.15944673272E+04  0.46999998093E+01 0. -1.
</event>
<event>
 5   0  0.3592331E-06  0.2126716E+04  0.7818609E-02  0.8549565E-01
       -1   -1    0    0    0  501  0.00000000000E+00  0.00000000000E+00  0.70285787246E+03  0.70285787248E+03  0.50400001928E-02 0.  1.
        1   -1    0    0  501    0  0.00000000000E+00  0.00000000000E+00 -0.16087611233E+04  0.16087611233E+04  0.50400001928E-02 0. -1.
    10030    2    1    2    0    0  0.00000000000E+00  0.00000000000E+00 -0.90590325086E+03  0.23116189958E+04  0.21267161733E+04 0.  0.
        3    1    3    3  502    0  0.33022685050E+03  0.37185215575E+03  0.56866286318E+03  0.75544772201E+03  0.10100000352E+00 0.  1.
       -3    1    3    3    0  502 -0.33022685050E+03 -0.37185215575E+03 -0.14745661140E+04  0.15561712738E+04  0.10100000352E+00 0. -1.
</event>
<event>
 5   0  0.3725232E-06  0.2934195E+04  0.7818609E-02  0.8262776E-01
       -1   -1    0    0    0  501  0.00000000000E+00  0.00000000000E+00  0.14888409610E+04  0.14888409610E+04  0.50400001928E-02 0.  1.
        1   -1    0    0  501    0  0.00000000000E+00  0.00000000000E+00 -0.14456716528E+04  0.14456716528E+04  0.50400001928E-02 0. -1.
    10030    2    1    2    0    0  0.00000000000E+00  0.00000000000E+00  0.43169308238E+02  0.29345126138E+04  0.29341950670E+04 0.  0.
        2    1    3    3  502    0  0.83043262925E+03  0.11803357835E+04 -0.24219426277E+03  0.14633758828E+04  0.25500000920E-02 0. -1.
       -2    1    3    3    0  502 -0.83043262925E+03 -0.11803357835E+04  0.28536357100E+03  0.14711367310E+04  0.25500000920E-02 0.  1.
</event>
<event>
 5   0  0.1029922E-05  0.2984788E+04  0.7818609E-02  0.8248088E-01
        2   -1    0    0  501    0  0.00000000000E+00  0.00000000000E+00  0.17580746246E+04  0.17580746246E+04  0.25500000920E-02 0. -1.
       -2   -1    0    0    0  501  0.00000000000E+00  0.00000000000E+00 -0.12668629431E+04  0.12668629431E+04  0.25500000920E-02 0.  1.
    10030    2    1    2    0    0  0.00000000000E+00  0.00000000000E+00  0.49121168152E+03  0.30249375677E+04  0.29847878270E+04 0.  0.
        1    1    3    3  502    0 -0.51105984418E+03 -0.11779805843E+04  0.10163749317E+04  0.16376319559E+04  0.50400001928E-02 0.  1.
       -1    1    3    3    0  502  0.51105984418E+03  0.11779805843E+04 -0.52516325015E+03  0.13873056118E+04  0.50400001928E-02 0. -1.
</event>
<event>
 5   0  0.3636718E-06  0.2955587E+04  0.7818609E-02  0.8256528E-01
        1   -1    0    0  501    0  0.00000000000E+00  0.00000000000E+00  0.22770228193E+04  0.22770228193E+04  0.50400001928E-02 0.  1.
       -1   -1    0    0    0  501  0.00000000000E+00  0.00000000000E+00 -0.95909143123E+03  0.95909143124E+03  0.50400001928E-02 0. -1.
    10030    2    1    2    0    0  0.00000000000E+00  0.00000000000E+00  0.13179313881E+04  0.32361142506E+04  0.29555866252E+04 0.  0.
        4    1    3    3  502    0  0.46601300443E+03 -0.35124862736E+03  0.21455222381E+04  0.22234682381E+04  0.12699999809E+01 0.  1.
       -4    1    3    3    0  502 -0.46601300443E+03  0.35124862736E+03 -0.82759085008E+03  0.10126460125E+04  0.12699999809E+01 0. -1.
</event>
<event>
 5   0  0.1029922E-05  0.3028864E+04  0.7818609E-02  0.8235536E-01
       -2   -1    0    0    0  501  0.00000000000E+00  0.00000000000E+00  0.15784261020E+04  0.15784261020E+04  0.25500000920E-02 0. -1.
        2   -1    0    0  501    0  0.00000000000E+00  0.00000000000E+00 -0.14530328448E+04  0.14530328448E+04  0.25500000920E-02 0.  1.
    10030    2    1    2    0    0  0.00000000000E+00  0.00000000000E+00  0.12539325721E+03  0.30314589468E+04  0.30288644534E+04 0.  0.
        1    1    3    3  502    0 -0.95365697758E+03  0.10009113223E+04 -0.55607227399E+03  0.14901347187E+04  0.50400001928E-02 0.  1.
       -1    1    3    3    0  502  0.95365697758E+03 -0.10009113223E+04  0.68146553119E+03  0.15413242281E+04  0.50400001928E-02 0. -1.
</event>
<event>
 5   0  0.9647945E-06  0.1925025E+04  0.7818609E-02  0.8642499E-01
        2   -1    0    0  501    0  0.00000000000E+00  0.00000000000E+00  0.10123017945E+04  0.10123017945E+04  0.25500000920E-02 0.  1.
       -2   -1    0    0    0  501  0.00000000000E+00  0.00000000000E+00 -0.91517227442E+03  0.91517227442E+03  0.25500000920E-02 0. -1.
    10030    2    1    2    0    0  0.00000000000E+00  0.00000000000E+00  0.97129520095E+02  0.19274740689E+04  0.19250252317E+04 0.  0.
        2    1    3    3  502    0  0.84161979651E+03 -0.72296077067E+02  0.51054082809E+03  0.98701699164E+03  0.25500000920E-02 0.  1.
       -2    1    3    3    0  502 -0.84161979651E+03  0.72296077067E+02 -0.41341130800E+03  0.94045707729E+03  0.25500000920E-02 0. -1.
</event>
<event>
 5   0  0.3852126E-06  0.2989627E+04  0.7818609E-02  0.8246699E-01
        1   -1    0    0  501    0  0.00000000000E+00  0.00000000000E+00  0.16775116960E+04  0.16775116961E+04  0.50400001928E-02 0.  1.
       -1   -1    0    0    0  501  0.00000000000E+00  0.00000000000E+00 -0.13320130378E+04  0.13320130378E+04  0.50400001928E-02 0. -1.
    10030    2    1    2    0    0  0.00000000000E+00  0.00000000000E+00  0.34549865827E+03  0.30095247338E+04  0.29896270337E+04 0.  0.
        1    1    3    3  502    0 -0.60916484886E+03 -0.10084557374E+04  0.10988739190E+04  0.16110830758E+04  0.50400001928E-02 0.  1.
       -1    1    3    3    0  502  0.60916484886E+03  0.10084557374E+04 -0.75337526075E+03  0.13984416580E+04  0.50400001928E-02 0. -1.
</event>
<event>
 5   0  0.1057036E-05  0.2908626E+04  0.7818609E-02  0.8270315E-01
       -2   -1    0    0    0  501  0.00000000000E+00  0.00000000000E+00  0.33253141546E+04  0.33253141546E+04  0.25500000920E-02 0. -1.
        2   -1    0    0  501    0  0.00000000000E+00  0.00000000000E+00 -0.63603823305E+03  0.63603823305E+03  0.25500000920E-02 0.  1.
    10030    2    1    2    0    0  0.00000000000E+00  0.00000000000E+00  0.26892759215E+04  0.39613523876E+04  0.29086264382E+04 0.  0.
        4    1    3    3  502    0 -0.12876636700E+04 -0.95768642903E+02  0.43328644568E+03  0.13619794848E+04  0.12699999809E+01 0.  1.
       -4    1    3    3    0  502  0.12876636700E+04  0.95768642903E+02  0.22559894758E+04  0.25993729029E+04  0.12699999809E+01 0. -1.
</event>
<event>
 5   0  0.3592331E-06  0.2946650E+04  0.7818609E-02  0.8259132E-01
        1   -1    0    0  501    0  0.00000000000E+00  0.00000000000E+00  0.15170375736E+04  0.15170375736E+04  0.50400001928E-02 0.  1.
       -1   -1    0    0    0  501  0.00000000000E+00  0.00000000000E+00 -0.14308718885E+04  0.14308718885E+04  0.50400001928E-02 0. -1.
    10030    2    1    2    0    0  0.00000000000E+00  0.00000000000E+00  0.86165685161E+02  0.29479094621E+04  0.29466499065E+04 0.  0.
        3    1    3    3  502    0  0.11426929691E+04 -0.58320361470E+03 -0.68166641876E+03  0.14527707302E+04  0.10100000352E+00 0. -1.
       -3    1    3    3    0  502 -0.11426929691E+04  0.58320361470E+03  0.76783210392E+03  0.14951387319E+04  0.10100000352E+00 0.  1.
</event>
<event>
 5   0  0.1089569E-05  0.2326373E+04  0.7818609E-02  0.8467595E-01
        2   -1    0    0  501    0  0.00000000000E+00  0.00000000000E+00  0.12557648592E+04  0.12557648592E+04  0.25500000920E-02 0. -1.
       -2   -1    0    0    0  501  0.00000000000E+00  0.00000000000E+00 -0.10774333529E+04  0.10774333529E+04  0.25500000920E-02 0.  1.
    10030    2    1    2    0    0  0.00000000000E+00  0.00000000000E+00  0.17833150624E+03  0.23331982121E+04  0.23263730936E+04 0.  0.
        5    1    3    3  502    0 -0.64291824932E+03 -0.59741304397E+03  0.85477590472E+03  0.12251163854E+04  0.46999998093E+01 0. -1.
       -5    1    3    3    0  502  0.64291824932E+03  0.59741304397E+03 -0.67644439848E+03  0.11080818267E+04  0.46999998093E+01 0.  1.
</event>
<event>
 5   0  0.1089569E-05  0.2953130E+04  0.7818609E-02  0.8257243E-01
       -2   -1    0    0    0  501  0.00000000000E+00  0.00000000000E+00  0.10785892588E+04  0.10785892588E+04  0.25500000920E-02 0. -1.
        2   -1    0    0  501    0  0.00000000000E+00  0.00000000000E+00 -0.20213846401E+04  0.20213846401E+04  0.25500000920E-02 0.  1.
    10030    2    1    2    0    0  0.00000000000E+00  0.00000000000E+00 -0.94279538121E+03  0.30999738989E+04  0.29531297030E+04 0.  0.
        5    1    3    3  502    0  0.12665351075E+04 -0.40014661824E+03 -0.11484443797E+04  0.17558972288E+04  0.46999998093E+01 0.  1.
       -5    1    3    3    0  502 -0.12665351075E+04  0.40014661824E+03  0.20564899852E+03  0.13440766701E+04  0.46999998093E+01 0. -1.
</event>
<event>
 5   0  0.1029922E-05  0.3045873E+04  0.7818609E-02  0.8230752E-01
        2   -1    0    0  501    0  0.00000000000E+00  0.00000000000E+00  0.20062647293E+04  0.20062647293E+04  0.25500000920E-02 0. -1.
       -2   -1    0    0    0  501  0.00000000000E+00  0.00000000000E+00 -0.11560463800E+04  0.11560463800E+04  0.25500000920E-02 0.  1.
    10030    2    1    2    0    0  0.00000000000E+00  0.00000000000E+00  0.85021834926E+03  0.31623111093E+04  0.30458726681E+04 0.  0.
        1    1    3    3  502    0 -0.93705527476E+03 -0.97141422059E+03 -0.30727746184E+03  0.13842462261E+04  0.50400001928E-02 0.  1.
       -1    1    3    3    0  502  0.93705527476E+03  0.97141422059E+03  0.11574958111E+04  0.17780648831E+04  0.50400001928E-02 0. -1.
</event>
<event>
 5   0  0.3636718E-06  0.2058993E+04  0.7818609E-02  0.8579526E-01
       -1   -1    0    0    0  501  0.00000000000E+00  0.00000000000E+00  0.54416885054E+03  0.54416885057E+03  0.50400001928E-02 0.  1.
        1   -1    0    0  501    0  0.00000000000E+00  0.00000000000E+00 -0.19476731818E+04  0.19476731818E+04  0.50400001928E-02 0. -1.
    10030    2    1    2    0    0  0.00000000000E+00  0.00000000000E+00 -0.14035043313E+04  0.24918420324E+04  0.20589930322E+04 0.  0.
        4    1    3    3  502    0  0.95422325037E+03 -0.42931386979E+02 -0.11665101054E+04  0.15076911336E+04  0.12699999809E+01 0. -1.
       -4    1    3    3    0  502 -0.95422325037E+03  0.42931386979E+02 -0.23699422587E+03  0.98415089876E+03  0.12699999809E+01 0.  1.
</event>
<event>
 5   0  0.3592331E-06  0.2996120E+04  0.7818609E-02  0.8244840E-01
        1   -1    0    0  501    0  0.00000000000E+00  0.00000000000E+00  0.26135269150E+04  0.26135269150E+04  0.50400001928E-02 0. -1.
       -1   -1    0    0    0  501  0.00000000000E+00  0.00000000000E+00 -0.85868039867E+03  0.85868039869E+03  0.50400001928E-02 0.  1.
    10030    2    1    2    0    0  0.00000000000E+00  0.00000000000E+00  0.17548465163E+04  0.34722073137E+04  0.29961203803E+04 0.  0.
        3    1    3    3  502    0 -0.74996316800E+03 -0.36669406243E+03 -0.56412819363E+03  0.10075464842E+04  0.10100000352E+00 0.  1.
       -3    1    3    3    0  502  0.74996316800E+03  0.36669406243E+03  0.23189747099E+04  0.24646608295E+04  0.10100000352E+00 0. -1.
</event>
<event>
 5   0  0.3592331E-06  0.2829171E+04  0.7818609E-02  0.8294269E-01
       -1   -1    0    0    0  501  0.00000000000E+00  0.00000000000E+00  0.12218438554E+04  0.12218438554E+04  0.50400001928E-02 0.  1.
        1   -1    0    0  501    0  0.00000000000E+00  0.00000000000E+00 -0.16377320115E+04  0.16377320115E+04  0.50400001928E-02 0. -1.
    10030    2    1    2    0    0  0.00000000000E+00  0.00000000000E+00 -0.41588815614E+03  0.28595758669E+04  0.28291714653E+04 0.  0.
        3    1    3    3  502    0  0.81957395868E+03  0.10166773976E+04 -0.75758810581E+03  0.15097265159E+04  0.10100000352E+00 0. -1.
       -3    1    3    3    0  502 -0.81957395868E+03 -0.10166773976E+04  0.34169994967E+03  0.13498493510E+04  0.10100000352E+00 0.  1.
</event>
<event>
 5   0  0.1057036E-05  0.2992359E+04  0.7818609E-02  0.8245916E-01
        2   -1    0    0  501    0  0.00000000000E+00  0.00000000000E+00  0.13319788536E+04  0.13319788536E+04  0.25500000920E-02 0.  1.
       -2   -1    0    0    0  501  0.00000000000E+00  0.00000000000E+00 -0.16806224619E+04  0.16806224619E+04  0.25500000920E-02 0. -1.
    10030    2    1    2    0    0  0.00000000000E+00  0.00000000000E+00 -0.34864360827E+03  0.30126013156E+04  0.29923593235E+04 0.  0.
        4    1    3    3  502    0 -0.40895705557E+03  0.98979720363E+02 -0.16198299651E+04  0.16735870419E+04  0.12699999809E+01 0. -1.
       -4    1    3    3    0  502  0.40895705557E+03 -0.98979720363E+02  0.12711863568E+04  0.13390142736E+04  0.12699999809E+01 0.  1.
</event>
<event>
 5   0  0.3896630E-06  0.3236328E+04  0.7818609E-02  0.8179288E-01
        1   -1    0    0  501    0  0.00000000000E+00  0.00000000000E+00  0.26479483825E+04  0.26479483825E+04  0.50400001928E-02 0.  1.
       -1   -1    0    0    0  501  0.00000000000E+00  0.00000000000E+00 -0.98886197621E+03  0.98886197622E+03  0.50400001928E-02 0. -1.
    10030    2    1    2    0    0  0.00000000000E+00  0.00000000000E+00  0.16590864063E+04  0.36368103587E+04  0.32363284570E+04 0.  0.
        5    1    3    3  502    0  0.14021538535E+04 -0.53759999861E+03  0.15069523856E+04  0.21274343162E+04  0.46999998093E+01 0.  1.
       -5    1    3    3    0  502 -0.14021538535E+04  0.53759999861E+03  0.15213402065E+03  0.15093760425E+04  0.46999998093E+01 0. -1.
</event>
<event>
 5   0  0.3852126E-06  0.2256642E+04  0.7818609E-02  0.8495215E-01
        1   -1    0    0  501    0  0.00000000000E+00  0.00000000000E+00  0.18059525492E+04  0.18059525492E+04  0.50400001928E-02 0. -1.
       -1   -1    0    0    0  501  0.00000000000E+00  0.00000000000E+00 -0.70495117010E+03  0.70495117012E+03  0.50400001928E-02 0.  1.
    10030    2    1    2    0    0  0.00000000000E+00  0.00000000000E+00  0.11010013791E+04  0.25109037193E+04  0.22566420742E+04 0.  0.
        1    1    3    3  502    0 -0.28388174608E+03 -0.10290784471E+04  0.14393027737E+03  0.10771755757E+04  0.50400001928E-02 0.  1.
       -1    1    3    3    0  502  0.28388174608E+03  0.10290784471E+04  0.95707110170E+03  0.14337281436E+04  0.50400001928E-02 0. -1.
</event>
<event>
 5   0  0.3725232E-06  0.3092083E+04  0.7818609E-02  0.8217914E-01
       -1   -1    0    0    0  501  0.00000000000E+00  0.00000000000E+00  0.12775494034E+04  0.12775494034E+04  0.50400001928E-02 0. -1.
        1   -1    0    0  501    0  0.00000000000E+00  0.00000000000E+00 -0.18709608940E+04  0.18709608940E+04  0.50400001928E-02 0.  1.
    10030    2    1    2    0    0  0.00000000000E+00  0.00000000000E+00 -0.59341149062E+03  0.31485102975E+04  0.30920834232E+04 0.  0.
        2    1    3    3  502    0  0.25669618310E+03 -0.11586103250E+04 -0.13057354350E+04  0.17644307415E+04  0.25500000920E-02 0.  1.
       -2    1    3    3    0  502 -0.25669618310E+03  0.11586103250E+04  0.71232394435E+03  0.13840795560E+04  0.25500000920E-02 0. -1.
</event>
<event>
 5   0  0.1028450E-05  0.2975686E+04  0.7818609E-02  0.8250708E-01
       -2   -1    0    0    0  501  0.00000000000E+00  0.00000000000E+00  0.16163258278E+04  0.16163258278E+04  0.25500000920E-02 0. -1.
        2   -1    0    0  501    0  0.00000000000E+00  0.00000000000E+00 -0.13695735211E+04  0.13695735211E+04  0.25500000920E-02 0.  1.
    10030    2    1    2    0    0  0.00000000000E+00  0.00000000000E+00  0.24675230675E+03  0.29858993489E+04  0.29756861764E+04 0.  0.
        3    1    3    3  502    0  0.74141015722E+03 -0.79111476181E+03  0.11457575942E+04  0.15774384496E+04  0.10100000352E+00 0. -1.
       -3    1    3    3    0  502 -0.74141015722E+03  0.79111476181E+03 -0.89900528744E+03  0.14084608992E+04  0.10100000352E+00 0.  1.
</event>
<event>
 5   0  0.1057036E-05  0.2974844E+04  0.7818609E-02  0.8250951E-01
       -2   -1    0    0    0  501  0.00000000000E+00  0.00000000000E+00  0.22401159017E+04  0.22401159017E+04  0.25500000920E-02 0.  1.
        2   -1    0    0  501    0  0.00000000000E+00  0.00000000000E+00 -0.98763839960E+03  0.98763839960E+03  0.25500000920E-02 0. -1.
    10030    2    1    2    0    0  0.00000000000E+00  0.00000000000E+00  0.12524775021E+04  0.32277543013E+04  0.29748441869E+04 0.  0.
        4    1    3    3  502    0 -0.20600305608E+03 -0.13744913205E+04  0.12011532480E+04  0.18369633604E+04  0.12699999809E+01 0.  1.
       -4    1    3    3    0  502  0.20600305608E+03  0.13744913205E+04  0.51324254060E+02  0.13907909409E+04  0.12699999809E+01 0. -1.
</event>
<event>
 5   0  0.1029922E-05  0.3021131E+04  0.7818609E-02  0.8237722E-01
       -2   -1    0    0    0  501  0.00000000000E+00  0.00000000000E+00  0.11614711859E+04  0.11614711859E+04  0.25500000920E-02 0.  1.
        2   -1    0    0  501    0  0.00000000000E+00  0.00000000000E+00 -0.19645846466E+04  0.19645846466E+04  0.25500000920E-02 0. -1.
    10030    2    1    2    0    0  0.00000000000E+00  0.00000000000E+00 -0.80311346071E+03  0.31260558326E+04  0.30211312182E+04 0.  0.
        1    1    3    3  502    0  0.46154486921E+03 -0.14096561348E+04 -0.10588018828E+03  0.14870658018E+04  0.50400001928E-02 0.  1.
       -1    1    3    3    0  502 -0.46154486921E+03  0.14096561348E+04 -0.69723327242E+03  0.16389900307E+04  0.50400001928E-02 0. -1.
</event>
<event>
 5   0  0.1028450E-05  0.3073463E+04  0.7818609E-02  0.8223059E-01
       -2   -1    0    0    0  501  0.00000000000E+00  0.00000000000E+00  0.13089647804E+04  0.13089647804E+04  0.25500000920E-02 0. -1.
        2   -1    0    0  501    0  0.00000000000E+00  0.00000000000E+00 -0.18041305399E+04  0.18041305399E+04  0.25500000920E-02 0.  1.
    10030    2    1    2    0    0  0.00000000000E+00  0.00000000000E+00 -0.49516575947E+03  0.31130953203E+04  0.30734627611E+04 0.  0.
        3    1    3    3  502    0  0.35754372630E+03  0.28144874845E+03 -0.17343294576E+04  0.17930280511E+04  0.10100000352E+00 0.  1.
       -3    1    3    3    0  502 -0.35754372630E+03 -0.28144874845E+03  0.12391636981E+04  0.13200672692E+04  0.10100000352E+00 0. -1.
</event>
<event>
 5   0  0.3896630E-06  0.2977117E+04  0.7818609E-02  0.8250296E-01
       -1   -1    0    0    0  501  0.00000000000E+00  0.00000000000E+00  0.11165849838E+04  0.11165849839E+04  0.50400001928E-02 0. -1.
        1   -1    0    0  501    0  0.00000000000E+00  0.00000000000E+00 -0.19844494901E+04  0.19844494901E+04  0.50400001928E-02 0.  1.
    10030    2    1    2    0    0  0.00000000000E+00  0.00000000000E+00 -0.86786450628E+03  0.31010344740E+04  0.29771170631E+04 0.  0.
        5    1    3    3  502    0 -0.13862032941E+03  0.10654246464E+04 -0.15070768201E+04  0.18508505895E+04  0.46999998093E+01 0.  1.
       -5    1    3    3    0  502  0.13862032941E+03 -0.10654246464E+04  0.63921231387E+03  0.12501838845E+04  0.46999998093E+01 0. -1.
</event>
<event>
 5   0  0.3636718E-06  0.2973272E+04  0.7818609E-02  0.8251405E-01
        1   -1    0    0  501    0  0.00000000000E+00  0.00000000000E+00  0.15790189505E+04  0.15790189506E+04  0.50400001928E-02 0. -1.
       -1   -1    0    0    0  501  0.00000000000E+00  0.00000000000E+00 -0.13996579492E+04  0.13996579492E+04  0.50400001928E-02 0.  1.
    10030    2    1    2    0    0  0.00000000000E+00  0.00000000000E+00  0.17936100135E+03  0.29786768998E+04  0.29732718854E+04 0.  0.
        4    1    3    3  502    0 -0.10389980001E+04 -0.42995110507E+03  0.10639245627E+04  0.15480025469E+04  0.12699999809E+01 0. -1.
       -4    1    3    3    0  502  0.10389980001E+04  0.42995110507E+03 -0.88456356137E+03  0.14306743529E+04  0.12699999809E+01 0.  1.
</event>
<event>
 5   0  0.3896630E-06  0.2535181E+04  0.7818609E-02  0.8390558E-01
        1   -1    0    0  501    0  0.00000000000E+00  0.00000000000E+00  0.13115329325E+04  0.13115329326E+04  0.50400001928E-02 0. -1.
       -1   -1    0    0    0  501  0.00000000000E+00  0.00000000000E+00 -0.12251206775E+04  0.12251206775E+04  0.50400001928E-02 0.  1.
    10030    2    1    2    0    0  0.00000000000E+00  0.00000000000E+00  0.86412255083E+02  0.25366536100E+04  0.25351813465E+04 0.  0.
        5    1    3    3  502    0  0.47777179864E+02 -0.90867366152E+02  0.13073576163E+04  0.13113906985E+04  0.46999998093E+01 0. -1.
       -5    1    3    3    0  502 -0.47777179864E+02  0.90867366152E+02 -0.12209453613E+04  0.12252629115E+04  0.46999998093E+01 0.  1.
</event>
<event>
 5   0  0.3592331E-06  0.2915295E+04  0.7818609E-02  0.8268341E-01
        1   -1    0    0  501    0  0.00000000000E+00  0.00000000000E+00  0.22392066732E+04  0.22392066732E+04  0.50400001928E-02 0.  1.
       -1   -1    0    0    0  501  0.00000000000E+00  0.00000000000E+00 -0.94887893167E+03  0.94887893168E+03  0.50400001928E-02 0. -1.
    10030    2    1    2    0    0  0.00000000000E+00  0.00000000000E+00  0.12903277415E+04  0.31880856049E+04  0.29152948639E+04 0.  0.
        3    1    3    3  502    0  0.56348361855E+03  0.11170722276E+04 -0.17273159457E+03  0.12630124164E+04  0.10100000352E+00 0. -1.
       -3    1    3    3    0  502 -0.56348361855E+03 -0.11170722276E+04  0.14630593361E+04  0.19250731885E+04  0.10100000352E+00 0.  1.
</event>
<event>
 5   0  0.1057036E-05  0.3004248E+04  0.7818609E-02  0.8242519E-01
        2   -1    0    0  501    0  0.00000000000E+00  0.00000000000E+00  0.18077969456E+04  0.18077969456E+04  0.25500000920E-02 0. -1.
       -2   -1    0    0    0  501  0.00000000000E+00  0.00000000000E+00 -0.12481361734E+04  0.12481361734E+04  0.25500000920E-02 0.  1.
    10030    2    1    2    0    0  0.00000000000E+00  0.00000000000E+00  0.55966077222E+03  0.30559331190E+04  0.30042481668E+04 0.  0.
        4    1    3    3  502    0 -0.31478842098E+03 -0.93899429429E+03  0.14286734825E+04  0.17383646243E+04  0.12699999809E+01 0. -1.
       -4    1    3    3    0  502  0.31478842098E+03  0.93899429429E+03 -0.86901271024E+03  0.13175684947E+04  0.12699999809E+01 0.  1.
</event>
<event>
 5   0  0.1029922E-05  0.2777099E+04  0.7818609E-02  0.8310414E-01
       -2   -1    0    0    0  501  0.00000000000E+00  0.00000000000E+00  0.88192015386E+03  0.88192015387E+03  0.25500000920E-02 0.  1.
        2   -1    0    0  501    0  0.00000000000E+00  0.00000000000E+00 -0.21862175157E+04  0.21862175157E+04  0.25500000920E-02 0. -1.
    10030    2    1    2    0    0  0.00000000000E+00  0.00000000000E+00 -0.13042973618E+04  0.30681376695E+04  0.27770986931E+04 0.  0.
        1    1    3    3  502    0 -0.48317783588E+03 -0.12501590774E+04 -0.25119506292E+03  0.13636192649E+04  0.50400001928E-02 0.  1.
       -1    1    3    3    0  502  0.48317783588E+03  0.12501590774E+04 -0.10531022989E+04  0.17045184047E+04  0.50400001928E-02 0. -1.
</event>
<event>
 5   0  0.9647945E-06  0.2961922E+04  0.7818609E-02  0.8254689E-01
        2   -1    0    0  501    0  0.00000000000E+00  0.00000000000E+00  0.20734764761E+04  0.20734764761E+04  0.25500000920E-02 0.  1.
       -2   -1    0    0    0  501  0.00000000000E+00  0.00000000000E+00 -0.10577626558E+04  0.10577626558E+04  0.25500000920E-02 0. -1.
    10030    2    1    2    0    0  0.00000000000E+00  0.00000000000E+00  0.10157138202E+04  0.31312391319E+04  0.29619223381E+04 0.  0.
        2    1    3    3  502    0  0.10140957223E+04  0.70414368594E+03  0.13725615824E+04  0.18461131498E+04  0.25500000920E-02 0.  1.
       -2    1    3    3    0  502 -0.10140957223E+04 -0.70414368594E+03 -0.35684776216E+03  0.12851259821E+04  0.25500000920E-02 0. -1.
</event>
<event>
 5   0  0.3592331E-06  0.3029898E+04  0.7818609E-02  0.8235244E-01
        1   -1    0    0  501    0  0.00000000000E+00  0.00000000000E+00  0.16202227770E+04  0.16202227770E+04  0.50400001928E-02 0.  1.
       -1   -1    0    0    0  501  0.00000000000E+00  0.00000000000E+00 -0.14165155856E+04  0.14165155856E+04  0.50400001928E-02 0. -1.
    10030    2    1    2    0    0  0.00000000000E+00  0.00000000000E+00  0.20370719142E+03  0.30367383627E+04  0.30298982266E+04 0.  0.
        3    1    3    3  502    0 -0.42395685285E+03 -0.39997709044E+03 -0.12996414171E+04  0.14243556119E+04  0.10100000352E+00 0. -1.
       -3    1    3    3    0  502  0.42395685285E+03  0.39997709044E+03  0.15033486085E+04  0.16123827508E+04  0.10100000352E+00 0.  1.
</event>
<event>
 5   0  0.1028450E-05  0.2972960E+04  0.7818609E-02  0.8251495E-01
        2   -1    0    0  501    0  0.00000000000E+00  0.00000000000E+00  0.13893658951E+04  0.13893658951E+04  0.25500000920E-02 0.  1.
       -2   -1    0    0    0  501  0.00000000000E+00  0.00000000000E+00 -0.15903825086E+04  0.15903825086E+04  0.25500000920E-02 0. -1.
    10030    2    1    2    0    0  0.00000000000E+00  0.00000000000E+00 -0.20101661349E+03  0.29797484038E+04  0.29729602875E+04 0.  0.
        3    1    3    3  502    0 -0.16762432502E+03  0.13500271847E+04  0.49998561011E+03  0.14493643208E+04  0.10100000352E+00 0.  1.
       -3    1    3    3    0  502  0.16762432502E+03 -0.13500271847E+04 -0.70100222360E+03  0.15303840830E+04  0.10100000352E+00 0. -1.
</event>
<event>
 5   0  0.1089569E-05  0.2994491E+04  0.7818609E-02  0.8245306E-01
       -2   -1    0    0    0  501  0.00000000000E+00  0.00000000000E+00  0.10442966530E+04  0.10442966530E+04  0.25500000920E-02 0.  1.
        2   -1    0    0  501    0  0.00000000000E+00  0.00000000000E+00 -0.21466549425E+04  0.21466549425E+04  0.25500000920E-02 0. -1.
    10030    2    1    2    0    0  0.00000000000E+00  0.00000000000E+00 -0.11023582894E+04  0.31909515955E+04  0.29944913235E+04 0.  0.
        5    1    3    3  502    0  0.13524561860E+04  0.34410490588E+03  0.26785390149E+02  0.13958099686E+04  0.46999998093E+01 0.  1.
       -5    1    3    3    0  502 -0.13524561860E+04 -0.34410490588E+03 -0.11291436796E+04  0.17951416269E+04  0.46999998093E+01 0. -1.
</event>
<event>
 5   0  0.1029922E-05  0.2647949E+04  0.7818609E-02  0.8352094E-01
       -2   -1    0    0    0  501  0.00000000000E+00  0.00000000000E+00  0.13521454774E+04  0.13521454774E+04  0.25500000920E-02 0. -1.
        2   -1    0    0  501    0  0.00000000000E+00  0.00000000000E+00 -0.12963903561E+04  0.12963903561E+04  0.25500000920E-02 0.  1.
    10030    2    1    2    0    0  0.00000000000E+00  0.00000000000E+00  0.55755121388E+02  0.26485358335E+04  0.26479489096E+04 0.  0.
        1    1    3    3  502    0  0.19401492272E+03  0.13057422337E+04 -0.73652503628E+02  0.13221305769E+04  0.50400001928E-02 0.  1.
       -1    1    3    3    0  502 -0.19401492272E+03 -0.13057422337E+04  0.12940762502E+03  0.13264052566E+04  0.50400001928E-02 0. -1.
</event>
<event>
 5   0  0.3592331E-06  0.2905660E+04  0.7818609E-02  0.8271196E-01
        1   -1    0    0  501    0  0.00000000000E+00  0.00000000000E+00  0.19292692694E+04  0.19292692694E+04  0.50400001928E-02 0.  1.
       -1   -1    0    0    0  501  0.00000000000E+00  0.00000000000E+00 -0.10940485841E+04  0.10940485841E+04  0.50400001928E-02 0. -1.
    10030    2    1    2    0    0  0.00000000000E+00  0.00000000000E+00  0.83522068531E+03  0.30233178535E+04  0.29056595206E+04 0.  0.
        3    1    3    3  502    0 -0.18302312155E+03 -0.14165384311E+04  0.69414607142E+03  0.15880545861E+04  0.10100000352E+00 0.  1.
       -3    1    3    3    0  502  0.18302312155E+03  0.14165384311E+04  0.14107461389E+03  0.14352632674E+04  0.10100000352E+00 0. -1.
</event>
<event>
 5   0  0.3636718E-06  0.2957459E+04  0.7818609E-02  0.8255984E-01
        1   -1    0    0  501    0  0.00000000000E+00  0.00000000000E+00  0.22320656340E+04  0.22320656341E+04  0.50400001928E-02 0.  1.
       -1   -1    0    0    0  501  0.00000000000E+00  0.00000000000E+00 -0.97964902855E+03  0.97964902856E+03  0.50400001928E-02 0. -1.
    10030    2    1    2    0    0  0.00000000000E+00  0.00000000000E+00  0.12524166055E+04  0.32117146626E+04  0.29574589972E+04 0.  0.
        4    1    3    3  502    0 -0.70126746886E+03 -0.12900902954E+04  0.81595911553E+03  0.16798511613E+04  0.12699999809E+01 0. -1.
       -4    1    3    3    0  502  0.70126746886E+03  0.12900902954E+04  0.43645748997E+03  0.15318635013E+04  0.12699999809E+01 0.  1.
</event>
<event>
 5   0  0.3592331E-06  0.2950477E+04  0.7818609E-02  0.8258016E-01
        1   -1    0    0  501    0  0.00000000000E+00  0.00000000000E+00  0.18047946469E+04  0.18047946469E+04  0.50400001928E-02 0.  1.
       -1   -1    0    0    0  501  0.00000000000E+00  0.00000000000E+00 -0.12058590300E+04  0.12058590300E+04  0.50400001928E-02 0. -1.
    10030    2    1    2    0    0  0.00000000000E+00  0.00000000000E+00  0.59893561692E+03  0.30106536769E+04  0.29504765190E+04 0.  0.
        3    1    3    3  502    0 -0.98808709677E+01 -0.13821348387E+04  0.82567310853E+03  0.16100094522E+04  0.10100000352E+00 0.  1.
       -3    1    3    3    0  502  0.98808709677E+01  0.13821348387E+04 -0.22673749161E+03  0.14006442247E+04  0.10100000352E+00 0. -1.
</event>
<event>
 5   0  0.1057036E-05  0.2963885E+04  0.7818609E-02  0.8254120E-01
       -2   -1    0    0    0  501  0.00000000000E+00  0.00000000000E+00  0.11623616429E+04  0.11623616429E+04  0.25500000920E-02 0. -1.
        2   -1    0    0  501    0  0.00000000000E+00  0.00000000000E+00 -0.18893891921E+04  0.18893891921E+04  0.25500000920E-02 0.  1.
    10030    2    1    2    0    0  0.00000000000E+00  0.00000000000E+00 -0.72702754915E+03  0.30517508350E+04  0.29638849677E+04 0.  0.
        4    1    3    3  502    0 -0.47896840425E+03  0.94486212248E+03 -0.14305647515E+04  0.17800821003E+04  0.12699999809E+01 0.  1.
       -4    1    3    3    0  502  0.47896840425E+03 -0.94486212248E+03  0.70353720235E+03  0.12716687347E+04  0.12699999809E+01 0. -1.
</event>
<event>
 5   0  0.3313750E-06  0.2936087E+04  0.7818609E-02  0.8262221E-01
        4   -1    0    0  501    0  0.00000000000E+00  0.00000000000E+00  0.18814545519E+04  0.18814549805E+04  0.12699999809E+01 0.  1.
       -4   -1    0    0    0  501  0.00000000000E+00  0.00000000000E+00 -0.11454698737E+04  0.11454705778E+04  0.12699999809E+01 0. -1.
    10030    2    1    2    0    0  0.00000000000E+00  0.00000000000E+00  0.73598467816E+03  0.30269255583E+04  0.29360866624E+04 0.  0.
        3    1    3    3  502    0 -0.23133706845E+03 -0.14456456161E+04  0.47971074279E+03  0.15406266561E+04  0.10100000352E+00 0.  1.
       -3    1    3    3    0  502  0.23133706845E+03  0.14456456161E+04  0.25627393537E+03  0.14862989022E+04  0.10100000352E+00 0. -1.
</event>
<event>
 5   0  0.9647945E-06  0.2970566E+04  0.7818609E-02  0.8252186E-01
        2   -1    0    0  501    0  0.00000000000E+00  0.00000000000E+00  0.17491194223E+04  0.17491194223E+04  0.25500000920E-02 0. -1.
       -2   -1    0    0    0  501  0.00000000000E+00  0.00000000000E+00 -0.12612434929E+04  0.12612434929E+04  0.25500000920E-02 0.  1.
    10030    2    1    2    0    0  0.00000000000E+00  0.00000000000E+00  0.48787592939E+03  0.30103629152E+04  0.29705659324E+04 0.  0.
        2    1    3    3  502    0  0.97606892972E+03  0.49633588857E+03 -0.77300268207E+03  0.13403704773E+04  0.25500000920E-02 0.  1.
       -2    1    3    3    0  502 -0.97606892972E+03 -0.49633588857E+03  0.12608786115E+04  0.16699924379E+04  0.25500000920E-02 0. -1.
</event>
<event>
 5   0  0.1028450E-05  0.2999866E+04  0.7818609E-02  0.8243769E-01
        2   -1    0    0  501    0  0.00000000000E+00  0.00000000000E+00  0.25129460844E+04  0.25129460844E+04  0.25500000920E-02 0. -1.
       -2   -1    0    0    0  501  0.00000000000E+00  0.00000000000E+00 -0.89528371573E+03  0.89528371573E+03  0.25500000920E-02 0.  1.
    10030    2    1    2    0    0  0.00000000000E+00  0.00000000000E+00  0.16176623687E+04  0.34082298002E+04  0.29998664690E+04 0.  0.
        3    1    3    3  502    0 -0.31946813455E+03  0.13137573115E+04  0.70976689307E+02  0.13539039342E+04  0.10100000352E+00 0.  1.
       -3    1    3    3    0  502  0.31946813455E+03 -0.13137573115E+04  0.15466856794E+04  0.20543258659E+04  0.10100000352E+00 0. -1.
</event>
<event>
 5   0  0.9647945E-06  0.3056277E+04  0.7818609E-02  0.8227841E-01
       -2   -1    0    0    0  501  0.00000000000E+00  0.00000000000E+00  0.15472281096E+04  0.15472281096E+04  0.25500000920E-02 0.  1.
        2   -1    0    0  501    0  0.00000000000E+00  0.00000000000E+00 -0.15092842143E+04  0.15092842143E+04  0.25500000920E-02 0. -1.
    10030    2    1    2    0    0  0.00000000000E+00  0.00000000000E+00  0.37943895337E+02  0.30565123239E+04  0.30562767949E+04 0.  0.
        2    1    3    3  502    0 -0.53248063801E+03 -0.60668281274E+03 -0.12786669843E+04  0.15121471231E+04  0.25500000920E-02 0. -1.
       -2    1    3    3    0  502  0.53248063801E+03  0.60668281274E+03  0.13166108797E+04  0.15443652008E+04  0.25500000920E-02 0.  1.
</event>
<event>
 5   0  0.1028450E-05  0.3011475E+04  0.7818609E-02  0.8240462E-01
       -2   -1    0    0    0  501  0.00000000000E+00  0.00000000000E+00  0.16795875178E+04  0.16795875178E+04  0.25500000920E-02 0.  1.
        2   -1    0    0  501    0  0.00000000000E+00  0.00000000000E+00 -0.13498823444E+04  0.13498823444E+04  0.25500000920E-02 0. -1.
    10030    2    1    2    0    0  0.00000000000E+00  0.00000000000E+00  0.32970517347E+03  0.30294698622E+04  0.30114750779E+04 0.  0.
        3    1    3    3  502    0  0.12713467607E+04 -0.73937395001E+03  0.48965819895E+03  0.15500843802E+04  0.10100000352E+00 0.  1.
       -3    1    3    3    0  502 -0.12713467607E+04  0.73937395001E+03 -0.15995302547E+03  0.14793854820E+04  0.10100000352E+00 0. -1.
</event>
<event>
 5   0  0.1028450E-05  0.2801885E+04  0.7818609E-02  0.8302683E-01
       -2   -1    0    0    0  501  0.00000000000E+00  0.00000000000E+00  0.10061423663E+04  0.10061423663E+04  0.25500000920E-02 0.  1.
        2   -1    0    0  501    0  0.00000000000E+00  0.00000000000E+00 -0.19506587178E+04  0.19506587178E+04  0.25500000920E-02 0. -1.
    10030    2    1    2    0    0  0.00000000000E+00  0.00000000000E+00 -0.94451635152E+03  0.29568010841E+04  0.28018853496E+04 0.  0.
        3    1    3    3  502    0 -0.10938024131E+04 -0.49760256752E+02 -0.13945117861E+04  0.17730039294E+04  0.10100000352E+00 0. -1.
       -3    1    3    3    0  502  0.10938024131E+04  0.49760256752E+02  0.44999543458E+03  0.11837971546E+04  0.10100000352E+00 0.  1.
</event>
<event>
 5   0  0.9647945E-06  0.2748989E+04  0.7818609E-02  0.8319283E-01
        2   -1    0    0  501    0  0.00000000000E+00  0.00000000000E+00  0.22162596685E+04  0.22162596685E+04  0.25500000920E-02 0. -1.
       -2   -1    0    0    0  501  0.00000000000E+00  0.00000000000E+00 -0.85244279516E+03  0.85244279516E+03  0.25500000920E-02 0.  1.
    10030    2    1    2    0    0  0.00000000000E+00  0.00000000000E+00  0.13638168733E+04  0.30687024637E+04  0.27489886043E+04 0.  0.
        2    1    3    3  502    0 -0.75697018023E+03 -0.11263624756E+04  0.43851789599E+03  0.14261816943E+04  0.25500000920E-02 0.  1.
       -2    1    3    3    0  502  0.75697018023E+03  0.11263624756E+04  0.92529897734E+03  0.16425207693E+04  0.25500000920E-02 0. -1.
</event>
<event>
 5   0  0.3896630E-06  0.2995460E+04  0.7818609E-02  0.8245028E-01
        1   -1    0    0  501    0  0.00000000000E+00  0.00000000000E+00  0.19616265940E+04  0.19616265940E+04  0.50400001928E-02 0.  1.
       -1   -1    0    0    0  501  0.00000000000E+00  0.00000000000E+00 -0.11435383987E+04  0.11435383987E+04  0.50400001928E-02 0. -1.
    10030    2    1    2    0    0  0.00000000000E+00  0.00000000000E+00  0.81808819528E+03  0.31051649927E+04  0.29954601211E+04 0.  0.
        5    1    3    3  502    0 -0.76059508227E+03  0.12580554200E+03 -0.92205556007E+03  0.12018903691E+04  0.46999998093E+01 0. -1.
       -5    1    3    3    0  502  0.76059508227E+03 -0.12580554200E+03  0.17401437553E+04  0.19032746236E+04  0.46999998093E+01 0.  1.
</event>
<event>
 5   0  0.3636718E-06  0.2528767E+04  0.7818609E-02  0.8392808E-01
       -1   -1    0    0    0  501  0.00000000000E+00  0.00000000000E+00  0.91552461165E+03  0.91552461166E+03  0.50400001928E-02 0. -1.
        1   -1    0    0  501    0  0.00000000000E+00  0.00000000000E+00 -0.17461749317E+04  0.17461749317E+04  0.50400001928E-02 0.  1.
    10030    2    1    2    0    0  0.00000000000E+00  0.00000000000E+00 -0.83065032003E+03  0.26616995433E+04  0.25287673885E+04 0.  0.
        4    1    3    3  502    0 -0.10813439128E+04 -0.63916791480E+03 -0.26343324880E+03  0.12834480787E+04  0.12699999809E+01 0. -1.
       -4    1    3    3    0  502  0.10813439128E+04  0.63916791480E+03 -0.56721707122E+03  0.13782514647E+04  0.12699999809E+01 0.  1.
</event>
<event>
 5   0  0.3725232E-06  0.2997677E+04  0.7818609E-02  0.8244395E-01
        1   -1    0    0  501    0  0.00000000000E+00  0.00000000000E+00  0.20469125485E+04  0.20469125485E+04  0.50400001928E-02 0. -1.
       -1   -1    0    0    0  501  0.00000000000E+00  0.00000000000E+00 -0.10975146783E+04  0.10975146783E+04  0.50400001928E-02 0.  1.
    10030    2    1    2    0    0  0.00000000000E+00  0.00000000000E+00  0.94939787014E+03  0.31444272268E+04  0.29976768119E+04 0.  0.
        2    1    3    3  502    0 -0.14266957466E+04  0.16993486573E+03  0.92241703404E+03  0.17073932754E+04  0.25500000920E-02 0. -1.
       -2    1    3    3    0  502  0.14266957466E+04 -0.16993486573E+03  0.26980836092E+02  0.14370339514E+04  0.25500000920E-02 0.  1.
</event>
<event>
 5   0  0.3592331E-06  0.2195493E+04  0.7818609E-02  0.8520306E-01
        1   -1    0    0  501    0  0.00000000000E+00  0.00000000000E+00  0.18183649896E+04  0.18183649896E+04  0.50400001928E-02 0. -1.
       -1   -1    0    0    0  501  0.00000000000E+00  0.00000000000E+00 -0.66270941124E+03  0.66270941126E+03  0.50400001928E-02 0.  1.
    10030    2    1    2    0    0  0.00000000000E+00  0.00000000000E+00  0.11556555783E+04  0.24810744008E+04  0.21954931944E+04 0.  0.
        3    1    3    3  502    0  0.18394445396E+03 -0.30379994229E+03 -0.59599310113E+03  0.69378509199E+03  0.10100000352E+00 0.  1.
       -3    1    3    3    0  502 -0.18394445396E+03  0.30379994229E+03  0.17516486795E+04  0.17872893089E+04  0.10100000352E+00 0. -1.
</event>
<event>
 5   0  0.1029922E-05  0.2916494E+04  0.7818609E-02  0.8267987E-01
       -2   -1    0    0    0  501  0.00000000000E+00  0.00000000000E+00  0.14806646995E+04  0.14806646995E+04  0.25500000920E-02 0.  1.
        2   -1    0    0  501    0  0.00000000000E+00  0.00000000000E+00 -0.14361683368E+04  0.14361683368E+04  0.25500000920E-02 0. -1.
    10030    2    1    2    0    0  0.00000000000E+00  0.00000000000E+00  0.44496362725E+02  0.29168330363E+04  0.29164936200E+04 0.  0.
        1    1    3    3  502    0 -0.45588701877E+03 -0.11929674268E+04 -0.68173678747E+03  0.14476772094E+04  0.50400001928E-02 0. -1.
       -1    1    3    3    0  502  0.45588701877E+03  0.11929674268E+04  0.72623315019E+03  0.14691558269E+04  0.50400001928E-02 0.  1.
</event>
<event>
 5   0  0.3592331E-06  0.3042395E+04  0.7818609E-02  0.8231727E-01
       -1   -1    0    0    0  501  0.00000000000E+00  0.00000000000E+00  0.10481561058E+04  0.10481561058E+04  0.50400001928E-02 0.  1.
        1   -1    0    0  501    0  0.00000000000E+00  0.00000000000E+00 -0.22077259836E+04  0.22077259836E+04  0.50400001928E-02 0. -1.
    10030    2    1    2    0    0  0.00000000000E+00  0.00000000000E+00 -0.11595698778E+04  0.32558820893E+04  0.30423947604E+04 0.  0.
        3    1    3    3  502    0  0.12097541433E+04  0.87377006785E+03 -0.89555287176E+03  0.17404005789E+04  0.10100000352E+00 0. -1.
       -3    1    3    3    0  502 -0.12097541433E+04 -0.87377006785E+03 -0.26401700604E+03  0.15154815104E+04  0.10100000352E+00 0.  1.
</event>
<event>
 5   0  0.1028450E-05  0.3013846E+04  0.7818609E-02  0.8239788E-01
       -2   -1    0    0    0  501  0.00000000000E+00  0.00000000000E+00  0.10136081194E+04  0.10136081194E+04  0.25500000920E-02 0. -1.
        2   -1    0    0  501    0  0.00000000000E+00  0.00000000000E+00 -0.22403297546E+04  0.22403297546E+04  0.25500000920E-02 0.  1.
    10030    2    1    2    0    0  0.00000000000E+00  0.00000000000E+00 -0.12267216351E+04  0.32539378740E+04  0.30138456692E+04 0.  0.
        3    1    3    3  502    0  0.15028226793E+04 -0.82975245986E+02 -0.69310636068E+03  0.16570326895E+04  0.10100000352E+00 0. -1.
       -3    1    3    3    0  502 -0.15028226793E+04  0.82975245986E+02 -0.53361527446E+03  0.15969051844E+04  0.10100000352E+00 0.  1.
</event>
<event>
 5   0  0.3852126E-06  0.2992534E+04  0.7818609E-02  0.8245866E-01
        1   -1    0    0  501    0  0.00000000000E+00  0.00000000000E+00  0.22291222802E+04  0.22291222802E+04  0.50400001928E-02 0.  1.
       -1   -1    0    0    0  501  0.00000000000E+00  0.00000000000E+00 -0.10043484442E+04  0.10043484442E+04  0.50400001928E-02 0. -1.
    10030    2    1    2    0    0  0.00000000000E+00  0.00000000000E+00  0.12247738360E+04  0.32334707245E+04  0.29925343735E+04 0.  0.
        1    1    3    3  502    0 -0.37896117461E+02  0.43593992836E+03  0.21584397173E+04  0.22023491435E+04  0.50400001928E-02 0.  1.
       -1    1    3    3    0  502  0.37896117461E+02 -0.43593992836E+03 -0.93366588123E+03  0.10311215809E+04  0.50400001928E-02 0. -1.
</event>
<event>
 5   0  0.1057036E-05  0.2929188E+04  0.7818609E-02  0.8264246E-01
       -2   -1    0    0    0  501  0.00000000000E+00  0.00000000000E+00  0.12462252504E+04  0.12462252504E+04  0.25500000920E-02 0. -1.
        2   -1    0    0  501    0  0.00000000000E+00  0.00000000000E+00 -0.17212261158E+04  0.17212261158E+04  0.25500000920E-02 0.  1.
    10030    2    1    2    0    0  0.00000000000E+00  0.00000000000E+00 -0.47500086547E+03  0.29674513662E+04  0.29291879060E+04 0.  0.
        4    1    3    3  502    0 -0.11096582804E+04 -0.51394420618E+03  0.57897647107E+03  0.13530319705E+04  0.12699999809E+01 0. -1.
       -4    1    3    3    0  502  0.11096582804E+04  0.51394420618E+03 -0.10539773365E+04  0.16144193957E+04  0.12699999809E+01 0.  1.
</event>
<event>
 5   0  0.1057036E-05  0.3101013E+04  0.7818609E-02  0.8215460E-01
       -2   -1    0    0    0  501  0.00000000000E+00  0.00000000000E+00  0.10330177238E+04  0.10330177238E+04  0.25500000920E-02 0. -1.
        2   -1    0    0  501    0  0.00000000000E+00  0.00000000000E+00 -0.23272301311E+04  0.23272301311E+04  0.25500000920E-02 0.  1.
    10030    2    1    2    0    0  0.00000000000E+00  0.00000000000E+00 -0.12942124073E+04  0.33602478549E+04  0.31010127202E+04 0.  0.
        4    1    3    3  502    0 -0.10025854759E+04  0.16725497061E+03 -0.19158480560E+04  0.21687847399E+04  0.12699999809E+01 0.  1.
       -4    1    3    3    0  502  0.10025854759E+04 -0.16725497061E+03  0.62163564871E+03  0.11914631149E+04  0.12699999809E+01 0. -1.
</event>
<event>
 5   0  0.3896630E-06  0.2995361E+04  0.7818609E-02  0.8245057E-01
       -1   -1    0    0    0  501  0.00000000000E+00  0.00000000000E+00  0.16164408600E+04  0.16164408600E+04  0.50400001928E-02 0. -1.
        1   -1    0    0  501    0  0.00000000000E+00  0.00000000000E+00 -0.13876458450E+04  0.13876458450E+04  0.50400001928E-02 0.  1.
    10030    2    1    2    0    0  0.00000000000E+00  0.00000000000E+00  0.22879501498E+03  0.30040867050E+04  0.29953613759E+04 0.  0.
        5    1    3    3  502    0 -0.14776572347E+04  0.24337282564E+02 -0.12913104115E+03  0.14834959125E+04  0.46999998093E+01 0.  1.
       -5    1    3    3    0  502  0.14776572347E+04 -0.24337282564E+02  0.35792605613E+03  0.15205907925E+04  0.46999998093E+01 0. -1.
</event>
<event>
 5   0  0.3592331E-06  0.3014850E+04  0.7818609E-02  0.8239503E-01
       -1   -1    0    0    0  501  0.00000000000E+00  0.00000000000E+00  0.12930117599E+04  0.12930117599E+04  0.50400001928E-02 0. -1.
        1   -1    0    0  501    0  0.00000000000E+00  0.00000000000E+00 -0.17573933369E+04  0.17573933369E+04  0.50400001928E-02 0.  1.
    10030    2    1    2    0    0  0.00000000000E+00  0.00000000000E+00 -0.46438157705E+03  0.30504050968E+04  0.30148500801E+04 0.  0.
        3    1    3    3  502    0 -0.27181874307E+03 -0.39830356266E+03  0.12128679259E+04  0.13052125394E+04  0.10100000352E+00 0. -1.
       -3    1    3    3    0  502  0.27181874307E+03  0.39830356266E+03 -0.16772495030E+04  0.17451925574E+04  0.10100000352E+00 0.  1.
</event>
<event>
 5   0  0.3725232E-06  0.3001460E+04  0.7818609E-02  0.8243314E-01
       -1   -1    0    0    0  501  0.00000000000E+00  0.00000000000E+00  0.15421195956E+04  0.15421195956E+04  0.50400001928E-02 0. -1.
        1   -1    0    0  501    0  0.00000000000E+00  0.00000000000E+00 -0.14604511317E+04  0.14604511317E+04  0.50400001928E-02 0.  1.
    10030    2    1    2    0    0  0.00000000000E+00  0.00000000000E+00  0.81668463922E+02  0.30025707274E+04  0.30014598506E+04 0.  0.
        2    1    3    3  502    0 -0.60509457796E+03 -0.87305901394E+03  0.11013298003E+04  0.15301303275E+04  0.25500000920E-02 0. -1.
       -2    1    3    3    0  502  0.60509457796E+03  0.87305901394E+03 -0.10196613364E+04  0.14724403998E+04  0.25500000920E-02 0.  1.
</event>
<event>
 5   0  0.1057036E-05  0.3017892E+04  0.7818609E-02  0.8238640E-01
        2   -1    0    0  501    0  0.00000000000E+00  0.00000000000E+00  0.13875518334E+04  0.13875518334E+04  0.25500000920E-02 0. -1.
       -2   -1    0    0    0  501  0.00000000000E+00  0.00000000000E+00 -0.16409607786E+04  0.16409607786E+04  0.25500000920E-02 0.  1.
    10030    2    1    2    0    0  0.00000000000E+00  0.00000000000E+00 -0.25340894518E+03  0.30285126120E+04  0.30178920702E+04 0.  0.
        4    1    3    3  502    0  0.12930379032E+04 -0.37586442109E+02  0.65291870789E+03  0.14490218120E+04  0.12699999809E+01 0. -1.
       -4    1    3    3    0  502 -0.12930379032E+04  0.37586442109E+02 -0.90632765306E+03  0.15794908000E+04  0.12699999809E+01 0.  1.
</event>
<event>
 5   0  0.3592331E-06  0.2991275E+04  0.7818609E-02  0.8246227E-01
       -1   -1    0    0    0  501  0.00000000000E+00  0.00000000000E+00  0.13970259385E+04  0.13970259385E+04  0.50400001928E-02 0. -1.
        1   -1    0    0  501    0  0.00000000000E+00  0.00000000000E+00 -0.16012101217E+04  0.16012101217E+04  0.50400001928E-02 0.  1.
    10030    2    1    2    0    0  0.00000000000E+00  0.00000000000E+00 -0.20418418323E+03  0.29982360602E+04  0.29912753621E+04 0.  0.
        3    1    3    3  502    0  0.39260608173E+03 -0.50513437424E+03 -0.14571372889E+04  0.15913985548E+04  0.10100000352E+00 0.  1.
       -3    1    3    3    0  502 -0.39260608173E+03  0.50513437424E+03  0.12529531056E+04  0.14068375054E+04  0.10100000352E+00 0. -1.
</event>
<event>
 5   0  0.9647945E-06  0.3005802E+04  0.7818609E-02  0.8242076E-01
       -2   -1    0    0    0  501  0.00000000000E+00  0.00000000000E+00  0.16512403431E+04  0.16512403431E+04  0.25500000920E-02 0. -1.
        2   -1    0    0  501    0  0.00000000000E+00  0.00000000000E+00 -0.13678878100E+04  0.13678878100E+04  0.25500000920E-02 0.  1.
    10030    2    1    2    0    0  0.00000000000E+00  0.00000000000E+00  0.28335253314E+03  0.30191281531E+04  0.30058020804E+04 0.  0.
        2    1    3    3  502    0  0.66691924030E+02  0.15395270300E+03  0.16418043624E+04  0.16503547533E+04  0.25500000920E-02 0. -1.
       -2    1    3    3    0  502 -0.66691924030E+02 -0.15395270300E+03 -0.13584518292E+04  0.13687733998E+04  0.25500000920E-02 0.  1.
</event>
<event>
 5   0  0.1057036E-05  0.3016485E+04  0.7818609E-02  0.8239039E-01
        2   -1    0    0  501    0  0.00000000000E+00  0.00000000000E+00  0.22691135534E+04  0.22691135534E+04  0.25500000920E-02 0. -1.
       -2   -1    0    0    0  501  0.00000000000E+00  0.00000000000E+00 -0.10025038792E+04  0.10025038792E+04  0.25500000920E-02 0.  1.
    10030    2    1    2    0    0  0.00000000000E+00  0.00000000000E+00  0.12666096742E+04  0.32716174326E+04  0.30164848016E+04 0.  0.
        4    1    3    3  502    0 -0.11585672156E+04  0.45969066493E+03  0.15543676302E+04  0.19923990171E+04  0.12699999809E+01 0. -1.
       -4    1    3    3    0  502  0.11585672156E+04 -0.45969066493E+03 -0.28775795605E+03  0.12792184155E+04  0.12699999809E+01 0.  1.
</event>
<event>
 5   0  0.3896630E-06  0.2981203E+04  0.7818609E-02  0.8249119E-01
        1   -1    0    0  501    0  0.00000000000E+00  0.00000000000E+00  0.13017482689E+04  0.13017482689E+04  0.50400001928E-02 0. -1.
       -1   -1    0    0    0  501  0.00000000000E+00  0.00000000000E+00 -0.17068526358E+04  0.17068526358E+04  0.50400001928E-02 0.  1.
    10030    2    1    2    0    0  0.00000000000E+00  0.00000000000E+00 -0.40510436689E+03  0.30086009046E+04  0.29812027531E+04 0.  0.
        5    1    3    3  502    0  0.82284021828E+02  0.12670405476E+03  0.12939942802E+04  0.13027923338E+04  0.46999998093E+01 0. -1.
       -5    1    3    3    0  502 -0.82284021828E+02 -0.12670405476E+03 -0.16990986471E+04  0.17058085708E+04  0.46999998093E+01 0.  1.
</event>
<event>
 5   0  0.3725232E-06  0.3060922E+04  0.7818609E-02  0.8226545E-01
       -1   -1    0    0    0  501  0.00000000000E+00  0.00000000000E+00  0.18592736563E+04  0.18592736563E+04  0.50400001928E-02 0. -1.
        1   -1    0    0  501    0  0.00000000000E+00  0.00000000000E+00 -0.12597988866E+04  0.12597988866E+04  0.50400001928E-02 0.  1.
    10030    2    1    2    0    0  0.00000000000E+00  0.00000000000E+00  0.59947476968E+03  0.31190725429E+04  0.30609220063E+04 0.  0.
        2    1    3    3  502    0  0.68082330174E+03 -0.11226342281E+04 -0.50163996166E+03  0.14055143647E+04  0.25500000920E-02 0.  1.
       -2    1    3    3    0  502 -0.68082330174E+03  0.11226342281E+04  0.11011147313E+04  0.17135581782E+04  0.25500000920E-02 0. -1.
</event>
<event>
 5   0  0.9647945E-06  0.2970473E+04  0.7818609E-02  0.8252213E-01
       -2   -1    0    0    0  501  0.00000000000E+00  0.00000000000E+00  0.13134830755E+04  0.13134830755E+04  0.25500000920E-02 0. -1.
        2   -1    0    0  501    0  0.00000000000E+00  0.00000000000E+00 -0.16794488703E+04  0.16794488703E+04  0.25500000920E-02 0.  1.
    10030    2    1    2    0    0  0.00000000000E+00  0.00000000000E+00 -0.36596579485E+03  0.29929319458E+04  0.29704731389E+04 0.  0.
        2    1    3    3  502    0  0.37905430045E+03 -0.65337348809E+03  0.11054932484E+04  0.13389153819E+04  0.25500000920E-02 0. -1.
       -2    1    3    3    0  502 -0.37905430045E+03  0.65337348809E+03 -0.14714590432E+04  0.16540165639E+04  0.25500000920E-02 0.  1.
</event>
<event>
 5   0  0.1028450E-05  0.2896416E+04  0.7818609E-02  0.8273945E-01
        2   -1    0    0  501    0  0.00000000000E+00  0.00000000000E+00  0.75856981643E+03  0.75856981643E+03  0.25500000920E-02 0. -1.
       -2   -1    0    0    0  501  0.00000000000E+00  0.00000000000E+00 -0.27648164530E+04  0.27648164530E+04  0.25500000920E-02 0.  1.
    10030    2    1    2    0    0  0.00000000000E+00  0.00000000000E+00 -0.20062466365E+04  0.35233862694E+04  0.28964159295E+04 0.  0.
        3    1    3    3  502    0  0.25442180244E+03 -0.36108425130E+03 -0.26808713384E+04  0.27170173782E+04  0.10100000352E+00 0.  1.
       -3    1    3    3    0  502 -0.25442180244E+03  0.36108425130E+03  0.67462470188E+03  0.80636889119E+03  0.10100000352E+00 0. -1.
</event>
<event>
 5   0  0.1089569E-05  0.2977538E+04  0.7818609E-02  0.8250174E-01
       -2   -1    0    0    0  501  0.00000000000E+00  0.00000000000E+00  0.10951277087E+04  0.10951277087E+04  0.25500000920E-02 0.  1.
        2   -1    0    0  501    0  0.00000000000E+00  0.00000000000E+00 -0.20239037867E+04  0.20239037867E+04  0.25500000920E-02 0. -1.
    10030    2    1    2    0    0  0.00000000000E+00  0.00000000000E+00 -0.92877607797E+03  0.31190314954E+04  0.29775379874E+04 0.  0.
        5    1    3    3  502    0  0.27585076510E+03 -0.91458156636E+03  0.73173976973E+03  0.12033363066E+04  0.46999998093E+01 0.  1.
       -5    1    3    3    0  502 -0.27585076510E+03  0.91458156636E+03 -0.16605158477E+04  0.19156951889E+04  0.46999998093E+01 0. -1.
</event>
<event>
 5   0  0.3725232E-06  0.2991598E+04  0.7818609E-02  0.8246134E-01
        1   -1    0    0  501    0  0.00000000000E+00  0.00000000000E+00  0.19779783025E+04  0.19779783026E+04  0.50400001928E-02 0. -1.
       -1   -1    0    0    0  501  0.00000000000E+00  0.00000000000E+00 -0.11311627084E+04  0.11311627084E+04  0.50400001928E-02 0.  1.
    10030    2    1    2    0    0  0.00000000000E+00  0.00000000000E+00  0.84681559419E+03  0.31091410109E+04  0.29915984315E+04 0.  0.
        2    1    3    3  502    0  0.12022551937E+04  0.81443013756E+03  0.79625301679E+03  0.16561198225E+04  0.25500000920E-02 0. -1.
       -2    1    3    3    0  502 -0.12022551937E+04 -0.81443013756E+03  0.50562577395E+02  0.14530211884E+04  0.25500000920E-02 0.  1.
</event>
<event>
 5   0  0.9647945E-06  0.2665834E+04  0.7818609E-02  0.8346177E-01
       -2   -1    0    0    0  501  0.00000000000E+00  0.00000000000E+00  0.12926366704E+04  0.12926366704E+04  0.25500000920E-02 0. -1.
        2   -1    0    0  501    0  0.00000000000E+00  0.00000000000E+00 -0.13744522474E+04  0.13744522474E+04  0.25500000920E-02 0.  1.
    10030    2    1    2    0    0  0.00000000000E+00  0.00000000000E+00 -0.81815577058E+02  0.26670889178E+04  0.26658337358E+04 0.  0.
        2    1    3    3  502    0 -0.76028469323E+03  0.10122919028E+04 -0.45811692321E+03  0.13463427597E+04  0.25500000920E-02 0.  1.
       -2    1    3    3    0  502  0.76028469323E+03 -0.10122919028E+04  0.37630134615E+03  0.13207461582E+04  0.25500000920E-02 0. -1.
</event>
<event>
 5   0  0.3725232E-06  0.2719504E+04  0.7818609E-02  0.8328704E-01
        1   -1    0    0  501    0  0.00000000000E+00  0.00000000000E+00  0.19435716615E+04  0.19435716615E+04  0.50400001928E-02 0.  1.
       -1   -1    0    0    0  501  0.00000000000E+00  0.00000000000E+00 -0.95130291302E+03  0.95130291303E+03  0.50400001928E-02 0. -1.
    10030    2    1    2    0    0  0.00000000000E+00  0.00000000000E+00  0.99226874848E+03  0.28948745745E+04  0.27195039131E+04 0.  0.
        2    1    3    3  502    0  0.10609732350E+04 -0.81928109680E+03  0.25330160158E+03  0.13642021193E+04  0.25500000920E-02 0. -1.
       -2    1    3    3    0  502 -0.10609732350E+04  0.81928109680E+03  0.73896714690E+03  0.15306724552E+04  0.25500000920E-02 0.  1.
</event>
<event>
 5   0  0.1089569E-05  0.2986432E+04  0.7818609E-02  0.8247616E-01
        2   -1    0    0  501    0  0.00000000000E+00  0.00000000000E+00  0.15210470754E+04  0.15210470754E+04  0.25500000920E-02 0. -1.
       -2   -1    0    0    0  501  0.00000000000E+00  0.00000000000E+00 -0.14658945370E+04  0.14658945370E+04  0.25500000920E-02 0.  1.
    10030    2    1    2    0    0  0.00000000000E+00  0.00000000000E+00  0.55152538410E+02  0.29869416124E+04  0.29864323855E+04 0.  0.
        5    1    3    3  502    0 -0.61898713510E+03  0.23971387543E+03  0.13653635707E+04  0.15181724492E+04  0.46999998093E+01 0. -1.
       -5    1    3    3    0  502  0.61898713510E+03 -0.23971387543E+03 -0.13102110323E+04  0.14687691631E+04  0.46999998093E+01 0.  1.
</event>
<event>
 5   0  0.3852126E-06  0.3058461E+04  0.7818609E-02  0.8227231E-01
        1   -1    0    0  501    0  0.00000000000E+00  0.00000000000E+00  0.15684907299E+04  0.15684907299E+04  0.50400001928E-02 0. -1.
       -1   -1    0    0    0  501  0.00000000000E+00  0.00000000000E+00 -0.14909533299E+04  0.14909533299E+04  0.50400001928E-02 0.  1.
    10030    2    1    2    0    0  0.00000000000E+00  0.00000000000E+00  0.77537399976E+02  0.30594440598E+04  0.30584613627E+04 0.  0.
        1    1    3    3  502    0 -0.91722036018E+03 -0.59488470752E+03  0.11083949558E+04  0.15568302356E+04  0.50400001928E-02 0. -1.
       -1    1    3    3    0  502  0.91722036018E+03  0.59488470752E+03 -0.10308575558E+04  0.15026138242E+04  0.50400001928E-02 0.  1.
</event>
<event>
 5   0  0.3636718E-06  0.2996651E+04  0.7818609E-02  0.8244688E-01
       -1   -1    0    0    0  501  0.00000000000E+00  0.00000000000E+00  0.97589636889E+03  0.97589636890E+03  0.50400001928E-02 0. -1.
        1   -1    0    0  501    0  0.00000000000E+00  0.00000000000E+00 -0.23004278160E+04  0.23004278160E+04  0.50400001928E-02 0.  1.
    10030    2    1    2    0    0  0.00000000000E+00  0.00000000000E+00 -0.13245314471E+04  0.32763241849E+04  0.29966508990E+04 0.  0.
        4    1    3    3  502    0  0.13670614037E+04  0.59461196288E+03 -0.82647360634E+03  0.17045470081E+04  0.12699999809E+01 0. -1.
       -4    1    3    3    0  502 -0.13670614037E+04 -0.59461196288E+03 -0.49805784076E+03  0.15717771768E+04  0.12699999809E+01 0.  1.
</event>
<event>
 5   0  0.3852126E-06  0.2938098E+04  0.7818609E-02  0.8261632E-01
        1   -1    0    0  501    0  0.00000000000E+00  0.00000000000E+00  0.16588432119E+04  0.16588432120E+04  0.50400001928E-02 0.  1.
       -1   -1    0    0    0  501  0.00000000000E+00  0.00000000000E+00 -0.13009699394E+04  0.13009699395E+04  0.50400001928E-02 0. -1.
    10030    2    1    2    0    0  0.00000000000E+00  0.00000000000E+00  0.35787327250E+03  0.29598131514E+04  0.29380981284E+04 0.  0.
        1    1    3    3  502    0 -0.18376983942E+03 -0.14555179729E+04  0.25566537014E+03  0.14891839056E+04  0.50400001928E-02 0.  1.
       -1    1    3    3    0  502  0.18376983942E+03  0.14555179729E+04  0.10220790236E+03  0.14706292458E+04  0.50400001928E-02 0. -1.
</event>
<event>
 5   0  0.1089569E-05  0.2603612E+04  0.7818609E-02  0.8366975E-01
       -2   -1    0    0    0  501  0.00000000000E+00  0.00000000000E+00  0.30160979261E+04  0.30160979261E+04  0.25500000920E-02 0. -1.
        2   -1    0    0  501    0  0.00000000000E+00  0.00000000000E+00 -0.56188467817E+03  0.56188467818E+03  0.25500000920E-02 0.  1.
    10030    2    1    2    0    0  0.00000000000E+00  0.00000000000E+00  0.24542132479E+04  0.35779826042E+04  0.26036122695E+04 0.  0.
        5    1    3    3  502    0 -0.22307093969E+03  0.12814698106E+04  0.12991932663E+04  0.18384370407E+04  0.46999998093E+01 0. -1.
       -5    1    3    3    0  502  0.22307093969E+03 -0.12814698106E+04  0.11550199816E+04  0.17395455635E+04  0.46999998093E+01 0.  1.
</event>
<event>
 5   0  0.3896630E-06  0.2771255E+04  0.7818609E-02  0.8312248E-01
       -1   -1    0    0    0  501  0.00000000000E+00  0.00000000000E+00  0.89394982561E+03  0.89394982562E+03  0.50400001928E-02 0.  1.
        1   -1    0    0  501    0  0.00000000000E+00  0.00000000000E+00 -0.21477312683E+04  0.21477312683E+04  0.50400001928E-02 0. -1.
    10030    2    1    2    0    0  0.00000000000E+00  0.00000000000E+00 -0.12537814427E+04  0.30416810939E+04  0.27712553060E+04 0.  0.
        5    1    3    3  502    0 -0.78647634619E+03  0.10886949119E+04 -0.25284170570E+03  0.13666574817E+04  0.46999998093E+01 0.  1.
       -5    1    3    3    0  502  0.78647634619E+03 -0.10886949119E+04 -0.10009397370E+04  0.16750236122E+04  0.46999998093E+01 0. -1.
</event>
<event>
 5   0  0.3592331E-06  0.3043054E+04  0.7818609E-02  0.8231542E-01
        1   -1    0    0  501    0  0.00000000000E+00  0.00000000000E+00  0.14742509484E+04  0.14742509485E+04  0.50400001928E-02 0.  1.
       -1   -1    0    0    0  501  0.00000000000E+00  0.00000000000E+00 -0.15703187300E+04  0.15703187300E+04  0.50400001928E-02 0. -1.
    10030    2    1    2    0    0  0.00000000000E+00  0.00000000000E+00 -0.96067781520E+02  0.30445696784E+04  0.30430536486E+04 0.  0.
        3    1    3    3  502    0  0.12659899651E+03 -0.17950301113E+03  0.14583041849E+04  0.14747541296E+04  0.10100000352E+00 0.  1.
       -3    1    3    3    0  502 -0.12659899651E+03  0.17950301113E+03 -0.15543719665E+04  0.15698155488E+04  0.10100000352E+00 0. -1.
</event>
<event>
 5   0  0.1029922E-05  0.2933080E+04  0.7818609E-02  0.8263103E-01
       -2   -1    0    0    0  501  0.00000000000E+00  0.00000000000E+00  0.10778189134E+04  0.10778189134E+04  0.25500000920E-02 0.  1.
        2   -1    0    0  501    0  0.00000000000E+00  0.00000000000E+00 -0.19954552497E+04  0.19954552497E+04  0.25500000920E-02 0. -1.
    10030    2    1    2    0    0  0.00000000000E+00  0.00000000000E+00 -0.91763633626E+03  0.30732741631E+04  0.29330798892E+04 0.  0.
        1    1    3    3  502    0  0.11953222562E+03  0.13724516134E+04 -0.98567184913E+03  0.16939481628E+04  0.50400001928E-02 0. -1.
       -1    1    3    3    0  502 -0.11953222562E+03 -0.13724516134E+04  0.68035512872E+02  0.13793260003E+04  0.50400001928E-02 0.  1.
</event>
<event>
 5   0  0.3592331E-06  0.2717888E+04  0.7818609E-02  0.8329224E-01
       -1   -1    0    0    0  501  0.00000000000E+00  0.00000000000E+00  0.10020809450E+04  0.10020809450E+04  0.50400001928E-02 0.  1.
        1   -1    0    0  501    0  0.00000000000E+00  0.00000000000E+00 -0.18428938165E+04  0.18428938165E+04  0.50400001928E-02 0. -1.
    10030    2    1    2    0    0  0.00000000000E+00  0.00000000000E+00 -0.84081287151E+03  0.28449747614E+04  0.27178879867E+04 0.  0.
        3    1    3    3  502    0 -0.13051468458E+04  0.53988046262E+02 -0.81263510985E+03  0.15384078881E+04  0.10100000352E+00 0. -1.
       -3    1    3    3    0  502  0.13051468458E+04 -0.53988046262E+02 -0.28177761654E+02  0.13065668734E+04  0.10100000352E+00 0.  1.
</event>
<event>
 5   0  0.1028450E-05  0.2967732E+04  0.7818609E-02  0.8253006E-01
       -2   -1    0    0    0  501  0.00000000000E+00  0.00000000000E+00  0.11088067208E+04  0.11088067208E+04  0.25500000920E-02 0. -1.
        2   -1    0    0  501    0  0.00000000000E+00  0.00000000000E+00 -0.19857905203E+04  0.19857905203E+04  0.25500000920E-02 0.  1.
    10030    2    1    2    0    0  0.00000000000E+00  0.00000000000E+00 -0.87698379954E+03  0.30945972411E+04  0.29677317096E+04 0.  0.
        3    1    3    3  502    0 -0.24434908959E+03 -0.12332325900E+04  0.38342185310E+03  0.13143749185E+04  0.10100000352E+00 0. -1.
       -3    1    3    3    0  502  0.24434908959E+03  0.12332325900E+04 -0.12604056526E+04  0.17802223227E+04  0.10100000352E+00 0.  1.
</event>
<event>
 5   0  0.3592331E-06  0.2263995E+04  0.7818609E-02  0.8492254E-01
        1   -1    0    0  501    0  0.00000000000E+00  0.00000000000E+00  0.12939481670E+04  0.12939481670E+04  0.50400001928E-02 0.  1.
       -1   -1    0    0    0  501  0.00000000000E+00  0.00000000000E+00 -0.99031688204E+03  0.99031688205E+03  0.50400001928E-02 0. -1.
    10030    2    1    2    0    0  0.00000000000E+00  0.00000000000E+00  0.30363128499E+03  0.22842650491E+04  0.22639953307E+04 0.  0.
        3    1    3    3  502    0 -0.97177665938E+03 -0.56063522610E+03 -0.38910617767E+00  0.11219010179E+04  0.10100000352E+00 0.  1.
       -3    1    3    3    0  502  0.97177665938E+03  0.56063522610E+03  0.30402039116E+03  0.11623640311E+04  0.10100000352E+00 0. -1.
</event>
<event>
 5   0  0.3852126E-06  0.2788315E+04  0.7818609E-02  0.8306905E-01
        1   -1    0    0  501    0  0.00000000000E+00  0.00000000000E+00  0.15978543605E+04  0.15978543605E+04  0.50400001928E-02 0. -1.
       -1   -1    0    0    0  501  0.00000000000E+00  0.00000000000E+00 -0.12164285816E+04  0.12164285816E+04  0.50400001928E-02 0.  1.
    10030    2    1    2    0    0  0.00000000000E+00  0.00000000000E+00  0.38142577890E+03  0.28142829421E+04  0.27883154150E+04 0.  0.
        1    1    3    3  502    0  0.48179264799E+03 -0.27509988543E+03  0.14816362696E+04  0.15821030744E+04  0.50400001928E-02 0. -1.
       -1    1    3    3    0  502 -0.48179264799E+03  0.27509988543E+03 -0.11002104907E+04  0.12321798677E+04  0.50400001928E-02 0.  1.
</event>
<event>
 5   0  0.1029922E-05  0.2951586E+04  0.7818609E-02  0.8257693E-01
        2   -1    0    0  501    0  0.00000000000E+00  0.00000000000E+00  0.16434376894E+04  0.16434376894E+04  0.25500000920E-02 0.  1.
       -2   -1    0    0    0  501  0.00000000000E+00  0.00000000000E+00 -0.13252492244E+04  0.13252492244E+04  0.25500000920E-02 0. -1.
    10030    2    1    2    0    0  0.00000000000E+00  0.00000000000E+00  0.31818846500E+03  0.29686869138E+04  0.29515856913E+04 0.  0.
        1    1    3    3  502    0  0.13176150381E+03  0.86746554375E+03 -0.10344178620E+04  0.13564209806E+04  0.50400001928E-02 0. -1.
       -1    1    3    3    0  502 -0.13176150381E+03 -0.86746554375E+03  0.13526063270E+04  0.16122659332E+04  0.50400001928E-02 0.  1.
</event>
<event>
 5   0  0.3592331E-06  0.2813011E+04  0.7818609E-02  0.8299240E-01
        1   -1    0    0  501    0  0.00000000000E+00  0.00000000000E+00  0.17392826056E+04  0.17392826056E+04  0.50400001928E-02 0.  1.
       -1   -1    0    0    0  501  0.00000000000E+00  0.00000000000E+00 -0.11373983305E+04  0.11373983305E+04  0.50400001928E-02 0. -1.
    10030    2    1    2    0    0  0.00000000000E+00  0.00000000000E+00  0.60188427508E+03  0.28766809361E+04  0.28130105807E+04 0.  0.
        3    1    3    3  502    0  0.11974365239E+04 -0.32443057872E+03 -0.37673936566E+03  0.12965500334E+04  0.10100000352E+00 0.  1.
       -3    1    3    3    0  502 -0.11974365239E+04  0.32443057872E+03  0.97862364074E+03  0.15801309027E+04  0.10100000352E+00 0. -1.
</event>
<event>
 5   0  0.3592331E-06  0.3004704E+04  0.7818609E-02  0.8242389E-01
       -1   -1    0    0    0  501  0.00000000000E+00  0.00000000000E+00  0.11720111483E+04  0.11720111483E+04  0.50400001928E-02 0.  1.
        1   -1    0    0  501    0  0.00000000000E+00  0.00000000000E+00 -0.19258023331E+04  0.19258023331E+04  0.50400001928E-02 0. -1.
    10030    2    1    2    0    0  0.00000000000E+00  0.00000000000E+00 -0.75379118487E+03  0.30978134814E+04  0.30047041810E+04 0.  0.
        3    1    3    3  502    0  0.14297155079E+04 -0.37267747617E+03 -0.96272028844E+02  0.14806225881E+04  0.10100000352E+00 0. -1.
       -3    1    3    3    0  502 -0.14297155079E+04  0.37267747617E+03 -0.65751915603E+03  0.16171908933E+04  0.10100000352E+00 0.  1.
</event>
<event>
 5   0  0.1028450E-05  0.3044193E+04  0.7818609E-02  0.8231223E-01
       -2   -1    0    0    0  501  0.00000000000E+00  0.00000000000E+00  0.10124299096E+04  0.10124299097E+04  0.25500000920E-02 0. -1.
        2   -1    0    0  501    0  0.00000000000E+00  0.00000000000E+00 -0.22883335925E+04  0.22883335925E+04  0.25500000920E-02 0.  1.
    10030    2    1    2    0    0  0.00000000000E+00  0.00000000000E+00 -0.12759036828E+04  0.33007635021E+04  0.30441927483E+04 0.  0.
        3    1    3    3  502    0  0.96063246684E+03  0.48637424970E+03 -0.18044512147E+04  0.21012898047E+04  0.10100000352E+00 0. -1.
       -3    1    3    3    0  502 -0.96063246684E+03 -0.48637424970E+03  0.52854753185E+03  0.11994736974E+04  0.10100000352E+00 0.  1.
</event>
<event>
 5   0  0.1089569E-05  0.3197472E+04  0.7818609E-02  0.8189485E-01
       -2   -1    0    0    0  501  0.00000000000E+00  0.00000000000E+00  0.11692757479E+04  0.11692757479E+04  0.25500000920E-02 0. -1.
        2   -1    0    0  501    0  0.00000000000E+00  0.00000000000E+00 -0.21859309573E+04  0.21859309573E+04  0.25500000920E-02 0.  1.
    10030    2    1    2    0    0  0.00000000000E+00  0.00000000000E+00 -0.10166552094E+04  0.33552067052E+04  0.31974715355E+04 0.  0.
        5    1    3    3  502    0  0.13412938267E+04  0.52951977603E+03 -0.12326502023E+04  0.18970790532E+04  0.46999998093E+01 0. -1.
       -5    1    3    3    0  502 -0.13412938267E+04 -0.52951977603E+03  0.21599499282E+03  0.14581276521E+04  0.46999998093E+01 0.  1.
</event>
<event>
 5   0  0.9647945E-06  0.2907927E+04  0.7818609E-02  0.8270523E-01
       -2   -1    0    0    0  501  0.00000000000E+00  0.00000000000E+00  0.13074433598E+04  0.13074433598E+04  0.25500000920E-02 0.  1.
        2   -1    0    0  501    0  0.00000000000E+00  0.00000000000E+00 -0.16169041331E+04  0.16169041331E+04  0.25500000920E-02 0. -1.
    10030    2    1    2    0    0  0.00000000000E+00  0.00000000000E+00 -0.30946077328E+03  0.29243474930E+04  0.29079274904E+04 0.  0.
        2    1    3    3  502    0 -0.83332218422E+03  0.93676456511E+02 -0.13492123092E+04  0.15885764056E+04  0.25500000920E-02 0. -1.
       -2    1    3    3    0  502  0.83332218422E+03 -0.93676456511E+02  0.10397515359E+04  0.13357710873E+04  0.25500000920E-02 0.  1.
</event>
<event>
 5   0  0.9647945E-06  0.2393552E+04  0.7818609E-02  0.8441922E-01
       -2   -1    0    0    0  501  0.00000000000E+00  0.00000000000E+00  0.93772086900E+03  0.93772086900E+03  0.25500000920E-02 0.  1.
        2   -1    0    0  501    0  0.00000000000E+00  0.00000000000E+00 -0.15273978811E+04  0.15273978811E+04  0.25500000920E-02 0. -1.
    10030    2    1    2    0    0  0.00000000000E+00  0.00000000000E+00 -0.58967701210E+03  0.24651187501E+04  0.23935520620E+04 0.  0.
        2    1    3    3  502    0  0.11172965510E+04 -0.33087747989E+03 -0.57583582167E+03  0.12997762819E+04  0.25500000920E-02 0.  1.
       -2    1    3    3    0  502 -0.11172965510E+04  0.33087747989E+03 -0.13841190436E+02  0.11653424682E+04  0.25500000920E-02 0. -1.
</event>
<event>
 5   0  0.1028450E-05  0.2983824E+04  0.7818609E-02  0.8248365E-01
        2   -1    0    0  501    0  0.00000000000E+00  0.00000000000E+00  0.11989121807E+04  0.11989121807E+04  0.25500000920E-02 0. -1.
       -2   -1    0    0    0  501  0.00000000000E+00  0.00000000000E+00 -0.18565173021E+04  0.18565173021E+04  0.25500000920E-02 0.  1.
    10030    2    1    2    0    0  0.00000000000E+00  0.00000000000E+00 -0.65760512143E+03  0.30554294828E+04  0.29838238602E+04 0.  0.
        3    1    3    3  502    0 -0.98615373360E+03 -0.32219397867E+03  0.76907082586E+03  0.12914248300E+04  0.10100000352E+00 0. -1.
       -3    1    3    3    0  502  0.98615373360E+03  0.32219397867E+03 -0.14266759473E+04  0.17640046528E+04  0.10100000352E+00 0.  1.
</event>
<event>
 5   0  0.3725232E-06  0.2928211E+04  0.7818609E-02  0.8264533E-01
        1   -1    0    0  501    0  0.00000000000E+00  0.00000000000E+00  0.23412754192E+04  0.23412754193E+04  0.50400001928E-02 0. -1.
       -1   -1    0    0    0  501  0.00000000000E+00  0.00000000000E+00 -0.91557151578E+03  0.91557151580E+03  0.50400001928E-02 0.  1.
    10030    2    1    2    0    0  0.00000000000E+00  0.00000000000E+00  0.14257039035E+04  0.32568469351E+04  0.29282111157E+04 0.  0.
        2    1    3    3  502    0  0.14608557072E+04  0.16556923040E+01  0.60442828377E+03  0.15809603691E+04  0.25500000920E-02 0. -1.
       -2    1    3    3    0  502 -0.14608557072E+04 -0.16556923040E+01  0.82127561969E+03  0.16758865660E+04  0.25500000920E-02 0.  1.
</event>
<event>
 5   0  0.1029922E-05  0.2739342E+04  0.7818609E-02  0.8322352E-01
        2   -1    0    0  501    0  0.00000000000E+00  0.00000000000E+00  0.11527295784E+04  0.11527295784E+04  0.25500000920E-02 0.  1.
       -2   -1    0    0    0  501  0.00000000000E+00  0.00000000000E+00 -0.16274403341E+04  0.16274403341E+04  0.25500000920E-02 0. -1.
    10030    2    1    2    0    0  0.00000000000E+00  0.00000000000E+00 -0.47471075567E+03  0.27801699125E+04  0.27393419722E+04 0.  0.
        1    1    3    3  502    0 -0.36489376350E+03 -0.49057528840E+03  0.10065492750E+04  0.11776896940E+04  0.50400001928E-02 0.  1.
       -1    1    3    3    0  502  0.36489376350E+03  0.49057528840E+03 -0.14812600307E+04  0.16024802185E+04  0.50400001928E-02 0. -1.
</event>
<event>
 5   0  0.3592331E-06  0.2618103E+04  0.7818609E-02  0.8362078E-01
        1   -1    0    0  501    0  0.00000000000E+00  0.00000000000E+00  0.15308657351E+04  0.15308657351E+04  0.50400001928E-02 0. -1.
       -1   -1    0    0    0  501  0.00000000000E+00  0.00000000000E+00 -0.11193772558E+04  0.11193772558E+04  0.50400001928E-02 0.  1.
    10030    2    1    2    0    0  0.00000000000E+00  0.00000000000E+00  0.41148847931E+03  0.26502429909E+04  0.26181033482E+04 0.  0.
        3    1    3    3  502    0  0.48571009805E+03 -0.37325001789E+03 -0.96534412474E+03  0.11432931228E+04  0.10100000352E+00 0.  1.
       -3    1    3    3    0  502 -0.48571009805E+03  0.37325001789E+03  0.13768326041E+04  0.15069498681E+04  0.10100000352E+00 0. -1.
</event>
<event>
 5   0  0.3592331E-06  0.3039680E+04  0.7818609E-02  0.8232490E-01
        1   -1    0    0  501    0  0.00000000000E+00  0.00000000000E+00  0.25942569192E+04  0.25942569192E+04  0.50400001928E-02 0. -1.
       -1   -1    0    0    0  501  0.00000000000E+00  0.00000000000E+00 -0.89039532693E+03  0.89039532694E+03  0.50400001928E-02 0.  1.
    10030    2    1    2    0    0  0.00000000000E+00  0.00000000000E+00  0.17038615923E+04  0.34846522461E+04  0.30396804028E+04 0.  0.
        3    1    3    3  502    0 -0.93324647374E+03  0.67844416889E+03  0.19860314505E+04  0.22968579415E+04  0.10100000352E+00 0. -1.
       -3    1    3    3    0  502  0.93324647374E+03 -0.67844416889E+03 -0.28216985819E+03  0.11877943046E+04  0.10100000352E+00 0.  1.
</event>
<event>
 5   0  0.3636718E-06  0.3024744E+04  0.7818609E-02  0.8236700E-01
        1   -1    0    0  501    0  0.00000000000E+00  0.00000000000E+00  0.19744373415E+04  0.19744373415E+04  0.50400001928E-02 0. -1.
       -1   -1    0    0    0  501  0.00000000000E+00  0.00000000000E+00 -0.11584407615E+04  0.11584407615E+04  0.50400001928E-02 0.  1.
    10030    2    1    2    0    0  0.00000000000E+00  0.00000000000E+00  0.81599658004E+03  0.31328781030E+04  0.30247437561E+04 0.  0.
        4    1    3    3  502    0 -0.14294343651E+04 -0.39207023559E+03  0.96815485796E+02  0.14853876682E+04  0.12699999809E+01 0.  1.
       -4    1    3    3    0  502  0.14294343651E+04  0.39207023559E+03  0.71918109424E+03  0.16474904348E+04  0.12699999809E+01 0. -1.
</event>
<event>
 5   0  0.1057036E-05  0.2948918E+04  0.7818609E-02  0.8258470E-01
       -2   -1    0    0    0  501  0.00000000000E+00  0.00000000000E+00  0.12253702703E+04  0.12253702703E+04  0.25500000920E-02 0. -1.
        2   -1    0    0  501    0  0.00000000000E+00  0.00000000000E+00 -0.17741811556E+04  0.17741811556E+04  0.25500000920E-02 0.  1.
    10030    2    1    2    0    0  0.00000000000E+00  0.00000000000E+00 -0.54881088531E+03  0.29995514259E+04  0.29489176605E+04 0.  0.
        4    1    3    3  502    0  0.98936237469E+03 -0.78179594723E+03  0.50290462962E+03  0.13575557046E+04  0.12699999809E+01 0. -1.
       -4    1    3    3    0  502 -0.98936237469E+03  0.78179594723E+03 -0.10517155149E+04  0.16419957213E+04  0.12699999809E+01 0.  1.
</event>
<event>
 5   0  0.3592331E-06  0.2995045E+04  0.7818609E-02  0.8245147E-01
        1   -1    0    0  501    0  0.00000000000E+00  0.00000000000E+00  0.21775617359E+04  0.21775617359E+04  0.50400001928E-02 0.  1.
       -1   -1    0    0    0  501  0.00000000000E+00  0.00000000000E+00 -0.10298552065E+04  0.10298552065E+04  0.50400001928E-02 0. -1.
    10030    2    1    2    0    0  0.00000000000E+00  0.00000000000E+00  0.11477065294E+04  0.32074169424E+04  0.29950447684E+04 0.  0.
        3    1    3    3  502    0 -0.14355731205E+04 -0.50858058867E+02  0.10270846373E+04  0.17658877622E+04  0.10100000352E+00 0. -1.
       -3    1    3    3    0  502  0.14355731205E+04  0.50858058867E+02  0.12062189210E+03  0.14415291802E+04  0.10100000352E+00 0.  1.
</event>
<event>
 5   0  0.1089569E-05  0.3025031E+04  0.7818609E-02  0.8236619E-01
       -2   -1    0    0    0  501  0.00000000000E+00  0.00000000000E+00  0.79589262418E+03  0.79589262419E+03  0.25500000920E-02 0. -1.
        2   -1    0    0  501    0  0.00000000000E+00  0.00000000000E+00 -0.28743857787E+04  0.28743857787E+04  0.25500000920E-02 0.  1.
    10030    2    1    2    0    0  0.00000000000E+00  0.00000000000E+00 -0.20784931546E+04  0.36702784029E+04  0.30250305389E+04 0.  0.
        5    1    3    3  502    0 -0.11380091590E+04 -0.99359000470E+03 -0.95013357098E+03  0.17846741541E+04  0.46999998093E+01 0. -1.
       -5    1    3    3    0  502  0.11380091590E+04  0.99359000470E+03 -0.11283595836E+04  0.18856042489E+04  0.46999998093E+01 0.  1.
</event>
<event>
 5   0  0.3592331E-06  0.2757264E+04  0.7818609E-02  0.8316660E-01
       -1   -1    0    0    0  501  0.00000000000E+00  0.00000000000E+00  0.96810497608E+03  0.96810497609E+03  0.50400001928E-02 0.  1.
        1   -1    0    0  501    0  0.00000000000E+00  0.00000000000E+00 -0.19632432569E+04  0.19632432569E+04  0.50400001928E-02 0. -1.
    10030    2    1    2    0    0  0.00000000000E+00  0.00000000000E+00 -0.99513828082E+03  0.29313482330E+04  0.27572635465E+04 0.  0.
        3    1    3    3  502    0  0.14214801887E+03  0.13356039398E+04 -0.16717193798E+03  0.13535104028E+04  0.10100000352E+00 0. -1.
       -3    1    3    3    0  502 -0.14214801887E+03 -0.13356039398E+04 -0.82796634284E+03  0.15778378302E+04  0.10100000352E+00 0.  1.
</event>
<event>
 5   0  0.1029922E-05  0.2947579E+04  0.7818609E-02  0.8258860E-01
        2   -1    0    0  501    0  0.00000000000E+00  0.00000000000E+00  0.11442640830E+04  0.11442640830E+04  0.25500000920E-02 0.  1.
       -2   -1    0    0    0  501  0.00000000000E+00  0.00000000000E+00 -0.18982120471E+04  0.18982120471E+04  0.25500000920E-02 0. -1.
    10030    2    1    2    0    0  0.00000000000E+00  0.00000000000E+00 -0.75394796410E+03  0.30424761301E+04  0.29475792559E+04 0.  0.
        1    1    3    3  502    0 -0.11355873664E+04  0.34073405720E+03 -0.12806000036E+04  0.17451632398E+04  0.50400001928E-02 0. -1.
       -1    1    3    3    0  502  0.11355873664E+04 -0.34073405720E+03  0.52665203948E+03  0.12973128903E+04  0.50400001928E-02 0.  1.
</event>
<event>
 5   0  0.3592331E-06  0.3063812E+04  0.7818609E-02  0.8225740E-01
        1   -1    0    0  501    0  0.00000000000E+00  0.00000000000E+00  0.24562443415E+04  0.24562443415E+04  0.50400001928E-02 0.  1.
       -1   -1    0    0    0  501  0.00000000000E+00  0.00000000000E+00 -0.95541653687E+03  0.95541653688E+03  0.50400001928E-02 0. -1.
    10030    2    1    2    0    0  0.00000000000E+00  0.00000000000E+00  0.15008278046E+04  0.34116608784E+04  0.30638123066E+04 0.  0.
        3    1    3    3  502    0  0.14878349403E+04 -0.25992952084E+03  0.46538323208E+03  0.15804422572E+04  0.10100000352E+00 0. -1.
       -3    1    3    3    0  502 -0.14878349403E+04  0.25992952084E+03  0.10354445725E+04  0.18312186211E+04  0.10100000352E+00 0.  1.
</event>
<event>
 5   0  0.1089569E-05  0.3123074E+04  0.7818609E-02  0.8209434E-01
        2   -1    0    0  501    0  0.00000000000E+00  0.00000000000E+00  0.19979450487E+04  0.19979450487E+04  0.25500000920E-02 0.  1.
       -2   -1    0    0    0  501  0.00000000000E+00  0.00000000000E+00 -0.12204530660E+04  0.12204530660E+04  0.25500000920E-02 0. -1.
    10030    2    1    2    0    0  0.00000000000E+00  0.00000000000E+00  0.77749198266E+03  0.32183981148E+04  0.31230742293E+04 0.  0.
        5    1    3    3  502    0  0.35816556231E+03 -0.10148059634E+04 -0.77727655127E+03  0.13275144596E+04  0.46999998093E+01 0. -1.
       -5    1    3    3    0  502 -0.35816556231E+03  0.10148059634E+04  0.15547685339E+04  0.18908836552E+04  0.46999998093E+01 0.  1.
</event>
<event>
 5   0  0.1028450E-05  0.3176837E+04  0.7818609E-02  0.8194961E-01
       -2   -1    0    0    0  501  0.00000000000E+00  0.00000000000E+00  0.19411359174E+04  0.19411359174E+04  0.25500000920E-02 0. -1.
        2   -1    0    0  501    0  0.00000000000E+00  0.00000000000E+00 -0.12997920662E+04  0.12997920662E+04  0.25500000920E-02 0.  1.
    10030    2    1    2    0    0  0.00000000000E+00  0.00000000000E+00  0.64134385121E+03  0.32409279836E+04  0.31768368324E+04 0.  0.
        3    1    3    3  502    0  0.52389643768E+03 -0.11063350356E+04 -0.71198879692E+03  0.14161118408E+04  0.10100000352E+00 0.  1.
       -3    1    3    3    0  502 -0.52389643768E+03  0.11063350356E+04  0.13533326481E+04  0.18248161428E+04  0.10100000352E+00 0. -1.
</event>
<event>
 5   0  0.1028450E-05  0.3016928E+04  0.7818609E-02  0.8238913E-01
        2   -1    0    0  501    0  0.00000000000E+00  0.00000000000E+00  0.23691793683E+04  0.23691793683E+04  0.25500000920E-02 0.  1.
       -2   -1    0    0    0  501  0.00000000000E+00  0.00000000000E+00 -0.96044375381E+03  0.96044375381E+03  0.25500000920E-02 0. -1.
    10030    2    1    2    0    0  0.00000000000E+00  0.00000000000E+00  0.14087356145E+04  0.33296231221E+04  0.30169279248E+04 0.  0.
        3    1    3    3  502    0  0.34377742910E+03 -0.12521592919E+04 -0.14291227014E+03  0.13063344672E+04  0.10100000352E+00 0. -1.
       -3    1    3    3    0  502 -0.34377742910E+03  0.12521592919E+04  0.15516478846E+04  0.20232886549E+04  0.10100000352E+00 0.  1.
</event>
<event>
 5   0  0.3852126E-06  0.3004638E+04  0.7818609E-02  0.8242408E-01
        1   -1    0    0  501    0  0.00000000000E+00  0.00000000000E+00  0.14616493584E+04  0.14616493584E+04  0.50400001928E-02 0. -1.
       -1   -1    0    0    0  501  0.00000000000E+00  0.00000000000E+00 -0.15441203147E+04  0.15441203147E+04  0.50400001928E-02 0.  1.
    10030    2    1    2    0    0  0.00000000000E+00  0.00000000000E+00 -0.82470956277E+02  0.30057696731E+04  0.30046380596E+04 0.  0.
        1    1    3    3  502    0  0.62050008375E+03 -0.59435667575E+03  0.11915769203E+04  0.14690594845E+04  0.50400001928E-02 0. -1.
       -1    1    3    3    0  502 -0.62050008375E+03  0.59435667575E+03 -0.12740478766E+04  0.15367101886E+04  0.50400001928E-02 0.  1.
</event>
<event>
 5   0  0.3636718E-06  0.2957532E+04  0.7818609E-02  0.8255963E-01
       -1   -1    0    0    0  501  0.00000000000E+00  0.00000000000E+00  0.85206186079E+03  0.85206186080E+03  0.50400001928E-02 0.  1.
        1   -1    0    0  501    0  0.00000000000E+00  0.00000000000E+00 -0.25664209663E+04  0.25664209663E+04  0.50400001928E-02 0. -1.
    10030    2    1    2    0    0  0.00000000000E+00  0.00000000000E+00 -0.17143591055E+04  0.34184828271E+04  0.29575323661E+04 0.  0.
        4    1    3    3  502    0  0.53922060609E+03  0.54373641489E+03 -0.23193903301E+04  0.24425358272E+04  0.12699999809E+01 0. -1.
       -4    1    3    3    0  502 -0.53922060609E+03 -0.54373641489E+03  0.60503122461E+03  0.97594699988E+03  0.12699999809E+01 0.  1.
</event>
<event>
 5   0  0.3852126E-06  0.2976490E+04  0.7818609E-02  0.8250476E-01
       -1   -1    0    0    0  501  0.00000000000E+00  0.00000000000E+00  0.18003180844E+04  0.18003180844E+04  0.50400001928E-02 0.  1.
        1   -1    0    0  501    0  0.00000000000E+00  0.00000000000E+00 -0.12302680019E+04  0.12302680019E+04  0.50400001928E-02 0. -1.
    10030    2    1    2    0    0  0.00000000000E+00  0.00000000000E+00  0.57005008245E+03  0.30305860863E+04  0.29764903713E+04 0.  0.
        1    1    3    3  502    0  0.13518648513E+04 -0.54751142334E+03  0.58631932021E+03  0.15719661828E+04  0.50400001928E-02 0.  1.
       -1    1    3    3    0  502 -0.13518648513E+04  0.54751142334E+03 -0.16269237760E+02  0.14586199035E+04  0.50400001928E-02 0. -1.
</event>
<event>
 5   0  0.3896630E-06  0.2917876E+04  0.7818609E-02  0.8267579E-01
       -1   -1    0    0    0  501  0.00000000000E+00  0.00000000000E+00  0.12100310497E+04  0.12100310497E+04  0.50400001928E-02 0.  1.
        1   -1    0    0  501    0  0.00000000000E+00  0.00000000000E+00 -0.17590457793E+04  0.17590457793E+04  0.50400001928E-02 0. -1.
    10030    2    1    2    0    0  0.00000000000E+00  0.00000000000E+00 -0.54901472956E+03  0.29690768291E+04  0.29178759473E+04 0.  0.
        5    1    3    3  502    0 -0.79576989632E+03  0.45493660388E+03  0.88042491835E+03  0.12709788229E+04  0.46999998093E+01 0. -1.
       -5    1    3    3    0  502  0.79576989632E+03 -0.45493660388E+03 -0.14294396479E+04  0.16980980061E+04  0.46999998093E+01 0.  1.
</event>
<event>
 5   0  0.3636718E-06  0.3007239E+04  0.7818609E-02  0.8241667E-01
        1   -1    0    0  501    0  0.00000000000E+00  0.00000000000E+00  0.26019919260E+04  0.26019919260E+04  0.50400001928E-02 0. -1.
       -1   -1    0    0    0  501  0.00000000000E+00  0.00000000000E+00 -0.86890027035E+03  0.86890027036E+03  0.50400001928E-02 0.  1.
    10030    2    1    2    0    0  0.00000000000E+00  0.00000000000E+00  0.17330916556E+04  0.34708921964E+04  0.30072389250E+04 0.  0.
        4    1    3    3  502    0  0.44646277164E+03 -0.71043307650E+03  0.23066476129E+04  0.24545201131E+04  0.12699999809E+01 0. -1.
       -4    1    3    3    0  502 -0.44646277164E+03  0.71043307650E+03 -0.57355595725E+03  0.10163720833E+04  0.12699999809E+01 0.  1.
</event>
<event>
 5   0  0.3725232E-06  0.3032457E+04  0.7818609E-02  0.8234523E-01
        1   -1    0    0  501    0  0.00000000000E+00  0.00000000000E+00  0.14306315696E+04  0.14306315696E+04  0.50400001928E-02 0. -1.
       -1   -1    0    0    0  501  0.00000000000E+00  0.00000000000E+00 -0.16069469593E+04  0.16069469593E+04  0.50400001928E-02 0.  1.
    10030    2    1    2    0    0  0.00000000000E+00  0.00000000000E+00 -0.17631538969E+03  0.30375785290E+04  0.30324571230E+04 0.  0.
        2    1    3    3  502    0 -0.49490897307E+03  0.37137267076E+03 -0.14747268472E+04  0.15992722802E+04  0.25500000920E-02 0.  1.
       -2    1    3    3    0  502  0.49490897307E+03 -0.37137267076E+03  0.12984114575E+04  0.14383062488E+04  0.25500000920E-02 0. -1.
</event>
<event>
 5   0  0.9647945E-06  0.2336522E+04  0.7818609E-02  0.8463659E-01
       -2   -1    0    0    0  501  0.00000000000E+00  0.00000000000E+00  0.67628045779E+03  0.67628045779E+03  0.25500000920E-02 0.  1.
        2   -1    0    0  501    0  0.00000000000E+00  0.00000000000E+00 -0.20181475326E+04  0.20181475326E+04  0.25500000920E-02 0. -1.
    10030    2    1    2    0    0  0.00000000000E+00  0.00000000000E+00 -0.13418670748E+04  0.26944279904E+04  0.23365219770E+04 0.  0.
        2    1    3    3  502    0 -0.61097903130E+03 -0.77700527915E+03 -0.13890605467E+04  0.17048524226E+04  0.25500000920E-02 0. -1.
       -2    1    3    3    0  502  0.61097903130E+03  0.77700527915E+03  0.47193471904E+02  0.98957556776E+03  0.25500000920E-02 0.  1.
</event>
<event>
 5   0  0.3896630E-06  0.3063018E+04  0.7818609E-02  0.8225961E-01
       -1   -1    0    0    0  501  0.00000000000E+00  0.00000000000E+00  0.16813330548E+04  0.16813330548E+04  0.50400001928E-02 0. -1.
        1   -1    0    0  501    0  0.00000000000E+00  0.00000000000E+00 -0.13950359155E+04  0.13950359156E+04  0.50400001928E-02 0.  1.
    10030    2    1    2    0    0  0.00000000000E+00  0.00000000000E+00  0.28629713926E+03  0.30763689704E+04  0.30630181178E+04 0.  0.
        5    1    3    3  502    0 -0.13926834104E+04 -0.32101485761E+02  0.78223988634E+03  0.15976604510E+04  0.46999998093E+01 0. -1.
       -5    1    3    3    0  502  0.13926834104E+04  0.32101485761E+02 -0.49594274708E+03  0.14787085194E+04  0.46999998093E+01 0.  1.
</event>
<event>
 5   0  0.3592331E-06  0.3039523E+04  0.7818609E-02  0.8232534E-01
        1   -1    0    0  501    0  0.00000000000E+00  0.00000000000E+00  0.10454004431E+04  0.10454004431E+04  0.50400001928E-02 0.  1.
       -1   -1    0    0    0  501  0.00000000000E+00  0.00000000000E+00 -0.22093681210E+04  0.22093681210E+04  0.50400001928E-02 0. -1.
    10030    2    1    2    0    0  0.00000000000E+00  0.00000000000E+00 -0.11639676779E+04  0.32547685641E+04  0.30395226024E+04 0.  0.
        3    1    3    3  502    0  0.10740001314E+04 -0.78968038498E+03  0.19949377832E+03  0.13479128943E+04  0.10100000352E+00 0.  1.
       -3    1    3    3    0  502 -0.10740001314E+04  0.78968038498E+03 -0.13634614562E+04  0.19068556698E+04  0.10100000352E+00 0. -1.
</event>
<event>
 5   0  0.9647945E-06  0.2951525E+04  0.7818609E-02  0.8257710E-01
        2   -1    0    0  501    0  0.00000000000E+00  0.00000000000E+00  0.17005088725E+04  0.17005088725E+04  0.25500000920E-02 0.  1.
       -2   -1    0    0    0  501  0.00000000000E+00  0.00000000000E+00 -0.12807193635E+04  0.12807193635E+04  0.25500000920E-02 0. -1.
    10030    2    1    2    0    0  0.00000000000E+00  0.00000000000E+00  0.41978950906E+03  0.29812282360E+04  0.29515247862E+04 0.  0.
        2    1    3    3  502    0 -0.53817313500E+03  0.57947615894E+03 -0.10486186328E+04  0.13134016823E+04  0.25500000920E-02 0. -1.
       -2    1    3    3    0  502  0.53817313500E+03 -0.57947615894E+03  0.14684081419E+04  0.16678265537E+04  0.25500000920E-02 0.  1.
</event>
<event>
 5   0  0.3725232E-06  0.3061852E+04  0.7818609E-02  0.8226286E-01
       -1   -1    0    0    0  501  0.00000000000E+00  0.00000000000E+00  0.12125385718E+04  0.12125385718E+04  0.50400001928E-02 0. -1.
        1   -1    0    0  501    0  0.00000000000E+00  0.00000000000E+00 -0.19329154306E+04  0.19329154306E+04  0.50400001928E-02 0.  1.
    10030    2    1    2    0    0  0.00000000000E+00  0.00000000000E+00 -0.72037685878E+03  0.31454540024E+04  0.30618520642E+04 0.  0.
        2    1    3    3  502    0  0.64301061567E+03 -0.98896266331E+03 -0.13626526008E+04  0.18023129339E+04  0.25500000920E-02 0.  1.
       -2    1    3    3    0  502 -0.64301061567E+03  0.98896266331E+03  0.64227574199E+03  0.13431410686E+04  0.25500000920E-02 0. -1.
</event>
<event>
 5   0  0.3896630E-06  0.2890236E+04  0.7818609E-02  0.8275789E-01
       -1   -1    0    0    0  501  0.00000000000E+00  0.00000000000E+00  0.16709388074E+04  0.16709388074E+04  0.50400001928E-02 0. -1.
        1   -1    0    0  501    0  0.00000000000E+00  0.00000000000E+00 -0.12498156799E+04  0.12498156800E+04  0.50400001928E-02 0.  1.
    10030    2    1    2    0    0  0.00000000000E+00  0.00000000000E+00  0.42112312747E+03  0.29207544874E+04  0.28902356456E+04 0.  0.
        5    1    3    3  502    0 -0.69195264358E+03  0.91298361441E+03  0.11007753356E+04  0.15887309308E+04  0.46999998093E+01 0. -1.
       -5    1    3    3    0  502  0.69195264358E+03 -0.91298361441E+03 -0.67965220814E+03  0.13320235565E+04  0.46999998093E+01 0.  1.
</event>
<event>
 5   0  0.1029922E-05  0.2880784E+04  0.7818609E-02  0.8278618E-01
       -2   -1    0    0    0  501  0.00000000000E+00  0.00000000000E+00  0.17206935375E+04  0.17206935375E+04  0.25500000920E-02 0. -1.
        2   -1    0    0  501    0  0.00000000000E+00  0.00000000000E+00 -0.12057514785E+04  0.12057514785E+04  0.25500000920E-02 0.  1.
    10030    2    1    2    0    0  0.00000000000E+00  0.00000000000E+00  0.51494205904E+03  0.29264450161E+04  0.28807837662E+04 0.  0.
        1    1    3    3  502    0 -0.71566231047E+02 -0.77534206814E+03 -0.97353320012E+03  0.12466129872E+04  0.50400001928E-02 0.  1.
       -1    1    3    3    0  502  0.71566231047E+02  0.77534206814E+03  0.14884752592E+04  0.16798320289E+04  0.50400001928E-02 0. -1.
</event>
<event>
 5   0  0.9647945E-06  0.2995561E+04  0.7818609E-02  0.8245000E-01
       -2   -1    0    0    0  501  0.00000000000E+00  0.00000000000E+00  0.12842777720E+04  0.12842777720E+04  0.25500000920E-02 0.  1.
        2   -1    0    0  501    0  0.00000000000E+00  0.00000000000E+00 -0.17467763863E+04  0.17467763863E+04  0.25500000920E-02 0. -1.
    10030    2    1    2    0    0  0.00000000000E+00  0.00000000000E+00 -0.46249861437E+03  0.30310541583E+04  0.29955607726E+04 0.  0.
        2    1    3    3  502    0  0.89513494400E+02  0.58436434013E+02 -0.17429114520E+04  0.17461866487E+04  0.25500000920E-02 0. -1.
       -2    1    3    3    0  502 -0.89513494400E+02 -0.58436434013E+02  0.12804128376E+04  0.12848675096E+04  0.25500000920E-02 0.  1.
</event>
<event>
 5   0  0.1057036E-05  0.3011310E+04  0.7818609E-02  0.8240509E-01
       -2   -1    0    0    0  501  0.00000000000E+00  0.00000000000E+00  0.16201401252E+04  0.16201401252E+04  0.25500000920E-02 0.  1.
        2   -1    0    0  501    0  0.00000000000E+00  0.00000000000E+00 -0.13992599505E+04  0.13992599505E+04  0.25500000920E-02 0. -1.
    10030    2    1    2    0    0  0.00000000000E+00  0.00000000000E+00  0.22088017461E+03  0.30194000757E+04  0.30113101411E+04 0.  0.
        4    1    3    3  502    0  0.20446541795E+03 -0.10701211086E+04 -0.93159691677E+03  0.14334712144E+04  0.12699999809E+01 0. -1.
       -4    1    3    3    0  502 -0.20446541795E+03  0.10701211086E+04  0.11524770914E+04  0.15859288613E+04  0.12699999809E+01 0.  1.
</event>
<event>
 5   0  0.1089569E-05  0.2793065E+04  0.7818609E-02  0.8305425E-01
       -2   -1    0    0    0  501  0.00000000000E+00  0.00000000000E+00  0.10959523084E+04  0.10959523084E+04  0.25500000920E-02 0.  1.
        2   -1    0    0  501    0  0.00000000000E+00  0.00000000000E+00 -0.17795506094E+04  0.17795506094E+04  0.25500000920E-02 0. -1.
    10030    2    1    2    0    0  0.00000000000E+00  0.00000000000E+00 -0.68359830093E+03  0.28755029178E+04  0.27930646955E+04 0.  0.
        5    1    3    3  502    0  0.86479704790E+03 -0.18183353639E+03 -0.14550776026E+04  0.17024130781E+04  0.46999998093E+01 0. -1.
       -5    1    3    3    0  502 -0.86479704790E+03  0.18183353639E+03  0.77147930168E+03  0.11730898397E+04  0.46999998093E+01 0.  1.
</event>
<event>
 5   0  0.1057036E-05  0.2970991E+04  0.7818609E-02  0.8252063E-01
        2   -1    0    0  501    0  0.00000000000E+00  0.00000000000E+00  0.20769779001E+04  0.20769779001E+04  0.25500000920E-02 0.  1.
       -2   -1    0    0    0  501  0.00000000000E+00  0.00000000000E+00 -0.10624555047E+04  0.10624555047E+04  0.25500000920E-02 0. -1.
    10030    2    1    2    0    0  0.00000000000E+00  0.00000000000E+00  0.10145223954E+04  0.31394334048E+04  0.29709908132E+04 0.  0.
        4    1    3    3  502    0  0.49109020544E+02 -0.48382366970E+03 -0.97595649601E+03  0.10904080586E+04  0.12699999809E+01 0. -1.
       -4    1    3    3    0  502 -0.49109020544E+02  0.48382366970E+03  0.19904788914E+04  0.20490253462E+04  0.12699999809E+01 0.  1.
</event>
<event>
 5   0  0.1029922E-05  0.2055908E+04  0.7818609E-02  0.8580919E-01
        2   -1    0    0  501    0  0.00000000000E+00  0.00000000000E+00  0.24444427629E+04  0.24444427629E+04  0.25500000920E-02 0.  1.
       -2   -1    0    0    0  501  0.00000000000E+00  0.00000000000E+00 -0.43228216382E+03  0.43228216383E+03  0.25500000920E-02 0. -1.
    10030    2    1    2    0    0  0.00000000000E+00  0.00000000000E+00  0.20121605991E+04  0.28767249267E+04  0.20559075922E+04 0.  0.
        1    1    3    3  502    0  0.53268872627E+03 -0.73740992888E+03  0.16759071698E+04  0.19068810986E+04  0.50400001928E-02 0.  1.
       -1    1    3    3    0  502 -0.53268872627E+03  0.73740992888E+03  0.33625342931E+03  0.96984382818E+03  0.50400001928E-02 0. -1.
</event>
<event>
 5   0  0.3636718E-06  0.2996386E+04  0.7818609E-02  0.8244764E-01
       -1   -1    0    0    0  501  0.00000000000E+00  0.00000000000E+00  0.10810850321E+04  0.10810850321E+04  0.50400001928E-02 0. -1.
        1   -1    0    0  501    0  0.00000000000E+00  0.00000000000E+00 -0.20762315625E+04  0.20762315625E+04  0.50400001928E-02 0.  1.
    10030    2    1    2    0    0  0.00000000000E+00  0.00000000000E+00 -0.99514653037E+03  0.31573165946E+04  0.29963864006E+04 0.  0.
        4    1    3    3  502    0  0.12852267477E+04 -0.71246638558E+02  0.31021435064E+03  0.13240537877E+04  0.12699999809E+01 0. -1.
       -4    1    3    3    0  502 -0.12852267477E+04  0.71246638558E+02 -0.13053608810E+04  0.18332628069E+04  0.12699999809E+01 0.  1.
</event>
<event>
 5   0  0.9647945E-06  0.3013732E+04  0.7818609E-02  0.8239821E-01
        2   -1    0    0  501    0  0.00000000000E+00  0.00000000000E+00  0.14202132002E+04  0.14202132002E+04  0.25500000920E-02 0. -1.
       -2   -1    0    0    0  501  0.00000000000E+00  0.00000000000E+00 -0.15988054147E+04  0.15988054147E+04  0.25500000920E-02 0.  1.
    10030    2    1    2    0    0  0.00000000000E+00  0.00000000000E+00 -0.17859221455E+03  0.30190186149E+04  0.30137316102E+04 0.  0.
        2    1    3    3  502    0 -0.11435062467E+04 -0.75513945987E+03 -0.71713511050E+03  0.15466495746E+04  0.25500000920E-02 0.  1.
       -2    1    3    3    0  502  0.11435062467E+04  0.75513945987E+03  0.53854289594E+03  0.14723690403E+04  0.25500000920E-02 0. -1.
</event>
<event>
 5   0  0.1028450E-05  0.2996989E+04  0.7818609E-02  0.8244591E-01
       -2   -1    0    0    0  501  0.00000000000E+00  0.00000000000E+00  0.99042236396E+03  0.99042236396E+03  0.25500000920E-02 0. -1.
        2   -1    0    0  501    0  0.00000000000E+00  0.00000000000E+00 -0.22672005595E+04  0.22672005595E+04  0.25500000920E-02 0.  1.
    10030    2    1    2    0    0  0.00000000000E+00  0.00000000000E+00 -0.12767781955E+04  0.32576229235E+04  0.29969892477E+04 0.  0.
        3    1    3    3  502    0  0.10594971774E+04  0.66143175040E+03  0.26153660034E+03  0.12760985984E+04  0.10100000352E+00 0. -1.
       -3    1    3    3    0  502 -0.10594971774E+04 -0.66143175040E+03 -0.15383147959E+04  0.19815243251E+04  0.10100000352E+00 0.  1.
</event>
<event>
 5   0  0.3725232E-06  0.2935228E+04  0.7818609E-02  0.8262473E-01
        1   -1    0    0  501    0  0.00000000000E+00  0.00000000000E+00  0.16933105500E+04  0.16933105500E+04  0.50400001928E-02 0.  1.
       -1   -1    0    0    0  501  0.00000000000E+00  0.00000000000E+00 -0.12719995170E+04  0.12719995170E+04  0.50400001928E-02 0. -1.
    10030    2    1    2    0    0  0.00000000000E+00  0.00000000000E+00  0.42131103300E+03  0.29653100671E+04  0.29352275563E+04 0.  0.
        2    1    3    3  502    0 -0.12463414117E+04 -0.13414602756E+02  0.99341472058E+03  0.15938694028E+04  0.25500000920E-02 0.  1.
       -2    1    3    3    0  502  0.12463414117E+04  0.13414602756E+02 -0.57210368757E+03  0.13714406642E+04  0.25500000920E-02 0. -1.
</event>
<event>
 5   0  0.1029922E-05  0.2969914E+04  0.7818609E-02  0.8252375E-01
       -2   -1    0    0    0  501  0.00000000000E+00  0.00000000000E+00  0.19780333336E+04  0.19780333337E+04  0.25500000920E-02 0. -1.
        2   -1    0    0  501    0  0.00000000000E+00  0.00000000000E+00 -0.11147931569E+04  0.11147931569E+04  0.25500000920E-02 0.  1.
    10030    2    1    2    0    0  0.00000000000E+00  0.00000000000E+00  0.86324017677E+03  0.30928264905E+04  0.29699144933E+04 0.  0.
        1    1    3    3  502    0  0.78328673132E+01  0.95232563150E+03  0.16181202101E+04  0.18775778217E+04  0.50400001928E-02 0. -1.
       -1    1    3    3    0  502 -0.78328673132E+01 -0.95232563150E+03 -0.75488003336E+03  0.12152486688E+04  0.50400001928E-02 0.  1.
</event>
<event>
 5   0  0.3852126E-06  0.2223298E+04  0.7818609E-02  0.8508793E-01
       -1   -1    0    0    0  501  0.00000000000E+00  0.00000000000E+00  0.69982661962E+03  0.69982661964E+03  0.50400001928E-02 0. -1.
        1   -1    0    0  501    0  0.00000000000E+00  0.00000000000E+00 -0.17658142521E+04  0.17658142521E+04  0.50400001928E-02 0.  1.
    10030    2    1    2    0    0  0.00000000000E+00  0.00000000000E+00 -0.10659876325E+04  0.24656408718E+04  0.22232982876E+04 0.  0.
        1    1    3    3  502    0  0.20229891111E+03  0.35835003366E+03  0.61224771138E+03  0.73769021694E+03  0.50400001928E-02 0. -1.
       -1    1    3    3    0  502 -0.20229891111E+03 -0.35835003366E+03 -0.16782353439E+04  0.17279506548E+04  0.50400001928E-02 0.  1.
</event>
<event>
 5   0  0.9647945E-06  0.2983289E+04  0.7818609E-02  0.8248519E-01
       -2   -1    0    0    0  501  0.00000000000E+00  0.00000000000E+00  0.71819630963E+03  0.71819630963E+03  0.25500000920E-02 0.  1.
        2   -1    0    0  501    0  0.00000000000E+00  0.00000000000E+00 -0.30980441634E+04  0.30980441634E+04  0.25500000920E-02 0. -1.
    10030    2    1    2    0    0  0.00000000000E+00  0.00000000000E+00 -0.23798478537E+04  0.38162404730E+04  0.29832893827E+04 0.  0.
        2    1    3    3  502    0 -0.12513766539E+04 -0.76183226880E+03 -0.15487221690E+04  0.21318706087E+04  0.25500000920E-02 0. -1.
       -2    1    3    3    0  502  0.12513766539E+04  0.76183226880E+03 -0.83112568473E+03  0.16843698642E+04  0.25500000920E-02 0.  1.
</event>
<event>
 5   0  0.3896630E-06  0.2991946E+04  0.7818609E-02  0.8246035E-01
        1   -1    0    0  501    0  0.00000000000E+00  0.00000000000E+00  0.23029463457E+04  0.23029463457E+04  0.50400001928E-02 0. -1.
       -1   -1    0    0    0  501  0.00000000000E+00  0.00000000000E+00 -0.97177017066E+03  0.97177017067E+03  0.50400001928E-02 0.  1.
    10030    2    1    2    0    0  0.00000000000E+00  0.00000000000E+00  0.13311761751E+04  0.32747165164E+04  0.29919455633E+04 0.  0.
        5    1    3    3  502    0 -0.30993368033E+03  0.10882936013E+04 -0.40539534348E+03  0.12020022144E+04  0.46999998093E+01 0.  1.
       -5    1    3    3    0  502  0.30993368033E+03 -0.10882936013E+04  0.17365715186E+04  0.20727143020E+04  0.46999998093E+01 0. -1.
</event>
<event>
 5   0  0.1089569E-05  0.2943906E+04  0.7818609E-02  0.8259933E-01
       -2   -1    0    0    0  501  0.00000000000E+00  0.00000000000E+00  0.12486397543E+04  0.12486397544E+04  0.25500000920E-02 0.  1.
        2   -1    0    0  501    0  0.00000000000E+00  0.00000000000E+00 -0.17352044814E+04  0.17352044814E+04  0.25500000920E-02 0. -1.
    10030    2    1    2    0    0  0.00000000000E+00  0.00000000000E+00 -0.48656472701E+03  0.29838442357E+04  0.29439057712E+04 0.  0.
        5    1    3    3  502    0  0.12927815401E+03 -0.11423982366E+04 -0.11749019536E+04  0.16438379672E+04  0.46999998093E+01 0. -1.
       -5    1    3    3    0  502 -0.12927815401E+03  0.11423982366E+04  0.68833722655E+03  0.13400062685E+04  0.46999998093E+01 0.  1.
</event>
<event>
 5   0  0.3636718E-06  0.2349634E+04  0.7818609E-02  0.8458604E-01
        1   -1    0    0  501    0  0.00000000000E+00  0.00000000000E+00  0.14507110285E+04  0.14507110285E+04  0.50400001928E-02 0. -1.
       -1   -1    0    0    0  501  0.00000000000E+00  0.00000000000E+00 -0.95139208940E+03  0.95139208941E+03  0.50400001928E-02 0.  1.
    10030    2    1    2    0    0  0.00000000000E+00  0.00000000000E+00  0.49931893910E+03  0.24021031179E+04  0.23496340111E+04 0.  0.
        4    1    3    3  502    0  0.10735181204E+04 -0.17802728919E+03 -0.20301320499E+03  0.11069556653E+04  0.12699999809E+01 0.  1.
       -4    1    3    3    0  502 -0.10735181204E+04  0.17802728919E+03  0.70233214409E+03  0.12951474526E+04  0.12699999809E+01 0. -1.
</event>
<event>
 5   0  0.1057036E-05  0.2974372E+04  0.7818609E-02  0.8251087E-01
       -2   -1    0    0    0  501  0.00000000000E+00  0.00000000000E+00  0.11635068865E+04  0.11635068865E+04  0.25500000920E-02 0.  1.
        2   -1    0    0  501    0  0.00000000000E+00  0.00000000000E+00 -0.19009099890E+04  0.19009099890E+04  0.25500000920E-02 0. -1.
    10030    2    1    2    0    0  0.00000000000E+00  0.00000000000E+00 -0.73740310245E+03  0.30644168755E+04  0.29743717742E+04 0.  0.
        4    1    3    3  502    0  0.14585287261E+04  0.20509329554E+02 -0.70111302573E+02  0.14603574512E+04  0.12699999809E+01 0. -1.
       -4    1    3    3    0  502 -0.14585287261E+04 -0.20509329554E+02 -0.66729179988E+03  0.16040594243E+04  0.12699999809E+01 0.  1.
</event>
<event>
 5   0  0.3852126E-06  0.3006187E+04  0.7818609E-02  0.8241966E-01
       -1   -1    0    0    0  501  0.00000000000E+00  0.00000000000E+00  0.10140818166E+04  0.10140818166E+04  0.50400001928E-02 0.  1.
        1   -1    0    0  501    0  0.00000000000E+00  0.00000000000E+00 -0.22279172825E+04  0.22279172825E+04  0.50400001928E-02 0. -1.
    10030    2    1    2    0    0  0.00000000000E+00  0.00000000000E+00 -0.12138354659E+04  0.32419990991E+04  0.30061872230E+04 0.  0.
        1    1    3    3  502    0  0.28395070564E+03 -0.81958511167E+03 -0.19307873860E+04  0.21166690078E+04  0.50400001928E-02 0. -1.
       -1    1    3    3    0  502 -0.28395070564E+03  0.81958511167E+03  0.71695192013E+03  0.11253300913E+04  0.50400001928E-02 0.  1.
</event>
<event>
 5   0  0.1029922E-05  0.2773968E+04  0.7818609E-02  0.8311396E-01
        2   -1    0    0  501    0  0.00000000000E+00  0.00000000000E+00  0.18964390426E+04  0.18964390426E+04  0.25500000920E-02 0.  1.
       -2   -1    0    0    0  501  0.00000000000E+00  0.00000000000E+00 -0.10143880948E+04  0.10143880948E+04  0.25500000920E-02 0. -1.
    10030    2    1    2    0    0  0.00000000000E+00  0.00000000000E+00  0.88205094779E+03  0.29108271374E+04  0.27739684117E+04 0.  0.
        1    1    3    3  502    0 -0.92779441056E+03 -0.44103240359E+03  0.14188886601E+04  0.17517297391E+04  0.50400001928E-02 0.  1.
       -1    1    3    3    0  502  0.92779441056E+03  0.44103240359E+03 -0.53683771228E+03  0.11590973983E+04  0.50400001928E-02 0. -1.
</event>
<event>
 5   0  0.3636718E-06  0.3012228E+04  0.7818609E-02  0.8240248E-01
       -1   -1    0    0    0  501  0.00000000000E+00  0.00000000000E+00  0.12428719024E+04  0.12428719024E+04  0.50400001928E-02 0. -1.
        1   -1    0    0  501    0  0.00000000000E+00  0.00000000000E+00 -0.18251113308E+04  0.18251113309E+04  0.50400001928E-02 0.  1.
    10030    2    1    2    0    0  0.00000000000E+00  0.00000000000E+00 -0.58223942841E+03  0.30679832333E+04  0.30122281401E+04 0.  0.
        4    1    3    3  502    0  0.23283125809E+03  0.14679475367E+03 -0.17992772054E+04  0.18202085510E+04  0.12699999809E+01 0.  1.
       -4    1    3    3    0  502 -0.23283125809E+03 -0.14679475367E+03  0.12170377769E+04  0.12477746823E+04  0.12699999809E+01 0. -1.
</event>
<event>
 5   0  0.1028450E-05  0.3007688E+04  0.7818609E-02  0.8241539E-01
        2   -1    0    0  501    0  0.00000000000E+00  0.00000000000E+00  0.17133684670E+04  0.17133684670E+04  0.25500000920E-02 0.  1.
       -2   -1    0    0    0  501  0.00000000000E+00  0.00000000000E+00 -0.13199415962E+04  0.13199415962E+04  0.25500000920E-02 0. -1.
    10030    2    1    2    0    0  0.00000000000E+00  0.00000000000E+00  0.39342687082E+03  0.30333100632E+04  0.30076876894E+04 0.  0.
        3    1    3    3  502    0 -0.13640477786E+04  0.52128141555E+03 -0.16577252693E+03  0.14696398189E+04  0.10100000352E+00 0. -1.
       -3    1    3    3    0  502  0.13640477786E+04 -0.52128141555E+03  0.55919939775E+03  0.15636702443E+04  0.10100000352E+00 0.  1.
</event>
<event>
 5   0  0.3592331E-06  0.3056538E+04  0.7818609E-02  0.8227768E-01
       -1   -1    0    0    0  501  0.00000000000E+00  0.00000000000E+00  0.10607160780E+04  0.10607160780E+04  0.50400001928E-02 0.  1.
        1   -1    0    0  501    0  0.00000000000E+00  0.00000000000E+00 -0.22019142776E+04  0.22019142776E+04  0.50400001928E-02 0. -1.
    10030    2    1    2    0    0  0.00000000000E+00  0.00000000000E+00 -0.11411981996E+04  0.32626303557E+04  0.30565378301E+04 0.  0.
        3    1    3    3  502    0 -0.32665447156E+03 -0.87979467828E+03  0.71690702294E+03  0.11809731197E+04  0.10100000352E+00 0.  1.
       -3    1    3    3    0  502  0.32665447156E+03  0.87979467828E+03 -0.18581052226E+04  0.20816572360E+04  0.10100000352E+00 0. -1.
</event>
<event>
 5   0  0.1029922E-05  0.3008472E+04  0.7818609E-02  0.8241316E-01
       -2   -1    0    0    0  501  0.00000000000E+00  0.00000000000E+00  0.79917265219E+03  0.79917265219E+03  0.25500000920E-02 0.  1.
        2   -1    0    0  501    0  0.00000000000E+00  0.00000000000E+00 -0.28313362018E+04  0.28313362018E+04  0.25500000920E-02 0. -1.
    10030    2    1    2    0    0  0.00000000000E+00  0.00000000000E+00 -0.20321635497E+04  0.36305088540E+04  0.30084723444E+04 0.  0.
        1    1    3    3  502    0  0.78244329089E+03  0.51594766796E+03 -0.24359161229E+04  0.26100013137E+04  0.50400001928E-02 0. -1.
       -1    1    3    3    0  502 -0.78244329089E+03 -0.51594766796E+03  0.40375257324E+03  0.10205075404E+04  0.50400001928E-02 0.  1.
</event>
<event>
 5   0  0.3636718E-06  0.3004830E+04  0.7818609E-02  0.8242353E-01
        1   -1    0    0  501    0  0.00000000000E+00  0.00000000000E+00  0.13352065009E+04  0.13352065009E+04  0.50400001928E-02 0. -1.
       -1   -1    0    0    0  501  0.00000000000E+00  0.00000000000E+00 -0.16905629773E+04  0.16905629773E+04  0.50400001928E-02 0.  1.
    10030    2    1    2    0    0  0.00000000000E+00  0.00000000000E+00 -0.35535647638E+03  0.30257694782E+04  0.30048298970E+04 0.  0.
        4    1    3    3  502    0 -0.33461877831E+03  0.31532384060E+02 -0.16522204326E+04  0.16860599007E+04  0.12699999809E+01 0.  1.
       -4    1    3    3    0  502  0.33461877831E+03 -0.31532384060E+02  0.12968639562E+04  0.13397095775E+04  0.12699999809E+01 0. -1.
</event>
<event>
 5   0  0.1028450E-05  0.2908725E+04  0.7818609E-02  0.8270286E-01
        2   -1    0    0  501    0  0.00000000000E+00  0.00000000000E+00  0.16230697125E+04  0.16230697125E+04  0.25500000920E-02 0. -1.
       -2   -1    0    0    0  501  0.00000000000E+00  0.00000000000E+00 -0.13031914116E+04  0.13031914116E+04  0.25500000920E-02 0.  1.
    10030    2    1    2    0    0  0.00000000000E+00  0.00000000000E+00  0.31987830092E+03  0.29262611240E+04  0.29087251569E+04 0.  0.
        3    1    3    3  502    0  0.18512617914E+03 -0.13769584712E+04 -0.27263468727E+03  0.14158446301E+04  0.10100000352E+00 0.  1.
       -3    1    3    3    0  502 -0.18512617914E+03  0.13769584712E+04  0.59251298819E+03  0.15104164939E+04  0.10100000352E+00 0. -1.
</event>
<event>
 5   0  0.3636718E-06  0.3000031E+04  0.7818609E-02  0.8243722E-01
       -1   -1    0    0    0  501  0.00000000000E+00  0.00000000000E+00  0.92291692544E+03  0.92291692545E+03  0.50400001928E-02 0.  1.
        1   -1    0    0  501    0  0.00000000000E+00  0.00000000000E+00 -0.24379733447E+04  0.24379733447E+04  0.50400001928E-02 0. -1.
    10030    2    1    2    0    0  0.00000000000E+00  0.00000000000E+00 -0.15150564192E+04  0.33608902701E+04  0.30000312422E+04 0.  0.
        4    1    3    3  502    0 -0.87279561220E+03 -0.19423509270E+03  0.59172754400E+03  0.10722138551E+04  0.12699999809E+01 0.  1.
       -4    1    3    3    0  502  0.87279561220E+03  0.19423509270E+03 -0.21067839632E+04  0.22886764150E+04  0.12699999809E+01 0. -1.
</event>
<event>
 5   0  0.3636718E-06  0.2940743E+04  0.7818609E-02  0.8260857E-01
        1   -1    0    0  501    0  0.00000000000E+00  0.00000000000E+00  0.18332934345E+04  0.18332934345E+04  0.50400001928E-02 0.  1.
       -1   -1    0    0    0  501  0.00000000000E+00  0.00000000000E+00 -0.11792945006E+04  0.11792945007E+04  0.50400001928E-02 0. -1.
    10030    2    1    2    0    0  0.00000000000E+00  0.00000000000E+00  0.65399893381E+03  0.30125879351E+04  0.29407433518E+04 0.  0.
        4    1    3    3  502    0  0.24974477179E+03 -0.65595892433E+02 -0.11558851885E+04  0.11843763988E+04  0.12699999809E+01 0. -1.
       -4    1    3    3    0  502 -0.24974477179E+03  0.65595892433E+02  0.18098841224E+04  0.18282115363E+04  0.12699999809E+01 0.  1.
</event>
<event>
 5   0  0.3896630E-06  0.2774444E+04  0.7818609E-02  0.8311247E-01
       -1   -1    0    0    0  501  0.00000000000E+00  0.00000000000E+00  0.98805892653E+03  0.98805892654E+03  0.50400001928E-02 0.  1.
        1   -1    0    0  501    0  0.00000000000E+00  0.00000000000E+00 -0.19476415658E+04  0.19476415658E+04  0.50400001928E-02 0. -1.
    10030    2    1    2    0    0  0.00000000000E+00  0.00000000000E+00 -0.95958263924E+03  0.29357004923E+04  0.27744438252E+04 0.  0.
        5    1    3    3  502    0  0.15477138075E+03 -0.12942813697E+04 -0.98197491558E+03  0.16319973251E+04  0.46999998093E+01 0. -1.
       -5    1    3    3    0  502 -0.15477138075E+03  0.12942813697E+04  0.22392276339E+02  0.13037031672E+04  0.46999998093E+01 0.  1.
</event>
<event>
 5   0  0.9647945E-06  0.2873631E+04  0.7818609E-02  0.8280766E-01
       -2   -1    0    0    0  501  0.00000000000E+00  0.00000000000E+00  0.17181078146E+04  0.17181078146E+04  0.25500000920E-02 0. -1.
        2   -1    0    0  501    0  0.00000000000E+00  0.00000000000E+00 -0.12015773190E+04  0.12015773190E+04  0.25500000920E-02 0.  1.
    10030    2    1    2    0    0  0.00000000000E+00  0.00000000000E+00  0.51653049556E+03  0.29196851336E+04  0.28736314180E+04 0.  0.
        2    1    3    3  502    0 -0.19164890944E+03 -0.17452806941E+03 -0.11776247606E+04  0.12058148399E+04  0.25500000920E-02 0.  1.
       -2    1    3    3    0  502  0.19164890944E+03  0.17452806941E+03  0.16941552561E+04  0.17138702936E+04  0.25500000920E-02 0. -1.
</event>
<event>
 5   0  0.1057036E-05  0.2958211E+04  0.7818609E-02  0.8255766E-01
       -2   -1    0    0    0  501  0.00000000000E+00  0.00000000000E+00  0.10866312070E+04  0.10866312070E+04  0.25500000920E-02 0.  1.
        2   -1    0    0  501    0  0.00000000000E+00  0.00000000000E+00 -0.20133357435E+04  0.20133357435E+04  0.25500000920E-02 0. -1.
    10030    2    1    2    0    0  0.00000000000E+00  0.00000000000E+00 -0.92670453654E+03  0.30999669505E+04  0.29582112494E+04 0.  0.
        4    1    3    3  502    0  0.83487550400E+03 -0.42469741414E+03 -0.16629187601E+04  0.19085820434E+04  0.12699999809E+01 0. -1.
       -4    1    3    3    0  502 -0.83487550400E+03  0.42469741414E+03  0.73621422360E+03  0.11913849070E+04  0.12699999809E+01 0.  1.
</event>
<event>
 5   0  0.1089569E-05  0.3022381E+04  0.7818609E-02  0.8237369E-01
       -2   -1    0    0    0  501  0.00000000000E+00  0.00000000000E+00  0.10632432050E+04  0.10632432050E+04  0.25500000920E-02 0. -1.
        2   -1    0    0  501    0  0.00000000000E+00  0.00000000000E+00 -0.21478586118E+04  0.21478586118E+04  0.25500000920E-02 0.  1.
    10030    2    1    2    0    0  0.00000000000E+00  0.00000000000E+00 -0.10846154068E+04  0.32111018168E+04  0.30223805679E+04 0.  0.
        5    1    3    3  502    0 -0.38101284143E+03 -0.75111212706E+03 -0.18753788663E+04  0.20558229970E+04  0.46999998093E+01 0.  1.
       -5    1    3    3    0  502  0.38101284143E+03  0.75111212706E+03  0.79076345945E+03  0.11552788198E+04  0.46999998093E+01 0. -1.
</event>
<event>
 5   0  0.3725232E-06  0.2953628E+04  0.7818609E-02  0.8257098E-01
       -1   -1    0    0    0  501  0.00000000000E+00  0.00000000000E+00  0.20306548417E+04  0.20306548417E+04  0.50400001928E-02 0.  1.
        1   -1    0    0  501    0  0.00000000000E+00  0.00000000000E+00 -0.10740277799E+04  0.10740277799E+04  0.50400001928E-02 0. -1.
    10030    2    1    2    0    0  0.00000000000E+00  0.00000000000E+00  0.95662706180E+03  0.31046826215E+04  0.29536280817E+04 0.  0.
        2    1    3    3  502    0 -0.22687316109E+03  0.14145079043E+04  0.10125426358E+03  0.14361603213E+04  0.25500000920E-02 0. -1.
       -2    1    3    3    0  502  0.22687316109E+03 -0.14145079043E+04  0.85537279823E+03  0.16685223003E+04  0.25500000920E-02 0.  1.
</event>
<event>
 5   0  0.3636718E-06  0.1953431E+04  0.7818609E-02  0.8628708E-01
       -1   -1    0    0    0  501  0.00000000000E+00  0.00000000000E+00  0.87215595589E+03  0.87215595590E+03  0.50400001928E-02 0.  1.
        1   -1    0    0  501    0  0.00000000000E+00  0.00000000000E+00 -0.10938097667E+04  0.10938097667E+04  0.50400001928E-02 0. -1.
    10030    2    1    2    0    0  0.00000000000E+00  0.00000000000E+00 -0.22165381082E+03  0.19659657226E+04  0.19534305236E+04 0.  0.
        4    1    3    3  502    0  0.13655625737E+03  0.94968501304E+03  0.73162680922E+02  0.96223886130E+03  0.12699999809E+01 0. -1.
       -4    1    3    3    0  502 -0.13655625737E+03 -0.94968501304E+03 -0.29481649174E+03  0.10037268613E+04  0.12699999809E+01 0.  1.
</event>
<event>
 5   0  0.3852126E-06  0.3047925E+04  0.7818609E-02  0.8230176E-01
        1   -1    0    0  501    0  0.00000000000E+00  0.00000000000E+00  0.15259627673E+04  0.15259627673E+04  0.50400001928E-02 0. -1.
       -1   -1    0    0    0  501  0.00000000000E+00  0.00000000000E+00 -0.15219652142E+04  0.15219652142E+04  0.50400001928E-02 0.  1.
    10030    2    1    2    0    0  0.00000000000E+00  0.00000000000E+00  0.39975530858E+01  0.30479279815E+04  0.30479253600E+04 0.  0.
        1    1    3    3  502    0 -0.10455787634E+04 -0.54751970823E+03  0.96607920235E+03  0.15252284441E+04  0.50400001928E-02 0. -1.
       -1    1    3    3    0  502  0.10455787634E+04  0.54751970823E+03 -0.96208164926E+03  0.15226995374E+04  0.50400001928E-02 0.  1.
</event>
<event>
 5   0  0.1028450E-05  0.2985908E+04  0.7818609E-02  0.8247767E-01
        2   -1    0    0  501    0  0.00000000000E+00  0.00000000000E+00  0.12545129718E+04  0.12545129718E+04  0.25500000920E-02 0. -1.
       -2   -1    0    0    0  501  0.00000000000E+00  0.00000000000E+00 -0.17767143205E+04  0.17767143205E+04  0.25500000920E-02 0.  1.
    10030    2    1    2    0    0  0.00000000000E+00  0.00000000000E+00 -0.52220134874E+03  0.30312272924E+04  0.29859076759E+04 0.  0.
        3    1    3    3  502    0  0.10447416205E+04  0.95263980192E+03 -0.74786072181E+03  0.15994696981E+04  0.10100000352E+00 0.  1.
       -3    1    3    3    0  502 -0.10447416205E+04 -0.95263980192E+03  0.22565937308E+03  0.14317575942E+04  0.10100000352E+00 0. -1.
</event>
<event>
 5   0  0.1029922E-05  0.2985932E+04  0.7818609E-02  0.8247760E-01
       -2   -1    0    0    0  501  0.00000000000E+00  0.00000000000E+00  0.12209196642E+04  0.12209196642E+04  0.25500000920E-02 0. -1.
        2   -1    0    0  501    0  0.00000000000E+00  0.00000000000E+00 -0.18256297429E+04  0.18256297429E+04  0.25500000920E-02 0.  1.
    10030    2    1    2    0    0  0.00000000000E+00  0.00000000000E+00 -0.60471007870E+03  0.30465494072E+04  0.29859318497E+04 0.  0.
        1    1    3    3  502    0  0.83165729944E+03  0.12397821771E+04 -0.28676270122E+03  0.15201797779E+04  0.50400001928E-02 0. -1.
       -1    1    3    3    0  502 -0.83165729944E+03 -0.12397821771E+04 -0.31794737748E+03  0.15263696293E+04  0.50400001928E-02 0.  1.
</event>
<event>
 5   0  0.1089569E-05  0.2995811E+04  0.7818609E-02  0.8244928E-01
       -2   -1    0    0    0  501  0.00000000000E+00  0.00000000000E+00  0.10330510348E+04  0.10330510348E+04  0.25500000920E-02 0. -1.
        2   -1    0    0  501    0  0.00000000000E+00  0.00000000000E+00 -0.21719364690E+04  0.21719364690E+04  0.25500000920E-02 0.  1.
    10030    2    1    2    0    0  0.00000000000E+00  0.00000000000E+00 -0.11388854342E+04  0.32049875038E+04  0.29958112202E+04 0.  0.
        5    1    3    3  502    0  0.69226260215E+03  0.62133549986E+02 -0.19889695548E+04  0.21069195685E+04  0.46999998093E+01 0.  1.
       -5    1    3    3    0  502 -0.69226260215E+03 -0.62133549986E+02  0.85008412055E+03  0.10980679352E+04  0.46999998093E+01 0. -1.
</event>
<event>
 5   0  0.3592331E-06  0.1921122E+04  0.7818609E-02  0.8644414E-01
        1   -1    0    0  501    0  0.00000000000E+00  0.00000000000E+00  0.15804438563E+04  0.15804438563E+04  0.50400001928E-02 0.  1.
       -1   -1    0    0    0  501  0.00000000000E+00  0.00000000000E+00 -0.58380887914E+03  0.58380887916E+03  0.50400001928E-02 0. -1.
    10030    2    1    2    0    0  0.00000000000E+00  0.00000000000E+00  0.99663497712E+03  0.21642527354E+04  0.19211217102E+04 0.  0.
        3    1    3    3  502    0  0.76629842027E+03 -0.29634973482E+03 -0.62296741291E+02  0.82396439754E+03  0.10100000352E+00 0. -1.
       -3    1    3    3    0  502 -0.76629842027E+03  0.29634973482E+03  0.10589317184E+04  0.13402883379E+04  0.10100000352E+00 0.  1.
</event>
<event>
 5   0  0.9647945E-06  0.3112227E+04  0.7818609E-02  0.8212390E-01
        2   -1    0    0  501    0  0.00000000000E+00  0.00000000000E+00  0.16477299910E+04  0.16477299910E+04  0.25500000920E-02 0.  1.
       -2   -1    0    0    0  501  0.00000000000E+00  0.00000000000E+00 -0.14695909854E+04  0.14695909855E+04  0.25500000920E-02 0. -1.
    10030    2    1    2    0    0  0.00000000000E+00  0.00000000000E+00  0.17813900551E+03  0.31173209764E+04  0.31122269462E+04 0.  0.
        2    1    3    3  502    0  0.43447811504E+03 -0.13795003634E+04  0.66420150580E+03  0.15915263509E+04  0.25500000920E-02 0.  1.
       -2    1    3    3    0  502 -0.43447811504E+03  0.13795003634E+04 -0.48606250029E+03  0.15257946256E+04  0.25500000920E-02 0. -1.
</event>
<event>
 5   0  0.3852126E-06  0.2957714E+04  0.7818609E-02  0.8255910E-01
       -1   -1    0    0    0  501  0.00000000000E+00  0.00000000000E+00  0.14576812014E+04  0.14576812014E+04  0.50400001928E-02 0. -1.
        1   -1    0    0  501    0  0.00000000000E+00  0.00000000000E+00 -0.15003407039E+04  0.15003407039E+04  0.50400001928E-02 0.  1.
    10030    2    1    2    0    0  0.00000000000E+00  0.00000000000E+00 -0.42659502440E+02  0.29580219053E+04  0.29577142795E+04 0.  0.
        1    1    3    3  502    0  0.12921936019E+03  0.13874199043E+04  0.47408709633E+03  0.14718662333E+04  0.50400001928E-02 0.  1.
       -1    1    3    3    0  502 -0.12921936019E+03 -0.13874199043E+04 -0.51674659877E+03  0.14861556720E+04  0.50400001928E-02 0. -1.
</event>
<event>
 5   0  0.1028450E-05  0.2662407E+04  0.7818609E-02  0.8347307E-01
       -2   -1    0    0    0  501  0.00000000000E+00  0.00000000000E+00  0.11365102789E+04  0.11365102789E+04  0.25500000920E-02 0.  1.
        2   -1    0    0  501    0  0.00000000000E+00  0.00000000000E+00 -0.15592491239E+04  0.15592491239E+04  0.25500000920E-02 0. -1.
    10030    2    1    2    0    0  0.00000000000E+00  0.00000000000E+00 -0.42273884493E+03  0.26957594028E+04  0.26624069236E+04 0.  0.
        3    1    3    3  502    0 -0.24309272166E+03  0.65761304143E+02 -0.15349109564E+04  0.15554325040E+04  0.10100000352E+00 0. -1.
       -3    1    3    3    0  502  0.24309272166E+03 -0.65761304143E+02  0.11121721114E+04  0.11403268988E+04  0.10100000352E+00 0.  1.
</event>
<event>
 5   0  0.9647945E-06  0.2994302E+04  0.7818609E-02  0.8245360E-01
       -2   -1    0    0    0  501  0.00000000000E+00  0.00000000000E+00  0.19591735008E+04  0.19591735008E+04  0.25500000920E-02 0. -1.
        2   -1    0    0  501    0  0.00000000000E+00  0.00000000000E+00 -0.11440851444E+04  0.11440851444E+04  0.25500000920E-02 0.  1.
    10030    2    1    2    0    0  0.00000000000E+00  0.00000000000E+00  0.81508835634E+03  0.31032586452E+04  0.29943021207E+04 0.  0.
        2    1    3    3  502    0 -0.31332606921E+03 -0.52167156939E+03  0.18252179086E+04  0.19239893102E+04  0.25500000920E-02 0. -1.
       -2    1    3    3    0  502  0.31332606921E+03  0.52167156939E+03 -0.10101295523E+04  0.11792693350E+04  0.25500000920E-02 0.  1.
</event>
<event>
 5   0  0.3592331E-06  0.3005702E+04  0.7818609E-02  0.8242104E-01
       -1   -1    0    0    0  501  0.00000000000E+00  0.00000000000E+00  0.14247871099E+04  0.14247871099E+04  0.50400001928E-02 0.  1.
        1   -1    0    0  501    0  0.00000000000E+00  0.00000000000E+00 -0.15851924042E+04  0.15851924042E+04  0.50400001928E-02 0. -1.
    10030    2    1    2    0    0  0.00000000000E+00  0.00000000000E+00 -0.16040529436E+03  0.30099795141E+04  0.30057023833E+04 0.  0.
        3    1    3    3  502    0  0.49550860096E+03 -0.12696327285E+04  0.55399598446E+03  0.14711925775E+04  0.10100000352E+00 0.  1.
       -3    1    3    3    0  502 -0.49550860096E+03  0.12696327285E+04 -0.71440127882E+03  0.15387869366E+04  0.10100000352E+00 0. -1.
</event>
<event>
 5   0  0.1089569E-05  0.3024639E+04  0.7818609E-02  0.8236730E-01
        2   -1    0    0  501    0  0.00000000000E+00  0.00000000000E+00  0.16702775102E+04  0.16702775102E+04  0.25500000920E-02 0. -1.
       -2   -1    0    0    0  501  0.00000000000E+00  0.00000000000E+00 -0.13692997700E+04  0.13692997700E+04  0.25500000920E-02 0.  1.
    10030    2    1    2    0    0  0.00000000000E+00  0.00000000000E+00  0.30097774020E+03  0.30395772802E+04  0.30246392251E+04 0.  0.
        5    1    3    3  502    0  0.33983309356E+03 -0.83817237155E+03  0.13685265305E+04  0.16403982475E+04  0.46999998093E+01 0. -1.
       -5    1    3    3    0  502 -0.33983309356E+03  0.83817237155E+03 -0.10675487903E+04  0.13991790327E+04  0.46999998093E+01 0.  1.
</event>
<event>
 5   0  0.9647945E-06  0.3038471E+04  0.7818609E-02  0.8232830E-01
       -2   -1    0    0    0  501  0.00000000000E+00  0.00000000000E+00  0.28378300137E+04  0.28378300137E+04  0.25500000920E-02 0.  1.
        2   -1    0    0  501    0  0.00000000000E+00  0.00000000000E+00 -0.81332468544E+03  0.81332468544E+03  0.25500000920E-02 0. -1.
    10030    2    1    2    0    0  0.00000000000E+00  0.00000000000E+00  0.20245053283E+04  0.36511546992E+04  0.30384714600E+04 0.  0.
        2    1    3    3  502    0 -0.19191173439E+03  0.25958144678E+03 -0.77163508794E+03  0.83644088270E+03  0.25500000920E-02 0. -1.
       -2    1    3    3    0  502  0.19191173439E+03 -0.25958144678E+03  0.27961404162E+04  0.28147138165E+04  0.25500000920E-02 0.  1.
</event>
<event>
 5   0  0.3725232E-06  0.3040730E+04  0.7818609E-02  0.8232195E-01
        1   -1    0    0  501    0  0.00000000000E+00  0.00000000000E+00  0.17630244294E+04  0.17630244294E+04  0.50400001928E-02 0.  1.
       -1   -1    0    0    0  501  0.00000000000E+00  0.00000000000E+00 -0.13111048244E+04  0.13111048244E+04  0.50400001928E-02 0. -1.
    10030    2    1    2    0    0  0.00000000000E+00  0.00000000000E+00  0.45191960502E+03  0.30741292538E+04  0.30407300669E+04 0.  0.
        2    1    3    3  502    0  0.57201886378E+02 -0.25972757087E+03  0.17393252141E+04  0.17595404705E+04  0.25500000920E-02 0.  1.
       -2    1    3    3    0  502 -0.57201886378E+02  0.25972757087E+03 -0.12874056091E+04  0.13145887833E+04  0.25500000920E-02 0. -1.
</event>
<event>
 5   0  0.3852126E-06  0.2986226E+04  0.7818609E-02  0.8247675E-01
        1   -1    0    0  501    0  0.00000000000E+00  0.00000000000E+00  0.11860847805E+04  0.11860847805E+04  0.50400001928E-02 0. -1.
       -1   -1    0    0    0  501  0.00000000000E+00  0.00000000000E+00 -0.18796179742E+04  0.18796179742E+04  0.50400001928E-02 0.  1.
    10030    2    1    2    0    0  0.00000000000E+00  0.00000000000E+00 -0.69353319372E+03  0.30657027547E+04  0.29862258939E+04 0.  0.
        1    1    3    3  502    0  0.12430330797E+04  0.73105861073E+03 -0.74411858191E+03  0.16227416287E+04  0.50400001928E-02 0.  1.
       -1    1    3    3    0  502 -0.12430330797E+04 -0.73105861073E+03  0.50585388195E+02  0.14429611260E+04  0.50400001928E-02 0. -1.
</event>
<event>
 5   0  0.1057036E-05  0.3004811E+04  0.7818609E-02  0.8242358E-01
       -2   -1    0    0    0  501  0.00000000000E+00  0.00000000000E+00  0.31290246302E+04  0.31290246302E+04  0.25500000920E-02 0.  1.
        2   -1    0    0  501    0  0.00000000000E+00  0.00000000000E+00 -0.72138228824E+03  0.72138228825E+03  0.25500000920E-02 0. -1.
    10030    2    1    2    0    0  0.00000000000E+00  0.00000000000E+00  0.24076423419E+04  0.38504069184E+04  0.30048114401E+04 0.  0.
        4    1    3    3  502    0  0.20863054821E+03 -0.13587612969E+04  0.42704509864E+03  0.14394888318E+04  0.12699999809E+01 0. -1.
       -4    1    3    3    0  502 -0.20863054821E+03  0.13587612969E+04  0.19805972433E+04  0.24109180867E+04  0.12699999809E+01 0.  1.
</event>
<event>
 5   0  0.1028450E-05  0.2939157E+04  0.7818609E-02  0.8261322E-01
        2   -1    0    0  501    0  0.00000000000E+00  0.00000000000E+00  0.12656272560E+04  0.12656272560E+04  0.25500000920E-02 0. -1.
       -2   -1    0    0    0  501  0.00000000000E+00  0.00000000000E+00 -0.17063955205E+04  0.17063955205E+04  0.25500000920E-02 0.  1.
    10030    2    1    2    0    0  0.00000000000E+00  0.00000000000E+00 -0.44076826448E+03  0.29720227765E+04  0.29391568044E+04 0.  0.
        3    1    3    3  502    0  0.62079007344E+03 -0.77459654059E+03  0.87537553673E+03  0.13235038559E+04  0.10100000352E+00 0. -1.
       -3    1    3    3    0  502 -0.62079007344E+03  0.77459654059E+03 -0.13161438012E+04  0.16485189206E+04  0.10100000352E+00 0.  1.
</event>
<event>
 5   0  0.3725232E-06  0.3039555E+04  0.7818609E-02  0.8232525E-01
        1   -1    0    0  501    0  0.00000000000E+00  0.00000000000E+00  0.10736218996E+04  0.10736218996E+04  0.50400001928E-02 0. -1.
       -1   -1    0    0    0  501  0.00000000000E+00  0.00000000000E+00 -0.21513374425E+04  0.21513374425E+04  0.50400001928E-02 0.  1.
    10030    2    1    2    0    0  0.00000000000E+00  0.00000000000E+00 -0.10777155429E+04  0.32249593421E+04  0.30395545672E+04 0.  0.
        2    1    3    3  502    0 -0.47272409545E+03  0.43982642852E+03  0.92085544026E+03  0.11246733301E+04  0.25500000920E-02 0. -1.
       -2    1    3    3    0  502  0.47272409545E+03 -0.43982642852E+03 -0.19985709831E+04  0.21002860120E+04  0.25500000920E-02 0.  1.
</event>
<event>
 5   0  0.1028450E-05  0.2898578E+04  0.7818609E-02  0.8273301E-01
       -2   -1    0    0    0  501  0.00000000000E+00  0.00000000000E+00  0.15409749156E+04  0.15409749156E+04  0.25500000920E-02 0.  1.
        2   -1    0    0  501    0  0.00000000000E+00  0.00000000000E+00 -0.13630585149E+04  0.13630585149E+04  0.25500000920E-02 0. -1.
    10030    2    1    2    0    0  0.00000000000E+00  0.00000000000E+00  0.17791640065E+03  0.29040334305E+04  0.28985782584E+04 0.  0.
        3    1    3    3  502    0  0.95555443645E+03  0.33078306130E+03  0.11291497522E+04  0.15157443346E+04  0.10100000352E+00 0.  1.
       -3    1    3    3    0  502 -0.95555443645E+03 -0.33078306130E+03 -0.95123335154E+03  0.13882890960E+04  0.10100000352E+00 0. -1.
</event>
<event>
 5   0  0.3592331E-06  0.2998020E+04  0.7818609E-02  0.8244297E-01
       -1   -1    0    0    0  501  0.00000000000E+00  0.00000000000E+00  0.14122514593E+04  0.14122514593E+04  0.50400001928E-02 0.  1.
        1   -1    0    0  501    0  0.00000000000E+00  0.00000000000E+00 -0.15910983895E+04  0.15910983896E+04  0.50400001928E-02 0. -1.
    10030    2    1    2    0    0  0.00000000000E+00  0.00000000000E+00 -0.17884693021E+03  0.30033498489E+04  0.29980200284E+04 0.  0.
        3    1    3    3  502    0  0.44191721447E+03 -0.11943804298E+04  0.70267531244E+03  0.14545061156E+04  0.10100000352E+00 0.  1.
       -3    1    3    3    0  502 -0.44191721447E+03  0.11943804298E+04 -0.88152224265E+03  0.15488437332E+04  0.10100000352E+00 0. -1.
</event>
<event>
 5   0  0.3592331E-06  0.2980102E+04  0.7818609E-02  0.8249436E-01
        1   -1    0    0  501    0  0.00000000000E+00  0.00000000000E+00  0.14518619600E+04  0.14518619600E+04  0.50400001928E-02 0.  1.
       -1   -1    0    0    0  501  0.00000000000E+00  0.00000000000E+00 -0.15292442457E+04  0.15292442457E+04  0.50400001928E-02 0. -1.
    10030    2    1    2    0    0  0.00000000000E+00  0.00000000000E+00 -0.77382285732E+02  0.29811062057E+04  0.29801017082E+04 0.  0.
        3    1    3    3  502    0  0.68480255492E+03  0.11800192959E+04 -0.63793517940E+03  0.15061080244E+04  0.10100000352E+00 0.  1.
       -3    1    3    3    0  502 -0.68480255492E+03 -0.11800192959E+04  0.56055289367E+03  0.14749981813E+04  0.10100000352E+00 0. -1.
</event>
<event>
 5   0  0.1057036E-05  0.3008132E+04  0.7818609E-02  0.8241413E-01
       -2   -1    0    0    0  501  0.00000000000E+00  0.00000000000E+00  0.11532953883E+04  0.11532953883E+04  0.25500000920E-02 0.  1.
        2   -1    0    0  501    0  0.00000000000E+00  0.00000000000E+00 -0.19615218936E+04  0.19615218936E+04  0.25500000920E-02 0. -1.
    10030    2    1    2    0    0  0.00000000000E+00  0.00000000000E+00 -0.80822650529E+03  0.31148172818E+04  0.30081317483E+04 0.  0.
        4    1    3    3  502    0 -0.60138560755E+03  0.38095497168E+03 -0.17760256858E+04  0.19133897117E+04  0.12699999809E+01 0. -1.
       -4    1    3    3    0  502  0.60138560755E+03 -0.38095497168E+03  0.96779918054E+03  0.12014275701E+04  0.12699999809E+01 0.  1.
</event>
<event>
 5   0  0.3896630E-06  0.2986511E+04  0.7818609E-02  0.8247593E-01
       -1   -1    0    0    0  501  0.00000000000E+00  0.00000000000E+00  0.16678998740E+04  0.16678998740E+04  0.50400001928E-02 0. -1.
        1   -1    0    0  501    0  0.00000000000E+00  0.00000000000E+00 -0.13368983823E+04  0.13368983823E+04  0.50400001928E-02 0.  1.
    10030    2    1    2    0    0  0.00000000000E+00  0.00000000000E+00  0.33100149170E+03  0.30047982562E+04  0.29865114387E+04 0.  0.
        5    1    3    3  502    0 -0.69760652819E+03 -0.64968329981E+03 -0.99090520839E+03  0.13750121746E+04  0.46999998093E+01 0.  1.
       -5    1    3    3    0  502  0.69760652819E+03  0.64968329981E+03  0.13219067001E+04  0.16297860817E+04  0.46999998093E+01 0. -1.
</event>
<event>
 5   0  0.3896630E-06  0.2356703E+04  0.7818609E-02  0.8455893E-01
        1   -1    0    0  501    0  0.00000000000E+00  0.00000000000E+00  0.17952035438E+04  0.17952035438E+04  0.50400001928E-02 0. -1.
       -1   -1    0    0    0  501  0.00000000000E+00  0.00000000000E+00 -0.77345675477E+03  0.77345675478E+03  0.50400001928E-02 0.  1.
    10030    2    1    2    0    0  0.00000000000E+00  0.00000000000E+00  0.10217467890E+04  0.25686602986E+04  0.23567030421E+04 0.  0.
        5    1    3    3  502    0 -0.89298619641E+02 -0.24092928801E+03  0.17642874765E+04  0.17829059300E+04  0.46999998093E+01 0. -1.
       -5    1    3    3    0  502  0.89298619641E+02  0.24092928801E+03 -0.74254068747E+03  0.78575436864E+03  0.46999998093E+01 0.  1.
</event>
<event>
 5   0  0.3592331E-06  0.2999958E+04  0.7818609E-02  0.8243743E-01
        1   -1    0    0  501    0  0.00000000000E+00  0.00000000000E+00  0.22433808506E+04  0.22433808506E+04  0.50400001928E-02 0. -1.
       -1   -1    0    0    0  501  0.00000000000E+00  0.00000000000E+00 -0.10029225604E+04  0.10029225604E+04  0.50400001928E-02 0.  1.
    10030    2    1    2    0    0  0.00000000000E+00  0.00000000000E+00  0.12404582902E+04  0.32463034110E+04  0.29999581774E+04 0.  0.
        3    1    3    3  502    0 -0.11855960715E+04 -0.74968567045E+03  0.11951482444E+04  0.18428363969E+04  0.10100000352E+00 0. -1.
       -3    1    3    3    0  502  0.11855960715E+04  0.74968567045E+03  0.45310045756E+02  0.14034670141E+04  0.10100000352E+00 0.  1.
</event>
<event>
 5   0  0.1029922E-05  0.2962609E+04  0.7818609E-02  0.8254489E-01
        2   -1    0    0  501    0  0.00000000000E+00  0.00000000000E+00  0.12337334186E+04  0.12337334186E+04  0.25500000920E-02 0.  1.
       -2   -1    0    0    0  501  0.00000000000E+00  0.00000000000E+00 -0.17785548783E+04  0.17785548783E+04  0.25500000920E-02 0. -1.
    10030    2    1    2    0    0  0.00000000000E+00  0.00000000000E+00 -0.54482145963E+03  0.30122882969E+04  0.29626087087E+04 0.  0.
        1    1    3    3  502    0  0.17827250720E+03  0.35937840687E+03  0.11774491452E+04  0.12439133473E+04  0.50400001928E-02 0.  1.
       -1    1    3    3    0  502 -0.17827250720E+03 -0.35937840687E+03 -0.17222706048E+04  0.17683749496E+04  0.50400001928E-02 0. -1.
</event>
<event>
 5   0  0.3725232E-06  0.2992816E+04  0.7818609E-02  0.8245785E-01
       -1   -1    0    0    0  501  0.00000000000E+00  0.00000000000E+00  0.16363920389E+04  0.16363920389E+04  0.50400001928E-02 0. -1.
        1   -1    0    0  501    0  0.00000000000E+00  0.00000000000E+00 -0.13683989078E+04  0.13683989078E+04  0.50400001928E-02 0.  1.
    10030    2    1    2    0    0  0.00000000000E+00  0.00000000000E+00  0.26799313107E+03  0.30047909467E+04  0.29928161178E+04 0.  0.
        2    1    3    3  502    0  0.82187431775E+03 -0.82404093476E+03  0.10783536079E+04  0.15866213663E+04  0.25500000920E-02 0. -1.
       -2    1    3    3    0  502 -0.82187431775E+03  0.82404093476E+03 -0.81036047682E+03  0.14181695804E+04  0.25500000920E-02 0.  1.
</event>
<event>
 5   0  0.3592331E-06  0.2362661E+04  0.7818609E-02  0.8453616E-01
        1   -1    0    0  501    0  0.00000000000E+00  0.00000000000E+00  0.99183588540E+03  0.99183588541E+03  0.50400001928E-02 0.  1.
       -1   -1    0    0    0  501  0.00000000000E+00  0.00000000000E+00 -0.14070290622E+04  0.14070290622E+04  0.50400001928E-02 0. -1.
    10030    2    1    2    0    0  0.00000000000E+00  0.00000000000E+00 -0.41519317683E+03  0.23988649476E+04  0.23626611401E+04 0.  0.
        3    1    3    3  502    0 -0.17738726027E+03 -0.47313020619E+02 -0.13924563418E+04  0.14045068302E+04  0.10100000352E+00 0. -1.
       -3    1    3    3    0  502  0.17738726027E+03  0.47313020619E+02  0.97726316495E+03  0.99435811748E+03  0.10100000352E+00 0.  1.
</event>
<event>
 5   0  0.3725232E-06  0.2350623E+04  0.7818609E-02  0.8458224E-01
        1   -1    0    0  501    0  0.00000000000E+00  0.00000000000E+00  0.14729532247E+04  0.14729532247E+04  0.50400001928E-02 0.  1.
       -1   -1    0    0    0  501  0.00000000000E+00  0.00000000000E+00 -0.93781442912E+03  0.93781442913E+03  0.50400001928E-02 0. -1.
    10030    2    1    2    0    0  0.00000000000E+00  0.00000000000E+00  0.53513879561E+03  0.24107676539E+04  0.23506227155E+04 0.  0.
        2    1    3    3  502    0  0.79683621932E+03  0.40591027659E+03  0.10497403412E+04  0.13790090272E+04  0.25500000920E-02 0.  1.
       -2    1    3    3    0  502 -0.79683621932E+03 -0.40591027659E+03 -0.51460154559E+03  0.10317586267E+04  0.25500000920E-02 0. -1.
</event>
<event>
 5   0  0.3592331E-06  0.2952916E+04  0.7818609E-02  0.8257305E-01
        1   -1    0    0  501    0  0.00000000000E+00  0.00000000000E+00  0.19290492460E+04  0.19290492460E+04  0.50400001928E-02 0. -1.
       -1   -1    0    0    0  501  0.00000000000E+00  0.00000000000E+00 -0.11300534573E+04  0.11300534573E+04  0.50400001928E-02 0.  1.
    10030    2    1    2    0    0  0.00000000000E+00  0.00000000000E+00  0.79899578873E+03  0.30591027033E+04  0.29529163684E+04 0.  0.
        3    1    3    3  502    0 -0.30707246670E+03  0.13918262524E+04  0.79865166996E+03  0.16338048589E+04  0.10100000352E+00 0. -1.
       -3    1    3    3    0  502  0.30707246670E+03 -0.13918262524E+04  0.34411877490E+00  0.14252978444E+04  0.10100000352E+00 0.  1.
</event>
<event>
 5   0  0.1089569E-05  0.3010437E+04  0.7818609E-02  0.8240757E-01
       -2   -1    0    0    0  501  0.00000000000E+00  0.00000000000E+00  0.89081953822E+03  0.89081953823E+03  0.25500000920E-02 0.  1.
        2   -1    0    0  501    0  0.00000000000E+00  0.00000000000E+00 -0.25433691609E+04  0.25433691609E+04  0.25500000920E-02 0. -1.
    10030    2    1    2    0    0  0.00000000000E+00  0.00000000000E+00 -0.16525496227E+04  0.34341886992E+04  0.30104371387E+04 0.  0.
        5    1    3    3  502    0 -0.70331540039E+02 -0.34239087225E+03  0.84387179272E+03  0.91341103972E+03  0.46999998093E+01 0.  1.
       -5    1    3    3    0  502  0.70331540039E+02  0.34239087225E+03 -0.24964214154E+04  0.25207776595E+04  0.46999998093E+01 0. -1.
</event>
<event>
 5   0  0.1029922E-05  0.2735122E+04  0.7818609E-02  0.8323698E-01
        2   -1    0    0  501    0  0.00000000000E+00  0.00000000000E+00  0.23313889362E+04  0.23313889362E+04  0.25500000920E-02 0. -1.
       -2   -1    0    0    0  501  0.00000000000E+00  0.00000000000E+00 -0.80219248165E+03  0.80219248166E+03  0.25500000920E-02 0.  1.
    10030    2    1    2    0    0  0.00000000000E+00  0.00000000000E+00  0.15291964545E+04  0.31335814178E+04  0.27351216985E+04 0.  0.
        1    1    3    3  502    0  0.16146738108E+03  0.19309834596E+03  0.23046207046E+04  0.23183259647E+04  0.50400001928E-02 0. -1.
       -1    1    3    3    0  502 -0.16146738108E+03 -0.19309834596E+03 -0.77542425005E+03  0.81525545319E+03  0.50400001928E-02 0.  1.
</event>
<event>
 5   0  0.3852126E-06  0.2980351E+04  0.7818609E-02  0.8249364E-01
        1   -1    0    0  501    0  0.00000000000E+00  0.00000000000E+00  0.14447988151E+04  0.14447988151E+04  0.50400001928E-02 0.  1.
       -1   -1    0    0    0  501  0.00000000000E+00  0.00000000000E+00 -0.15369774146E+04  0.15369774146E+04  0.50400001928E-02 0. -1.
    10030    2    1    2    0    0  0.00000000000E+00  0.00000000000E+00 -0.92178599583E+02  0.29817762297E+04  0.29803510850E+04 0.  0.
        1    1    3    3  502    0  0.51042533740E+03  0.79896623047E+03  0.11041308743E+04  0.14553302203E+04  0.50400001928E-02 0.  1.
       -1    1    3    3    0  502 -0.51042533740E+03 -0.79896623047E+03 -0.11963094738E+04  0.15264460094E+04  0.50400001928E-02 0. -1.
</event>
<event>
 5   0  0.9647945E-06  0.3038853E+04  0.7818609E-02  0.8232722E-01
       -2   -1    0    0    0  501  0.00000000000E+00  0.00000000000E+00  0.13112224619E+04  0.13112224619E+04  0.25500000920E-02 0. -1.
        2   -1    0    0  501    0  0.00000000000E+00  0.00000000000E+00 -0.17606902111E+04  0.17606902111E+04  0.25500000920E-02 0.  1.
    10030    2    1    2    0    0  0.00000000000E+00  0.00000000000E+00 -0.44946774912E+03  0.30719126730E+04  0.30388527791E+04 0.  0.
        2    1    3    3  502    0  0.41591712022E+03  0.37306355745E+03 -0.16530788455E+04  0.17449450245E+04  0.25500000920E-02 0.  1.
       -2    1    3    3    0  502 -0.41591712022E+03 -0.37306355745E+03  0.12036110964E+04  0.13269676485E+04  0.25500000920E-02 0. -1.
</event>
<event>
 5   0  0.1089569E-05  0.3399985E+04  0.7818609E-02  0.8137910E-01
       -2   -1    0    0    0  501  0.00000000000E+00  0.00000000000E+00  0.24287874394E+04  0.24287874394E+04  0.25500000920E-02 0.  1.
        2   -1    0    0  501    0  0.00000000000E+00  0.00000000000E+00 -0.11898835301E+04  0.11898835301E+04  0.25500000920E-02 0. -1.
    10030    2    1    2    0    0  0.00000000000E+00  0.00000000000E+00  0.12389039093E+04  0.36186709695E+04  0.33999848071E+04 0.  0.
        5    1    3    3  502    0 -0.16468812191E+04 -0.28721243405E+03  0.29098668865E+03  0.16968806897E+04  0.46999998093E+01 0.  1.
       -5    1    3    3    0  502  0.16468812191E+04  0.28721243405E+03  0.94791722070E+03  0.19217902798E+04  0.46999998093E+01 0. -1.
</event>
<event>
 5   0  0.3725232E-06  0.2991408E+04  0.7818609E-02  0.8246188E-01
       -1   -1    0    0    0  501  0.00000000000E+00  0.00000000000E+00  0.15392251512E+04  0.15392251512E+04  0.50400001928E-02 0.  1.
        1   -1    0    0  501    0  0.00000000000E+00  0.00000000000E+00 -0.14534138571E+04  0.14534138571E+04  0.50400001928E-02 0. -1.
    10030    2    1    2    0    0  0.00000000000E+00  0.00000000000E+00  0.85811294127E+02  0.29926390083E+04  0.29914084736E+04 0.  0.
        2    1    3    3  502    0  0.15844944942E+03  0.92017312501E+02  0.15279548105E+04  0.15389019841E+04  0.25500000920E-02 0.  1.
       -2    1    3    3    0  502 -0.15844944942E+03 -0.92017312501E+02 -0.14421435163E+04  0.14537370242E+04  0.25500000920E-02 0. -1.
</event>
<event>
 5   0  0.9647945E-06  0.2991477E+04  0.7818609E-02  0.8246169E-01
       -2   -1    0    0    0  501  0.00000000000E+00  0.00000000000E+00  0.20128677410E+04  0.20128677410E+04  0.25500000920E-02 0. -1.
        2   -1    0    0  501    0  0.00000000000E+00  0.00000000000E+00 -0.11114657226E+04  0.11114657226E+04  0.25500000920E-02 0.  1.
    10030    2    1    2    0    0  0.00000000000E+00  0.00000000000E+00  0.90140201837E+03  0.31243334637E+04  0.29914768917E+04 0.  0.
        2    1    3    3  502    0  0.11418240086E+04 -0.79995886098E+03 -0.11515162308E+03  0.13989124855E+04  0.25500000920E-02 0.  1.
       -2    1    3    3    0  502 -0.11418240086E+04  0.79995886098E+03  0.10165536415E+04  0.17254209781E+04  0.25500000920E-02 0. -1.
</event>
<event>
 5   0  0.1028450E-05  0.2434200E+04  0.7818609E-02  0.8426809E-01
        2   -1    0    0  501    0  0.00000000000E+00  0.00000000000E+00  0.14496579225E+04  0.14496579225E+04  0.25500000920E-02 0.  1.
       -2   -1    0    0    0  501  0.00000000000E+00  0.00000000000E+00 -0.10218499092E+04  0.10218499092E+04  0.25500000920E-02 0. -1.
    10030    2    1    2    0    0  0.00000000000E+00  0.00000000000E+00  0.42780801323E+03  0.24715078317E+04  0.24342003340E+04 0.  0.
        3    1    3    3  502    0  0.24701114166E+03  0.76698471006E+03  0.11400535250E+04  0.13960666530E+04  0.10100000352E+00 0.  1.
       -3    1    3    3    0  502 -0.24701114166E+03 -0.76698471006E+03 -0.71224551177E+03  0.10754411787E+04  0.10100000352E+00 0. -1.
</event>
<event>
 5   0  0.3313750E-06  0.2911884E+04  0.7818609E-02  0.8269350E-01
        3   -1    0    0  501    0  0.00000000000E+00  0.00000000000E+00  0.10896092630E+04  0.10896092677E+04  0.10100000352E+00 0.  1.
       -3   -1    0    0    0  501  0.00000000000E+00  0.00000000000E+00 -0.19454382434E+04  0.19454382460E+04  0.10100000352E+00 0. -1.
    10030    2    1    2    0    0  0.00000000000E+00  0.00000000000E+00 -0.85582898038E+03  0.30350475138E+04  0.29118842984E+04 0.  0.
        5    1    3    3  502    0 -0.70669088589E+03 -0.27542983306E+03  0.86741835658E+03  0.11522631195E+04  0.46999998093E+01 0.  1.
       -5    1    3    3    0  502  0.70669088589E+03  0.27542983306E+03 -0.17232473370E+04  0.18827843943E+04  0.46999998093E+01 0. -1.
</event>
<event>
 5   0  0.3896630E-06  0.2162677E+04  0.7818609E-02  0.8534125E-01
        1   -1    0    0  501    0  0.00000000000E+00  0.00000000000E+00  0.10252457543E+04  0.10252457544E+04  0.50400001928E-02 0. -1.
       -1   -1    0    0    0  501  0.00000000000E+00  0.00000000000E+00 -0.11405003050E+04  0.11405003050E+04  0.50400001928E-02 0.  1.
    10030    2    1    2    0    0  0.00000000000E+00  0.00000000000E+00 -0.11525455068E+03  0.21657460594E+04  0.21626771332E+04 0.  0.
        5    1    3    3  502    0 -0.67298506752E+03 -0.41928989774E+03  0.67864259512E+03  0.10436909415E+04  0.46999998093E+01 0. -1.
       -5    1    3    3    0  502  0.67298506752E+03  0.41928989774E+03 -0.79389714580E+03  0.11220551179E+04  0.46999998093E+01 0.  1.
</event>
<event>
 5   0  0.1029922E-05  0.3158407E+04  0.7818609E-02  0.8199889E-01
        2   -1    0    0  501    0  0.00000000000E+00  0.00000000000E+00  0.15612003287E+04  0.15612003287E+04  0.25500000920E-02 0. -1.
       -2   -1    0    0    0  501  0.00000000000E+00  0.00000000000E+00 -0.15974140672E+04  0.15974140672E+04  0.25500000920E-02 0.  1.
    10030    2    1    2    0    0  0.00000000000E+00  0.00000000000E+00 -0.36213738467E+02  0.31586143959E+04  0.31584067925E+04 0.  0.
        1    1    3    3  502    0 -0.62164226758E+03 -0.20202742436E+03 -0.14557788998E+04  0.15957902099E+04  0.50400001928E-02 0.  1.
       -1    1    3    3    0  502  0.62164226758E+03  0.20202742436E+03  0.14195651613E+04  0.15628241860E+04  0.50400001928E-02 0. -1.
</event>
<event>
 5   0  0.3636718E-06  0.2913459E+04  0.7818609E-02  0.8268884E-01
       -1   -1    0    0    0  501  0.00000000000E+00  0.00000000000E+00  0.15668931153E+04  0.15668931153E+04  0.50400001928E-02 0.  1.
        1   -1    0    0  501    0  0.00000000000E+00  0.00000000000E+00 -0.13543115902E+04  0.13543115902E+04  0.50400001928E-02 0. -1.
    10030    2    1    2    0    0  0.00000000000E+00  0.00000000000E+00  0.21258152504E+03  0.29212047055E+04  0.29134594603E+04 0.  0.
        4    1    3    3  502    0 -0.12756439953E+04  0.69059729777E+02  0.80816817181E+03  0.15116792834E+04  0.12699999809E+01 0.  1.
       -4    1    3    3    0  502  0.12756439953E+04 -0.69059729777E+02 -0.59558664677E+03  0.14095254221E+04  0.12699999809E+01 0. -1.
</event>
<event>
 5   0  0.3725232E-06  0.2955312E+04  0.7818609E-02  0.8256608E-01
       -1   -1    0    0    0  501  0.00000000000E+00  0.00000000000E+00  0.90428041048E+03  0.90428041049E+03  0.50400001928E-02 0.  1.
        1   -1    0    0  501    0  0.00000000000E+00  0.00000000000E+00 -0.24145909654E+04  0.24145909654E+04  0.50400001928E-02 0. -1.
    10030    2    1    2    0    0  0.00000000000E+00  0.00000000000E+00 -0.15103105549E+04  0.33188713759E+04  0.29553120372E+04 0.  0.
        2    1    3    3  502    0  0.13009035144E+04  0.67836732097E+03 -0.95267618612E+03  0.17493210373E+04  0.25500000920E-02 0. -1.
       -2    1    3    3    0  502 -0.13009035144E+04 -0.67836732097E+03 -0.55763436876E+03  0.15695503385E+04  0.25500000920E-02 0.  1.
</event>
<event>
 5   0  0.1057036E-05  0.2953456E+04  0.7818609E-02  0.8257148E-01
       -2   -1    0    0    0  501  0.00000000000E+00  0.00000000000E+00  0.16743122783E+04  0.16743122783E+04  0.25500000920E-02 0. -1.
        2   -1    0    0  501    0  0.00000000000E+00  0.00000000000E+00 -0.13024605311E+04  0.13024605311E+04  0.25500000920E-02 0.  1.
    10030    2    1    2    0    0  0.00000000000E+00  0.00000000000E+00  0.37185174719E+03  0.29767728093E+04  0.29534560495E+04 0.  0.
        4    1    3    3  502    0  0.88402223087E+03  0.74754153582E+03  0.11099022870E+04  0.16038074548E+04  0.12699999809E+01 0. -1.
       -4    1    3    3    0  502 -0.88402223087E+03 -0.74754153582E+03 -0.73805053983E+03  0.13729653545E+04  0.12699999809E+01 0.  1.
</event>
<event>
 5   0  0.9647945E-06  0.3056961E+04  0.7818609E-02  0.8227650E-01
       -2   -1    0    0    0  501  0.00000000000E+00  0.00000000000E+00  0.10051045599E+04  0.10051045600E+04  0.25500000920E-02 0.  1.
        2   -1    0    0  501    0  0.00000000000E+00  0.00000000000E+00 -0.23243872610E+04  0.23243872610E+04  0.25500000920E-02 0. -1.
    10030    2    1    2    0    0  0.00000000000E+00  0.00000000000E+00 -0.13192827010E+04  0.33294918209E+04  0.30569607358E+04 0.  0.
        2    1    3    3  502    0 -0.73679016237E+03 -0.73816719423E+03 -0.18766191568E+04  0.21469629735E+04  0.25500000920E-02 0. -1.
       -2    1    3    3    0  502  0.73679016237E+03  0.73816719423E+03  0.55733645578E+03  0.11825288474E+04  0.25500000920E-02 0.  1.
</event>
<event>
 5   0  0.1089569E-05  0.2988253E+04  0.7818609E-02  0.8247093E-01
        2   -1    0    0  501    0  0.00000000000E+00  0.00000000000E+00  0.14246616533E+04  0.14246616533E+04  0.25500000920E-02 0. -1.
       -2   -1    0    0    0  501  0.00000000000E+00  0.00000000000E+00 -0.15669785639E+04  0.15669785639E+04  0.25500000920E-02 0.  1.
    10030    2    1    2    0    0  0.00000000000E+00  0.00000000000E+00 -0.14231691063E+03  0.29916402172E+04  0.29882531831E+04 0.  0.
        5    1    3    3  502    0  0.48117296602E+03  0.74357845483E+03 -0.12758327141E+04  0.15531283096E+04  0.46999998093E+01 0.  1.
       -5    1    3    3    0  502 -0.48117296602E+03 -0.74357845483E+03  0.11335158035E+04  0.14385119076E+04  0.46999998093E+01 0. -1.
</event>
<event>
 5   0  0.3725232E-06  0.3018303E+04  0.7818609E-02  0.8238524E-01
        1   -1    0    0  501    0  0.00000000000E+00  0.00000000000E+00  0.18220750492E+04  0.18220750492E+04  0.50400001928E-02 0. -1.
       -1   -1    0    0    0  501  0.00000000000E+00  0.00000000000E+00 -0.12499696136E+04  0.12499696137E+04  0.50400001928E-02 0.  1.
    10030    2    1    2    0    0  0.00000000000E+00  0.00000000000E+00  0.57210543555E+03  0.30720446628E+04  0.30183031294E+04 0.  0.
        2    1    3    3  502    0 -0.84072564977E+03 -0.69897449335E+03  0.13448409422E+04  0.17331999655E+04  0.25500000920E-02 0. -1.
       -2    1    3    3    0  502  0.84072564977E+03  0.69897449335E+03 -0.77273550662E+03  0.13388446974E+04  0.25500000920E-02 0.  1.
</event>
<event>
 5   0  0.1057036E-05  0.2014315E+04  0.7818609E-02  0.8599957E-01
       -2   -1    0    0    0  501  0.00000000000E+00  0.00000000000E+00  0.21287695732E+04  0.21287695732E+04  0.25500000920E-02 0.  1.
        2   -1    0    0  501    0  0.00000000000E+00  0.00000000000E+00 -0.47650361092E+03  0.47650361092E+03  0.25500000920E-02 0. -1.
    10030    2    1    2    0    0  0.00000000000E+00  0.00000000000E+00  0.16522659623E+04  0.26052731841E+04  0.20143151575E+04 0.  0.
        4    1    3    3  502    0  0.58453739251E+03  0.78764416134E+03  0.53035471371E+03  0.11150538208E+04  0.12699999809E+01 0. -1.
       -4    1    3    3    0  502 -0.58453739251E+03 -0.78764416134E+03  0.11219112486E+04  0.14902193633E+04  0.12699999809E+01 0.  1.
</event>
<event>
 5   0  0.1028450E-05  0.3044726E+04  0.7818609E-02  0.8231073E-01
       -2   -1    0    0    0  501  0.00000000000E+00  0.00000000000E+00  0.19448872787E+04  0.19448872787E+04  0.25500000920E-02 0.  1.
        2   -1    0    0  501    0  0.00000000000E+00  0.00000000000E+00 -0.11916319292E+04  0.11916319292E+04  0.25500000920E-02 0. -1.
    10030    2    1    2    0    0  0.00000000000E+00  0.00000000000E+00  0.75325534946E+03  0.31365192080E+04  0.30447264443E+04 0.  0.
        3    1    3    3  502    0 -0.85989772181E+03  0.21248094191E+03 -0.89885108973E+03  0.12619451392E+04  0.10100000352E+00 0. -1.
       -3    1    3    3    0  502  0.85989772181E+03 -0.21248094191E+03  0.16521064392E+04  0.18745740688E+04  0.10100000352E+00 0.  1.
</event>
<event>
 5   0  0.3896630E-06  0.2966453E+04  0.7818609E-02  0.8253376E-01
       -1   -1    0    0    0  501  0.00000000000E+00  0.00000000000E+00  0.85492860975E+03  0.85492860977E+03  0.50400001928E-02 0. -1.
        1   -1    0    0  501    0  0.00000000000E+00  0.00000000000E+00 -0.25732688174E+04  0.25732688174E+04  0.50400001928E-02 0.  1.
    10030    2    1    2    0    0  0.00000000000E+00  0.00000000000E+00 -0.17183402077E+04  0.34281974272E+04  0.29664531904E+04 0.  0.
        5    1    3    3  502    0  0.14009822762E+04 -0.43478226683E+03 -0.60557791479E+03  0.15869888653E+04  0.46999998093E+01 0. -1.
       -5    1    3    3    0  502 -0.14009822762E+04  0.43478226683E+03 -0.11127622929E+04  0.18412085619E+04  0.46999998093E+01 0.  1.
</event>
<event>
 5   0  0.1028450E-05  0.3108733E+04  0.7818609E-02  0.8213345E-01
        2   -1    0    0  501    0  0.00000000000E+00  0.00000000000E+00  0.21855280754E+04  0.21855280754E+04  0.25500000920E-02 0.  1.
       -2   -1    0    0    0  501  0.00000000000E+00  0.00000000000E+00 -0.11054787511E+04  0.11054787511E+04  0.25500000920E-02 0. -1.
    10030    2    1    2    0    0  0.00000000000E+00  0.00000000000E+00  0.10800493243E+04  0.32910068265E+04  0.31087327626E+04 0.  0.
        3    1    3    3  502    0  0.99296347115E+03  0.13918455426E+03 -0.71734696491E+03  0.12328566313E+04  0.10100000352E+00 0. -1.
       -3    1    3    3    0  502 -0.99296347115E+03 -0.13918455426E+03  0.17973962892E+04  0.20581501952E+04  0.10100000352E+00 0.  1.
</event>
<event>
 5   0  0.3725232E-06  0.3028849E+04  0.7818609E-02  0.8235541E-01
        1   -1    0    0  501    0  0.00000000000E+00  0.00000000000E+00  0.93406540297E+03  0.93406540298E+03  0.50400001928E-02 0. -1.
       -1   -1    0    0    0  501  0.00000000000E+00  0.00000000000E+00 -0.24553758595E+04  0.24553758595E+04  0.50400001928E-02 0.  1.
    10030    2    1    2    0    0  0.00000000000E+00  0.00000000000E+00 -0.15213104565E+04  0.33894412624E+04  0.30288490498E+04 0.  0.
        2    1    3    3  502    0 -0.18050427702E+03 -0.40959922147E+03 -0.23796610479E+04  0.24213921655E+04  0.25500000920E-02 0.  1.
       -2    1    3    3    0  502  0.18050427702E+03  0.40959922147E+03  0.85835059143E+03  0.96804909693E+03  0.25500000920E-02 0. -1.
</event>
<event>
 5   0  0.3852126E-06  0.2974817E+04  0.7818609E-02  0.8250959E-01
       -1   -1    0    0    0  501  0.00000000000E+00  0.00000000000E+00  0.91994859597E+03  0.91994859599E+03  0.50400001928E-02 0. -1.
        1   -1    0    0  501    0  0.00000000000E+00  0.00000000000E+00 -0.24049002974E+04  0.24049002974E+04  0.50400001928E-02 0.  1.
    10030    2    1    2    0    0  0.00000000000E+00  0.00000000000E+00 -0.14849517014E+04  0.33248488934E+04  0.29748174076E+04 0.  0.
        1    1    3    3  502    0  0.12049273603E+03 -0.10727343993E+04  0.40121103804E+03  0.11516283637E+04  0.50400001928E-02 0. -1.
       -1    1    3    3    0  502 -0.12049273603E+03  0.10727343993E+04 -0.18861627395E+04  0.21732205297E+04  0.50400001928E-02 0.  1.
</event>
<event>
 5   0  0.1057036E-05  0.2974293E+04  0.7818609E-02  0.8251110E-01
       -2   -1    0    0    0  501  0.00000000000E+00  0.00000000000E+00  0.13719952931E+04  0.13719952931E+04  0.25500000920E-02 0. -1.
        2   -1    0    0  501    0  0.00000000000E+00  0.00000000000E+00 -0.16119625511E+04  0.16119625511E+04  0.25500000920E-02 0.  1.
    10030    2    1    2    0    0  0.00000000000E+00  0.00000000000E+00 -0.23996725800E+03  0.29839578442E+04  0.29742932153E+04 0.  0.
        4    1    3    3  502    0 -0.65468259107E+03 -0.14226397280E+03 -0.14519856728E+04  0.15990973516E+04  0.12699999809E+01 0.  1.
       -4    1    3    3    0  502  0.65468259107E+03  0.14226397280E+03  0.12120184148E+04  0.13848604925E+04  0.12699999809E+01 0. -1.
</event>
<event>
 5   0  0.1057036E-05  0.3016117E+04  0.7818609E-02  0.8239143E-01
        2   -1    0    0  501    0  0.00000000000E+00  0.00000000000E+00  0.13526187989E+04  0.13526187989E+04  0.25500000920E-02 0. -1.
       -2   -1    0    0    0  501  0.00000000000E+00  0.00000000000E+00 -0.16813613185E+04  0.16813613185E+04  0.25500000920E-02 0.  1.
    10030    2    1    2    0    0  0.00000000000E+00  0.00000000000E+00 -0.32874251961E+03  0.30339801173E+04  0.30161173233E+04 0.  0.
        4    1    3    3  502    0  0.78173508876E+03 -0.12779489416E+04 -0.33853262872E+03  0.15358610614E+04  0.12699999809E+01 0.  1.
       -4    1    3    3    0  502 -0.78173508876E+03  0.12779489416E+04  0.97901091173E+01  0.14981190559E+04  0.12699999809E+01 0. -1.
</event>
<event>
 5   0  0.1057036E-05  0.2308563E+04  0.7818609E-02  0.8474553E-01
       -2   -1    0    0    0  501  0.00000000000E+00  0.00000000000E+00  0.84200212138E+03  0.84200212138E+03  0.25500000920E-02 0. -1.
        2   -1    0    0  501    0  0.00000000000E+00  0.00000000000E+00 -0.15823775529E+04  0.15823775529E+04  0.25500000920E-02 0.  1.
    10030    2    1    2    0    0  0.00000000000E+00  0.00000000000E+00 -0.74037543152E+03  0.24243796743E+04  0.23085625453E+04 0.  0.
        4    1    3    3  502    0 -0.20612385276E+03 -0.10770730583E+04  0.81503039605E+01  0.10966501065E+04  0.12699999809E+01 0. -1.
       -4    1    3    3    0  502  0.20612385276E+03  0.10770730583E+04 -0.74852573548E+03  0.13277295678E+04  0.12699999809E+01 0.  1.
</event>
<event>
 5   0  0.3592331E-06  0.2076784E+04  0.7818609E-02  0.8571540E-01
       -1   -1    0    0    0  501  0.00000000000E+00  0.00000000000E+00  0.91192542737E+03  0.91192542738E+03  0.50400001928E-02 0.  1.
        1   -1    0    0  501    0  0.00000000000E+00  0.00000000000E+00 -0.11823967163E+04  0.11823967163E+04  0.50400001928E-02 0. -1.
    10030    2    1    2    0    0  0.00000000000E+00  0.00000000000E+00 -0.27047128892E+03  0.20943221437E+04  0.20767836968E+04 0.  0.
        3    1    3    3  502    0  0.37277926187E+03 -0.20824226221E+03  0.81929279241E+03  0.92388847148E+03  0.10100000352E+00 0.  1.
       -3    1    3    3    0  502 -0.37277926187E+03  0.20824226221E+03 -0.10897640813E+04  0.11704336722E+04  0.10100000352E+00 0. -1.
</event>
<event>
 5   0  0.1028450E-05  0.2938206E+04  0.7818609E-02  0.8261600E-01
        2   -1    0    0  501    0  0.00000000000E+00  0.00000000000E+00  0.12106399175E+04  0.12106399175E+04  0.25500000920E-02 0.  1.
       -2   -1    0    0    0  501  0.00000000000E+00  0.00000000000E+00 -0.17827465470E+04  0.17827465470E+04  0.25500000920E-02 0. -1.
    10030    2    1    2    0    0  0.00000000000E+00  0.00000000000E+00 -0.57210662945E+03  0.29933864645E+04  0.29382063458E+04 0.  0.
        3    1    3    3  502    0 -0.89490228185E+02 -0.56781587725E+03  0.10913136926E+04  0.12334459685E+04  0.10100000352E+00 0.  1.
       -3    1    3    3    0  502  0.89490228185E+02  0.56781587725E+03 -0.16634203220E+04  0.17599404960E+04  0.10100000352E+00 0. -1.
</event>
<event>
 5   0  0.1029922E-05  0.2984626E+04  0.7818609E-02  0.8248135E-01
       -2   -1    0    0    0  501  0.00000000000E+00  0.00000000000E+00  0.18317840045E+04  0.18317840045E+04  0.25500000920E-02 0.  1.
        2   -1    0    0  501    0  0.00000000000E+00  0.00000000000E+00 -0.12157532994E+04  0.12157532994E+04  0.25500000920E-02 0. -1.
    10030    2    1    2    0    0  0.00000000000E+00  0.00000000000E+00  0.61603070517E+03  0.30475373039E+04  0.29846255693E+04 0.  0.
        1    1    3    3  502    0  0.77820752506E+03  0.10627559901E+04  0.10241840455E+04  0.16685353475E+04  0.50400001928E-02 0.  1.
       -1    1    3    3    0  502 -0.77820752506E+03 -0.10627559901E+04 -0.40815334034E+03  0.13790019565E+04  0.50400001928E-02 0. -1.
</event>
<event>
 5   0  0.3725232E-06  0.3000874E+04  0.7818609E-02  0.8243481E-01
        1   -1    0    0  501    0  0.00000000000E+00  0.00000000000E+00  0.11209840931E+04  0.11209840931E+04  0.50400001928E-02 0.  1.
       -1   -1    0    0    0  501  0.00000000000E+00  0.00000000000E+00 -0.20083343735E+04  0.20083343735E+04  0.50400001928E-02 0. -1.
    10030    2    1    2    0    0  0.00000000000E+00  0.00000000000E+00 -0.88735028042E+03  0.31293184666E+04  0.30008737969E+04 0.  0.
        2    1    3    3  502    0 -0.45156332497E+02 -0.67372250535E+03 -0.18409408034E+04  0.19608682134E+04  0.25500000920E-02 0. -1.
       -2    1    3    3    0  502  0.45156332497E+02  0.67372250535E+03  0.95359052300E+03  0.11684502532E+04  0.25500000920E-02 0.  1.
</event>
<event>
 5   0  0.3852126E-06  0.3096280E+04  0.7818609E-02  0.8216759E-01
        1   -1    0    0  501    0  0.00000000000E+00  0.00000000000E+00  0.18072902310E+04  0.18072902310E+04  0.50400001928E-02 0. -1.
       -1   -1    0    0    0  501  0.00000000000E+00  0.00000000000E+00 -0.13261499978E+04  0.13261499978E+04  0.50400001928E-02 0.  1.
    10030    2    1    2    0    0  0.00000000000E+00  0.00000000000E+00  0.48114023324E+03  0.31334402288E+04  0.30962803076E+04 0.  0.
        1    1    3    3  502    0 -0.12518781587E+04 -0.50812851674E+02 -0.67971548081E+03  0.14254101182E+04  0.50400001928E-02 0.  1.
       -1    1    3    3    0  502  0.12518781587E+04  0.50812851674E+02  0.11608557140E+04  0.17080301107E+04  0.50400001928E-02 0. -1.
</event>
<event>
 5   0  0.3725232E-06  0.2619462E+04  0.7818609E-02  0.8361620E-01
        1   -1    0    0  501    0  0.00000000000E+00  0.00000000000E+00  0.18654525444E+04  0.18654525444E+04  0.50400001928E-02 0. -1.
       -1   -1    0    0    0  501  0.00000000000E+00  0.00000000000E+00 -0.91956004909E+03  0.91956004910E+03  0.50400001928E-02 0.  1.
    10030    2    1    2    0    0  0.00000000000E+00  0.00000000000E+00  0.94589249531E+03  0.27850125935E+04  0.26194622603E+04 0.  0.
        2    1    3    3  502    0 -0.47820043727E+03 -0.57380059682E+03 -0.67090730150E+03  0.10040116485E+04  0.25500000920E-02 0.  1.
       -2    1    3    3    0  502  0.47820043727E+03  0.57380059682E+03  0.16167997968E+04  0.17810009450E+04  0.25500000920E-02 0. -1.
</event>
<event>
 5   0  0.1028450E-05  0.1886632E+04  0.7818609E-02  0.8661539E-01
       -2   -1    0    0    0  501  0.00000000000E+00  0.00000000000E+00  0.33989324000E+03  0.33989324001E+03  0.25500000920E-02 0.  1.
        2   -1    0    0  501    0  0.00000000000E+00  0.00000000000E+00 -0.26180143434E+04  0.26180143434E+04  0.25500000920E-02 0. -1.
    10030    2    1    2    0    0  0.00000000000E+00  0.00000000000E+00 -0.22781211034E+04  0.29579075834E+04  0.18866323198E+04 0.  0.
        3    1    3    3  502    0  0.73864196912E+03  0.34771832392E+03 -0.39811582151E+03  0.90829301928E+03  0.10100000352E+00 0.  1.
       -3    1    3    3    0  502 -0.73864196912E+03 -0.34771832392E+03 -0.18800052819E+04  0.20496145642E+04  0.10100000352E+00 0. -1.
</event>
<event>
 5   0  0.3725232E-06  0.2913373E+04  0.7818609E-02  0.8268910E-01
        1   -1    0    0  501    0  0.00000000000E+00  0.00000000000E+00  0.23301380496E+04  0.23301380496E+04  0.50400001928E-02 0.  1.
       -1   -1    0    0    0  501  0.00000000000E+00  0.00000000000E+00 -0.91064801645E+03  0.91064801646E+03  0.50400001928E-02 0. -1.
    10030    2    1    2    0    0  0.00000000000E+00  0.00000000000E+00  0.14194900332E+04  0.32407860661E+04  0.29133730231E+04 0.  0.
        2    1    3    3  502    0 -0.99185909997E+03  0.76898117814E+03  0.15323211281E+04  0.19806879022E+04  0.25500000920E-02 0.  1.
       -2    1    3    3    0  502  0.99185909997E+03 -0.76898117814E+03 -0.11283109490E+03  0.12600981638E+04  0.25500000920E-02 0. -1.
</event>
<event>
 5   0  0.9647945E-06  0.2989329E+04  0.7818609E-02  0.8246785E-01
        2   -1    0    0  501    0  0.00000000000E+00  0.00000000000E+00  0.25181924218E+04  0.25181924218E+04  0.25500000920E-02 0.  1.
       -2   -1    0    0    0  501  0.00000000000E+00  0.00000000000E+00 -0.88715311015E+03  0.88715311015E+03  0.25500000920E-02 0. -1.
    10030    2    1    2    0    0  0.00000000000E+00  0.00000000000E+00  0.16310393117E+04  0.34053455320E+04  0.29893291816E+04 0.  0.
        2    1    3    3  502    0 -0.59349680768E+03  0.36377533396E+01  0.23782022569E+04  0.24511421151E+04  0.25500000920E-02 0.  1.
       -2    1    3    3    0  502  0.59349680768E+03 -0.36377533396E+01 -0.74716294521E+03  0.95420341683E+03  0.25500000920E-02 0. -1.
</event>
<event>
 5   0  0.3592331E-06  0.2846627E+04  0.7818609E-02  0.8288937E-01
       -1   -1    0    0    0  501  0.00000000000E+00  0.00000000000E+00  0.12465196184E+04  0.12465196184E+04  0.50400001928E-02 0. -1.
        1   -1    0    0  501    0  0.00000000000E+00  0.00000000000E+00 -0.16251820921E+04  0.16251820921E+04  0.50400001928E-02 0.  1.
    10030    2    1    2    0    0  0.00000000000E+00  0.00000000000E+00 -0.37866247370E+03  0.28717017106E+04  0.28466270296E+04 0.  0.
        3    1    3    3  502    0  0.40558366878E+03  0.13642773938E+04 -0.19779752224E+03  0.14369672194E+04  0.10100000352E+00 0. -1.
       -3    1    3    3    0  502 -0.40558366878E+03 -0.13642773938E+04 -0.18086495146E+03  0.14347344912E+04  0.10100000352E+00 0.  1.
</event>
<event>
 5   0  0.3852126E-06  0.3012219E+04  0.7818609E-02  0.8240250E-01
        1   -1    0    0  501    0  0.00000000000E+00  0.00000000000E+00  0.10162931267E+04  0.10162931267E+04  0.50400001928E-02 0.  1.
       -1   -1    0    0    0  501  0.00000000000E+00  0.00000000000E+00 -0.22320002961E+04  0.22320002961E+04  0.50400001928E-02 0. -1.
    10030    2    1    2    0    0  0.00000000000E+00  0.00000000000E+00 -0.12157071694E+04  0.32482934229E+04  0.30122194872E+04 0.  0.
        1    1    3    3  502    0  0.93790689448E+03  0.92271292457E+03 -0.13983070025E+04  0.19199820200E+04  0.50400001928E-02 0. -1.
       -1    1    3    3    0  502 -0.93790689448E+03 -0.92271292457E+03  0.18259983306E+03  0.13283114028E+04  0.50400001928E-02 0.  1.
</event>
<event>
 5   0  0.1057036E-05  0.3068520E+04  0.7818609E-02  0.8224431E-01
        2   -1    0    0  501    0  0.00000000000E+00  0.00000000000E+00  0.16904491039E+04  0.16904491039E+04  0.25500000920E-02 0. -1.
       -2   -1    0    0    0  501  0.00000000000E+00  0.00000000000E+00 -0.13925023082E+04  0.13925023082E+04  0.25500000920E-02 0.  1.
    10030    2    1    2    0    0  0.00000000000E+00  0.00000000000E+00  0.29794679566E+03  0.30829514121E+04  0.30685203464E+04 0.  0.
        4    1    3    3  502    0  0.51231451463E+03 -0.61744465306E+03 -0.11649416767E+04  0.14144945332E+04  0.12699999809E+01 0.  1.
       -4    1    3    3    0  502 -0.51231451463E+03  0.61744465306E+03  0.14628884723E+04  0.16684568789E+04  0.12699999809E+01 0. -1.
</event>
<event>
 5   0  0.1089569E-05  0.2954363E+04  0.7818609E-02  0.8256884E-01
       -2   -1    0    0    0  501  0.00000000000E+00  0.00000000000E+00  0.15461673528E+04  0.15461673528E+04  0.25500000920E-02 0.  1.
        2   -1    0    0  501    0  0.00000000000E+00  0.00000000000E+00 -0.14112733282E+04  0.14112733282E+04  0.25500000920E-02 0. -1.
    10030    2    1    2    0    0  0.00000000000E+00  0.00000000000E+00  0.13489402460E+03  0.29574406811E+04  0.29543627035E+04 0.  0.
        5    1    3    3  502    0 -0.55541843713E+02 -0.11781000717E+04  0.95777678915E+03  0.15193298336E+04  0.46999998093E+01 0.  1.
       -5    1    3    3    0  502  0.55541843713E+02  0.11781000717E+04 -0.82288276455E+03  0.14381108475E+04  0.46999998093E+01 0. -1.
</event>
<event>
 5   0  0.3725232E-06  0.2995525E+04  0.7818609E-02  0.8245010E-01
        1   -1    0    0  501    0  0.00000000000E+00  0.00000000000E+00  0.18826742449E+04  0.18826742449E+04  0.50400001928E-02 0.  1.
       -1   -1    0    0    0  501  0.00000000000E+00  0.00000000000E+00 -0.11915461316E+04  0.11915461317E+04  0.50400001928E-02 0. -1.
    10030    2    1    2    0    0  0.00000000000E+00  0.00000000000E+00  0.69112811321E+03  0.30742203765E+04  0.29955254722E+04 0.  0.
        2    1    3    3  502    0 -0.11655797066E+04  0.63013739243E+03  0.10622245015E+04  0.16982255673E+04  0.25500000920E-02 0.  1.
       -2    1    3    3    0  502  0.11655797066E+04 -0.63013739243E+03 -0.37109638827E+03  0.13759948093E+04  0.25500000920E-02 0. -1.
</event>
<event>
 5   0  0.3636718E-06  0.3001071E+04  0.7818609E-02  0.8243425E-01
       -1   -1    0    0    0  501  0.00000000000E+00  0.00000000000E+00  0.12091784329E+04  0.12091784329E+04  0.50400001928E-02 0. -1.
        1   -1    0    0  501    0  0.00000000000E+00  0.00000000000E+00 -0.18620962856E+04  0.18620962856E+04  0.50400001928E-02 0.  1.
    10030    2    1    2    0    0  0.00000000000E+00  0.00000000000E+00 -0.65291785268E+03  0.30712747185E+04  0.30010709212E+04 0.  0.
        4    1    3    3  502    0  0.88056378328E+02  0.18888677896E+03  0.11942949961E+04  0.12123424812E+04  0.12699999809E+01 0. -1.
       -4    1    3    3    0  502 -0.88056378328E+02 -0.18888677896E+03 -0.18472128488E+04  0.18589322373E+04  0.12699999809E+01 0.  1.
</event>
<event>
 5   0  0.3852126E-06  0.3016274E+04  0.7818609E-02  0.8239099E-01
        1   -1    0    0  501    0  0.00000000000E+00  0.00000000000E+00  0.15586208109E+04  0.15586208109E+04  0.50400001928E-02 0.  1.
       -1   -1    0    0    0  501  0.00000000000E+00  0.00000000000E+00 -0.14592886138E+04  0.14592886138E+04  0.50400001928E-02 0. -1.
    10030    2    1    2    0    0  0.00000000000E+00  0.00000000000E+00  0.99332197092E+02  0.30179094247E+04  0.30162742598E+04 0.  0.
        1    1    3    3  502    0 -0.10258767939E+03 -0.25564179275E+03 -0.14339056306E+04  0.14601240754E+04  0.50400001928E-02 0. -1.
       -1    1    3    3    0  502  0.10258767939E+03  0.25564179275E+03  0.15332378277E+04  0.15577853493E+04  0.50400001928E-02 0.  1.
</event>
<event>
 5   0  0.3896630E-06  0.3018641E+04  0.7818609E-02  0.8238428E-01
       -1   -1    0    0    0  501  0.00000000000E+00  0.00000000000E+00  0.19491414255E+04  0.19491414255E+04  0.50400001928E-02 0.  1.
        1   -1    0    0  501    0  0.00000000000E+00  0.00000000000E+00 -0.11687447033E+04  0.11687447033E+04  0.50400001928E-02 0. -1.
    10030    2    1    2    0    0  0.00000000000E+00  0.00000000000E+00  0.78039672218E+03  0.31178861288E+04  0.30186412288E+04 0.  0.
        5    1    3    3  502    0  0.69138401703E+03  0.74780944843E+03  0.15407309042E+04  0.18469176049E+04  0.46999998093E+01 0.  1.
       -5    1    3    3    0  502 -0.69138401703E+03 -0.74780944843E+03 -0.76033418206E+03  0.12709685238E+04  0.46999998093E+01 0. -1.
</event>
<event>
 5   0  0.3592331E-06  0.3013670E+04  0.7818609E-02  0.8239838E-01
       -1   -1    0    0    0  501  0.00000000000E+00  0.00000000000E+00  0.14224151412E+04  0.14224151412E+04  0.50400001928E-02 0. -1.
        1   -1    0    0  501    0  0.00000000000E+00  0.00000000000E+00 -0.15962651834E+04  0.15962651834E+04  0.50400001928E-02 0.  1.
    10030    2    1    2    0    0  0.00000000000E+00  0.00000000000E+00 -0.17385004221E+03  0.30186803246E+04  0.30136700325E+04 0.  0.
        3    1    3    3  502    0 -0.78253096305E+03  0.41788316482E+03 -0.13069691786E+04  0.15796042199E+04  0.10100000352E+00 0.  1.
       -3    1    3    3    0  502  0.78253096305E+03 -0.41788316482E+03  0.11331191364E+04  0.14390761047E+04  0.10100000352E+00 0. -1.
</event>
<event>
 5   0  0.1029922E-05  0.2917030E+04  0.7818609E-02  0.8267828E-01
       -2   -1    0    0    0  501  0.00000000000E+00  0.00000000000E+00  0.13524403318E+04  0.13524403318E+04  0.25500000920E-02 0.  1.
        2   -1    0    0  501    0  0.00000000000E+00  0.00000000000E+00 -0.15729098391E+04  0.15729098391E+04  0.25500000920E-02 0. -1.
    10030    2    1    2    0    0  0.00000000000E+00  0.00000000000E+00 -0.22046950733E+03  0.29253501710E+04  0.29170304796E+04 0.  0.
        1    1    3    3  502    0  0.24147481279E+03 -0.15719123005E+03 -0.15440844678E+04  0.15707374102E+04  0.50400001928E-02 0. -1.
       -1    1    3    3    0  502 -0.24147481279E+03  0.15719123005E+03  0.13236149605E+04  0.13546127608E+04  0.50400001928E-02 0.  1.
</event>
<event>
 5   0  0.3896630E-06  0.3015930E+04  0.7818609E-02  0.8239196E-01
       -1   -1    0    0    0  501  0.00000000000E+00  0.00000000000E+00  0.90977098567E+03  0.90977098568E+03  0.50400001928E-02 0. -1.
        1   -1    0    0  501    0  0.00000000000E+00  0.00000000000E+00 -0.24994850165E+04  0.24994850165E+04  0.50400001928E-02 0.  1.
    10030    2    1    2    0    0  0.00000000000E+00  0.00000000000E+00 -0.15897140308E+04  0.34092560021E+04  0.30159303355E+04 0.  0.
        5    1    3    3  502    0  0.59584017398E+03 -0.12355646718E+04 -0.86841721859E+02  0.13744850475E+04  0.46999998093E+01 0. -1.
       -5    1    3    3    0  502 -0.59584017398E+03  0.12355646718E+04 -0.15028723089E+04  0.20347709547E+04  0.46999998093E+01 0.  1.
</event>
<event>
 5   0  0.3852126E-06  0.2320153E+04  0.7818609E-02  0.8470017E-01
        1   -1    0    0  501    0  0.00000000000E+00  0.00000000000E+00  0.15000917565E+04  0.15000917565E+04  0.50400001928E-02 0.  1.
       -1   -1    0    0    0  501  0.00000000000E+00  0.00000000000E+00 -0.89713020681E+03  0.89713020682E+03  0.50400001928E-02 0. -1.
    10030    2    1    2    0    0  0.00000000000E+00  0.00000000000E+00  0.60296154968E+03  0.23972219633E+04  0.23201531223E+04 0.  0.
        1    1    3    3  502    0  0.36407395011E+03  0.69494471253E+03  0.11844309450E+04  0.14206951320E+04  0.50400001928E-02 0.  1.
       -1    1    3    3    0  502 -0.36407395011E+03 -0.69494471253E+03 -0.58146939529E+03  0.97652683133E+03  0.50400001928E-02 0. -1.
</event>
<event>
 5   0  0.3592331E-06  0.2944842E+04  0.7818609E-02  0.8259659E-01
       -1   -1    0    0    0  501  0.00000000000E+00  0.00000000000E+00  0.96134311519E+03  0.96134311521E+03  0.50400001928E-02 0.  1.
        1   -1    0    0  501    0  0.00000000000E+00  0.00000000000E+00 -0.22552031915E+04  0.22552031915E+04  0.50400001928E-02 0. -1.
    10030    2    1    2    0    0  0.00000000000E+00  0.00000000000E+00 -0.12938600763E+04  0.32165463067E+04  0.29448423126E+04 0.  0.
        3    1    3    3  502    0  0.28100254546E+03  0.87598285776E+03 -0.19026615139E+04  0.21133928277E+04  0.10100000352E+00 0. -1.
       -3    1    3    3    0  502 -0.28100254546E+03 -0.87598285776E+03  0.60880143757E+03  0.11031534790E+04  0.10100000352E+00 0.  1.
</event>
<event>
 5   0  0.3636718E-06  0.1918532E+04  0.7818609E-02  0.8645686E-01
       -1   -1    0    0    0  501  0.00000000000E+00  0.00000000000E+00  0.60308189409E+03  0.60308189411E+03  0.50400001928E-02 0. -1.
        1   -1    0    0  501    0  0.00000000000E+00  0.00000000000E+00 -0.15258154145E+04  0.15258154145E+04  0.50400001928E-02 0.  1.
    10030    2    1    2    0    0  0.00000000000E+00  0.00000000000E+00 -0.92273352042E+03  0.21288973086E+04  0.19185324081E+04 0.  0.
        4    1    3    3  502    0 -0.76161854284E+03 -0.14040338620E+02 -0.11083311622E+04  0.13448641247E+04  0.12699999809E+01 0.  1.
       -4    1    3    3    0  502  0.76161854284E+03  0.14040338620E+02  0.18559764181E+03  0.78403318390E+03  0.12699999809E+01 0. -1.
</event>
<event>
 5   0  0.3592331E-06  0.2231330E+04  0.7818609E-02  0.8505500E-01
       -1   -1    0    0    0  501  0.00000000000E+00  0.00000000000E+00  0.49172490672E+03  0.49172490675E+03  0.50400001928E-02 0. -1.
        1   -1    0    0  501    0  0.00000000000E+00  0.00000000000E+00 -0.25313104644E+04  0.25313104644E+04  0.50400001928E-02 0.  1.
    10030    2    1    2    0    0  0.00000000000E+00  0.00000000000E+00 -0.20395855577E+04  0.30230353711E+04  0.22313300088E+04 0.  0.
        3    1    3    3  502    0  0.33102858565E+03  0.56270435818E+03 -0.22454999140E+04  0.23384794190E+04  0.10100000352E+00 0.  1.
       -3    1    3    3    0  502 -0.33102858565E+03 -0.56270435818E+03  0.20591435634E+03  0.68455595212E+03  0.10100000352E+00 0. -1.
</event>
<event>
 5   0  0.1029922E-05  0.1952921E+04  0.7818609E-02  0.8628954E-01
        2   -1    0    0  501    0  0.00000000000E+00  0.00000000000E+00  0.16660931764E+04  0.16660931764E+04  0.25500000920E-02 0. -1.
       -2   -1    0    0    0  501  0.00000000000E+00  0.00000000000E+00 -0.57228189129E+03  0.57228189130E+03  0.25500000920E-02 0.  1.
    10030    2    1    2    0    0  0.00000000000E+00  0.00000000000E+00  0.10938112851E+04  0.22383750677E+04  0.19529208423E+04 0.  0.
        1    1    3    3  502    0 -0.86594676818E+03 -0.13064530838E+03  0.51868663182E+02  0.87728123209E+03  0.50400001928E-02 0. -1.
       -1    1    3    3    0  502  0.86594676818E+03  0.13064530838E+03  0.10419426219E+04  0.13610938356E+04  0.50400001928E-02 0.  1.
</event>
<event>
 5   0  0.1089569E-05  0.2964115E+04  0.7818609E-02  0.8254053E-01
       -2   -1    0    0    0  501  0.00000000000E+00  0.00000000000E+00  0.14244678412E+04  0.14244678412E+04  0.25500000920E-02 0. -1.
        2   -1    0    0  501    0  0.00000000000E+00  0.00000000000E+00 -0.15419752759E+04  0.15419752759E+04  0.25500000920E-02 0.  1.
    10030    2    1    2    0    0  0.00000000000E+00  0.00000000000E+00 -0.11750743472E+03  0.29664431170E+04  0.29641148374E+04 0.  0.
        5    1    3    3  502    0  0.32456448592E+02 -0.14759945375E+04  0.71189738150E+02  0.14780742081E+04  0.46999998093E+01 0.  1.
       -5    1    3    3    0  502 -0.32456448592E+02  0.14759945375E+04 -0.18869717287E+03  0.14883689089E+04  0.46999998093E+01 0. -1.
</event>
<event>
 5   0  0.3592331E-06  0.2846649E+04  0.7818609E-02  0.8288930E-01
       -1   -1    0    0    0  501  0.00000000000E+00  0.00000000000E+00  0.11650423644E+04  0.11650423644E+04  0.50400001928E-02 0. -1.
        1   -1    0    0  501    0  0.00000000000E+00  0.00000000000E+00 -0.17388656301E+04  0.17388656301E+04  0.50400001928E-02 0.  1.
    10030    2    1    2    0    0  0.00000000000E+00  0.00000000000E+00 -0.57382326573E+03  0.29039079945E+04  0.28466486436E+04 0.  0.
        3    1    3    3  502    0  0.24610737721E+03 -0.12684487473E+04  0.32202166823E+03  0.13316264607E+04  0.10100000352E+00 0. -1.
       -3    1    3    3    0  502 -0.24610737721E+03  0.12684487473E+04 -0.89584493397E+03  0.15722815338E+04  0.10100000352E+00 0.  1.
</event>
<event>
 5   0  0.3725232E-06  0.2731506E+04  0.7818609E-02  0.8324854E-01
       -1   -1    0    0    0  501  0.00000000000E+00  0.00000000000E+00  0.93967466653E+03  0.93967466654E+03  0.50400001928E-02 0.  1.
        1   -1    0    0  501    0  0.00000000000E+00  0.00000000000E+00 -0.19850284317E+04  0.19850284317E+04  0.50400001928E-02 0. -1.
    10030    2    1    2    0    0  0.00000000000E+00  0.00000000000E+00 -0.10453537651E+04  0.29247030982E+04  0.27315057603E+04 0.  0.
        2    1    3    3  502    0 -0.37258499363E+03  0.94402351893E+03  0.45590225386E+03  0.11125856582E+04  0.25500000920E-02 0.  1.
       -2    1    3    3    0  502  0.37258499363E+03 -0.94402351893E+03 -0.15012560190E+04  0.18121174400E+04  0.25500000920E-02 0. -1.
</event>
<event>
 5   0  0.3636718E-06  0.2886069E+04  0.7818609E-02  0.8277034E-01
       -1   -1    0    0    0  501  0.00000000000E+00  0.00000000000E+00  0.11643044099E+04  0.11643044099E+04  0.50400001928E-02 0. -1.
        1   -1    0    0  501    0  0.00000000000E+00  0.00000000000E+00 -0.17884919232E+04  0.17884919232E+04  0.50400001928E-02 0.  1.
    10030    2    1    2    0    0  0.00000000000E+00  0.00000000000E+00 -0.62418751323E+03  0.29527963331E+04  0.28860693223E+04 0.  0.
        4    1    3    3  502    0 -0.11341118677E+04  0.89223877425E+03 -0.31915711643E+03  0.14778912804E+04  0.12699999809E+01 0. -1.
       -4    1    3    3    0  502  0.11341118677E+04 -0.89223877425E+03 -0.30503039680E+03  0.14749050527E+04  0.12699999809E+01 0.  1.
</event>
<event>
 5   0  0.3725232E-06  0.2881012E+04  0.7818609E-02  0.8278549E-01
        1   -1    0    0  501    0  0.00000000000E+00  0.00000000000E+00  0.20135843525E+04  0.20135843526E+04  0.50400001928E-02 0. -1.
       -1   -1    0    0    0  501  0.00000000000E+00  0.00000000000E+00 -0.10305293878E+04  0.10305293878E+04  0.50400001928E-02 0.  1.
    10030    2    1    2    0    0  0.00000000000E+00  0.00000000000E+00  0.98305496475E+03  0.30441137404E+04  0.28810122180E+04 0.  0.
        2    1    3    3  502    0  0.80806831720E+03 -0.11723832526E+04  0.26099952463E+03  0.14476110141E+04  0.25500000920E-02 0.  1.
       -2    1    3    3    0  502 -0.80806831720E+03  0.11723832526E+04  0.72205544013E+03  0.15965027263E+04  0.25500000920E-02 0. -1.
</event>
<event>
 5   0  0.3852126E-06  0.3006163E+04  0.7818609E-02  0.8241973E-01
        1   -1    0    0  501    0  0.00000000000E+00  0.00000000000E+00  0.29759528974E+04  0.29759528974E+04  0.50400001928E-02 0.  1.
       -1   -1    0    0    0  501  0.00000000000E+00  0.00000000000E+00 -0.75916994544E+03  0.75916994546E+03  0.50400001928E-02 0. -1.
    10030    2    1    2    0    0  0.00000000000E+00  0.00000000000E+00  0.22167829519E+04  0.37351228428E+04  0.30061630021E+04 0.  0.
        1    1    3    3  502    0 -0.10588826536E+02  0.58864304373E+02 -0.75769088296E+03  0.76004776411E+03  0.50400001928E-02 0. -1.
       -1    1    3    3    0  502  0.10588826536E+02 -0.58864304373E+02  0.29744738349E+04  0.29750750787E+04  0.50400001928E-02 0.  1.
</event>
<event>
 5   0  0.3896630E-06  0.2996865E+04  0.7818609E-02  0.8244627E-01
       -1   -1    0    0    0  501  0.00000000000E+00  0.00000000000E+00  0.16846465789E+04  0.16846465789E+04  0.50400001928E-02 0.  1.
        1   -1    0    0  501    0  0.00000000000E+00  0.00000000000E+00 -0.13328016409E+04  0.13328016409E+04  0.50400001928E-02 0. -1.
    10030    2    1    2    0    0  0.00000000000E+00  0.00000000000E+00  0.35184493795E+03  0.30174482198E+04  0.29968648450E+04 0.  0.
        5    1    3    3  502    0  0.21003916812E+03 -0.54932612380E+03 -0.12117312809E+04  0.13469188652E+04  0.46999998093E+01 0. -1.
       -5    1    3    3    0  502 -0.21003916812E+03  0.54932612380E+03  0.15635762188E+04  0.16705293546E+04  0.46999998093E+01 0.  1.
</event>
<event>
 5   0  0.1089569E-05  0.3238424E+04  0.7818609E-02  0.8178743E-01
       -2   -1    0    0    0  501  0.00000000000E+00  0.00000000000E+00  0.11853988847E+04  0.11853988847E+04  0.25500000920E-02 0.  1.
        2   -1    0    0  501    0  0.00000000000E+00  0.00000000000E+00 -0.22117844415E+04  0.22117844415E+04  0.25500000920E-02 0. -1.
    10030    2    1    2    0    0  0.00000000000E+00  0.00000000000E+00 -0.10263855568E+04  0.33971833262E+04  0.32384235734E+04 0.  0.
        5    1    3    3  502    0 -0.27460497966E+03 -0.15956947845E+04 -0.52706926417E+03  0.17027841435E+04  0.46999998093E+01 0. -1.
       -5    1    3    3    0  502  0.27460497966E+03  0.15956947845E+04 -0.49931629261E+03  0.16943991827E+04  0.46999998093E+01 0.  1.
</event>
<event>
 5   0  0.1057036E-05  0.2529000E+04  0.7818609E-02  0.8392726E-01
        2   -1    0    0  501    0  0.00000000000E+00  0.00000000000E+00  0.18401915457E+04  0.18401915457E+04  0.25500000920E-02 0. -1.
       -2   -1    0    0    0  501  0.00000000000E+00  0.00000000000E+00 -0.86890998462E+03  0.86890998463E+03  0.25500000920E-02 0.  1.
    10030    2    1    2    0    0  0.00000000000E+00  0.00000000000E+00  0.97128156107E+03  0.27091015303E+04  0.25290004410E+04 0.  0.
        4    1    3    3  502    0  0.11606120965E+04  0.45879789034E+03  0.70371447943E+03  0.14327357133E+04  0.12699999809E+01 0. -1.
       -4    1    3    3    0  502 -0.11606120965E+04 -0.45879789034E+03  0.26756708164E+03  0.12763658170E+04  0.12699999809E+01 0.  1.
</event>
<event>
 5   0  0.3896630E-06  0.3005446E+04  0.7818609E-02  0.8242178E-01
        1   -1    0    0  501    0  0.00000000000E+00  0.00000000000E+00  0.17568231472E+04  0.17568231472E+04  0.50400001928E-02 0. -1.
       -1   -1    0    0    0  501  0.00000000000E+00  0.00000000000E+00 -0.12853746058E+04  0.12853746058E+04  0.50400001928E-02 0.  1.
    10030    2    1    2    0    0  0.00000000000E+00  0.00000000000E+00  0.47144854144E+03  0.30421977530E+04  0.30054456310E+04 0.  0.
        5    1    3    3  502    0 -0.42755731613E+03 -0.74857946313E+03  0.14816198015E+04  0.17141749611E+04  0.46999998093E+01 0. -1.
       -5    1    3    3    0  502  0.42755731613E+03  0.74857946313E+03 -0.10101712600E+04  0.13280227919E+04  0.46999998093E+01 0.  1.
</event>
<event>
 5   0  0.1028450E-05  0.2574695E+04  0.7818609E-02  0.8376848E-01
        2   -1    0    0  501    0  0.00000000000E+00  0.00000000000E+00  0.12864110764E+04  0.12864110764E+04  0.25500000920E-02 0.  1.
       -2   -1    0    0    0  501  0.00000000000E+00  0.00000000000E+00 -0.12882850016E+04  0.12882850016E+04  0.25500000920E-02 0. -1.
    10030    2    1    2    0    0  0.00000000000E+00  0.00000000000E+00 -0.18739252282E+01  0.25746960779E+04  0.25746953960E+04 0.  0.
        3    1    3    3  502    0  0.49070470843E+03  0.90534268319E+03 -0.77348334738E+03  0.12879103167E+04  0.10100000352E+00 0. -1.
       -3    1    3    3    0  502 -0.49070470843E+03 -0.90534268319E+03  0.77160942216E+03  0.12867857613E+04  0.10100000352E+00 0.  1.
</event>
<event>
 5   0  0.1057036E-05  0.2962458E+04  0.7818609E-02  0.8254533E-01
       -2   -1    0    0    0  501  0.00000000000E+00  0.00000000000E+00  0.86752688097E+03  0.86752688097E+03  0.25500000920E-02 0.  1.
        2   -1    0    0  501    0  0.00000000000E+00  0.00000000000E+00 -0.25290734663E+04  0.25290734663E+04  0.25500000920E-02 0. -1.
    10030    2    1    2    0    0  0.00000000000E+00  0.00000000000E+00 -0.16615465853E+04  0.33966003472E+04  0.29624579092E+04 0.  0.
        4    1    3    3  502    0  0.91794012661E+03 -0.41934705251E+02  0.50122986744E+03  0.10467117982E+04  0.12699999809E+01 0.  1.
       -4    1    3    3    0  502 -0.91794012661E+03  0.41934705251E+02 -0.21627764527E+04  0.23498885491E+04  0.12699999809E+01 0. -1.
</event>
<event>
 5   0  0.1057036E-05  0.2611334E+04  0.7818609E-02  0.8364361E-01
        2   -1    0    0  501    0  0.00000000000E+00  0.00000000000E+00  0.11726508778E+04  0.11726508778E+04  0.25500000920E-02 0. -1.
       -2   -1    0    0    0  501  0.00000000000E+00  0.00000000000E+00 -0.14537719449E+04  0.14537719449E+04  0.25500000920E-02 0.  1.
    10030    2    1    2    0    0  0.00000000000E+00  0.00000000000E+00 -0.28112106713E+03  0.26264228228E+04  0.26113344844E+04 0.  0.
        4    1    3    3  502    0 -0.23460384926E+03 -0.30812995711E+03  0.11135532277E+04  0.11789764376E+04  0.12699999809E+01 0. -1.
       -4    1    3    3    0  502  0.23460384926E+03  0.30812995711E+03 -0.13946742948E+04  0.14474463852E+04  0.12699999809E+01 0.  1.
</event>
<event>
 5   0  0.3852126E-06  0.3083072E+04  0.7818609E-02  0.8220399E-01
       -1   -1    0    0    0  501  0.00000000000E+00  0.00000000000E+00  0.21213929538E+04  0.21213929538E+04  0.50400001928E-02 0. -1.
        1   -1    0    0  501    0  0.00000000000E+00  0.00000000000E+00 -0.11201760247E+04  0.11201760247E+04  0.50400001928E-02 0.  1.
    10030    2    1    2    0    0  0.00000000000E+00  0.00000000000E+00  0.10012169291E+04  0.32415689785E+04  0.30830721859E+04 0.  0.
        1    1    3    3  502    0  0.50782947377E+02 -0.28963090897E+03  0.20916329044E+04  0.21122010269E+04  0.50400001928E-02 0. -1.
       -1    1    3    3    0  502 -0.50782947377E+02  0.28963090897E+03 -0.10904159752E+04  0.11293679517E+04  0.50400001928E-02 0.  1.
</event>
<event>
 5   0  0.3896630E-06  0.2811194E+04  0.7818609E-02  0.8299802E-01
        1   -1    0    0  501    0  0.00000000000E+00  0.00000000000E+00  0.23217581169E+04  0.23217581169E+04  0.50400001928E-02 0. -1.
       -1   -1    0    0    0  501  0.00000000000E+00  0.00000000000E+00 -0.85095103752E+03  0.85095103754E+03  0.50400001928E-02 0.  1.
    10030    2    1    2    0    0  0.00000000000E+00  0.00000000000E+00  0.14708070794E+04  0.31727091544E+04  0.28111936813E+04 0.  0.
        5    1    3    3  502    0 -0.72774728315E+03 -0.99933698287E+01 -0.62171660151E+03  0.95721972304E+03  0.46999998093E+01 0.  1.
       -5    1    3    3    0  502  0.72774728315E+03  0.99933698287E+01  0.20925236809E+04  0.22154894314E+04  0.46999998093E+01 0. -1.
</event>
<event>
 5   0  0.3592331E-06  0.2947183E+04  0.7818609E-02  0.8258976E-01
        1   -1    0    0  501    0  0.00000000000E+00  0.00000000000E+00  0.16676956842E+04  0.16676956842E+04  0.50400001928E-02 0.  1.
       -1   -1    0    0    0  501  0.00000000000E+00  0.00000000000E+00 -0.13020795290E+04  0.13020795290E+04  0.50400001928E-02 0. -1.
    10030    2    1    2    0    0  0.00000000000E+00  0.00000000000E+00  0.36561615517E+03  0.29697752132E+04  0.29471833407E+04 0.  0.
        3    1    3    3  502    0 -0.42227460682E+02  0.10338878276E+04 -0.87440802799E+03  0.13547311941E+04  0.10100000352E+00 0. -1.
       -3    1    3    3    0  502  0.42227460682E+02 -0.10338878276E+04  0.12400241832E+04  0.16150440191E+04  0.10100000352E+00 0.  1.
</event>
<event>
 5   0  0.1029922E-05  0.3016171E+04  0.7818609E-02  0.8239128E-01
        2   -1    0    0  501    0  0.00000000000E+00  0.00000000000E+00  0.16887798423E+04  0.16887798423E+04  0.25500000920E-02 0. -1.
       -2   -1    0    0    0  501  0.00000000000E+00  0.00000000000E+00 -0.13467246972E+04  0.13467246972E+04  0.25500000920E-02 0.  1.
    10030    2    1    2    0    0  0.00000000000E+00  0.00000000000E+00  0.34205514510E+03  0.30355045396E+04  0.30161707656E+04 0.  0.
        1    1    3    3  502    0  0.47097809493E+03 -0.21408958384E+02  0.16127052339E+04  0.16802073922E+04  0.50400001928E-02 0. -1.
       -1    1    3    3    0  502 -0.47097809493E+03  0.21408958384E+02 -0.12706500888E+04  0.13552971473E+04  0.50400001928E-02 0.  1.
</event>
<event>
 5   0  0.3636718E-06  0.3083452E+04  0.7818609E-02  0.8220294E-01
        1   -1    0    0  501    0  0.00000000000E+00  0.00000000000E+00  0.19010933784E+04  0.19010933784E+04  0.50400001928E-02 0. -1.
       -1   -1    0    0    0  501  0.00000000000E+00  0.00000000000E+00 -0.12502902727E+04  0.12502902727E+04  0.50400001928E-02 0.  1.
    10030    2    1    2    0    0  0.00000000000E+00  0.00000000000E+00  0.65080310570E+03  0.31513836510E+04  0.30834516752E+04 0.  0.
        4    1    3    3  502    0  0.69733285826E+02 -0.22305100222E+03 -0.12320821921E+04  0.12540504862E+04  0.12699999809E+01 0.  1.
       -4    1    3    3    0  502 -0.69733285826E+02  0.22305100222E+03  0.18828852978E+04  0.18973331649E+04  0.12699999809E+01 0. -1.
</event>
<event>
 5   0  0.1028450E-05  0.3012124E+04  0.7818609E-02  0.8240277E-01
        2   -1    0    0  501    0  0.00000000000E+00  0.00000000000E+00  0.12946459518E+04  0.12946459518E+04  0.25500000920E-02 0. -1.
       -2   -1    0    0    0  501  0.00000000000E+00  0.00000000000E+00 -0.17520022689E+04  0.17520022689E+04  0.25500000920E-02 0.  1.
    10030    2    1    2    0    0  0.00000000000E+00  0.00000000000E+00 -0.45735631708E+03  0.30466482206E+04  0.30121239316E+04 0.  0.
        3    1    3    3  502    0  0.14519451283E+04  0.39072042656E+03 -0.14157768887E+03  0.15102487740E+04  0.10100000352E+00 0.  1.
       -3    1    3    3    0  502 -0.14519451283E+04 -0.39072042656E+03 -0.31577862821E+03  0.15363994466E+04  0.10100000352E+00 0. -1.
</event>
<event>
 5   0  0.3896630E-06  0.2883938E+04  0.7818609E-02  0.8277673E-01
       -1   -1    0    0    0  501  0.00000000000E+00  0.00000000000E+00  0.75936827543E+03  0.75936827544E+03  0.50400001928E-02 0. -1.
        1   -1    0    0  501    0  0.00000000000E+00  0.00000000000E+00 -0.27381628744E+04  0.27381628744E+04  0.50400001928E-02 0.  1.
    10030    2    1    2    0    0  0.00000000000E+00  0.00000000000E+00 -0.19787945989E+04  0.34975311498E+04  0.28839375997E+04 0.  0.
        5    1    3    3  502    0 -0.12939004050E+04 -0.63644105175E+03 -0.98447708503E+03  0.17459818702E+04  0.46999998093E+01 0.  1.
       -5    1    3    3    0  502  0.12939004050E+04  0.63644105175E+03 -0.99431751392E+03  0.17515492796E+04  0.46999998093E+01 0. -1.
</event>
<event>
 5   0  0.1028450E-05  0.2960756E+04  0.7818609E-02  0.8255027E-01
       -2   -1    0    0    0  501  0.00000000000E+00  0.00000000000E+00  0.14953255388E+04  0.14953255388E+04  0.25500000920E-02 0. -1.
        2   -1    0    0  501    0  0.00000000000E+00  0.00000000000E+00 -0.14655799611E+04  0.14655799611E+04  0.25500000920E-02 0.  1.
    10030    2    1    2    0    0  0.00000000000E+00  0.00000000000E+00  0.29745577719E+02  0.29609055000E+04  0.29607560826E+04 0.  0.
        3    1    3    3  502    0 -0.41880690750E+02 -0.52405821613E+03  0.13988241721E+04  0.14943560757E+04  0.10100000352E+00 0. -1.
       -3    1    3    3    0  502  0.41880690750E+02  0.52405821613E+03 -0.13690785944E+04  0.14665494243E+04  0.10100000352E+00 0.  1.
</event>
<event>
 5   0  0.1029922E-05  0.3163166E+04  0.7818609E-02  0.8198613E-01
       -2   -1    0    0    0  501  0.00000000000E+00  0.00000000000E+00  0.13055177506E+04  0.13055177506E+04  0.25500000920E-02 0. -1.
        2   -1    0    0  501    0  0.00000000000E+00  0.00000000000E+00 -0.19160250267E+04  0.19160250267E+04  0.25500000920E-02 0.  1.
    10030    2    1    2    0    0  0.00000000000E+00  0.00000000000E+00 -0.61050727610E+03  0.32215427772E+04  0.31631659348E+04 0.  0.
        1    1    3    3  502    0 -0.80727466640E+03 -0.13470161008E+04 -0.49649533519E+03  0.16470131695E+04  0.50400001928E-02 0. -1.
       -1    1    3    3    0  502  0.80727466640E+03  0.13470161008E+04 -0.11401194091E+03  0.15745296077E+04  0.50400001928E-02 0.  1.
</event>
<event>
 5   0  0.3896630E-06  0.2352810E+04  0.7818609E-02  0.8457385E-01
       -1   -1    0    0    0  501  0.00000000000E+00  0.00000000000E+00  0.84324576347E+03  0.84324576348E+03  0.50400001928E-02 0. -1.
        1   -1    0    0  501    0  0.00000000000E+00  0.00000000000E+00 -0.16411932550E+04  0.16411932550E+04  0.50400001928E-02 0.  1.
    10030    2    1    2    0    0  0.00000000000E+00  0.00000000000E+00 -0.79794749149E+03  0.24844390185E+04  0.23528104550E+04 0.  0.
        5    1    3    3  502    0  0.10966981762E+04 -0.13203833112E+03  0.28294321727E+02  0.11049903480E+04  0.46999998093E+01 0. -1.
       -5    1    3    3    0  502 -0.10966981762E+04  0.13203833112E+03 -0.82624181322E+03  0.13794486705E+04  0.46999998093E+01 0.  1.
</event>
<event>
 5   0  0.3636718E-06  0.2971367E+04  0.7818609E-02  0.8251955E-01
        1   -1    0    0  501    0  0.00000000000E+00  0.00000000000E+00  0.11959697175E+04  0.11959697175E+04  0.50400001928E-02 0. -1.
       -1   -1    0    0    0  501  0.00000000000E+00  0.00000000000E+00 -0.18455776048E+04  0.18455776048E+04  0.50400001928E-02 0.  1.
    10030    2    1    2    0    0  0.00000000000E+00  0.00000000000E+00 -0.64960788736E+03  0.30415473223E+04  0.29713666395E+04 0.  0.
        4    1    3    3  502    0  0.21286993491E+03 -0.69759156908E+03  0.10001029775E+04  0.12378025629E+04  0.12699999809E+01 0. -1.
       -4    1    3    3    0  502 -0.21286993491E+03  0.69759156908E+03 -0.16497108648E+04  0.18037447593E+04  0.12699999809E+01 0.  1.
</event>
<event>
 5   0  0.9647945E-06  0.2316821E+04  0.7818609E-02  0.8471318E-01
        2   -1    0    0  501    0  0.00000000000E+00  0.00000000000E+00  0.94814333994E+03  0.94814333994E+03  0.25500000920E-02 0. -1.
       -2   -1    0    0    0  501  0.00000000000E+00  0.00000000000E+00 -0.14153084556E+04  0.14153084556E+04  0.25500000920E-02 0.  1.
    10030    2    1    2    0    0  0.00000000000E+00  0.00000000000E+00 -0.46716511565E+03  0.23634517955E+04  0.23168213450E+04 0.  0.
        2    1    3    3  502    0  0.10488939193E+04  0.63950988294E+01 -0.73510327303E+03  0.12808575929E+04  0.25500000920E-02 0.  1.
       -2    1    3    3    0  502 -0.10488939193E+04 -0.63950988294E+01  0.26793815738E+03  0.10825942026E+04  0.25500000920E-02 0. -1.
</event>
<event>
 5   0  0.9647945E-06  0.3074547E+04  0.7818609E-02  0.8222758E-01
        2   -1    0    0  501    0  0.00000000000E+00  0.00000000000E+00  0.25107102866E+04  0.25107102866E+04  0.25500000920E-02 0. -1.
       -2   -1    0    0    0  501  0.00000000000E+00  0.00000000000E+00 -0.94125155111E+03  0.94125155112E+03  0.25500000920E-02 0.  1.
    10030    2    1    2    0    0  0.00000000000E+00  0.00000000000E+00  0.15694587355E+04  0.34519618377E+04  0.30745470897E+04 0.  0.
        2    1    3    3  502    0  0.93170681070E+03  0.30435426275E+03  0.21143765080E+04  0.23305143458E+04  0.25500000920E-02 0. -1.
       -2    1    3    3    0  502 -0.93170681070E+03 -0.30435426275E+03 -0.54491777250E+03  0.11214474919E+04  0.25500000920E-02 0.  1.
</event>
<event>
 5   0  0.3592331E-06  0.2392558E+04  0.7818609E-02  0.8442295E-01
       -1   -1    0    0    0  501  0.00000000000E+00  0.00000000000E+00  0.15363582850E+04  0.15363582850E+04  0.50400001928E-02 0. -1.
        1   -1    0    0  501    0  0.00000000000E+00  0.00000000000E+00 -0.93147753656E+03  0.93147753657E+03  0.50400001928E-02 0.  1.
    10030    2    1    2    0    0  0.00000000000E+00  0.00000000000E+00  0.60488074846E+03  0.24678358216E+04  0.23925578201E+04 0.  0.
        3    1    3    3  502    0  0.56101431533E+03 -0.10146484592E+04 -0.15083904666E+01  0.11594183210E+04  0.10100000352E+00 0. -1.
       -3    1    3    3    0  502 -0.56101431533E+03  0.10146484592E+04  0.60638913892E+03  0.13084175005E+04  0.10100000352E+00 0.  1.
</event>
<event>
 5   0  0.3725232E-06  0.2914907E+04  0.7818609E-02  0.8268456E-01
        1   -1    0    0  501    0  0.00000000000E+00  0.00000000000E+00  0.14983194077E+04  0.14983194077E+04  0.50400001928E-02 0.  1.
       -1   -1    0    0    0  501  0.00000000000E+00  0.00000000000E+00 -0.14177017651E+04  0.14177017651E+04  0.50400001928E-02 0. -1.
    10030    2    1    2    0    0  0.00000000000E+00  0.00000000000E+00  0.80617642588E+02  0.29160211728E+04  0.29149065638E+04 0.  0.
        2    1    3    3  502    0 -0.28365118517E+03  0.29088492651E+01  0.14704370897E+04  0.14975485605E+04  0.25500000920E-02 0.  1.
       -2    1    3    3    0  502  0.28365118517E+03 -0.29088492651E+01 -0.13898194471E+04  0.14184726123E+04  0.25500000920E-02 0. -1.
</event>
<event>
 5   0  0.1029922E-05  0.2981012E+04  0.7818609E-02  0.8249174E-01
       -2   -1    0    0    0  501  0.00000000000E+00  0.00000000000E+00  0.15887464000E+04  0.15887464000E+04  0.25500000920E-02 0.  1.
        2   -1    0    0  501    0  0.00000000000E+00  0.00000000000E+00 -0.13983399831E+04  0.13983399831E+04  0.25500000920E-02 0. -1.
    10030    2    1    2    0    0  0.00000000000E+00  0.00000000000E+00  0.19040641697E+03  0.29870863831E+04  0.29810116499E+04 0.  0.
        1    1    3    3  502    0 -0.12208639206E+04  0.50471867339E+03  0.78679658161E+03  0.15376275598E+04  0.50400001928E-02 0.  1.
       -1    1    3    3    0  502  0.12208639206E+04 -0.50471867339E+03 -0.59639016464E+03  0.14494588233E+04  0.50400001928E-02 0. -1.
</event>
<event>
 5   0  0.3636718E-06  0.2069733E+04  0.7818609E-02  0.8574695E-01
       -1   -1    0    0    0  501  0.00000000000E+00  0.00000000000E+00  0.12249253463E+04  0.12249253463E+04  0.50400001928E-02 0. -1.
        1   -1    0    0  501    0  0.00000000000E+00  0.00000000000E+00 -0.87429676616E+03  0.87429676617E+03  0.50400001928E-02 0.  1.
    10030    2    1    2    0    0  0.00000000000E+00  0.00000000000E+00  0.35062858012E+03  0.20992221125E+04  0.20697326098E+04 0.  0.
        4    1    3    3  502    0  0.62533998824E+03 -0.81713988276E+03  0.63383548312E+02  0.10309155038E+04  0.12699999809E+01 0.  1.
       -4    1    3    3    0  502 -0.62533998824E+03  0.81713988276E+03  0.28724503181E+03  0.10683066087E+04  0.12699999809E+01 0. -1.
</event>
<event>
 5   0  0.1029922E-05  0.2933710E+04  0.7818609E-02  0.8262918E-01
       -2   -1    0    0    0  501  0.00000000000E+00  0.00000000000E+00  0.80551911283E+03  0.80551911283E+03  0.25500000920E-02 0.  1.
        2   -1    0    0  501    0  0.00000000000E+00  0.00000000000E+00 -0.26711521049E+04  0.26711521049E+04  0.25500000920E-02 0. -1.
    10030    2    1    2    0    0  0.00000000000E+00  0.00000000000E+00 -0.18656329920E+04  0.34766712177E+04  0.29337103291E+04 0.  0.
        1    1    3    3  502    0 -0.58890732053E+02  0.22352531751E+03 -0.26494326121E+04  0.26594971051E+04  0.50400001928E-02 0. -1.
       -1    1    3    3    0  502  0.58890732053E+02 -0.22352531751E+03  0.78379962006E+03  0.81717411261E+03  0.50400001928E-02 0.  1.
</event>
<event>
 5   0  0.3852126E-06  0.2200255E+04  0.7818609E-02  0.8518322E-01
       -1   -1    0    0    0  501  0.00000000000E+00  0.00000000000E+00  0.76090540204E+03  0.76090540206E+03  0.50400001928E-02 0.  1.
        1   -1    0    0  501    0  0.00000000000E+00  0.00000000000E+00 -0.15905797815E+04  0.15905797815E+04  0.50400001928E-02 0. -1.
    10030    2    1    2    0    0  0.00000000000E+00  0.00000000000E+00 -0.82967437943E+03  0.23514851835E+04  0.22002552108E+04 0.  0.
        1    1    3    3  502    0  0.96172227419E+03  0.53374405115E+03 -0.39122077238E+03  0.11674100126E+04  0.50400001928E-02 0. -1.
       -1    1    3    3    0  502 -0.96172227419E+03 -0.53374405115E+03 -0.43845360706E+03  0.11840751709E+04  0.50400001928E-02 0.  1.
</event>
<event>
 5   0  0.1057036E-05  0.2985781E+04  0.7818609E-02  0.8247803E-01
       -2   -1    0    0    0  501  0.00000000000E+00  0.00000000000E+00  0.84998882804E+03  0.84998882804E+03  0.25500000920E-02 0. -1.
        2   -1    0    0  501    0  0.00000000000E+00  0.00000000000E+00 -0.26220604651E+04  0.26220604651E+04  0.25500000920E-02 0.  1.
    10030    2    1    2    0    0  0.00000000000E+00  0.00000000000E+00 -0.17720716371E+04  0.34720492932E+04  0.29857810381E+04 0.  0.
        4    1    3    3  502    0  0.67444830803E+03 -0.48191577724E+03 -0.23298568922E+04  0.24729250065E+04  0.12699999809E+01 0.  1.
       -4    1    3    3    0  502 -0.67444830803E+03  0.48191577724E+03  0.55778525511E+03  0.99912428670E+03  0.12699999809E+01 0. -1.
</event>
<event>
 5   0  0.1028450E-05  0.2947773E+04  0.7818609E-02  0.8258804E-01
       -2   -1    0    0    0  501  0.00000000000E+00  0.00000000000E+00  0.11174004698E+04  0.11174004698E+04  0.25500000920E-02 0.  1.
        2   -1    0    0  501    0  0.00000000000E+00  0.00000000000E+00 -0.19441025791E+04  0.19441025791E+04  0.25500000920E-02 0. -1.
    10030    2    1    2    0    0  0.00000000000E+00  0.00000000000E+00 -0.82670210931E+03  0.30615030489E+04  0.29477728103E+04 0.  0.
        3    1    3    3  502    0  0.12261081736E+04 -0.79900898215E+03 -0.59498269684E+03  0.15797977803E+04  0.10100000352E+00 0. -1.
       -3    1    3    3    0  502 -0.12261081736E+04  0.79900898215E+03 -0.23171941247E+03  0.14817052686E+04  0.10100000352E+00 0.  1.
</event>
<event>
 5   0  0.9647945E-06  0.2094520E+04  0.7818609E-02  0.8563661E-01
       -2   -1    0    0    0  501  0.00000000000E+00  0.00000000000E+00  0.43181460783E+03  0.43181460783E+03  0.25500000920E-02 0. -1.
        2   -1    0    0  501    0  0.00000000000E+00  0.00000000000E+00 -0.25398701511E+04  0.25398701511E+04  0.25500000920E-02 0.  1.
    10030    2    1    2    0    0  0.00000000000E+00  0.00000000000E+00 -0.21080555433E+04  0.29716847589E+04  0.20945195470E+04 0.  0.
        2    1    3    3  502    0  0.87840657604E+03  0.40281655203E+03 -0.48140248229E+03  0.10796331031E+04  0.25500000920E-02 0.  1.
       -2    1    3    3    0  502 -0.87840657604E+03 -0.40281655203E+03 -0.16266530610E+04  0.18920516558E+04  0.25500000920E-02 0. -1.
</event>
<event>
 5   0  0.1029922E-05  0.2466732E+04  0.7818609E-02  0.8414934E-01
       -2   -1    0    0    0  501  0.00000000000E+00  0.00000000000E+00  0.73789262131E+03  0.73789262132E+03  0.25500000920E-02 0.  1.
        2   -1    0    0  501    0  0.00000000000E+00  0.00000000000E+00 -0.20615349539E+04  0.20615349539E+04  0.25500000920E-02 0. -1.
    10030    2    1    2    0    0  0.00000000000E+00  0.00000000000E+00 -0.13236423326E+04  0.27994275752E+04  0.24667317901E+04 0.  0.
        1    1    3    3  502    0  0.69636320116E+03 -0.88045335128E+03 -0.81955844725E+02  0.11255383477E+04  0.50400001928E-02 0.  1.
       -1    1    3    3    0  502 -0.69636320116E+03  0.88045335128E+03 -0.12416864879E+04  0.16738892275E+04  0.50400001928E-02 0. -1.
</event>
<event>
 5   0  0.3636718E-06  0.3017234E+04  0.7818609E-02  0.8238827E-01
       -1   -1    0    0    0  501  0.00000000000E+00  0.00000000000E+00  0.12486054056E+04  0.12486054056E+04  0.50400001928E-02 0. -1.
        1   -1    0    0  501    0  0.00000000000E+00  0.00000000000E+00 -0.18227733758E+04  0.18227733758E+04  0.50400001928E-02 0.  1.
    10030    2    1    2    0    0  0.00000000000E+00  0.00000000000E+00 -0.57416797016E+03  0.30713787814E+04  0.30172336272E+04 0.  0.
        4    1    3    3  502    0  0.11789369668E+04 -0.77619959849E+03 -0.82912899657E+03  0.16370200653E+04  0.12699999809E+01 0.  1.
       -4    1    3    3    0  502 -0.11789369668E+04  0.77619959849E+03  0.25496102641E+03  0.14343587161E+04  0.12699999809E+01 0. -1.
</event>
<event>
 5   0  0.9647945E-06  0.3024362E+04  0.7818609E-02  0.8236808E-01
       -2   -1    0    0    0  501  0.00000000000E+00  0.00000000000E+00  0.14984681889E+04  0.14984681889E+04  0.25500000920E-02 0.  1.
        2   -1    0    0  501    0  0.00000000000E+00  0.00000000000E+00 -0.15260195827E+04  0.15260195828E+04  0.25500000920E-02 0. -1.
    10030    2    1    2    0    0  0.00000000000E+00  0.00000000000E+00 -0.27551393853E+02  0.30244877716E+04  0.30243622801E+04 0.  0.
        2    1    3    3  502    0 -0.74704885088E+03  0.10216897946E+03 -0.13246204259E+04  0.15241849490E+04  0.25500000920E-02 0. -1.
       -2    1    3    3    0  502  0.74704885088E+03 -0.10216897946E+03  0.12970690320E+04  0.15003028227E+04  0.25500000920E-02 0.  1.
</event>
<event>
 5   0  0.3896630E-06  0.2947917E+04  0.7818609E-02  0.8258762E-01
        1   -1    0    0  501    0  0.00000000000E+00  0.00000000000E+00  0.13014588914E+04  0.13014588914E+04  0.50400001928E-02 0.  1.
       -1   -1    0    0    0  501  0.00000000000E+00  0.00000000000E+00 -0.16693212543E+04  0.16693212543E+04  0.50400001928E-02 0. -1.
    10030    2    1    2    0    0  0.00000000000E+00  0.00000000000E+00 -0.36786236290E+03  0.29707801458E+04  0.29479165450E+04 0.  0.
        5    1    3    3  502    0 -0.56790215632E+03 -0.71531319711E+03 -0.13497723306E+04  0.16297525160E+04  0.46999998093E+01 0. -1.
       -5    1    3    3    0  502  0.56790215632E+03  0.71531319711E+03  0.98190996767E+03  0.13410276297E+04  0.46999998093E+01 0.  1.
</event>
<event>
 5   0  0.3636718E-06  0.2896858E+04  0.7818609E-02  0.8273813E-01
        1   -1    0    0  501    0  0.00000000000E+00  0.00000000000E+00  0.17930935479E+04  0.17930935479E+04  0.50400001928E-02 0. -1.
       -1   -1    0    0    0  501  0.00000000000E+00  0.00000000000E+00 -0.11700151807E+04  0.11700151807E+04  0.50400001928E-02 0.  1.
    10030    2    1    2    0    0  0.00000000000E+00  0.00000000000E+00  0.62307836715E+03  0.29631087286E+04  0.28968580714E+04 0.  0.
        4    1    3    3  502    0  0.94118313414E+03  0.10077431574E+04 -0.14196615940E+03  0.13861918938E+04  0.12699999809E+01 0.  1.
       -4    1    3    3    0  502 -0.94118313414E+03 -0.10077431574E+04  0.76504452656E+03  0.15769168347E+04  0.12699999809E+01 0. -1.
</event>
<event>
 5   0  0.3636718E-06  0.2280168E+04  0.7818609E-02  0.8485782E-01
        1   -1    0    0  501    0  0.00000000000E+00  0.00000000000E+00  0.11672648514E+04  0.11672648515E+04  0.50400001928E-02 0.  1.
       -1   -1    0    0    0  501  0.00000000000E+00  0.00000000000E+00 -0.11135361172E+04  0.11135361172E+04  0.50400001928E-02 0. -1.
    10030    2    1    2    0    0  0.00000000000E+00  0.00000000000E+00  0.53728734237E+02  0.22808009687E+04  0.22801680381E+04 0.  0.
        4    1    3    3  502    0  0.65239708799E+03  0.73876668506E+03  0.60007821719E+03  0.11539036593E+04  0.12699999809E+01 0.  1.
       -4    1    3    3    0  502 -0.65239708799E+03 -0.73876668506E+03 -0.54634948296E+03  0.11268973093E+04  0.12699999809E+01 0. -1.
</event>
<event>
 5   0  0.3896630E-06  0.2380149E+04  0.7818609E-02  0.8446973E-01
        1   -1    0    0  501    0  0.00000000000E+00  0.00000000000E+00  0.27417793333E+04  0.27417793333E+04  0.50400001928E-02 0. -1.
       -1   -1    0    0    0  501  0.00000000000E+00  0.00000000000E+00 -0.51655410663E+03  0.51655410665E+03  0.50400001928E-02 0.  1.
    10030    2    1    2    0    0  0.00000000000E+00  0.00000000000E+00  0.22252252267E+04  0.32583334400E+04  0.23801490492E+04 0.  0.
        5    1    3    3  502    0 -0.10574414266E+04 -0.50065321260E+03  0.81450791398E+03  0.14255810191E+04  0.46999998093E+01 0.  1.
       -5    1    3    3    0  502  0.10574414266E+04  0.50065321260E+03  0.14107173127E+04  0.18327524209E+04  0.46999998093E+01 0. -1.
</event>
<event>
 5   0  0.1028450E-05  0.2995838E+04  0.7818609E-02  0.8244920E-01
       -2   -1    0    0    0  501  0.00000000000E+00  0.00000000000E+00  0.68731103432E+03  0.68731103432E+03  0.25500000920E-02 0.  1.
        2   -1    0    0  501    0  0.00000000000E+00  0.00000000000E+00 -0.32645501165E+04  0.32645501165E+04  0.25500000920E-02 0. -1.
    10030    2    1    2    0    0  0.00000000000E+00  0.00000000000E+00 -0.25772390822E+04  0.39518611508E+04  0.29958379911E+04 0.  0.
        3    1    3    3  502    0  0.12885624719E+04  0.55660589334E+03 -0.59868479419E+03  0.15259838981E+04  0.10100000352E+00 0.  1.
       -3    1    3    3    0  502 -0.12885624719E+04 -0.55660589334E+03 -0.19785542880E+04  0.24258772527E+04  0.10100000352E+00 0. -1.
</event>
<event>
 5   0  0.1057036E-05  0.3061797E+04  0.7818609E-02  0.8226301E-01
        2   -1    0    0  501    0  0.00000000000E+00  0.00000000000E+00  0.14406003307E+04  0.14406003307E+04  0.25500000920E-02 0.  1.
       -2   -1    0    0    0  501  0.00000000000E+00  0.00000000000E+00 -0.16268571219E+04  0.16268571219E+04  0.25500000920E-02 0. -1.
    10030    2    1    2    0    0  0.00000000000E+00  0.00000000000E+00 -0.18625679122E+03  0.30674574527E+04  0.30617974511E+04 0.  0.
        4    1    3    3  502    0  0.68166444216E+03 -0.17104145239E+03 -0.14556895114E+04  0.16164637814E+04  0.12699999809E+01 0. -1.
       -4    1    3    3    0  502 -0.68166444216E+03  0.17104145239E+03  0.12694327202E+04  0.14509936713E+04  0.12699999809E+01 0.  1.
</event>
<event>
 5   0  0.1089569E-05  0.3046681E+04  0.7818609E-02  0.8230525E-01
       -2   -1    0    0    0  501  0.00000000000E+00  0.00000000000E+00  0.28411024390E+04  0.28411024390E+04  0.25500000920E-02 0.  1.
        2   -1    0    0  501    0  0.00000000000E+00  0.00000000000E+00 -0.81678358013E+03  0.81678358014E+03  0.25500000920E-02 0. -1.
    10030    2    1    2    0    0  0.00000000000E+00  0.00000000000E+00  0.20243188588E+04  0.36578860191E+04  0.30466806998E+04 0.  0.
        5    1    3    3  502    0 -0.73606196045E+03 -0.29490907514E+03 -0.54946226136E+03  0.96472246728E+03  0.46999998093E+01 0. -1.
       -5    1    3    3    0  502  0.73606196045E+03  0.29490907514E+03  0.25737811202E+04  0.26931635518E+04  0.46999998093E+01 0.  1.
</event>
<event>
 5   0  0.3725232E-06  0.2877909E+04  0.7818609E-02  0.8279481E-01
       -1   -1    0    0    0  501  0.00000000000E+00  0.00000000000E+00  0.10514654593E+04  0.10514654593E+04  0.50400001928E-02 0.  1.
        1   -1    0    0  501    0  0.00000000000E+00  0.00000000000E+00 -0.19692420639E+04  0.19692420639E+04  0.50400001928E-02 0. -1.
    10030    2    1    2    0    0  0.00000000000E+00  0.00000000000E+00 -0.91777660454E+03  0.30207075232E+04  0.28779089709E+04 0.  0.
        2    1    3    3  502    0  0.42051445110E+03 -0.13276896894E+04 -0.83878319356E+03  0.16257766023E+04  0.25500000920E-02 0. -1.
       -2    1    3    3    0  502 -0.42051445110E+03  0.13276896894E+04 -0.78993410979E+02  0.13949309208E+04  0.25500000920E-02 0.  1.
</event>
<event>
 5   0  0.3725232E-06  0.2715749E+04  0.7818609E-02  0.8329913E-01
        1   -1    0    0  501    0  0.00000000000E+00  0.00000000000E+00  0.12648492158E+04  0.12648492158E+04  0.50400001928E-02 0. -1.
       -1   -1    0    0    0  501  0.00000000000E+00  0.00000000000E+00 -0.14577414815E+04  0.14577414816E+04  0.50400001928E-02 0.  1.
    10030    2    1    2    0    0  0.00000000000E+00  0.00000000000E+00 -0.19289226579E+03  0.27225906973E+04  0.27157490088E+04 0.  0.
        2    1    3    3  502    0 -0.86816373280E+02  0.57492957597E+03  0.11337320451E+04  0.12741387091E+04  0.25500000920E-02 0. -1.
       -2    1    3    3    0  502  0.86816373280E+02 -0.57492957597E+03 -0.13266243109E+04  0.14484519882E+04  0.25500000920E-02 0.  1.
</event>
<event>
 5   0  0.3636718E-06  0.2857667E+04  0.7818609E-02  0.8285585E-01
       -1   -1    0    0    0  501  0.00000000000E+00  0.00000000000E+00  0.36277375144E+04  0.36277375144E+04  0.50400001928E-02 0. -1.
        1   -1    0    0  501    0  0.00000000000E+00  0.00000000000E+00 -0.56276529686E+03  0.56276529689E+03  0.50400001928E-02 0.  1.
    10030    2    1    2    0    0  0.00000000000E+00  0.00000000000E+00  0.30649722175E+04  0.41905028113E+04  0.28576667261E+04 0.  0.
        4    1    3    3  502    0 -0.28327566025E+03  0.13853363966E+04  0.18335860738E+04  0.23154786836E+04  0.12699999809E+01 0.  1.
       -4    1    3    3    0  502  0.28327566025E+03 -0.13853363966E+04  0.12313861437E+04  0.18750241276E+04  0.12699999809E+01 0. -1.
</event>
<event>
 5   0  0.3592331E-06  0.2827350E+04  0.7818609E-02  0.8294827E-01
        1   -1    0    0  501    0  0.00000000000E+00  0.00000000000E+00  0.74976591599E+03  0.74976591600E+03  0.50400001928E-02 0. -1.
       -1   -1    0    0    0  501  0.00000000000E+00  0.00000000000E+00 -0.26654685514E+04  0.26654685514E+04  0.50400001928E-02 0.  1.
    10030    2    1    2    0    0  0.00000000000E+00  0.00000000000E+00 -0.19157026355E+04  0.34152344674E+04  0.28273503285E+04 0.  0.
        3    1    3    3  502    0 -0.17732027999E+03 -0.36068713513E+03 -0.25950008906E+04  0.26259412262E+04  0.10100000352E+00 0.  1.
       -3    1    3    3    0  502  0.17732027999E+03  0.36068713513E+03  0.67929825510E+03  0.78929324127E+03  0.10100000352E+00 0. -1.
</event>
<event>
 5   0  0.1057036E-05  0.3072896E+04  0.7818609E-02  0.8223216E-01
        2   -1    0    0  501    0  0.00000000000E+00  0.00000000000E+00  0.19418455139E+04  0.19418455139E+04  0.25500000920E-02 0. -1.
       -2   -1    0    0    0  501  0.00000000000E+00  0.00000000000E+00 -0.12156853139E+04  0.12156853139E+04  0.25500000920E-02 0.  1.
    10030    2    1    2    0    0  0.00000000000E+00  0.00000000000E+00  0.72616019995E+03  0.31575308278E+04  0.30728964012E+04 0.  0.
        4    1    3    3  502    0 -0.71809138535E+03  0.35535345501E+03  0.17101954691E+04  0.18885712778E+04  0.12699999809E+01 0. -1.
       -4    1    3    3    0  502  0.71809138535E+03 -0.35535345501E+03 -0.98403526917E+03  0.12689595500E+04  0.12699999809E+01 0.  1.
</event>
<event>
 5   0  0.1089569E-05  0.2616620E+04  0.7818609E-02  0.8362578E-01
        2   -1    0    0  501    0  0.00000000000E+00  0.00000000000E+00  0.20102469509E+04  0.20102469509E+04  0.25500000920E-02 0.  1.
       -2   -1    0    0    0  501  0.00000000000E+00  0.00000000000E+00 -0.85147506188E+03  0.85147506188E+03  0.25500000920E-02 0. -1.
    10030    2    1    2    0    0  0.00000000000E+00  0.00000000000E+00  0.11587718890E+04  0.28617220128E+04  0.26166200694E+04 0.  0.
        5    1    3    3  502    0  0.92225855903E+02 -0.11428659099E+04  0.12684898998E+04  0.17098938015E+04  0.46999998093E+01 0.  1.
       -5    1    3    3    0  502 -0.92225855903E+02  0.11428659099E+04 -0.10971801078E+03  0.11518282113E+04  0.46999998093E+01 0. -1.
</event>
<event>
 5   0  0.3896630E-06  0.3023756E+04  0.7818609E-02  0.8236980E-01
       -1   -1    0    0    0  501  0.00000000000E+00  0.00000000000E+00  0.27431386988E+04  0.27431386988E+04  0.50400001928E-02 0.  1.
        1   -1    0    0  501    0  0.00000000000E+00  0.00000000000E+00 -0.83326992269E+03  0.83326992271E+03  0.50400001928E-02 0. -1.
    10030    2    1    2    0    0  0.00000000000E+00  0.00000000000E+00  0.19098687761E+04  0.35764086215E+04  0.30237559237E+04 0.  0.
        5    1    3    3  502    0 -0.19123488718E+03 -0.11506234944E+04  0.20926386943E+04  0.23957595878E+04  0.46999998093E+01 0.  1.
       -5    1    3    3    0  502  0.19123488718E+03  0.11506234944E+04 -0.18276991814E+03  0.11806490337E+04  0.46999998093E+01 0. -1.
</event>
<event>
 5   0  0.1029922E-05  0.3002342E+04  0.7818609E-02  0.8243063E-01
       -2   -1    0    0    0  501  0.00000000000E+00  0.00000000000E+00  0.12780796093E+04  0.12780796093E+04  0.25500000920E-02 0.  1.
        2   -1    0    0  501    0  0.00000000000E+00  0.00000000000E+00 -0.17632031404E+04  0.17632031404E+04  0.25500000920E-02 0. -1.
    10030    2    1    2    0    0  0.00000000000E+00  0.00000000000E+00 -0.48512353113E+03  0.30412827497E+04  0.30023417399E+04 0.  0.
        1    1    3    3  502    0  0.13047764914E+04 -0.18586298850E+03 -0.97058172895E+03  0.16367698786E+04  0.50400001928E-02 0. -1.
       -1    1    3    3    0  502 -0.13047764914E+04  0.18586298850E+03  0.48545819782E+03  0.14045128710E+04  0.50400001928E-02 0.  1.
</event>
<event>
 5   0  0.9647945E-06  0.3178295E+04  0.7818609E-02  0.8194573E-01
       -2   -1    0    0    0  501  0.00000000000E+00  0.00000000000E+00  0.14324863638E+04  0.14324863638E+04  0.25500000920E-02 0. -1.
        2   -1    0    0  501    0  0.00000000000E+00  0.00000000000E+00 -0.17629420927E+04  0.17629420927E+04  0.25500000920E-02 0.  1.
    10030    2    1    2    0    0  0.00000000000E+00  0.00000000000E+00 -0.33045572889E+03  0.31954284566E+04  0.31782954602E+04 0.  0.
        2    1    3    3  502    0  0.96142811749E+03  0.12316628012E+04 -0.45671005643E+03  0.16278579043E+04  0.25500000920E-02 0. -1.
       -2    1    3    3    0  502 -0.96142811749E+03 -0.12316628012E+04  0.12625432754E+03  0.15675705522E+04  0.25500000920E-02 0.  1.
</event>
<event>
 5   0  0.9647945E-06  0.2479654E+04  0.7818609E-02  0.8410270E-01
       -2   -1    0    0    0  501  0.00000000000E+00  0.00000000000E+00  0.11108043571E+04  0.11108043571E+04  0.25500000920E-02 0.  1.
        2   -1    0    0  501    0  0.00000000000E+00  0.00000000000E+00 -0.13838360804E+04  0.13838360804E+04  0.25500000920E-02 0. -1.
    10030    2    1    2    0    0  0.00000000000E+00  0.00000000000E+00 -0.27303172326E+03  0.24946404375E+04  0.24796541272E+04 0.  0.
        2    1    3    3  502    0  0.79377573543E+03  0.31861471104E+03  0.76644740137E+03  0.11484933049E+04  0.25500000920E-02 0.  1.
       -2    1    3    3    0  502 -0.79377573543E+03 -0.31861471104E+03 -0.10394791246E+04  0.13461471327E+04  0.25500000920E-02 0. -1.
</event>
<event>
 5   0  0.3636718E-06  0.3154699E+04  0.7818609E-02  0.8200885E-01
       -1   -1    0    0    0  501  0.00000000000E+00  0.00000000000E+00  0.11267710243E+04  0.11267710244E+04  0.50400001928E-02 0. -1.
        1   -1    0    0  501    0  0.00000000000E+00  0.00000000000E+00 -0.22081069199E+04  0.22081069199E+04  0.50400001928E-02 0.  1.
    10030    2    1    2    0    0  0.00000000000E+00  0.00000000000E+00 -0.10813358955E+04  0.33348779443E+04  0.31546986519E+04 0.  0.
        4    1    3    3  502    0 -0.81804958067E+03  0.11233822637E+04 -0.13295024430E+04  0.19232189646E+04  0.12699999809E+01 0.  1.
       -4    1    3    3    0  502  0.81804958067E+03 -0.11233822637E+04  0.24816654745E+03  0.14116589797E+04  0.12699999809E+01 0. -1.
</event>
<event>
 5   0  0.3852126E-06  0.3037476E+04  0.7818609E-02  0.8233110E-01
        1   -1    0    0  501    0  0.00000000000E+00  0.00000000000E+00  0.14100377606E+04  0.14100377606E+04  0.50400001928E-02 0.  1.
       -1   -1    0    0    0  501  0.00000000000E+00  0.00000000000E+00 -0.16358179503E+04  0.16358179503E+04  0.50400001928E-02 0. -1.
    10030    2    1    2    0    0  0.00000000000E+00  0.00000000000E+00 -0.22578018970E+03  0.30458557109E+04  0.30374759781E+04 0.  0.
        1    1    3    3  502    0  0.35995772748E+03 -0.12769308293E+03 -0.15868738731E+04  0.16321898720E+04  0.50400001928E-02 0. -1.
       -1    1    3    3    0  502 -0.35995772748E+03  0.12769308293E+03  0.13610936834E+04  0.14136658389E+04  0.50400001928E-02 0.  1.
</event>
<event>
 5   0  0.1089569E-05  0.2950635E+04  0.7818609E-02  0.8257970E-01
       -2   -1    0    0    0  501  0.00000000000E+00  0.00000000000E+00  0.12806547366E+04  0.12806547366E+04  0.25500000920E-02 0.  1.
        2   -1    0    0  501    0  0.00000000000E+00  0.00000000000E+00 -0.16995694983E+04  0.16995694983E+04  0.25500000920E-02 0. -1.
    10030    2    1    2    0    0  0.00000000000E+00  0.00000000000E+00 -0.41891476170E+03  0.29802242349E+04  0.29506350016E+04 0.  0.
        5    1    3    3  502    0  0.47528947768E+03  0.13517896766E+04 -0.56412572226E+03  0.15399660184E+04  0.46999998093E+01 0.  1.
       -5    1    3    3    0  502 -0.47528947768E+03 -0.13517896766E+04  0.14521096055E+03  0.14402582165E+04  0.46999998093E+01 0. -1.
</event>
<event>
 5   0  0.3896630E-06  0.2495197E+04  0.7818609E-02  0.8404699E-01
       -1   -1    0    0    0  501  0.00000000000E+00  0.00000000000E+00  0.59942789710E+03  0.59942789712E+03  0.50400001928E-02 0.  1.
        1   -1    0    0  501    0  0.00000000000E+00  0.00000000000E+00 -0.25966455943E+04  0.25966455943E+04  0.50400001928E-02 0. -1.
    10030    2    1    2    0    0  0.00000000000E+00  0.00000000000E+00 -0.19972176972E+04  0.31960734914E+04  0.24951968324E+04 0.  0.
        5    1    3    3  502    0 -0.72394379446E+03 -0.43786408017E+03  0.17580773876E+03  0.86414699054E+03  0.46999998093E+01 0.  1.
       -5    1    3    3    0  502  0.72394379446E+03  0.43786408017E+03 -0.21730254360E+04  0.23319265009E+04  0.46999998093E+01 0. -1.
</event>
<event>
 5   0  0.9647945E-06  0.2923495E+04  0.7818609E-02  0.8265921E-01
        2   -1    0    0  501    0  0.00000000000E+00  0.00000000000E+00  0.15641210992E+04  0.15641210992E+04  0.25500000920E-02 0.  1.
       -2   -1    0    0    0  501  0.00000000000E+00  0.00000000000E+00 -0.13660741859E+04  0.13660741859E+04  0.25500000920E-02 0. -1.
    10030    2    1    2    0    0  0.00000000000E+00  0.00000000000E+00  0.19804691328E+03  0.29301952852E+04  0.29234947972E+04 0.  0.
        2    1    3    3  502    0 -0.19364402734E+03  0.80580626853E+03 -0.11078474677E+04  0.13835272904E+04  0.25500000920E-02 0. -1.
       -2    1    3    3    0  502  0.19364402734E+03 -0.80580626853E+03  0.13058943810E+04  0.15466679947E+04  0.25500000920E-02 0.  1.
</event>
<event>
 5   0  0.1057036E-05  0.2950824E+04  0.7818609E-02  0.8257914E-01
        2   -1    0    0  501    0  0.00000000000E+00  0.00000000000E+00  0.14283014244E+04  0.14283014244E+04  0.25500000920E-02 0.  1.
       -2   -1    0    0    0  501  0.00000000000E+00  0.00000000000E+00 -0.15240764228E+04  0.15240764228E+04  0.25500000920E-02 0. -1.
    10030    2    1    2    0    0  0.00000000000E+00  0.00000000000E+00 -0.95774998380E+02  0.29523778473E+04  0.29508239701E+04 0.  0.
        4    1    3    3  502    0 -0.13473715937E+04  0.19431113406E+03 -0.61710877392E+03  0.14946544350E+04  0.12699999809E+01 0. -1.
       -4    1    3    3    0  502  0.13473715937E+04 -0.19431113406E+03  0.52133377554E+03  0.14577234123E+04  0.12699999809E+01 0.  1.
</event>
<event>
 5   0  0.3636718E-06  0.3021478E+04  0.7818609E-02  0.8237624E-01
       -1   -1    0    0    0  501  0.00000000000E+00  0.00000000000E+00  0.19280447944E+04  0.19280447944E+04  0.50400001928E-02 0. -1.
        1   -1    0    0  501    0  0.00000000000E+00  0.00000000000E+00 -0.11837544446E+04  0.11837544447E+04  0.50400001928E-02 0.  1.
    10030    2    1    2    0    0  0.00000000000E+00  0.00000000000E+00  0.74429034972E+03  0.31117992390E+04  0.30214775159E+04 0.  0.
        4    1    3    3  502    0  0.12669604462E+04 -0.27843465058E+03  0.11696412903E+04  0.17466473565E+04  0.12699999809E+01 0. -1.
       -4    1    3    3    0  502 -0.12669604462E+04  0.27843465058E+03 -0.42535094061E+03  0.13651518826E+04  0.12699999809E+01 0.  1.
</event>
<event>
 5   0  0.3313750E-06  0.2950295E+04  0.7818609E-02  0.8258069E-01
       -4   -1    0    0    0  501  0.00000000000E+00  0.00000000000E+00  0.20303452788E+04  0.20303456759E+04  0.12699999809E+01 0.  1.
        4   -1    0    0  501    0  0.00000000000E+00  0.00000000000E+00 -0.10717676756E+04  0.10717684281E+04  0.12699999809E+01 0. -1.
    10030    2    1    2    0    0  0.00000000000E+00  0.00000000000E+00  0.95857760313E+03  0.31021141040E+04  0.29502950519E+04 0.  0.
        4    1    3    3  502    0 -0.97072050411E+03  0.46007634056E+03 -0.58372010357E+03  0.12225789580E+04  0.12699999809E+01 0. -1.
       -4    1    3    3    0  502  0.97072050411E+03 -0.46007634056E+03  0.15422977067E+04  0.18795351461E+04  0.12699999809E+01 0.  1.
</event>
<event>
 5   0  0.1028450E-05  0.3001735E+04  0.7818609E-02  0.8243236E-01
        2   -1    0    0  501    0  0.00000000000E+00  0.00000000000E+00  0.14384612377E+04  0.14384612377E+04  0.25500000920E-02 0.  1.
       -2   -1    0    0    0  501  0.00000000000E+00  0.00000000000E+00 -0.15659808812E+04  0.15659808812E+04  0.25500000920E-02 0. -1.
    10030    2    1    2    0    0  0.00000000000E+00  0.00000000000E+00 -0.12751964350E+03  0.30044421189E+04  0.30017346961E+04 0.  0.
        3    1    3    3  502    0 -0.15330740893E+03 -0.14775456904E+04 -0.27833218540E+03  0.15113283047E+04  0.10100000352E+00 0. -1.
       -3    1    3    3    0  502  0.15330740893E+03  0.14775456904E+04  0.15081254190E+03  0.14931138141E+04  0.10100000352E+00 0.  1.
</event>
<event>
 5   0  0.1057036E-05  0.2975156E+04  0.7818609E-02  0.8250861E-01
       -2   -1    0    0    0  501  0.00000000000E+00  0.00000000000E+00  0.10913854503E+04  0.10913854503E+04  0.25500000920E-02 0. -1.
        2   -1    0    0  501    0  0.00000000000E+00  0.00000000000E+00 -0.20275960022E+04  0.20275960022E+04  0.25500000920E-02 0.  1.
    10030    2    1    2    0    0  0.00000000000E+00  0.00000000000E+00 -0.93621055186E+03  0.31189814525E+04  0.29751563158E+04 0.  0.
        4    1    3    3  502    0 -0.18234585884E+03 -0.29818987473E+01  0.10796212236E+04  0.10949166650E+04  0.12699999809E+01 0. -1.
       -4    1    3    3    0  502  0.18234585884E+03  0.29818987473E+01 -0.20158317755E+04  0.20240647875E+04  0.12699999809E+01 0.  1.
</event>
<event>
 5   0  0.3725232E-06  0.2989398E+04  0.7818609E-02  0.8246765E-01
       -1   -1    0    0    0  501  0.00000000000E+00  0.00000000000E+00  0.17543893598E+04  0.17543893598E+04  0.50400001928E-02 0. -1.
        1   -1    0    0  501    0  0.00000000000E+00  0.00000000000E+00 -0.12734488864E+04  0.12734488864E+04  0.50400001928E-02 0.  1.
    10030    2    1    2    0    0  0.00000000000E+00  0.00000000000E+00  0.48094047337E+03  0.30278382462E+04  0.29893980508E+04 0.  0.
        2    1    3    3  502    0 -0.33852481110E+03  0.13039438881E+04 -0.41535603152E+03  0.14097479718E+04  0.25500000920E-02 0.  1.
       -2    1    3    3    0  502  0.33852481110E+03 -0.13039438881E+04  0.89629650489E+03  0.16180902743E+04  0.25500000920E-02 0. -1.
</event>
<event>
 5   0  0.1089569E-05  0.2646360E+04  0.7818609E-02  0.8352622E-01
        2   -1    0    0  501    0  0.00000000000E+00  0.00000000000E+00  0.14168214144E+04  0.14168214144E+04  0.25500000920E-02 0. -1.
       -2   -1    0    0    0  501  0.00000000000E+00  0.00000000000E+00 -0.12357272126E+04  0.12357272126E+04  0.25500000920E-02 0.  1.
    10030    2    1    2    0    0  0.00000000000E+00  0.00000000000E+00  0.18109420176E+03  0.26525486270E+04  0.26463595955E+04 0.  0.
        5    1    3    3  502    0  0.71155276114E+02  0.24964893978E+03  0.13910385955E+04  0.14150611756E+04  0.46999998093E+01 0. -1.
       -5    1    3    3    0  502 -0.71155276114E+02 -0.24964893978E+03 -0.12099443937E+04  0.12374874514E+04  0.46999998093E+01 0.  1.
</event>
<event>
 5   0  0.3896630E-06  0.2534255E+04  0.7818609E-02  0.8390883E-01
        1   -1    0    0  501    0  0.00000000000E+00  0.00000000000E+00  0.13264703178E+04  0.13264703178E+04  0.50400001928E-02 0.  1.
       -1   -1    0    0    0  501  0.00000000000E+00  0.00000000000E+00 -0.12104393998E+04  0.12104393998E+04  0.50400001928E-02 0. -1.
    10030    2    1    2    0    0  0.00000000000E+00  0.00000000000E+00  0.11603091798E+03  0.25369097176E+04  0.25342548690E+04 0.  0.
        5    1    3    3  502    0  0.74206726536E+03 -0.10091931901E+04  0.24914772672E+03  0.12771966963E+04  0.46999998093E+01 0.  1.
       -5    1    3    3    0  502 -0.74206726536E+03  0.10091931901E+04 -0.13311680874E+03  0.12597130213E+04  0.46999998093E+01 0. -1.
</event>
<event>
 5   0  0.1057036E-05  0.2899408E+04  0.7818609E-02  0.8273054E-01
       -2   -1    0    0    0  501  0.00000000000E+00  0.00000000000E+00  0.10936864102E+04  0.10936864102E+04  0.25500000920E-02 0. -1.
        2   -1    0    0  501    0  0.00000000000E+00  0.00000000000E+00 -0.19216130859E+04  0.19216130859E+04  0.25500000920E-02 0.  1.
    10030    2    1    2    0    0  0.00000000000E+00  0.00000000000E+00 -0.82792667572E+03  0.30152994961E+04  0.28994082967E+04 0.  0.
        4    1    3    3  502    0  0.33537795809E+03  0.13160446704E+04  0.11344488610E+03  0.13628364921E+04  0.12699999809E+01 0. -1.
       -4    1    3    3    0  502 -0.33537795809E+03 -0.13160446704E+04 -0.94137156182E+03  0.16524630040E+04  0.12699999809E+01 0.  1.
</event>
<event>
 5   0  0.3852126E-06  0.2677152E+04  0.7818609E-02  0.8342457E-01
       -1   -1    0    0    0  501  0.00000000000E+00  0.00000000000E+00  0.91199933625E+03  0.91199933626E+03  0.50400001928E-02 0. -1.
        1   -1    0    0  501    0  0.00000000000E+00  0.00000000000E+00 -0.19646790867E+04  0.19646790867E+04  0.50400001928E-02 0.  1.
    10030    2    1    2    0    0  0.00000000000E+00  0.00000000000E+00 -0.10526797505E+04  0.28766784230E+04  0.26771522355E+04 0.  0.
        1    1    3    3  502    0  0.73578384439E+03 -0.83081667867E+03  0.27787317701E+03  0.11440488284E+04  0.50400001928E-02 0. -1.
       -1    1    3    3    0  502 -0.73578384439E+03  0.83081667867E+03 -0.13305529275E+04  0.17326295946E+04  0.50400001928E-02 0.  1.
</event>
<event>
 5   0  0.1089569E-05  0.3002583E+04  0.7818609E-02  0.8242994E-01
        2   -1    0    0  501    0  0.00000000000E+00  0.00000000000E+00  0.17743450423E+04  0.17743450423E+04  0.25500000920E-02 0.  1.
       -2   -1    0    0    0  501  0.00000000000E+00  0.00000000000E+00 -0.12702579281E+04  0.12702579281E+04  0.25500000920E-02 0. -1.
    10030    2    1    2    0    0  0.00000000000E+00  0.00000000000E+00  0.50408711429E+03  0.30446029704E+04  0.30025827930E+04 0.  0.
        5    1    3    3  502    0 -0.39270055463E+03  0.14477918003E+04  0.31236511510E+03  0.15322887710E+04  0.46999998093E+01 0. -1.
       -5    1    3    3    0  502  0.39270055463E+03 -0.14477918003E+04  0.19172199919E+03  0.15123141994E+04  0.46999998093E+01 0.  1.
</event>
<event>
 5   0  0.3896630E-06  0.2974230E+04  0.7818609E-02  0.8251128E-01
       -1   -1    0    0    0  501  0.00000000000E+00  0.00000000000E+00  0.14519690725E+04  0.14519690725E+04  0.50400001928E-02 0.  1.
        1   -1    0    0  501    0  0.00000000000E+00  0.00000000000E+00 -0.15231119860E+04  0.15231119860E+04  0.50400001928E-02 0. -1.
    10030    2    1    2    0    0  0.00000000000E+00  0.00000000000E+00 -0.71142913499E+02  0.29750810585E+04  0.29742303190E+04 0.  0.
        5    1    3    3  502    0  0.14405609838E+04 -0.36650234110E+03  0.85942433632E+01  0.14864843978E+04  0.46999998093E+01 0. -1.
       -5    1    3    3    0  502 -0.14405609838E+04  0.36650234110E+03 -0.79737156862E+02  0.14885966607E+04  0.46999998093E+01 0.  1.
</event>
<event>
 5   0  0.3896630E-06  0.2740039E+04  0.7818609E-02  0.8322130E-01
        1   -1    0    0  501    0  0.00000000000E+00  0.00000000000E+00  0.15653029759E+04  0.15653029759E+04  0.50400001928E-02 0.  1.
       -1   -1    0    0    0  501  0.00000000000E+00  0.00000000000E+00 -0.11990988423E+04  0.11990988423E+04  0.50400001928E-02 0. -1.
    10030    2    1    2    0    0  0.00000000000E+00  0.00000000000E+00  0.36620413355E+03  0.27644018182E+04  0.27400386758E+04 0.  0.
        5    1    3    3  502    0 -0.78370926671E+03 -0.62053435693E+03 -0.76206712671E+03  0.12569930384E+04  0.46999998093E+01 0.  1.
       -5    1    3    3    0  502  0.78370926671E+03  0.62053435693E+03  0.11282712603E+04  0.15074087798E+04  0.46999998093E+01 0. -1.
</event>
<event>
 5   0  0.1089569E-05  0.2751603E+04  0.7818609E-02  0.8318453E-01
        2   -1    0    0  501    0  0.00000000000E+00  0.00000000000E+00  0.23098923644E+04  0.23098923644E+04  0.25500000920E-02 0. -1.
       -2   -1    0    0    0  501  0.00000000000E+00  0.00000000000E+00 -0.81944520920E+03  0.81944520920E+03  0.25500000920E-02 0.  1.
    10030    2    1    2    0    0  0.00000000000E+00  0.00000000000E+00  0.14904471552E+04  0.31293375736E+04  0.27516033376E+04 0.  0.
        5    1    3    3  502    0  0.16055279369E+03  0.13647996521E+04  0.67019036650E+03  0.15289318190E+04  0.46999998093E+01 0. -1.
       -5    1    3    3    0  502 -0.16055279369E+03 -0.13647996521E+04  0.82025678873E+03  0.16004057546E+04  0.46999998093E+01 0.  1.
</event>
<event>
 5   0  0.3852126E-06  0.3075950E+04  0.7818609E-02  0.8222369E-01
        1   -1    0    0  501    0  0.00000000000E+00  0.00000000000E+00  0.14694574414E+04  0.14694574415E+04  0.50400001928E-02 0. -1.
       -1   -1    0    0    0  501  0.00000000000E+00  0.00000000000E+00 -0.16096877525E+04  0.16096877525E+04  0.50400001928E-02 0.  1.
    10030    2    1    2    0    0  0.00000000000E+00  0.00000000000E+00 -0.14023031103E+03  0.30791451939E+04  0.30759503548E+04 0.  0.
        1    1    3    3  502    0 -0.99804196596E+03  0.11365440661E+04  0.20864753826E+03  0.15268771972E+04  0.50400001928E-02 0. -1.
       -1    1    3    3    0  502  0.99804196596E+03 -0.11365440661E+04 -0.34887784929E+03  0.15522679968E+04  0.50400001928E-02 0.  1.
</event>
<event>
 5   0  0.3636718E-06  0.2998366E+04  0.7818609E-02  0.8244198E-01
       -1   -1    0    0    0  501  0.00000000000E+00  0.00000000000E+00  0.72082901417E+03  0.72082901418E+03  0.50400001928E-02 0.  1.
        1   -1    0    0  501    0  0.00000000000E+00  0.00000000000E+00 -0.31180063323E+04  0.31180063323E+04  0.50400001928E-02 0. -1.
    10030    2    1    2    0    0  0.00000000000E+00  0.00000000000E+00 -0.23971773181E+04  0.38388353465E+04  0.29983658421E+04 0.  0.
        4    1    3    3  502    0 -0.71198193651E+03  0.88444431899E+03 -0.24519765613E+04  0.27021011641E+04  0.12699999809E+01 0. -1.
       -4    1    3    3    0  502  0.71198193651E+03 -0.88444431899E+03  0.54799243164E+02  0.11367341823E+04  0.12699999809E+01 0.  1.
</event>
<event>
 5   0  0.3896630E-06  0.3046731E+04  0.7818609E-02  0.8230511E-01
        1   -1    0    0  501    0  0.00000000000E+00  0.00000000000E+00  0.19877075261E+04  0.19877075262E+04  0.50400001928E-02 0. -1.
       -1   -1    0    0    0  501  0.00000000000E+00  0.00000000000E+00 -0.11674966510E+04  0.11674966510E+04  0.50400001928E-02 0.  1.
    10030    2    1    2    0    0  0.00000000000E+00  0.00000000000E+00  0.82021087514E+03  0.31552041772E+04  0.30467306281E+04 0.  0.
        5    1    3    3  502    0  0.83386677300E+03  0.15488478778E+03 -0.90037129277E+03  0.12369372043E+04  0.46999998093E+01 0.  1.
       -5    1    3    3    0  502 -0.83386677300E+03 -0.15488478778E+03  0.17205821679E+04  0.19182669728E+04  0.46999998093E+01 0. -1.
</event>
<event>
 5   0  0.3636718E-06  0.3051459E+04  0.7818609E-02  0.8229187E-01
       -1   -1    0    0    0  501  0.00000000000E+00  0.00000000000E+00  0.10665871036E+04  0.10665871036E+04  0.50400001928E-02 0.  1.
        1   -1    0    0  501    0  0.00000000000E+00  0.00000000000E+00 -0.21825232601E+04  0.21825232601E+04  0.50400001928E-02 0. -1.
    10030    2    1    2    0    0  0.00000000000E+00  0.00000000000E+00 -0.11159361565E+04  0.32491103638E+04  0.30514594296E+04 0.  0.
        4    1    3    3  502    0  0.32303965550E+03 -0.10332261472E+04 -0.17027539409E+04  0.20177421754E+04  0.12699999809E+01 0. -1.
       -4    1    3    3    0  502 -0.32303965550E+03  0.10332261472E+04  0.58681778442E+03  0.12313681883E+04  0.12699999809E+01 0.  1.
</event>
<event>
 5   0  0.3636718E-06  0.3036252E+04  0.7818609E-02  0.8233454E-01
       -1   -1    0    0    0  501  0.00000000000E+00  0.00000000000E+00  0.11651304860E+04  0.11651304861E+04  0.50400001928E-02 0.  1.
        1   -1    0    0  501    0  0.00000000000E+00  0.00000000000E+00 -0.19780670768E+04  0.19780670768E+04  0.50400001928E-02 0. -1.
    10030    2    1    2    0    0  0.00000000000E+00  0.00000000000E+00 -0.81293659075E+03  0.31431975629E+04  0.30362518042E+04 0.  0.
        4    1    3    3  502    0 -0.76727175781E+03 -0.20602998727E+03 -0.17456924779E+04  0.19179671911E+04  0.12699999809E+01 0. -1.
       -4    1    3    3    0  502  0.76727175781E+03  0.20602998727E+03  0.93275588712E+03  0.12252303717E+04  0.12699999809E+01 0.  1.
</event>
<event>
 5   0  0.3636718E-06  0.3009954E+04  0.7818609E-02  0.8240894E-01
       -1   -1    0    0    0  501  0.00000000000E+00  0.00000000000E+00  0.13369204990E+04  0.13369204990E+04  0.50400001928E-02 0. -1.
        1   -1    0    0  501    0  0.00000000000E+00  0.00000000000E+00 -0.16941593803E+04  0.16941593803E+04  0.50400001928E-02 0.  1.
    10030    2    1    2    0    0  0.00000000000E+00  0.00000000000E+00 -0.35723888129E+03  0.30310798793E+04  0.30099544210E+04 0.  0.
        4    1    3    3  502    0 -0.14837608710E+04 -0.86544530922E+02  0.59511194134E+02  0.14874741925E+04  0.12699999809E+01 0. -1.
       -4    1    3    3    0  502  0.14837608710E+04  0.86544530922E+02 -0.41675007542E+03  0.15436056868E+04  0.12699999809E+01 0.  1.
</event>
<event>
 5   0  0.3592331E-06  0.3191373E+04  0.7818609E-02  0.8191099E-01
       -1   -1    0    0    0  501  0.00000000000E+00  0.00000000000E+00  0.12562068434E+04  0.12562068434E+04  0.50400001928E-02 0. -1.
        1   -1    0    0  501    0  0.00000000000E+00  0.00000000000E+00 -0.20269073235E+04  0.20269073235E+04  0.50400001928E-02 0.  1.
    10030    2    1    2    0    0  0.00000000000E+00  0.00000000000E+00 -0.77070048010E+03  0.32831141670E+04  0.31913726519E+04 0.  0.
        3    1    3    3  502    0  0.39323576008E+03  0.20815113410E+02 -0.19761357373E+04  0.20149888571E+04  0.10100000352E+00 0.  1.
       -3    1    3    3    0  502 -0.39323576008E+03 -0.20815113410E+02  0.12054352572E+04  0.12681253098E+04  0.10100000352E+00 0. -1.
</event>
<event>
 5   0  0.9647945E-06  0.2966477E+04  0.7818609E-02  0.8253369E-01
        2   -1    0    0  501    0  0.00000000000E+00  0.00000000000E+00  0.13566620551E+04  0.13566620551E+04  0.25500000920E-02 0.  1.
       -2   -1    0    0    0  501  0.00000000000E+00  0.00000000000E+00 -0.16216248427E+04  0.16216248427E+04  0.25500000920E-02 0. -1.
    10030    2    1    2    0    0  0.00000000000E+00  0.00000000000E+00 -0.26496278762E+03  0.29782868978E+04  0.29664772993E+04 0.  0.
        2    1    3    3  502    0 -0.12336908468E+04  0.66533749357E+03  0.35455786530E+03  0.14458140840E+04  0.25500000920E-02 0.  1.
       -2    1    3    3    0  502  0.12336908468E+04 -0.66533749357E+03 -0.61952065292E+03  0.15324728138E+04  0.25500000920E-02 0. -1.
</event>
<event>
 5   0  0.3592331E-06  0.2969569E+04  0.7818609E-02  0.8252475E-01
       -1   -1    0    0    0  501  0.00000000000E+00  0.00000000000E+00  0.18372726059E+04  0.18372726059E+04  0.50400001928E-02 0. -1.
        1   -1    0    0  501    0  0.00000000000E+00  0.00000000000E+00 -0.11999223247E+04  0.11999223247E+04  0.50400001928E-02 0.  1.
    10030    2    1    2    0    0  0.00000000000E+00  0.00000000000E+00  0.63735028117E+03  0.30371949307E+04  0.29695685993E+04 0.  0.
        3    1    3    3  502    0  0.13097631954E+04 -0.63204611736E+03  0.62486287679E+03  0.15828504501E+04  0.10100000352E+00 0.  1.
       -3    1    3    3    0  502 -0.13097631954E+04  0.63204611736E+03  0.12487404382E+02  0.14543444805E+04  0.10100000352E+00 0. -1.
</event>
<event>
 5   0  0.3852126E-06  0.3005858E+04  0.7818609E-02  0.8242060E-01
        1   -1    0    0  501    0  0.00000000000E+00  0.00000000000E+00  0.12560936612E+04  0.12560936612E+04  0.50400001928E-02 0. -1.
       -1   -1    0    0    0  501  0.00000000000E+00  0.00000000000E+00 -0.17982694582E+04  0.17982694582E+04  0.50400001928E-02 0.  1.
    10030    2    1    2    0    0  0.00000000000E+00  0.00000000000E+00 -0.54217579702E+03  0.30543631195E+04  0.30058575267E+04 0.  0.
        1    1    3    3  502    0  0.13676187110E+04  0.45695695172E+03 -0.70172417143E+03  0.16036232123E+04  0.50400001928E-02 0.  1.
       -1    1    3    3    0  502 -0.13676187110E+04 -0.45695695172E+03  0.15954837441E+03  0.14507399071E+04  0.50400001928E-02 0. -1.
</event>
<event>
 5   0  0.3313750E-06  0.3017195E+04  0.7818609E-02  0.8238838E-01
        4   -1    0    0  501    0  0.00000000000E+00  0.00000000000E+00  0.12236149274E+04  0.12236155865E+04  0.12699999809E+01 0. -1.
       -4   -1    0    0    0  501  0.00000000000E+00  0.00000000000E+00 -0.18599518319E+04  0.18599522655E+04  0.12699999809E+01 0.  1.
    10030    2    1    2    0    0  0.00000000000E+00  0.00000000000E+00 -0.63633690454E+03  0.30835678520E+04  0.30171950619E+04 0.  0.
        5    1    3    3  502    0  0.24292617085E+03  0.85980674479E+03 -0.15604591158E+04  0.17981477984E+04  0.46999998093E+01 0.  1.
       -5    1    3    3    0  502 -0.24292617085E+03 -0.85980674479E+03  0.92412221122E+03  0.12854200536E+04  0.46999998093E+01 0. -1.
</event>
<event>
 5   0  0.3725232E-06  0.2258884E+04  0.7818609E-02  0.8494311E-01
        1   -1    0    0  501    0  0.00000000000E+00  0.00000000000E+00  0.86315789441E+03  0.86315789442E+03  0.50400001928E-02 0. -1.
       -1   -1    0    0    0  501  0.00000000000E+00  0.00000000000E+00 -0.14778749940E+04  0.14778749940E+04  0.50400001928E-02 0.  1.
    10030    2    1    2    0    0  0.00000000000E+00  0.00000000000E+00 -0.61471709963E+03  0.23410328885E+04  0.22588842096E+04 0.  0.
        2    1    3    3  502    0 -0.51620235330E+03  0.99148099327E+03 -0.47491712429E+03  0.12145145963E+04  0.25500000920E-02 0.  1.
       -2    1    3    3    0  502  0.51620235330E+03 -0.99148099327E+03 -0.13979997534E+03  0.11265182922E+04  0.25500000920E-02 0. -1.
</event>
<event>
 5   0  0.3896630E-06  0.2983527E+04  0.7818609E-02  0.8248451E-01
        1   -1    0    0  501    0  0.00000000000E+00  0.00000000000E+00  0.19309578380E+04  0.19309578380E+04  0.50400001928E-02 0. -1.
       -1   -1    0    0    0  501  0.00000000000E+00  0.00000000000E+00 -0.11524632612E+04  0.11524632612E+04  0.50400001928E-02 0.  1.
    10030    2    1    2    0    0  0.00000000000E+00  0.00000000000E+00  0.77849457679E+03  0.30834210992E+04  0.29835267501E+04 0.  0.
        5    1    3    3  502    0 -0.55987577484E+03 -0.61836859116E+02 -0.10383243642E+04  0.11812807692E+04  0.46999998093E+01 0. -1.
       -5    1    3    3    0  502  0.55987577484E+03  0.61836859116E+02  0.18168189410E+04  0.19021403300E+04  0.46999998093E+01 0.  1.
</event>
<event>
 5   0  0.3636718E-06  0.2914349E+04  0.7818609E-02  0.8268621E-01
        1   -1    0    0  501    0  0.00000000000E+00  0.00000000000E+00  0.11441795821E+04  0.11441795822E+04  0.50400001928E-02 0. -1.
       -1   -1    0    0    0  501  0.00000000000E+00  0.00000000000E+00 -0.18557904870E+04  0.18557904870E+04  0.50400001928E-02 0.  1.
    10030    2    1    2    0    0  0.00000000000E+00  0.00000000000E+00 -0.71161090490E+03  0.29999700692E+04  0.29143490416E+04 0.  0.
        4    1    3    3  502    0 -0.57209524284E+03  0.56180817086E+03 -0.16082830545E+04  0.17970802386E+04  0.12699999809E+01 0.  1.
       -4    1    3    3    0  502  0.57209524284E+03 -0.56180817086E+03  0.89667214961E+03  0.12028898306E+04  0.12699999809E+01 0. -1.
</event>
<event>
 5   0  0.3636718E-06  0.2985288E+04  0.7818609E-02  0.8247944E-01
       -1   -1    0    0    0  501  0.00000000000E+00  0.00000000000E+00  0.14918325870E+04  0.14918325870E+04  0.50400001928E-02 0.  1.
        1   -1    0    0  501    0  0.00000000000E+00  0.00000000000E+00 -0.14934562374E+04  0.14934562374E+04  0.50400001928E-02 0. -1.
    10030    2    1    2    0    0  0.00000000000E+00  0.00000000000E+00 -0.16236504003E+01  0.29852888244E+04  0.29852883829E+04 0.  0.
        4    1    3    3  502    0 -0.86780577681E+03 -0.71679091857E+03 -0.98117362903E+03  0.14931776152E+04  0.12699999809E+01 0. -1.
       -4    1    3    3    0  502  0.86780577681E+03  0.71679091857E+03  0.97954997863E+03  0.14921112092E+04  0.12699999809E+01 0.  1.
</event>
<event>
 5   0  0.1057036E-05  0.2834950E+04  0.7818609E-02  0.8292499E-01
       -2   -1    0    0    0  501  0.00000000000E+00  0.00000000000E+00  0.14595605716E+04  0.14595605716E+04  0.25500000920E-02 0.  1.
        2   -1    0    0  501    0  0.00000000000E+00  0.00000000000E+00 -0.13766031760E+04  0.13766031760E+04  0.25500000920E-02 0. -1.
    10030    2    1    2    0    0  0.00000000000E+00  0.00000000000E+00  0.82957395615E+02  0.28361637475E+04  0.28349502418E+04 0.  0.
        4    1    3    3  502    0 -0.82424447530E+03 -0.91843994499E+03 -0.65618859401E+03  0.13976752024E+04  0.12699999809E+01 0.  1.
       -4    1    3    3    0  502  0.82424447530E+03  0.91843994499E+03  0.73914598963E+03  0.14384885451E+04  0.12699999809E+01 0. -1.
</event>
<event>
 5   0  0.3592331E-06  0.2666776E+04  0.7818609E-02  0.8345866E-01
       -1   -1    0    0    0  501  0.00000000000E+00  0.00000000000E+00  0.11240297509E+04  0.11240297509E+04  0.50400001928E-02 0. -1.
        1   -1    0    0  501    0  0.00000000000E+00  0.00000000000E+00 -0.15817409009E+04  0.15817409009E+04  0.50400001928E-02 0.  1.
    10030    2    1    2    0    0  0.00000000000E+00  0.00000000000E+00 -0.45771114998E+03  0.27057706518E+04  0.26667762042E+04 0.  0.
        3    1    3    3  502    0 -0.37439681839E+03  0.12206617385E+04  0.16112882122E+03  0.12869151350E+04  0.10100000352E+00 0. -1.
       -3    1    3    3    0  502  0.37439681839E+03 -0.12206617385E+04 -0.61883997120E+03  0.14188555168E+04  0.10100000352E+00 0.  1.
</event>
<event>
 5   0  0.9647945E-06  0.2958779E+04  0.7818609E-02  0.8255601E-01
       -2   -1    0    0    0  501  0.00000000000E+00  0.00000000000E+00  0.14659965927E+04  0.14659965927E+04  0.25500000920E-02 0. -1.
        2   -1    0    0  501    0  0.00000000000E+00  0.00000000000E+00 -0.14929043596E+04  0.14929043596E+04  0.25500000920E-02 0.  1.
    10030    2    1    2    0    0  0.00000000000E+00  0.00000000000E+00 -0.26907766857E+02  0.29589009523E+04  0.29587786023E+04 0.  0.
        2    1    3    3  502    0  0.14710539797E+04  0.11632307066E+03 -0.11863349764E+03  0.14804069625E+04  0.25500000920E-02 0. -1.
       -2    1    3    3    0  502 -0.14710539797E+04 -0.11632307066E+03  0.91725730778E+02  0.14784939897E+04  0.25500000920E-02 0.  1.
</event>
<event>
 5   0  0.1089569E-05  0.2982820E+04  0.7818609E-02  0.8248654E-01
        2   -1    0    0  501    0  0.00000000000E+00  0.00000000000E+00  0.18155581166E+04  0.18155581166E+04  0.25500000920E-02 0. -1.
       -2   -1    0    0    0  501  0.00000000000E+00  0.00000000000E+00 -0.12251351276E+04  0.12251351276E+04  0.25500000920E-02 0.  1.
    10030    2    1    2    0    0  0.00000000000E+00  0.00000000000E+00  0.59042298901E+03  0.30406932442E+04  0.29828201587E+04 0.  0.
        5    1    3    3  502    0 -0.81915644043E+03  0.11414876592E+04 -0.21476533428E+03  0.14213224788E+04  0.46999998093E+01 0.  1.
       -5    1    3    3    0  502  0.81915644043E+03 -0.11414876592E+04  0.80518832329E+03  0.16193707654E+04  0.46999998093E+01 0. -1.
</event>
<event>
 5   0  0.1028450E-05  0.3267840E+04  0.7818609E-02  0.8171127E-01
        2   -1    0    0  501    0  0.00000000000E+00  0.00000000000E+00  0.26242194498E+04  0.26242194498E+04  0.25500000920E-02 0.  1.
       -2   -1    0    0    0  501  0.00000000000E+00  0.00000000000E+00 -0.10173291173E+04  0.10173291173E+04  0.25500000920E-02 0. -1.
    10030    2    1    2    0    0  0.00000000000E+00  0.00000000000E+00  0.16068903325E+04  0.36415485671E+04  0.32678401775E+04 0.  0.
        3    1    3    3  502    0 -0.11753303566E+04  0.11330219080E+04  0.72823824433E+03  0.17875880515E+04  0.10100000352E+00 0.  1.
       -3    1    3    3    0  502  0.11753303566E+04 -0.11330219080E+04  0.87865208822E+03  0.18539605156E+04  0.10100000352E+00 0. -1.
</event>
<event>
 5   0  0.3725232E-06  0.2740807E+04  0.7818609E-02  0.8321885E-01
       -1   -1    0    0    0  501  0.00000000000E+00  0.00000000000E+00  0.13059521454E+04  0.13059521454E+04  0.50400001928E-02 0. -1.
        1   -1    0    0  501    0  0.00000000000E+00  0.00000000000E+00 -0.14380361316E+04  0.14380361316E+04  0.50400001928E-02 0.  1.
    10030    2    1    2    0    0  0.00000000000E+00  0.00000000000E+00 -0.13208398617E+03  0.27439882770E+04  0.27408074513E+04 0.  0.
        2    1    3    3  502    0  0.79820611309E+03 -0.10310829008E+04  0.35604119371E+03  0.13516768397E+04  0.25500000920E-02 0. -1.
       -2    1    3    3    0  502 -0.79820611309E+03  0.10310829008E+04 -0.48812517988E+03  0.13923114373E+04  0.25500000920E-02 0.  1.
</event>
<event>
 5   0  0.1028450E-05  0.2999353E+04  0.7818609E-02  0.8243916E-01
       -2   -1    0    0    0  501  0.00000000000E+00  0.00000000000E+00  0.13031613142E+04  0.13031613142E+04  0.25500000920E-02 0.  1.
        2   -1    0    0  501    0  0.00000000000E+00  0.00000000000E+00 -0.17258256289E+04  0.17258256289E+04  0.25500000920E-02 0. -1.
    10030    2    1    2    0    0  0.00000000000E+00  0.00000000000E+00 -0.42266431464E+03  0.30289869431E+04  0.29993527266E+04 0.  0.
        3    1    3    3  502    0  0.46468053566E+03 -0.13244758928E+03 -0.16450628992E+04  0.17145560115E+04  0.10100000352E+00 0. -1.
       -3    1    3    3    0  502 -0.46468053566E+03  0.13244758928E+03  0.12223985846E+04  0.13144309316E+04  0.10100000352E+00 0.  1.
</event>
<event>
 5   0  0.3896630E-06  0.3010646E+04  0.7818609E-02  0.8240697E-01
       -1   -1    0    0    0  501  0.00000000000E+00  0.00000000000E+00  0.11851036477E+04  0.11851036477E+04  0.50400001928E-02 0. -1.
        1   -1    0    0  501    0  0.00000000000E+00  0.00000000000E+00 -0.19120667669E+04  0.19120667669E+04  0.50400001928E-02 0.  1.
    10030    2    1    2    0    0  0.00000000000E+00  0.00000000000E+00 -0.72696311922E+03  0.30971704145E+04  0.30106459772E+04 0.  0.
        5    1    3    3  502    0  0.13380790165E+04 -0.65568453564E+03 -0.58315428805E+03  0.16001464553E+04  0.46999998093E+01 0.  1.
       -5    1    3    3    0  502 -0.13380790165E+04  0.65568453564E+03 -0.14380883117E+03  0.14970239593E+04  0.46999998093E+01 0. -1.
</event>
<event>
 5   0  0.3592331E-06  0.2650657E+04  0.7818609E-02  0.8351195E-01
       -1   -1    0    0    0  501  0.00000000000E+00  0.00000000000E+00  0.68153721475E+03  0.68153721477E+03  0.50400001928E-02 0. -1.
        1   -1    0    0  501    0  0.00000000000E+00  0.00000000000E+00 -0.25772553850E+04  0.25772553850E+04  0.50400001928E-02 0.  1.
    10030    2    1    2    0    0  0.00000000000E+00  0.00000000000E+00 -0.18957181703E+04  0.32587925998E+04  0.26506568671E+04 0.  0.
        3    1    3    3  502    0  0.73486135418E+03  0.60293397933E+03 -0.20832977703E+04  0.22899083395E+04  0.10100000352E+00 0.  1.
       -3    1    3    3    0  502 -0.73486135418E+03 -0.60293397933E+03  0.18757960004E+03  0.96888426030E+03  0.10100000352E+00 0. -1.
</event>
<event>
 5   0  0.3852126E-06  0.2999883E+04  0.7818609E-02  0.8243764E-01
        1   -1    0    0  501    0  0.00000000000E+00  0.00000000000E+00  0.24125334469E+04  0.24125334469E+04  0.50400001928E-02 0. -1.
       -1   -1    0    0    0  501  0.00000000000E+00  0.00000000000E+00 -0.93255650988E+03  0.93255650989E+03  0.50400001928E-02 0.  1.
    10030    2    1    2    0    0  0.00000000000E+00  0.00000000000E+00  0.14799769370E+04  0.33450899568E+04  0.29998825118E+04 0.  0.
        1    1    3    3  502    0 -0.42886430012E+03 -0.92868706695E+03  0.19632397767E+04  0.22137512681E+04  0.50400001928E-02 0. -1.
       -1    1    3    3    0  502  0.42886430012E+03  0.92868706695E+03 -0.48326283969E+03  0.11313386887E+04  0.50400001928E-02 0.  1.
</event>
<event>
 5   0  0.1057036E-05  0.2988328E+04  0.7818609E-02  0.8247072E-01
       -2   -1    0    0    0  501  0.00000000000E+00  0.00000000000E+00  0.96444171634E+03  0.96444171634E+03  0.25500000920E-02 0.  1.
        2   -1    0    0  501    0  0.00000000000E+00  0.00000000000E+00 -0.23148384677E+04  0.23148384677E+04  0.25500000920E-02 0. -1.
    10030    2    1    2    0    0  0.00000000000E+00  0.00000000000E+00 -0.13503967513E+04  0.32792801840E+04  0.29883284858E+04 0.  0.
        4    1    3    3  502    0 -0.11299240485E+04 -0.31229330216E+03  0.34142966161E+03  0.12209960232E+04  0.12699999809E+01 0.  1.
       -4    1    3    3    0  502  0.11299240485E+04  0.31229330216E+03 -0.16918264129E+04  0.20582841608E+04  0.12699999809E+01 0. -1.
</event>
<event>
 5   0  0.3852126E-06  0.3006445E+04  0.7818609E-02  0.8241893E-01
       -1   -1    0    0    0  501  0.00000000000E+00  0.00000000000E+00  0.11798014056E+04  0.11798014056E+04  0.50400001928E-02 0.  1.
        1   -1    0    0  501    0  0.00000000000E+00  0.00000000000E+00 -0.19153036869E+04  0.19153036869E+04  0.50400001928E-02 0. -1.
    10030    2    1    2    0    0  0.00000000000E+00  0.00000000000E+00 -0.73550228129E+03  0.30951050925E+04  0.30064450648E+04 0.  0.
        1    1    3    3  502    0 -0.12460501238E+04 -0.50446854176E+03  0.32480458074E+03  0.13829777426E+04  0.50400001928E-02 0.  1.
       -1    1    3    3    0  502  0.12460501238E+04  0.50446854176E+03 -0.10603068620E+04  0.17121273499E+04  0.50400001928E-02 0. -1.
</event>
<event>
 5   0  0.3725232E-06  0.3028837E+04  0.7818609E-02  0.8235544E-01
       -1   -1    0    0    0  501  0.00000000000E+00  0.00000000000E+00  0.14607226060E+04  0.14607226060E+04  0.50400001928E-02 0. -1.
        1   -1    0    0  501    0  0.00000000000E+00  0.00000000000E+00 -0.15700880570E+04  0.15700880571E+04  0.50400001928E-02 0.  1.
    10030    2    1    2    0    0  0.00000000000E+00  0.00000000000E+00 -0.10936545107E+03  0.30308106631E+04  0.30288368185E+04 0.  0.
        2    1    3    3  502    0 -0.24584526971E+03 -0.13042793950E+04 -0.78445799283E+03  0.15417389466E+04  0.25500000920E-02 0.  1.
       -2    1    3    3    0  502  0.24584526971E+03  0.13042793950E+04  0.67509254177E+03  0.14890717165E+04  0.25500000920E-02 0. -1.
</event>
<event>
 5   0  0.3896630E-06  0.3063978E+04  0.7818609E-02  0.8225694E-01
       -1   -1    0    0    0  501  0.00000000000E+00  0.00000000000E+00  0.27382914652E+04  0.27382914652E+04  0.50400001928E-02 0.  1.
        1   -1    0    0  501    0  0.00000000000E+00  0.00000000000E+00 -0.85710011499E+03  0.85710011501E+03  0.50400001928E-02 0. -1.
    10030    2    1    2    0    0  0.00000000000E+00  0.00000000000E+00  0.18811913502E+04  0.35953915802E+04  0.30639777609E+04 0.  0.
        5    1    3    3  502    0 -0.14727263974E+04  0.35945225461E+03  0.68127125619E+03  0.16620113054E+04  0.46999998093E+01 0.  1.
       -5    1    3    3    0  502  0.14727263974E+04 -0.35945225461E+03  0.11999200940E+04  0.19333802748E+04  0.46999998093E+01 0. -1.
</event>
<event>
 5   0  0.9647945E-06  0.2965189E+04  0.7818609E-02  0.8253742E-01
        2   -1    0    0  501    0  0.00000000000E+00  0.00000000000E+00  0.19790524238E+04  0.19790524238E+04  0.25500000920E-02 0.  1.
       -2   -1    0    0    0  501  0.00000000000E+00  0.00000000000E+00 -0.11106763572E+04  0.11106763573E+04  0.25500000920E-02 0. -1.
    10030    2    1    2    0    0  0.00000000000E+00  0.00000000000E+00  0.86837606660E+03  0.30897287811E+04  0.29651891926E+04 0.  0.
        2    1    3    3  502    0 -0.13877639470E+04 -0.28849594110E+03 -0.18774361163E+02  0.14175581672E+04  0.25500000920E-02 0. -1.
       -2    1    3    3    0  502  0.13877639470E+04  0.28849594110E+03  0.88715042776E+03  0.16721706139E+04  0.25500000920E-02 0.  1.
</event>
<event>
 5   0  0.1057036E-05  0.2948870E+04  0.7818609E-02  0.8258484E-01
        2   -1    0    0  501    0  0.00000000000E+00  0.00000000000E+00  0.29972505550E+04  0.29972505550E+04  0.25500000920E-02 0. -1.
       -2   -1    0    0    0  501  0.00000000000E+00  0.00000000000E+00 -0.72531771089E+03  0.72531771090E+03  0.25500000920E-02 0.  1.
    10030    2    1    2    0    0  0.00000000000E+00  0.00000000000E+00  0.22719328441E+04  0.37225682659E+04  0.29488702321E+04 0.  0.
        4    1    3    3  502    0 -0.47635086020E+03  0.12429918060E+04  0.33556096084E+03  0.13727860515E+04  0.12699999809E+01 0. -1.
       -4    1    3    3    0  502  0.47635086020E+03 -0.12429918060E+04  0.19363718832E+04  0.23497822144E+04  0.12699999809E+01 0.  1.
</event>
<event>
 5   0  0.9647945E-06  0.3042969E+04  0.7818609E-02  0.8231566E-01
        2   -1    0    0  501    0  0.00000000000E+00  0.00000000000E+00  0.94010662862E+03  0.94010662862E+03  0.25500000920E-02 0.  1.
       -2   -1    0    0    0  501  0.00000000000E+00  0.00000000000E+00 -0.24623964126E+04  0.24623964126E+04  0.25500000920E-02 0. -1.
    10030    2    1    2    0    0  0.00000000000E+00  0.00000000000E+00 -0.15222897840E+04  0.34025030412E+04  0.30429690697E+04 0.  0.
        2    1    3    3  502    0 -0.78848739208E+03 -0.29158156767E+03  0.65683058187E+03  0.10668451581E+04  0.25500000920E-02 0.  1.
       -2    1    3    3    0  502  0.78848739208E+03  0.29158156767E+03 -0.21791203659E+04  0.23356578831E+04  0.25500000920E-02 0. -1.
</event>
<event>
 5   0  0.3636718E-06  0.2906190E+04  0.7818609E-02  0.8271038E-01
        1   -1    0    0  501    0  0.00000000000E+00  0.00000000000E+00  0.71996252430E+03  0.71996252431E+03  0.50400001928E-02 0. -1.
       -1   -1    0    0    0  501  0.00000000000E+00  0.00000000000E+00 -0.29327711337E+04  0.29327711337E+04  0.50400001928E-02 0.  1.
    10030    2    1    2    0    0  0.00000000000E+00  0.00000000000E+00 -0.22128086094E+04  0.36527336580E+04  0.29061901580E+04 0.  0.
        4    1    3    3  502    0  0.80601531400E+03 -0.94819586239E+01  0.41319126851E+03  0.90580308633E+03  0.12699999809E+01 0. -1.
       -4    1    3    3    0  502 -0.80601531400E+03  0.94819586239E+01 -0.26259998779E+04  0.27469305717E+04  0.12699999809E+01 0.  1.
</event>
<event>
 5   0  0.1089569E-05  0.2947205E+04  0.7818609E-02  0.8258969E-01
        2   -1    0    0  501    0  0.00000000000E+00  0.00000000000E+00  0.29288246753E+04  0.29288246753E+04  0.25500000920E-02 0. -1.
       -2   -1    0    0    0  501  0.00000000000E+00  0.00000000000E+00 -0.74142537362E+03  0.74142537363E+03  0.25500000920E-02 0.  1.
    10030    2    1    2    0    0  0.00000000000E+00  0.00000000000E+00  0.21873993017E+04  0.36702500490E+04  0.29472054080E+04 0.  0.
        5    1    3    3  502    0  0.73130063510E+02 -0.76150900690E+03 -0.47474624090E+03  0.90036107036E+03  0.46999998093E+01 0.  1.
       -5    1    3    3    0  502 -0.73130063510E+02  0.76150900690E+03  0.26621455426E+04  0.27698889786E+04  0.46999998093E+01 0. -1.
</event>
<event>
 5   0  0.3725232E-06  0.3010097E+04  0.7818609E-02  0.8240854E-01
       -1   -1    0    0    0  501  0.00000000000E+00  0.00000000000E+00  0.12853613942E+04  0.12853613942E+04  0.50400001928E-02 0. -1.
        1   -1    0    0  501    0  0.00000000000E+00  0.00000000000E+00 -0.17622831973E+04  0.17622831973E+04  0.50400001928E-02 0.  1.
    10030    2    1    2    0    0  0.00000000000E+00  0.00000000000E+00 -0.47692180307E+03  0.30476445915E+04  0.30100968672E+04 0.  0.
        2    1    3    3  502    0 -0.34555858752E+03 -0.13609935406E+04  0.31001280465E+03  0.14379923832E+04  0.25500000920E-02 0. -1.
       -2    1    3    3    0  502  0.34555858752E+03  0.13609935406E+04 -0.78693460772E+03  0.16096522084E+04  0.25500000920E-02 0.  1.
</event>
<event>
 5   0  0.3852126E-06  0.3015072E+04  0.7818609E-02  0.8239440E-01
        1   -1    0    0  501    0  0.00000000000E+00  0.00000000000E+00  0.17872861142E+04  0.17872861142E+04  0.50400001928E-02 0. -1.
       -1   -1    0    0    0  501  0.00000000000E+00  0.00000000000E+00 -0.12715729824E+04  0.12715729824E+04  0.50400001928E-02 0.  1.
    10030    2    1    2    0    0  0.00000000000E+00  0.00000000000E+00  0.51571313180E+03  0.30588590966E+04  0.30150719624E+04 0.  0.
        1    1    3    3  502    0 -0.10676462612E+04  0.14338801758E+03 -0.81208553775E+03  0.13490409865E+04  0.50400001928E-02 0.  1.
       -1    1    3    3    0  502  0.10676462612E+04 -0.14338801758E+03  0.13277986695E+04  0.17098181101E+04  0.50400001928E-02 0. -1.
</event>
<event>
 5   0  0.3896630E-06  0.3109581E+04  0.7818609E-02  0.8213113E-01
       -1   -1    0    0    0  501  0.00000000000E+00  0.00000000000E+00  0.12202126624E+04  0.12202126624E+04  0.50400001928E-02 0.  1.
        1   -1    0    0  501    0  0.00000000000E+00  0.00000000000E+00 -0.19811079724E+04  0.19811079724E+04  0.50400001928E-02 0. -1.
    10030    2    1    2    0    0  0.00000000000E+00  0.00000000000E+00 -0.76089530999E+03  0.32013206348E+04  0.31095807006E+04 0.  0.
        5    1    3    3  502    0 -0.85917756323E+03 -0.91517351988E+03 -0.13249128442E+04  0.18251424030E+04  0.46999998093E+01 0. -1.
       -5    1    3    3    0  502  0.85917756323E+03  0.91517351988E+03  0.56401753420E+03  0.13761782317E+04  0.46999998093E+01 0.  1.
</event>
<event>
 5   0  0.3636718E-06  0.3250676E+04  0.7818609E-02  0.8175561E-01
       -1   -1    0    0    0  501  0.00000000000E+00  0.00000000000E+00  0.14213716190E+04  0.14213716190E+04  0.50400001928E-02 0. -1.
        1   -1    0    0  501    0  0.00000000000E+00  0.00000000000E+00 -0.18585732600E+04  0.18585732600E+04  0.50400001928E-02 0.  1.
    10030    2    1    2    0    0  0.00000000000E+00  0.00000000000E+00 -0.43720164096E+03  0.32799448790E+04  0.32506757965E+04 0.  0.
        4    1    3    3  502    0  0.16542928829E+03 -0.18035066187E+03 -0.18398754231E+04  0.18560809239E+04  0.12699999809E+01 0.  1.
       -4    1    3    3    0  502 -0.16542928829E+03  0.18035066187E+03  0.14026737821E+04  0.14238639551E+04  0.12699999809E+01 0. -1.
</event>
<event>
 5   0  0.1029922E-05  0.2960244E+04  0.7818609E-02  0.8255175E-01
        2   -1    0    0  501    0  0.00000000000E+00  0.00000000000E+00  0.19825003173E+04  0.19825003173E+04  0.25500000920E-02 0.  1.
       -2   -1    0    0    0  501  0.00000000000E+00  0.00000000000E+00 -0.11050495958E+04  0.11050495958E+04  0.25500000920E-02 0. -1.
    10030    2    1    2    0    0  0.00000000000E+00  0.00000000000E+00  0.87745072157E+03  0.30875499131E+04  0.29602440266E+04 0.  0.
        1    1    3    3  502    0 -0.68113564878E+03  0.40541884601E+03 -0.86501068011E+03  0.11732662483E+04  0.50400001928E-02 0. -1.
       -1    1    3    3    0  502  0.68113564878E+03 -0.40541884601E+03  0.17424614017E+04  0.19142836647E+04  0.50400001928E-02 0.  1.
</event>
<event>
 5   0  0.3852126E-06  0.2982285E+04  0.7818609E-02  0.8248808E-01
       -1   -1    0    0    0  501  0.00000000000E+00  0.00000000000E+00  0.12328598348E+04  0.12328598348E+04  0.50400001928E-02 0.  1.
        1   -1    0    0  501    0  0.00000000000E+00  0.00000000000E+00 -0.18035350904E+04  0.18035350904E+04  0.50400001928E-02 0. -1.
    10030    2    1    2    0    0  0.00000000000E+00  0.00000000000E+00 -0.57067525562E+03  0.30363949252E+04  0.29822850123E+04 0.  0.
        1    1    3    3  502    0  0.83571789026E+03 -0.99708792972E+03  0.45650937354E+03  0.13787710252E+04  0.50400001928E-02 0.  1.
       -1    1    3    3    0  502 -0.83571789026E+03  0.99708792972E+03 -0.10271846292E+04  0.16576239001E+04  0.50400001928E-02 0. -1.
</event>
<event>
 5   0  0.1028450E-05  0.3034603E+04  0.7818609E-02  0.8233918E-01
       -2   -1    0    0    0  501  0.00000000000E+00  0.00000000000E+00  0.11480404008E+04  0.11480404008E+04  0.25500000920E-02 0. -1.
        2   -1    0    0  501    0  0.00000000000E+00  0.00000000000E+00 -0.20053339948E+04  0.20053339948E+04  0.25500000920E-02 0.  1.
    10030    2    1    2    0    0  0.00000000000E+00  0.00000000000E+00 -0.85729359404E+03  0.31533743956E+04  0.30346033963E+04 0.  0.
        3    1    3    3  502    0 -0.13016671987E+03 -0.50093964672E+03  0.10534729315E+04  0.11737500297E+04  0.10100000352E+00 0. -1.
       -3    1    3    3    0  502  0.13016671987E+03  0.50093964672E+03 -0.19107665256E+04  0.19796243659E+04  0.10100000352E+00 0.  1.
</event>
<event>
 5   0  0.1029922E-05  0.2959385E+04  0.7818609E-02  0.8255425E-01
        2   -1    0    0  501    0  0.00000000000E+00  0.00000000000E+00  0.19969515970E+04  0.19969515970E+04  0.25500000920E-02 0.  1.
       -2   -1    0    0    0  501  0.00000000000E+00  0.00000000000E+00 -0.10964157421E+04  0.10964157421E+04  0.25500000920E-02 0. -1.
    10030    2    1    2    0    0  0.00000000000E+00  0.00000000000E+00  0.90053585485E+03  0.30933673391E+04  0.29593845084E+04 0.  0.
        1    1    3    3  502    0 -0.13597945079E+04 -0.35973604549E+03  0.93045500997E+03  0.16864749188E+04  0.50400001928E-02 0. -1.
       -1    1    3    3    0  502  0.13597945079E+04  0.35973604549E+03 -0.29919155125E+02  0.14068924202E+04  0.50400001928E-02 0.  1.
</event>
<event>
 5   0  0.1029922E-05  0.2773399E+04  0.7818609E-02  0.8311575E-01
       -2   -1    0    0    0  501  0.00000000000E+00  0.00000000000E+00  0.11137831455E+04  0.11137831455E+04  0.25500000920E-02 0.  1.
        2   -1    0    0  501    0  0.00000000000E+00  0.00000000000E+00 -0.17264894628E+04  0.17264894628E+04  0.25500000920E-02 0. -1.
    10030    2    1    2    0    0  0.00000000000E+00  0.00000000000E+00 -0.61270631730E+03  0.28402726084E+04  0.27733985395E+04 0.  0.
        1    1    3    3  502    0  0.99315888523E+03  0.91023996758E+03  0.30256796190E+02  0.13475224835E+04  0.50400001928E-02 0.  1.
       -1    1    3    3    0  502 -0.99315888523E+03 -0.91023996758E+03 -0.64296311348E+03  0.14927501248E+04  0.50400001928E-02 0. -1.
</event>
<event>
 5   0  0.1089569E-05  0.3057374E+04  0.7818609E-02  0.8227535E-01
       -2   -1    0    0    0  501  0.00000000000E+00  0.00000000000E+00  0.10539075122E+04  0.10539075122E+04  0.25500000920E-02 0.  1.
        2   -1    0    0  501    0  0.00000000000E+00  0.00000000000E+00 -0.22173517564E+04  0.22173517564E+04  0.25500000920E-02 0. -1.
    10030    2    1    2    0    0  0.00000000000E+00  0.00000000000E+00 -0.11634442441E+04  0.32712592686E+04  0.30573738229E+04 0.  0.
        5    1    3    3  502    0  0.11273238264E+02 -0.87481165318E+03  0.75954474493E+03  0.11585995097E+04  0.46999998093E+01 0. -1.
       -5    1    3    3    0  502 -0.11273238264E+02  0.87481165318E+03 -0.19229889891E+04  0.21126597588E+04  0.46999998093E+01 0.  1.
</event>
<event>
 5   0  0.3896630E-06  0.3080757E+04  0.7818609E-02  0.8221039E-01
        1   -1    0    0  501    0  0.00000000000E+00  0.00000000000E+00  0.17842885909E+04  0.17842885909E+04  0.50400001928E-02 0.  1.
       -1   -1    0    0    0  501  0.00000000000E+00  0.00000000000E+00 -0.13298105195E+04  0.13298105195E+04  0.50400001928E-02 0. -1.
    10030    2    1    2    0    0  0.00000000000E+00  0.00000000000E+00  0.45447807136E+03  0.31140991104E+04  0.30807568797E+04 0.  0.
        5    1    3    3  502    0 -0.75853658274E+03  0.10824835799E+04  0.10267449990E+04  0.16737311107E+04  0.46999998093E+01 0.  1.
       -5    1    3    3    0  502  0.75853658274E+03 -0.10824835799E+04 -0.57226692767E+03  0.14403679997E+04  0.46999998093E+01 0. -1.
</event>
<event>
 5   0  0.1028450E-05  0.2491819E+04  0.7818609E-02  0.8405906E-01
       -2   -1    0    0    0  501  0.00000000000E+00  0.00000000000E+00  0.12591706732E+04  0.12591706732E+04  0.25500000920E-02 0.  1.
        2   -1    0    0  501    0  0.00000000000E+00  0.00000000000E+00 -0.12327882496E+04  0.12327882496E+04  0.25500000920E-02 0. -1.
    10030    2    1    2    0    0  0.00000000000E+00  0.00000000000E+00  0.26382423613E+02  0.24919589228E+04  0.24918192633E+04 0.  0.
        3    1    3    3  502    0 -0.12374953949E+04 -0.49349655347E+02 -0.12268604363E+03  0.12445409259E+04  0.10100000352E+00 0.  1.
       -3    1    3    3    0  502  0.12374953949E+04  0.49349655347E+02  0.14906846724E+03  0.12474179969E+04  0.10100000352E+00 0. -1.
</event>
<event>
 5   0  0.3636718E-06  0.2764822E+04  0.7818609E-02  0.8314274E-01
        1   -1    0    0  501    0  0.00000000000E+00  0.00000000000E+00  0.14172108939E+04  0.14172108939E+04  0.50400001928E-02 0.  1.
       -1   -1    0    0    0  501  0.00000000000E+00  0.00000000000E+00 -0.13484654513E+04  0.13484654513E+04  0.50400001928E-02 0. -1.
    10030    2    1    2    0    0  0.00000000000E+00  0.00000000000E+00  0.68745442626E+02  0.27656763452E+04  0.27648218225E+04 0.  0.
        4    1    3    3  502    0 -0.30188117154E+02  0.12217533743E+04  0.68068826077E+03  0.13989034103E+04  0.12699999809E+01 0.  1.
       -4    1    3    3    0  502  0.30188117154E+02 -0.12217533743E+04 -0.61194281814E+03  0.13667729349E+04  0.12699999809E+01 0. -1.
</event>
<event>
 5   0  0.3852126E-06  0.3008928E+04  0.7818609E-02  0.8241186E-01
        1   -1    0    0  501    0  0.00000000000E+00  0.00000000000E+00  0.12096772887E+04  0.12096772887E+04  0.50400001928E-02 0. -1.
       -1   -1    0    0    0  501  0.00000000000E+00  0.00000000000E+00 -0.18710878596E+04  0.18710878596E+04  0.50400001928E-02 0.  1.
    10030    2    1    2    0    0  0.00000000000E+00  0.00000000000E+00 -0.66141057088E+03  0.30807651483E+04  0.30089283733E+04 0.  0.
        1    1    3    3  502    0 -0.55562691622E+03 -0.19938864158E+03  0.10861444896E+04  0.12361985895E+04  0.50400001928E-02 0. -1.
       -1    1    3    3    0  502  0.55562691622E+03  0.19938864158E+03 -0.17475550605E+04  0.18445665588E+04  0.50400001928E-02 0.  1.
</event>
<event>
 5   0  0.3592331E-06  0.3048117E+04  0.7818609E-02  0.8230123E-01
       -1   -1    0    0    0  501  0.00000000000E+00  0.00000000000E+00  0.25393150311E+04  0.25393150311E+04  0.50400001928E-02 0.  1.
        1   -1    0    0  501    0  0.00000000000E+00  0.00000000000E+00 -0.91471679010E+03  0.91471679012E+03  0.50400001928E-02 0. -1.
    10030    2    1    2    0    0  0.00000000000E+00  0.00000000000E+00  0.16245982410E+04  0.34540318212E+04  0.30481168576E+04 0.  0.
        3    1    3    3  502    0  0.35909573009E+03 -0.47425272990E+03 -0.77773082469E+03  0.97914791582E+03  0.10100000352E+00 0. -1.
       -3    1    3    3    0  502 -0.35909573009E+03  0.47425272990E+03  0.24023290657E+04  0.24748839054E+04  0.10100000352E+00 0.  1.
</event>
<event>
 5   0  0.3592331E-06  0.3011267E+04  0.7818609E-02  0.8240521E-01
       -1   -1    0    0    0  501  0.00000000000E+00  0.00000000000E+00  0.12495369551E+04  0.12495369551E+04  0.50400001928E-02 0. -1.
        1   -1    0    0  501    0  0.00000000000E+00  0.00000000000E+00 -0.18142180706E+04  0.18142180706E+04  0.50400001928E-02 0.  1.
    10030    2    1    2    0    0  0.00000000000E+00  0.00000000000E+00 -0.56468111543E+03  0.30637550257E+04  0.30112671910E+04 0.  0.
        3    1    3    3  502    0 -0.13716443976E+04  0.43442691300E+03 -0.73369159173E+03  0.16150660848E+04  0.10100000352E+00 0.  1.
       -3    1    3    3    0  502  0.13716443976E+04 -0.43442691300E+03  0.16901047631E+03  0.14486889409E+04  0.10100000352E+00 0. -1.
</event>
<event>
 5   0  0.9647945E-06  0.2506938E+04  0.7818609E-02  0.8400518E-01
       -2   -1    0    0    0  501  0.00000000000E+00  0.00000000000E+00  0.12574597553E+04  0.12574597553E+04  0.25500000920E-02 0.  1.
        2   -1    0    0  501    0  0.00000000000E+00  0.00000000000E+00 -0.12494909969E+04  0.12494909970E+04  0.25500000920E-02 0. -1.
    10030    2    1    2    0    0  0.00000000000E+00  0.00000000000E+00  0.79687583220E+01  0.25069507522E+04  0.25069380872E+04 0.  0.
        2    1    3    3  502    0  0.64152833208E+03  0.55698849089E+03 -0.91764377017E+03  0.12505458283E+04  0.25500000920E-02 0. -1.
       -2    1    3    3    0  502 -0.64152833208E+03 -0.55698849089E+03  0.92561252849E+03  0.12564049239E+04  0.25500000920E-02 0.  1.
</event>
<event>
 5   0  0.3896630E-06  0.2988517E+04  0.7818609E-02  0.8247018E-01
       -1   -1    0    0    0  501  0.00000000000E+00  0.00000000000E+00  0.93066273981E+03  0.93066273983E+03  0.50400001928E-02 0. -1.
        1   -1    0    0  501    0  0.00000000000E+00  0.00000000000E+00 -0.23991591961E+04  0.23991591961E+04  0.50400001928E-02 0.  1.
    10030    2    1    2    0    0  0.00000000000E+00  0.00000000000E+00 -0.14684964563E+04  0.33298219359E+04  0.29885167363E+04 0.  0.
        5    1    3    3  502    0  0.36433281537E+03  0.32579039187E+03  0.83907479339E+03  0.97105426146E+03  0.46999998093E+01 0. -1.
       -5    1    3    3    0  502 -0.36433281537E+03 -0.32579039187E+03 -0.23075712497E+04  0.23587676745E+04  0.46999998093E+01 0.  1.
</event>
<event>
 5   0  0.1089569E-05  0.2800741E+04  0.7818609E-02  0.8303038E-01
       -2   -1    0    0    0  501  0.00000000000E+00  0.00000000000E+00  0.91282091560E+03  0.91282091561E+03  0.25500000920E-02 0. -1.
        2   -1    0    0  501    0  0.00000000000E+00  0.00000000000E+00 -0.21483273822E+04  0.21483273822E+04  0.25500000920E-02 0.  1.
    10030    2    1    2    0    0  0.00000000000E+00  0.00000000000E+00 -0.12355064666E+04  0.30611482978E+04  0.28007414504E+04 0.  0.
        5    1    3    3  502    0  0.11742022354E+04  0.63937324575E+03 -0.16253480396E+03  0.13468439737E+04  0.46999998093E+01 0.  1.
       -5    1    3    3    0  502 -0.11742022354E+04 -0.63937324575E+03 -0.10729716626E+04  0.17143043241E+04  0.46999998093E+01 0. -1.
</event>
<event>
 5   0  0.3725232E-06  0.3002898E+04  0.7818609E-02  0.8242904E-01
        1   -1    0    0  501    0  0.00000000000E+00  0.00000000000E+00  0.69707284731E+03  0.69707284732E+03  0.50400001928E-02 0. -1.
       -1   -1    0    0    0  501  0.00000000000E+00  0.00000000000E+00 -0.32340219704E+04  0.32340219704E+04  0.50400001928E-02 0.  1.
    10030    2    1    2    0    0  0.00000000000E+00  0.00000000000E+00 -0.25369491231E+04  0.39310948177E+04  0.30028978692E+04 0.  0.
        2    1    3    3  502    0  0.50679302497E+03  0.18403265973E+02  0.58156318174E+03  0.77161751194E+03  0.25500000920E-02 0. -1.
       -2    1    3    3    0  502 -0.50679302497E+03 -0.18403265973E+02 -0.31185123048E+04  0.31594773058E+04  0.25500000920E-02 0.  1.
</event>
<event>
 5   0  0.3725232E-06  0.2808137E+04  0.7818609E-02  0.8300746E-01
        1   -1    0    0  501    0  0.00000000000E+00  0.00000000000E+00  0.14831123005E+04  0.14831123005E+04  0.50400001928E-02 0. -1.
       -1   -1    0    0    0  501  0.00000000000E+00  0.00000000000E+00 -0.13292378529E+04  0.13292378529E+04  0.50400001928E-02 0.  1.
    10030    2    1    2    0    0  0.00000000000E+00  0.00000000000E+00  0.15387444758E+03  0.28123501534E+04  0.28081374681E+04 0.  0.
        2    1    3    3  502    0 -0.15896036657E+03  0.13242213191E+04 -0.36255878814E+03  0.13821285667E+04  0.25500000920E-02 0.  1.
       -2    1    3    3    0  502  0.15896036657E+03 -0.13242213191E+04  0.51643323572E+03  0.14302215867E+04  0.25500000920E-02 0. -1.
</event>
<event>
 5   0  0.3852126E-06  0.2874635E+04  0.7818609E-02  0.8280465E-01
        1   -1    0    0  501    0  0.00000000000E+00  0.00000000000E+00  0.14506646967E+04  0.14506646967E+04  0.50400001928E-02 0.  1.
       -1   -1    0    0    0  501  0.00000000000E+00  0.00000000000E+00 -0.14240930581E+04  0.14240930581E+04  0.50400001928E-02 0. -1.
    10030    2    1    2    0    0  0.00000000000E+00  0.00000000000E+00  0.26571638576E+02  0.28747577548E+04  0.28746349501E+04 0.  0.
        1    1    3    3  502    0  0.73499241846E+03 -0.56038499696E+03 -0.10875047369E+04  0.14272041735E+04  0.50400001928E-02 0. -1.
       -1    1    3    3    0  502 -0.73499241846E+03  0.56038499696E+03  0.11140763755E+04  0.14475535812E+04  0.50400001928E-02 0.  1.
</event>
<event>
 5   0  0.3725232E-06  0.2518771E+04  0.7818609E-02  0.8396329E-01
       -1   -1    0    0    0  501  0.00000000000E+00  0.00000000000E+00  0.24166288468E+04  0.24166288468E+04  0.50400001928E-02 0. -1.
        1   -1    0    0  501    0  0.00000000000E+00  0.00000000000E+00 -0.65630732395E+03  0.65630732397E+03  0.50400001928E-02 0.  1.
    10030    2    1    2    0    0  0.00000000000E+00  0.00000000000E+00  0.17603215229E+04  0.30729361708E+04  0.25187705028E+04 0.  0.
        2    1    3    3  502    0 -0.77996112918E+03 -0.57100292753E+03  0.18650286412E+04  0.21006464573E+04  0.25500000920E-02 0. -1.
       -2    1    3    3    0  502  0.77996112918E+03  0.57100292753E+03 -0.10470711830E+03  0.97228971347E+03  0.25500000920E-02 0.  1.
</event>
<event>
 5   0  0.1029922E-05  0.2989805E+04  0.7818609E-02  0.8246648E-01
        2   -1    0    0  501    0  0.00000000000E+00  0.00000000000E+00  0.30915822709E+04  0.30915822709E+04  0.25500000920E-02 0.  1.
       -2   -1    0    0    0  501  0.00000000000E+00  0.00000000000E+00 -0.72284457108E+03  0.72284457108E+03  0.25500000920E-02 0. -1.
    10030    2    1    2    0    0  0.00000000000E+00  0.00000000000E+00  0.23687376998E+04  0.38144268420E+04  0.29898049840E+04 0.  0.
        1    1    3    3  502    0  0.36399805054E+02  0.13164024716E+03  0.30836055016E+04  0.30866287419E+04  0.50400001928E-02 0.  1.
       -1    1    3    3    0  502 -0.36399805054E+02 -0.13164024716E+03 -0.71486780179E+03  0.72779810012E+03  0.50400001928E-02 0. -1.
</event>
<event>
 5   0  0.1029922E-05  0.3002032E+04  0.7818609E-02  0.8243151E-01
        2   -1    0    0  501    0  0.00000000000E+00  0.00000000000E+00  0.23822583832E+04  0.23822583832E+04  0.25500000920E-02 0. -1.
       -2   -1    0    0    0  501  0.00000000000E+00  0.00000000000E+00 -0.94576177642E+03  0.94576177643E+03  0.25500000920E-02 0.  1.
    10030    2    1    2    0    0  0.00000000000E+00  0.00000000000E+00  0.14364966068E+04  0.33280201597E+04  0.30020319255E+04 0.  0.
        1    1    3    3  502    0 -0.12846095996E+03  0.13424647678E+03  0.23694600324E+04  0.23767341416E+04  0.50400001928E-02 0. -1.
       -1    1    3    3    0  502  0.12846095996E+03 -0.13424647678E+03 -0.93296342555E+03  0.95128601808E+03  0.50400001928E-02 0.  1.
</event>
<event>
 5   0  0.3636718E-06  0.3004113E+04  0.7818609E-02  0.8242557E-01
       -1   -1    0    0    0  501  0.00000000000E+00  0.00000000000E+00  0.13098868234E+04  0.13098868234E+04  0.50400001928E-02 0.  1.
        1   -1    0    0  501    0  0.00000000000E+00  0.00000000000E+00 -0.17224191578E+04  0.17224191578E+04  0.50400001928E-02 0. -1.
    10030    2    1    2    0    0  0.00000000000E+00  0.00000000000E+00 -0.41253233435E+03  0.30323059812E+04  0.30041132863E+04 0.  0.
        4    1    3    3  502    0 -0.84708061331E+03 -0.72080032017E+03 -0.12252318350E+04  0.16547789367E+04  0.12699999809E+01 0. -1.
       -4    1    3    3    0  502  0.84708061331E+03  0.72080032017E+03  0.81269950066E+03  0.13775270445E+04  0.12699999809E+01 0.  1.
</event>
<event>
 5   0  0.1089569E-05  0.2928655E+04  0.7818609E-02  0.8264402E-01
        2   -1    0    0  501    0  0.00000000000E+00  0.00000000000E+00  0.26108958160E+04  0.26108958160E+04  0.25500000920E-02 0.  1.
       -2   -1    0    0    0  501  0.00000000000E+00  0.00000000000E+00 -0.82127197084E+03  0.82127197085E+03  0.25500000920E-02 0. -1.
    10030    2    1    2    0    0  0.00000000000E+00  0.00000000000E+00  0.17896238451E+04  0.34321677868E+04  0.29286553587E+04 0.  0.
        5    1    3    3  502    0 -0.12623854550E+04 -0.69171967747E+03  0.58004487860E+03  0.15519559595E+04  0.46999998093E+01 0. -1.
       -5    1    3    3    0  502  0.12623854550E+04  0.69171967747E+03  0.12095789665E+04  0.18802118273E+04  0.46999998093E+01 0.  1.
</event>
<event>
 5   0  0.3896630E-06  0.2978582E+04  0.7818609E-02  0.8249874E-01
        1   -1    0    0  501    0  0.00000000000E+00  0.00000000000E+00  0.15254123029E+04  0.15254123029E+04  0.50400001928E-02 0. -1.
       -1   -1    0    0    0  501  0.00000000000E+00  0.00000000000E+00 -0.14540245999E+04  0.14540245999E+04  0.50400001928E-02 0.  1.
    10030    2    1    2    0    0  0.00000000000E+00  0.00000000000E+00  0.71387703001E+02  0.29794369028E+04  0.29785815506E+04 0.  0.
        5    1    3    3  502    0 -0.86319192481E+03 -0.11661072514E+04  0.37203214151E+03  0.14977771614E+04  0.46999998093E+01 0. -1.
       -5    1    3    3    0  502  0.86319192481E+03  0.11661072514E+04 -0.30064443851E+03  0.14816597414E+04  0.46999998093E+01 0.  1.
</event>
<event>
 5   0  0.3725232E-06  0.2956795E+04  0.7818609E-02  0.8256177E-01
       -1   -1    0    0    0  501  0.00000000000E+00  0.00000000000E+00  0.14801825589E+04  0.14801825589E+04  0.50400001928E-02 0.  1.
        1   -1    0    0  501    0  0.00000000000E+00  0.00000000000E+00 -0.14766150523E+04  0.14766150523E+04  0.50400001928E-02 0. -1.
    10030    2    1    2    0    0  0.00000000000E+00  0.00000000000E+00  0.35675065931E+01  0.29567976112E+04  0.29567954590E+04 0.  0.
        2    1    3    3  502    0  0.16741702826E+03 -0.10333488799E+04  0.10457296639E+04  0.14796583723E+04  0.25500000920E-02 0.  1.
       -2    1    3    3    0  502 -0.16741702826E+03  0.10333488799E+04 -0.10421621573E+04  0.14771392389E+04  0.25500000920E-02 0. -1.
</event>
<event>
 5   0  0.1089569E-05  0.2716105E+04  0.7818609E-02  0.8329798E-01
        2   -1    0    0  501    0  0.00000000000E+00  0.00000000000E+00  0.13187519740E+04  0.13187519740E+04  0.25500000920E-02 0. -1.
       -2   -1    0    0    0  501  0.00000000000E+00  0.00000000000E+00 -0.13985239519E+04  0.13985239519E+04  0.25500000920E-02 0.  1.
    10030    2    1    2    0    0  0.00000000000E+00  0.00000000000E+00 -0.79771977927E+02  0.27172759259E+04  0.27161047272E+04 0.  0.
        5    1    3    3  502    0 -0.54164102667E+03 -0.11999843006E+04  0.29334442857E+03  0.13488552062E+04  0.46999998093E+01 0. -1.
       -5    1    3    3    0  502  0.54164102667E+03  0.11999843006E+04 -0.37311640650E+03  0.13684207197E+04  0.46999998093E+01 0.  1.
</event>
<event>
 5   0  0.1029922E-05  0.2692379E+04  0.7818609E-02  0.8337482E-01
        2   -1    0    0  501    0  0.00000000000E+00  0.00000000000E+00  0.18589917255E+04  0.18589917255E+04  0.25500000920E-02 0. -1.
       -2   -1    0    0    0  501  0.00000000000E+00  0.00000000000E+00 -0.97484346914E+03  0.97484346914E+03  0.25500000920E-02 0.  1.
    10030    2    1    2    0    0  0.00000000000E+00  0.00000000000E+00  0.88414825633E+03  0.28338351946E+04  0.26923788313E+04 0.  0.
        1    1    3    3  502    0  0.13447542376E+03  0.73222571893E+03  0.16226030654E+04  0.17852391579E+04  0.50400001928E-02 0. -1.
       -1    1    3    3    0  502 -0.13447542376E+03 -0.73222571893E+03 -0.73845480909E+03  0.10485960367E+04  0.50400001928E-02 0.  1.
</event>
<event>
 5   0  0.3636718E-06  0.2930849E+04  0.7818609E-02  0.8263758E-01
        1   -1    0    0  501    0  0.00000000000E+00  0.00000000000E+00  0.20051583967E+04  0.20051583967E+04  0.50400001928E-02 0. -1.
       -1   -1    0    0    0  501  0.00000000000E+00  0.00000000000E+00 -0.10709721880E+04  0.10709721880E+04  0.50400001928E-02 0.  1.
    10030    2    1    2    0    0  0.00000000000E+00  0.00000000000E+00  0.93418620869E+03  0.30761305847E+04  0.29308489387E+04 0.  0.
        4    1    3    3  502    0 -0.85510882111E+03 -0.75607193368E+03  0.14316765449E+04  0.18309984181E+04  0.12699999809E+01 0. -1.
       -4    1    3    3    0  502  0.85510882111E+03  0.75607193368E+03 -0.49749033623E+03  0.12451321666E+04  0.12699999809E+01 0.  1.
</event>
<event>
 5   0  0.3313750E-06  0.2765999E+04  0.7818609E-02  0.8313903E-01
        3   -1    0    0  501    0  0.00000000000E+00  0.00000000000E+00  0.14185935833E+04  0.14185935869E+04  0.10100000352E+00 0.  1.
       -3   -1    0    0    0  501  0.00000000000E+00  0.00000000000E+00 -0.13482982301E+04  0.13482982339E+04  0.10100000352E+00 0. -1.
    10030    2    1    2    0    0  0.00000000000E+00  0.00000000000E+00  0.70295353137E+02  0.27668918208E+04  0.27659987186E+04 0.  0.
        1    1    3    3  502    0 -0.30501157446E+03 -0.12917673009E+04  0.42385055796E+03  0.13933212536E+04  0.50400001928E-02 0.  1.
       -1    1    3    3    0  502  0.30501157446E+03  0.12917673009E+04 -0.35355520483E+03  0.13735705672E+04  0.50400001928E-02 0. -1.
</event>
<event>
 5   0  0.3896630E-06  0.3005077E+04  0.7818609E-02  0.8242283E-01
       -1   -1    0    0    0  501  0.00000000000E+00  0.00000000000E+00  0.12857761869E+04  0.12857761870E+04  0.50400001928E-02 0.  1.
        1   -1    0    0  501    0  0.00000000000E+00  0.00000000000E+00 -0.17558439525E+04  0.17558439525E+04  0.50400001928E-02 0. -1.
    10030    2    1    2    0    0  0.00000000000E+00  0.00000000000E+00 -0.47006776553E+03  0.30416201394E+04  0.30050772650E+04 0.  0.
        5    1    3    3  502    0  0.51786500735E+03  0.90046631560E+03 -0.13338580967E+04  0.16906280678E+04  0.46999998093E+01 0. -1.
       -5    1    3    3    0  502 -0.51786500735E+03 -0.90046631560E+03  0.86379033121E+03  0.13509920716E+04  0.46999998093E+01 0.  1.
</event>
<event>
 5   0  0.3592331E-06  0.2897096E+04  0.7818609E-02  0.8273742E-01
       -1   -1    0    0    0  501  0.00000000000E+00  0.00000000000E+00  0.13232736868E+04  0.13232736868E+04  0.50400001928E-02 0. -1.
        1   -1    0    0  501    0  0.00000000000E+00  0.00000000000E+00 -0.15856820197E+04  0.15856820197E+04  0.50400001928E-02 0.  1.
    10030    2    1    2    0    0  0.00000000000E+00  0.00000000000E+00 -0.26240833291E+03  0.29089557065E+04  0.28970959889E+04 0.  0.
        3    1    3    3  502    0  0.73188263678E+03  0.91034266696E+01 -0.13863438159E+04  0.15677003070E+04  0.10100000352E+00 0.  1.
       -3    1    3    3    0  502 -0.73188263678E+03 -0.91034266696E+01  0.11239354830E+04  0.13412553995E+04  0.10100000352E+00 0. -1.
</event>
<event>
 5   0  0.3896630E-06  0.3165243E+04  0.7818609E-02  0.8198057E-01
       -1   -1    0    0    0  501  0.00000000000E+00  0.00000000000E+00  0.99260033676E+03  0.99260033677E+03  0.50400001928E-02 0.  1.
        1   -1    0    0  501    0  0.00000000000E+00  0.00000000000E+00 -0.25233631803E+04  0.25233631803E+04  0.50400001928E-02 0. -1.
    10030    2    1    2    0    0  0.00000000000E+00  0.00000000000E+00 -0.15307628436E+04  0.35159635171E+04  0.31652432087E+04 0.  0.
        5    1    3    3  502    0 -0.53055205170E+03 -0.14522487536E+04 -0.11406902643E+04  0.19213818701E+04  0.46999998093E+01 0.  1.
       -5    1    3    3    0  502  0.53055205170E+03  0.14522487536E+04 -0.39007257928E+03  0.15945816470E+04  0.46999998093E+01 0. -1.
</event>
<event>
 5   0  0.3636718E-06  0.3065528E+04  0.7818609E-02  0.8225263E-01
        1   -1    0    0  501    0  0.00000000000E+00  0.00000000000E+00  0.17934845490E+04  0.17934845491E+04  0.50400001928E-02 0. -1.
       -1   -1    0    0    0  501  0.00000000000E+00  0.00000000000E+00 -0.13099445269E+04  0.13099445269E+04  0.50400001928E-02 0.  1.
    10030    2    1    2    0    0  0.00000000000E+00  0.00000000000E+00  0.48354002211E+03  0.31034290760E+04  0.30655278627E+04 0.  0.
        4    1    3    3  502    0 -0.35397525982E+03  0.97693037504E+03 -0.89895867946E+03  0.13739795350E+04  0.12699999809E+01 0.  1.
       -4    1    3    3    0  502  0.35397525982E+03 -0.97693037504E+03  0.13824987016E+04  0.17294495410E+04  0.12699999809E+01 0. -1.
</event>
<event>
 5   0  0.3896630E-06  0.2921656E+04  0.7818609E-02  0.8266463E-01
       -1   -1    0    0    0  501  0.00000000000E+00  0.00000000000E+00  0.15018179144E+04  0.15018179144E+04  0.50400001928E-02 0. -1.
        1   -1    0    0  501    0  0.00000000000E+00  0.00000000000E+00 -0.14209570221E+04  0.14209570221E+04  0.50400001928E-02 0.  1.
    10030    2    1    2    0    0  0.00000000000E+00  0.00000000000E+00  0.80860892332E+02  0.29227749365E+04  0.29216561819E+04 0.  0.
        5    1    3    3  502    0 -0.96220307673E+03 -0.63909340535E+03 -0.85418346629E+03  0.14366372631E+04  0.46999998093E+01 0.  1.
       -5    1    3    3    0  502  0.96220307673E+03  0.63909340535E+03  0.93504435862E+03  0.14861376734E+04  0.46999998093E+01 0. -1.
</event>
<event>
 5   0  0.1057036E-05  0.3067108E+04  0.7818609E-02  0.8224823E-01
        2   -1    0    0  501    0  0.00000000000E+00  0.00000000000E+00  0.15985008800E+04  0.15985008800E+04  0.25500000920E-02 0.  1.
       -2   -1    0    0    0  501  0.00000000000E+00  0.00000000000E+00 -0.14712454741E+04  0.14712454741E+04  0.25500000920E-02 0. -1.
    10030    2    1    2    0    0  0.00000000000E+00  0.00000000000E+00  0.12725540583E+03  0.30697463541E+04  0.30671075528E+04 0.  0.
        4    1    3    3  502    0 -0.49061920108E+03  0.69687869217E+03 -0.12123960318E+04  0.14819759994E+04  0.12699999809E+01 0. -1.
       -4    1    3    3    0  502  0.49061920108E+03 -0.69687869217E+03  0.13396514376E+04  0.15877703547E+04  0.12699999809E+01 0.  1.
</event>
<event>
 5   0  0.3896630E-06  0.2926338E+04  0.7818609E-02  0.8265084E-01
       -1   -1    0    0    0  501  0.00000000000E+00  0.00000000000E+00  0.10263054557E+04  0.10263054557E+04  0.50400001928E-02 0.  1.
        1   -1    0    0  501    0  0.00000000000E+00  0.00000000000E+00 -0.20859904430E+04  0.20859904430E+04  0.50400001928E-02 0. -1.
    10030    2    1    2    0    0  0.00000000000E+00  0.00000000000E+00 -0.10596849873E+04  0.31122958988E+04  0.29263378973E+04 0.  0.
        5    1    3    3  502    0 -0.43287393888E+03  0.51682197677E+03  0.85127651196E+03  0.10858998998E+04  0.46999998093E+01 0.  1.
       -5    1    3    3    0  502  0.43287393888E+03 -0.51682197677E+03 -0.19109614993E+04  0.20263959989E+04  0.46999998093E+01 0. -1.
</event>
<event>
 5   0  0.1028450E-05  0.3127163E+04  0.7818609E-02  0.8208323E-01
       -2   -1    0    0    0  501  0.00000000000E+00  0.00000000000E+00  0.11875965687E+04  0.11875965687E+04  0.25500000920E-02 0. -1.
        2   -1    0    0  501    0  0.00000000000E+00  0.00000000000E+00 -0.20586003161E+04  0.20586003161E+04  0.25500000920E-02 0.  1.
    10030    2    1    2    0    0  0.00000000000E+00  0.00000000000E+00 -0.87100374742E+03  0.32461968848E+04  0.31271627215E+04 0.  0.
        3    1    3    3  502    0  0.83849076089E+03 -0.76620507216E+03  0.67994656138E+03  0.13238067477E+04  0.10100000352E+00 0. -1.
       -3    1    3    3    0  502 -0.83849076089E+03  0.76620507216E+03 -0.15509503088E+04  0.19223901371E+04  0.10100000352E+00 0.  1.
</event>
<event>
 5   0  0.1028450E-05  0.2945716E+04  0.7818609E-02  0.8259404E-01
       -2   -1    0    0    0  501  0.00000000000E+00  0.00000000000E+00  0.10193624740E+04  0.10193624740E+04  0.25500000920E-02 0.  1.
        2   -1    0    0  501    0  0.00000000000E+00  0.00000000000E+00 -0.21281056346E+04  0.21281056346E+04  0.25500000920E-02 0. -1.
    10030    2    1    2    0    0  0.00000000000E+00  0.00000000000E+00 -0.11087431605E+04  0.31474681086E+04  0.29457162285E+04 0.  0.
        3    1    3    3  502    0 -0.43488852312E+03 -0.12514223261E+04  0.13322899828E+03  0.13315163694E+04  0.10100000352E+00 0. -1.
       -3    1    3    3    0  502  0.43488852312E+03  0.12514223261E+04 -0.12419721588E+04  0.18159517392E+04  0.10100000352E+00 0.  1.
</event>
<event>
 5   0  0.3725232E-06  0.2979308E+04  0.7818609E-02  0.8249664E-01
       -1   -1    0    0    0  501  0.00000000000E+00  0.00000000000E+00  0.98310529119E+03  0.98310529120E+03  0.50400001928E-02 0. -1.
        1   -1    0    0  501    0  0.00000000000E+00  0.00000000000E+00 -0.22572034503E+04  0.22572034503E+04  0.50400001928E-02 0.  1.
    10030    2    1    2    0    0  0.00000000000E+00  0.00000000000E+00 -0.12740981591E+04  0.32403087415E+04  0.29793077419E+04 0.  0.
        2    1    3    3  502    0  0.10976813258E+04  0.29259102439E+03  0.41098356332E+03  0.12080651016E+04  0.25500000920E-02 0. -1.
       -2    1    3    3    0  502 -0.10976813258E+04 -0.29259102439E+03 -0.16850817224E+04  0.20322436398E+04  0.25500000920E-02 0.  1.
</event>
<event>
 5   0  0.1089569E-05  0.3011653E+04  0.7818609E-02  0.8240411E-01
       -2   -1    0    0    0  501  0.00000000000E+00  0.00000000000E+00  0.94708370371E+03  0.94708370371E+03  0.25500000920E-02 0.  1.
        2   -1    0    0  501    0  0.00000000000E+00  0.00000000000E+00 -0.23942058467E+04  0.23942058467E+04  0.25500000920E-02 0. -1.
    10030    2    1    2    0    0  0.00000000000E+00  0.00000000000E+00 -0.14471221429E+04  0.33412895504E+04  0.30116529287E+04 0.  0.
        5    1    3    3  502    0  0.11781657468E+04  0.82075752542E+03 -0.22028736776E+03  0.14526754823E+04  0.46999998093E+01 0.  1.
       -5    1    3    3    0  502 -0.11781657468E+04 -0.82075752542E+03 -0.12268347752E+04  0.18886140681E+04  0.46999998093E+01 0. -1.
</event>
<event>
 5   0  0.3896630E-06  0.2715014E+04  0.7818609E-02  0.8330150E-01
       -1   -1    0    0    0  501  0.00000000000E+00  0.00000000000E+00  0.17999085432E+04  0.17999085432E+04  0.50400001928E-02 0. -1.
        1   -1    0    0  501    0  0.00000000000E+00  0.00000000000E+00 -0.10238441504E+04  0.10238441505E+04  0.50400001928E-02 0.  1.
    10030    2    1    2    0    0  0.00000000000E+00  0.00000000000E+00  0.77606439279E+03  0.28237526937E+04  0.27150144260E+04 0.  0.
        5    1    3    3  502    0 -0.28307458040E+03 -0.19064456874E+03 -0.97848804831E+03  0.10363095678E+04  0.46999998093E+01 0.  1.
       -5    1    3    3    0  502  0.28307458040E+03  0.19064456874E+03  0.17545524411E+04  0.17874431259E+04  0.46999998093E+01 0. -1.
</event>
<event>
 5   0  0.3636718E-06  0.2118745E+04  0.7818609E-02  0.8553031E-01
        1   -1    0    0  501    0  0.00000000000E+00  0.00000000000E+00  0.60834622844E+03  0.60834622846E+03  0.50400001928E-02 0.  1.
       -1   -1    0    0    0  501  0.00000000000E+00  0.00000000000E+00 -0.18447876290E+04  0.18447876290E+04  0.50400001928E-02 0. -1.
    10030    2    1    2    0    0  0.00000000000E+00  0.00000000000E+00 -0.12364414006E+04  0.24531338575E+04  0.21187445305E+04 0.  0.
        4    1    3    3  502    0 -0.18694929165E+03 -0.24675016844E+03  0.55480575580E+03  0.63533197845E+03  0.12699999809E+01 0.  1.
       -4    1    3    3    0  502  0.18694929165E+03  0.24675016844E+03 -0.17912471564E+04  0.18178018790E+04  0.12699999809E+01 0. -1.
</event>
<event>
 5   0  0.1089569E-05  0.3020848E+04  0.7818609E-02  0.8237803E-01
        2   -1    0    0  501    0  0.00000000000E+00  0.00000000000E+00  0.16789844265E+04  0.16789844265E+04  0.25500000920E-02 0.  1.
       -2   -1    0    0    0  501  0.00000000000E+00  0.00000000000E+00 -0.13587857922E+04  0.13587857922E+04  0.25500000920E-02 0. -1.
    10030    2    1    2    0    0  0.00000000000E+00  0.00000000000E+00  0.32019863429E+03  0.30377702188E+04  0.30208476851E+04 0.  0.
        5    1    3    3  502    0 -0.67593793799E+03 -0.64292763041E+03 -0.10344567434E+04  0.13929719588E+04  0.46999998093E+01 0. -1.
       -5    1    3    3    0  502  0.67593793799E+03  0.64292763041E+03  0.13546553777E+04  0.16447982600E+04  0.46999998093E+01 0.  1.
</event>
<event>
 5   0  0.1029922E-05  0.2154396E+04  0.7818609E-02  0.8537653E-01
        2   -1    0    0  501    0  0.00000000000E+00  0.00000000000E+00  0.12237829860E+04  0.12237829860E+04  0.25500000920E-02 0.  1.
       -2   -1    0    0    0  501  0.00000000000E+00  0.00000000000E+00 -0.94817058983E+03  0.94817058983E+03  0.25500000920E-02 0. -1.
    10030    2    1    2    0    0  0.00000000000E+00  0.00000000000E+00  0.27561239617E+03  0.21719535758E+04  0.21543955400E+04 0.  0.
        1    1    3    3  502    0  0.15007532628E+03  0.13491118478E+03  0.12045561516E+04  0.12213431761E+04  0.50400001928E-02 0.  1.
       -1    1    3    3    0  502 -0.15007532628E+03 -0.13491118478E+03 -0.92894375544E+03  0.95061039976E+03  0.50400001928E-02 0. -1.
</event>
<event>
 5   0  0.3636718E-06  0.2824519E+04  0.7818609E-02  0.8295696E-01
       -1   -1    0    0    0  501  0.00000000000E+00  0.00000000000E+00  0.21961425918E+04  0.21961425918E+04  0.50400001928E-02 0. -1.
        1   -1    0    0  501    0  0.00000000000E+00  0.00000000000E+00 -0.90817270758E+03  0.90817270760E+03  0.50400001928E-02 0.  1.
    10030    2    1    2    0    0  0.00000000000E+00  0.00000000000E+00  0.12879698842E+04  0.31043152994E+04  0.28245189069E+04 0.  0.
        4    1    3    3  502    0 -0.84716690270E+03 -0.16216025034E+03 -0.58504087730E+03  0.10422390075E+04  0.12699999809E+01 0.  1.
       -4    1    3    3    0  502  0.84716690270E+03  0.16216025034E+03  0.18730107615E+04  0.20620762919E+04  0.12699999809E+01 0. -1.
</event>
<event>
 5   0  0.1029922E-05  0.2923040E+04  0.7818609E-02  0.8266055E-01
        2   -1    0    0  501    0  0.00000000000E+00  0.00000000000E+00  0.19874075274E+04  0.19874075274E+04  0.25500000920E-02 0. -1.
       -2   -1    0    0    0  501  0.00000000000E+00  0.00000000000E+00 -0.10747871421E+04  0.10747871421E+04  0.25500000920E-02 0.  1.
    10030    2    1    2    0    0  0.00000000000E+00  0.00000000000E+00  0.91262038531E+03  0.30621946695E+04  0.29230395526E+04 0.  0.
        1    1    3    3  502    0  0.15796748335E+03  0.12678270707E+04 -0.28719575308E+03  0.13095115912E+04  0.50400001928E-02 0.  1.
       -1    1    3    3    0  502 -0.15796748335E+03 -0.12678270707E+04  0.11998161384E+04  0.17526830783E+04  0.50400001928E-02 0. -1.
</event>
<event>
 5   0  0.3636718E-06  0.2984932E+04  0.7818609E-02  0.8248047E-01
       -1   -1    0    0    0  501  0.00000000000E+00  0.00000000000E+00  0.82314392113E+03  0.82314392114E+03  0.50400001928E-02 0. -1.
        1   -1    0    0  501    0  0.00000000000E+00  0.00000000000E+00 -0.27060325594E+04  0.27060325594E+04  0.50400001928E-02 0.  1.
    10030    2    1    2    0    0  0.00000000000E+00  0.00000000000E+00 -0.18828886383E+04  0.35291764806E+04  0.29849316587E+04 0.  0.
        4    1    3    3  502    0 -0.12789015017E+04  0.60113310357E+03 -0.37379923775E+03  0.14617378501E+04  0.12699999809E+01 0. -1.
       -4    1    3    3    0  502  0.12789015017E+04 -0.60113310357E+03 -0.15090894005E+04  0.20674386305E+04  0.12699999809E+01 0.  1.
</event>
<event>
 5   0  0.1028450E-05  0.2985493E+04  0.7818609E-02  0.8247886E-01
       -2   -1    0    0    0  501  0.00000000000E+00  0.00000000000E+00  0.19944731556E+04  0.19944731556E+04  0.25500000920E-02 0.  1.
        2   -1    0    0  501    0  0.00000000000E+00  0.00000000000E+00 -0.11172332216E+04  0.11172332216E+04  0.25500000920E-02 0. -1.
    10030    2    1    2    0    0  0.00000000000E+00  0.00000000000E+00  0.87723993408E+03  0.31117063772E+04  0.29854927024E+04 0.  0.
        3    1    3    3  502    0  0.59103874384E+03 -0.13633203874E+04  0.29003669524E+03  0.15139651813E+04  0.10100000352E+00 0.  1.
       -3    1    3    3    0  502 -0.59103874384E+03  0.13633203874E+04  0.58720323884E+03  0.15977411959E+04  0.10100000352E+00 0. -1.
</event>
<event>
 5   0  0.3636718E-06  0.3090282E+04  0.7818609E-02  0.8218410E-01
       -1   -1    0    0    0  501  0.00000000000E+00  0.00000000000E+00  0.26112036296E+04  0.26112036296E+04  0.50400001928E-02 0.  1.
        1   -1    0    0  501    0  0.00000000000E+00  0.00000000000E+00 -0.91431438234E+03  0.91431438235E+03  0.50400001928E-02 0. -1.
    10030    2    1    2    0    0  0.00000000000E+00  0.00000000000E+00  0.16968892473E+04  0.35255180120E+04  0.30902822096E+04 0.  0.
        4    1    3    3  502    0  0.47804798543E+03 -0.49022044844E+03  0.24286682079E+04  0.25233463578E+04  0.12699999809E+01 0.  1.
       -4    1    3    3    0  502 -0.47804798543E+03  0.49022044844E+03 -0.73177896059E+03  0.10021716542E+04  0.12699999809E+01 0. -1.
</event>
<event>
 5   0  0.1028450E-05  0.2965587E+04  0.7818609E-02  0.8253627E-01
       -2   -1    0    0    0  501  0.00000000000E+00  0.00000000000E+00  0.75067944458E+03  0.75067944459E+03  0.25500000920E-02 0. -1.
        2   -1    0    0  501    0  0.00000000000E+00  0.00000000000E+00 -0.29289151503E+04  0.29289151503E+04  0.25500000920E-02 0.  1.
    10030    2    1    2    0    0  0.00000000000E+00  0.00000000000E+00 -0.21782357057E+04  0.36795945949E+04  0.29655868885E+04 0.  0.
        3    1    3    3  502    0  0.15620702581E+03  0.37265588991E+03 -0.28592861596E+04  0.28876963829E+04  0.10100000352E+00 0.  1.
       -3    1    3    3    0  502 -0.15620702581E+03 -0.37265588991E+03  0.68105045389E+03  0.79189821198E+03  0.10100000352E+00 0. -1.
</event>
<event>
 5   0  0.1057036E-05  0.2959604E+04  0.7818609E-02  0.8255361E-01
       -2   -1    0    0    0  501  0.00000000000E+00  0.00000000000E+00  0.92143486677E+03  0.92143486677E+03  0.25500000920E-02 0.  1.
        2   -1    0    0  501    0  0.00000000000E+00  0.00000000000E+00 -0.23765264825E+04  0.23765264825E+04  0.25500000920E-02 0. -1.
    10030    2    1    2    0    0  0.00000000000E+00  0.00000000000E+00 -0.14550916157E+04  0.32979613493E+04  0.29596042727E+04 0.  0.
        4    1    3    3  502    0 -0.32496066333E+03  0.13939430364E+04 -0.30891516360E+03  0.14642768907E+04  0.12699999809E+01 0.  1.
       -4    1    3    3    0  502  0.32496066333E+03 -0.13939430364E+04 -0.11461764521E+04  0.18336844586E+04  0.12699999809E+01 0. -1.
</event>
<event>
 5   0  0.9647945E-06  0.3004555E+04  0.7818609E-02  0.8242432E-01
        2   -1    0    0  501    0  0.00000000000E+00  0.00000000000E+00  0.22276899846E+04  0.22276899846E+04  0.25500000920E-02 0.  1.
       -2   -1    0    0    0  501  0.00000000000E+00  0.00000000000E+00 -0.10130839568E+04  0.10130839568E+04  0.25500000920E-02 0. -1.
    10030    2    1    2    0    0  0.00000000000E+00  0.00000000000E+00  0.12146060278E+04  0.32407739414E+04  0.30045545322E+04 0.  0.
        2    1    3    3  502    0 -0.11289717599E+04  0.29230382790E+03 -0.41415579765E+03  0.12375555693E+04  0.25500000920E-02 0. -1.
       -2    1    3    3    0  502  0.11289717599E+04 -0.29230382790E+03  0.16287618254E+04  0.20032183721E+04  0.25500000920E-02 0.  1.
</event>
<event>
 5   0  0.9647945E-06  0.2904968E+04  0.7818609E-02  0.8271401E-01
       -2   -1    0    0    0  501  0.00000000000E+00  0.00000000000E+00  0.19332244739E+04  0.19332244739E+04  0.25500000920E-02 0.  1.
        2   -1    0    0  501    0  0.00000000000E+00  0.00000000000E+00 -0.10912905933E+04  0.10912905933E+04  0.25500000920E-02 0. -1.
    10030    2    1    2    0    0  0.00000000000E+00  0.00000000000E+00  0.84193388055E+03  0.30245150672E+04  0.29049679400E+04 0.  0.
        2    1    3    3  502    0  0.37773344788E+03  0.14244682464E+03  0.18736401983E+04  0.19166380065E+04  0.25500000920E-02 0.  1.
       -2    1    3    3    0  502 -0.37773344788E+03 -0.14244682464E+03 -0.10317063177E+04  0.11078770607E+04  0.25500000920E-02 0. -1.
</event>
<event>
 5   0  0.3636718E-06  0.3067987E+04  0.7818609E-02  0.8224579E-01
        1   -1    0    0  501    0  0.00000000000E+00  0.00000000000E+00  0.17766973683E+04  0.17766973684E+04  0.50400001928E-02 0.  1.
       -1   -1    0    0    0  501  0.00000000000E+00  0.00000000000E+00 -0.13244442007E+04  0.13244442007E+04  0.50400001928E-02 0. -1.
    10030    2    1    2    0    0  0.00000000000E+00  0.00000000000E+00  0.45225316761E+03  0.31011415691E+04  0.30679873050E+04 0.  0.
        4    1    3    3  502    0  0.10386434310E+04 -0.47020915561E+03 -0.81124759865E+03  0.13992859272E+04  0.12699999809E+01 0. -1.
       -4    1    3    3    0  502 -0.10386434310E+04  0.47020915561E+03  0.12635007663E+04  0.17018556419E+04  0.12699999809E+01 0.  1.
</event>
<event>
 5   0  0.9647945E-06  0.2993290E+04  0.7818609E-02  0.8245650E-01
        2   -1    0    0  501    0  0.00000000000E+00  0.00000000000E+00  0.10598050053E+04  0.10598050053E+04  0.25500000920E-02 0. -1.
       -2   -1    0    0    0  501  0.00000000000E+00  0.00000000000E+00 -0.21135458662E+04  0.21135458662E+04  0.25500000920E-02 0.  1.
    10030    2    1    2    0    0  0.00000000000E+00  0.00000000000E+00 -0.10537408609E+04  0.31733508715E+04  0.29932901550E+04 0.  0.
        2    1    3    3  502    0 -0.44100321318E+02  0.62805625880E+03 -0.19663197607E+04  0.20646580598E+04  0.25500000920E-02 0.  1.
       -2    1    3    3    0  502  0.44100321318E+02 -0.62805625880E+03  0.91257889980E+03  0.11086928118E+04  0.25500000920E-02 0. -1.
</event>
<event>
 5   0  0.3725232E-06  0.2895966E+04  0.7818609E-02  0.8274079E-01
       -1   -1    0    0    0  501  0.00000000000E+00  0.00000000000E+00  0.16715170379E+04  0.16715170379E+04  0.50400001928E-02 0.  1.
        1   -1    0    0  501    0  0.00000000000E+00  0.00000000000E+00 -0.12543423999E+04  0.12543423999E+04  0.50400001928E-02 0. -1.
    10030    2    1    2    0    0  0.00000000000E+00  0.00000000000E+00  0.41717463800E+03  0.29258594379E+04  0.28959659479E+04 0.  0.
        2    1    3    3  502    0  0.38816802264E+03  0.74906337568E+03 -0.98037135391E+03  0.12934057160E+04  0.25500000920E-02 0. -1.
       -2    1    3    3    0  502 -0.38816802264E+03 -0.74906337568E+03  0.13975459919E+04  0.16324537219E+04  0.25500000920E-02 0.  1.
</event>
<event>
 5   0  0.1089569E-05  0.3037675E+04  0.7818609E-02  0.8233054E-01
       -2   -1    0    0    0  501  0.00000000000E+00  0.00000000000E+00  0.14645866931E+04  0.14645866931E+04  0.25500000920E-02 0. -1.
        2   -1    0    0  501    0  0.00000000000E+00  0.00000000000E+00 -0.15750980805E+04  0.15750980805E+04  0.25500000920E-02 0.  1.
    10030    2    1    2    0    0  0.00000000000E+00  0.00000000000E+00 -0.11051138745E+03  0.30396847736E+04  0.30376752223E+04 0.  0.
        5    1    3    3  502    0  0.35743796511E+03 -0.10141103247E+04  0.10181439892E+04  0.14808176533E+04  0.46999998093E+01 0. -1.
       -5    1    3    3    0  502 -0.35743796511E+03  0.10141103247E+04 -0.11286553767E+04  0.15588671203E+04  0.46999998093E+01 0.  1.
</event>
<event>
 5   0  0.1028450E-05  0.3026746E+04  0.7818609E-02  0.8236134E-01
        2   -1    0    0  501    0  0.00000000000E+00  0.00000000000E+00  0.15324253275E+04  0.15324253275E+04  0.25500000920E-02 0.  1.
       -2   -1    0    0    0  501  0.00000000000E+00  0.00000000000E+00 -0.14945572970E+04  0.14945572970E+04  0.25500000920E-02 0. -1.
    10030    2    1    2    0    0  0.00000000000E+00  0.00000000000E+00  0.37868030501E+02  0.30269826246E+04  0.30267457478E+04 0.  0.
        3    1    3    3  502    0  0.16180319665E+03 -0.68839307676E+03 -0.13191662669E+04  0.14967514665E+04  0.10100000352E+00 0. -1.
       -3    1    3    3    0  502 -0.16180319665E+03  0.68839307676E+03  0.13570342974E+04  0.15302311581E+04  0.10100000352E+00 0.  1.
</event>
<event>
 5   0  0.3896630E-06  0.3019421E+04  0.7818609E-02  0.8238207E-01
       -1   -1    0    0    0  501  0.00000000000E+00  0.00000000000E+00  0.93210745338E+03  0.93210745339E+03  0.50400001928E-02 0.  1.
        1   -1    0    0  501    0  0.00000000000E+00  0.00000000000E+00 -0.24452389616E+04  0.24452389616E+04  0.50400001928E-02 0. -1.
    10030    2    1    2    0    0  0.00000000000E+00  0.00000000000E+00 -0.15131315082E+04  0.33773464150E+04  0.30194207798E+04 0.  0.
        5    1    3    3  502    0 -0.73190972067E+03 -0.11147187427E+04  0.35084590711E+02  0.13339950273E+04  0.46999998093E+01 0. -1.
       -5    1    3    3    0  502  0.73190972067E+03  0.11147187427E+04 -0.15482160989E+04  0.20433513876E+04  0.46999998093E+01 0.  1.
</event>
<event>
 5   0  0.3852126E-06  0.2992282E+04  0.7818609E-02  0.8245938E-01
       -1   -1    0    0    0  501  0.00000000000E+00  0.00000000000E+00  0.15602559269E+04  0.15602559269E+04  0.50400001928E-02 0. -1.
        1   -1    0    0  501    0  0.00000000000E+00  0.00000000000E+00 -0.14346610400E+04  0.14346610400E+04  0.50400001928E-02 0.  1.
    10030    2    1    2    0    0  0.00000000000E+00  0.00000000000E+00  0.12559488691E+03  0.29949169670E+04  0.29922823335E+04 0.  0.
        1    1    3    3  502    0  0.24104259800E+03 -0.68013012411E+03  0.13745848105E+04  0.15524696200E+04  0.50400001928E-02 0. -1.
       -1    1    3    3    0  502 -0.24104259800E+03  0.68013012411E+03 -0.12489899235E+04  0.14424473470E+04  0.50400001928E-02 0.  1.
</event>
<event>
 5   0  0.1028450E-05  0.2783224E+04  0.7818609E-02  0.8308496E-01
       -2   -1    0    0    0  501  0.00000000000E+00  0.00000000000E+00  0.81896861356E+03  0.81896861356E+03  0.25500000920E-02 0.  1.
        2   -1    0    0  501    0  0.00000000000E+00  0.00000000000E+00 -0.23646612522E+04  0.23646612522E+04  0.25500000920E-02 0. -1.
    10030    2    1    2    0    0  0.00000000000E+00  0.00000000000E+00 -0.15456926386E+04  0.31836298658E+04  0.27832235607E+04 0.  0.
        3    1    3    3  502    0 -0.47592116376E+03 -0.85362187158E+03 -0.19060296527E+04  0.21419897995E+04  0.10100000352E+00 0. -1.
       -3    1    3    3    0  502  0.47592116376E+03  0.85362187158E+03  0.36033701410E+03  0.10416400663E+04  0.10100000352E+00 0.  1.
</event>
<event>
 5   0  0.3725232E-06  0.2989337E+04  0.7818609E-02  0.8246782E-01
       -1   -1    0    0    0  501  0.00000000000E+00  0.00000000000E+00  0.11733298709E+04  0.11733298709E+04  0.50400001928E-02 0. -1.
        1   -1    0    0  501    0  0.00000000000E+00  0.00000000000E+00 -0.19040116759E+04  0.19040116759E+04  0.50400001928E-02 0.  1.
    10030    2    1    2    0    0  0.00000000000E+00  0.00000000000E+00 -0.73068180494E+03  0.30773415468E+04  0.29893368990E+04 0.  0.
        2    1    3    3  502    0 -0.55704662015E+03  0.71234901025E+03 -0.15904568583E+04  0.18295614413E+04  0.25500000920E-02 0.  1.
       -2    1    3    3    0  502  0.55704662015E+03 -0.71234901025E+03  0.85977505332E+03  0.12477801055E+04  0.25500000920E-02 0. -1.
</event>
<event>
 5   0  0.1057036E-05  0.3007764E+04  0.7818609E-02  0.8241517E-01
        2   -1    0    0  501    0  0.00000000000E+00  0.00000000000E+00  0.19633350620E+04  0.19633350620E+04  0.25500000920E-02 0. -1.
       -2   -1    0    0    0  501  0.00000000000E+00  0.00000000000E+00 -0.11519487967E+04  0.11519487967E+04  0.25500000920E-02 0.  1.
    10030    2    1    2    0    0  0.00000000000E+00  0.00000000000E+00  0.81138626525E+03  0.31152838587E+04  0.30077642608E+04 0.  0.
        4    1    3    3  502    0  0.18671657231E+03 -0.11826704039E+04 -0.53682983346E+03  0.13121586206E+04  0.12699999809E+01 0.  1.
       -4    1    3    3    0  502 -0.18671657231E+03  0.11826704039E+04  0.13482160987E+04  0.18031252381E+04  0.12699999809E+01 0. -1.
</event>
<event>
 5   0  0.3636718E-06  0.3162647E+04  0.7818609E-02  0.8198752E-01
       -1   -1    0    0    0  501  0.00000000000E+00  0.00000000000E+00  0.13194755288E+04  0.13194755288E+04  0.50400001928E-02 0. -1.
        1   -1    0    0  501    0  0.00000000000E+00  0.00000000000E+00 -0.18951353795E+04  0.18951353795E+04  0.50400001928E-02 0.  1.
    10030    2    1    2    0    0  0.00000000000E+00  0.00000000000E+00 -0.57565985076E+03  0.32146109083E+04  0.31626474714E+04 0.  0.
        4    1    3    3  502    0 -0.11497713600E+04  0.10117126026E+04 -0.68805907413E+03  0.16789769126E+04  0.12699999809E+01 0.  1.
       -4    1    3    3    0  502  0.11497713600E+04 -0.10117126026E+04  0.11239922337E+03  0.15356339958E+04  0.12699999809E+01 0. -1.
</event>
<event>
 5   0  0.1057036E-05  0.3150638E+04  0.7818609E-02  0.8201976E-01
       -2   -1    0    0    0  501  0.00000000000E+00  0.00000000000E+00  0.92487483792E+03  0.92487483792E+03  0.25500000920E-02 0.  1.
        2   -1    0    0  501    0  0.00000000000E+00  0.00000000000E+00 -0.26832070831E+04  0.26832070831E+04  0.25500000920E-02 0. -1.
    10030    2    1    2    0    0  0.00000000000E+00  0.00000000000E+00 -0.17583322452E+04  0.36080819210E+04  0.31506384852E+04 0.  0.
        4    1    3    3  502    0 -0.13601099736E+04  0.17523570509E+03 -0.17669824934E+04  0.22367019108E+04  0.12699999809E+01 0. -1.
       -4    1    3    3    0  502  0.13601099736E+04 -0.17523570509E+03  0.86502482598E+01  0.13713800102E+04  0.12699999809E+01 0.  1.
</event>
<event>
 5   0  0.1029922E-05  0.2656198E+04  0.7818609E-02  0.8349359E-01
       -2   -1    0    0    0  501  0.00000000000E+00  0.00000000000E+00  0.87781947442E+03  0.87781947443E+03  0.25500000920E-02 0.  1.
        2   -1    0    0  501    0  0.00000000000E+00  0.00000000000E+00 -0.20093509183E+04  0.20093509183E+04  0.25500000920E-02 0. -1.
    10030    2    1    2    0    0  0.00000000000E+00  0.00000000000E+00 -0.11315314439E+04  0.28871703928E+04  0.26561983112E+04 0.  0.
        1    1    3    3  502    0  0.54531049029E+03  0.57241038154E+02 -0.18805813237E+04  0.19588839124E+04  0.50400001928E-02 0. -1.
       -1    1    3    3    0  502 -0.54531049029E+03 -0.57241038154E+02  0.74904987975E+03  0.92828648038E+03  0.50400001928E-02 0.  1.
</event>
<event>
 5   0  0.9647945E-06  0.3009242E+04  0.7818609E-02  0.8241097E-01
       -2   -1    0    0    0  501  0.00000000000E+00  0.00000000000E+00  0.13042880324E+04  0.13042880324E+04  0.25500000920E-02 0.  1.
        2   -1    0    0  501    0  0.00000000000E+00  0.00000000000E+00 -0.17357246805E+04  0.17357246805E+04  0.25500000920E-02 0. -1.
    10030    2    1    2    0    0  0.00000000000E+00  0.00000000000E+00 -0.43143664810E+03  0.30400127130E+04  0.30092423820E+04 0.  0.
        2    1    3    3  502    0  0.24970061176E+03  0.67564173632E+03 -0.15502265918E+04  0.17093989111E+04  0.25500000920E-02 0. -1.
       -2    1    3    3    0  502 -0.24970061176E+03 -0.67564173632E+03  0.11187899437E+04  0.13306138018E+04  0.25500000920E-02 0.  1.
</event>
<event>
 5   0  0.3592331E-06  0.3054436E+04  0.7818609E-02  0.8228355E-01
       -1   -1    0    0    0  501  0.00000000000E+00  0.00000000000E+00  0.23885292195E+04  0.23885292195E+04  0.50400001928E-02 0.  1.
        1   -1    0    0  501    0  0.00000000000E+00  0.00000000000E+00 -0.97649847540E+03  0.97649847541E+03  0.50400001928E-02 0. -1.
    10030    2    1    2    0    0  0.00000000000E+00  0.00000000000E+00  0.14120307441E+04  0.33650276949E+04  0.30544362107E+04 0.  0.
        3    1    3    3  502    0  0.83001421942E+03  0.76141540450E+03  0.18422574271E+04  0.21593030034E+04  0.10100000352E+00 0.  1.
       -3    1    3    3    0  502 -0.83001421942E+03 -0.76141540450E+03 -0.43022668302E+03  0.12057246915E+04  0.10100000352E+00 0. -1.
</event>
<event>
 5   0  0.3852126E-06  0.2939325E+04  0.7818609E-02  0.8261272E-01
        1   -1    0    0  501    0  0.00000000000E+00  0.00000000000E+00  0.10600679990E+04  0.10600679990E+04  0.50400001928E-02 0. -1.
       -1   -1    0    0    0  501  0.00000000000E+00  0.00000000000E+00 -0.20375188869E+04  0.20375188869E+04  0.50400001928E-02 0.  1.
    10030    2    1    2    0    0  0.00000000000E+00  0.00000000000E+00 -0.97745088799E+03  0.30975868859E+04  0.29393254800E+04 0.  0.
        1    1    3    3  502    0  0.55431579173E+03 -0.13362204025E+04 -0.21562435713E+03  0.14626157473E+04  0.50400001928E-02 0.  1.
       -1    1    3    3    0  502 -0.55431579173E+03  0.13362204025E+04 -0.76182653086E+03  0.16349711386E+04  0.50400001928E-02 0. -1.
</event>
<event>
 5   0  0.3725232E-06  0.2968235E+04  0.7818609E-02  0.8252860E-01
        1   -1    0    0  501    0  0.00000000000E+00  0.00000000000E+00  0.16550782177E+04  0.16550782177E+04  0.50400001928E-02 0.  1.
       -1   -1    0    0    0  501  0.00000000000E+00  0.00000000000E+00 -0.13308161258E+04  0.13308161258E+04  0.50400001928E-02 0. -1.
    10030    2    1    2    0    0  0.00000000000E+00  0.00000000000E+00  0.32426209190E+03  0.29858943435E+04  0.29682350187E+04 0.  0.
        2    1    3    3  502    0  0.22642111804E+03 -0.10867657013E+04 -0.82875650266E+03  0.13853387863E+04  0.25500000920E-02 0. -1.
       -2    1    3    3    0  502 -0.22642111804E+03  0.10867657013E+04  0.11530185946E+04  0.16005555572E+04  0.25500000920E-02 0.  1.
</event>
<event>
 5   0  0.9647945E-06  0.2964829E+04  0.7818609E-02  0.8253846E-01
        2   -1    0    0  501    0  0.00000000000E+00  0.00000000000E+00  0.16244824611E+04  0.16244824611E+04  0.25500000920E-02 0. -1.
       -2   -1    0    0    0  501  0.00000000000E+00  0.00000000000E+00 -0.13527713199E+04  0.13527713199E+04  0.25500000920E-02 0.  1.
    10030    2    1    2    0    0  0.00000000000E+00  0.00000000000E+00  0.27171114116E+03  0.29772537810E+04  0.29648293597E+04 0.  0.
        2    1    3    3  502    0 -0.10743018362E+04  0.63306777994E+03  0.94087205156E+03  0.15620945768E+04  0.25500000920E-02 0. -1.
       -2    1    3    3    0  502  0.10743018362E+04 -0.63306777994E+03 -0.66916091040E+03  0.14151592042E+04  0.25500000920E-02 0.  1.
</event>
<event>
 5   0  0.1089569E-05  0.2968613E+04  0.7818609E-02  0.8252751E-01
        2   -1    0    0  501    0  0.00000000000E+00  0.00000000000E+00  0.16603088970E+04  0.16603088970E+04  0.25500000920E-02 0.  1.
       -2   -1    0    0    0  501  0.00000000000E+00  0.00000000000E+00 -0.13269611881E+04  0.13269611881E+04  0.25500000920E-02 0. -1.
    10030    2    1    2    0    0  0.00000000000E+00  0.00000000000E+00  0.33334770889E+03  0.29872700851E+04  0.29686127849E+04 0.  0.
        5    1    3    3  502    0 -0.10332156689E+04 -0.72233351004E+02 -0.90320671772E+03  0.13742476998E+04  0.46999998093E+01 0. -1.
       -5    1    3    3    0  502  0.10332156689E+04  0.72233351004E+02  0.12365544266E+04  0.16130223853E+04  0.46999998093E+01 0.  1.
</event>
<event>
 5   0  0.3852126E-06  0.3112851E+04  0.7818609E-02  0.8212220E-01
       -1   -1    0    0    0  501  0.00000000000E+00  0.00000000000E+00  0.96844376940E+03  0.96844376941E+03  0.50400001928E-02 0.  1.
        1   -1    0    0  501    0  0.00000000000E+00  0.00000000000E+00 -0.25013949669E+04  0.25013949669E+04  0.50400001928E-02 0. -1.
    10030    2    1    2    0    0  0.00000000000E+00  0.00000000000E+00 -0.15329511975E+04  0.34698387364E+04  0.31128510215E+04 0.  0.
        1    1    3    3  502    0 -0.98325932553E+03 -0.12061790719E+04 -0.79787553521E+03  0.17487916469E+04  0.50400001928E-02 0. -1.
       -1    1    3    3    0  502  0.98325932553E+03  0.12061790719E+04 -0.73507566233E+03  0.17210470894E+04  0.50400001928E-02 0.  1.
</event>
<event>
 5   0  0.1029922E-05  0.2972920E+04  0.7818609E-02  0.8251506E-01
       -2   -1    0    0    0  501  0.00000000000E+00  0.00000000000E+00  0.10551272614E+04  0.10551272614E+04  0.25500000920E-02 0. -1.
        2   -1    0    0  501    0  0.00000000000E+00  0.00000000000E+00 -0.20941205747E+04  0.20941205747E+04  0.25500000920E-02 0.  1.
    10030    2    1    2    0    0  0.00000000000E+00  0.00000000000E+00 -0.10389933133E+04  0.31492478361E+04  0.29729202526E+04 0.  0.
        1    1    3    3  502    0 -0.41215956278E+03  0.49257851681E+03 -0.19395485561E+04  0.20431244950E+04  0.50400001928E-02 0.  1.
       -1    1    3    3    0  502  0.41215956278E+03 -0.49257851681E+03  0.90055524286E+03  0.11061233412E+04  0.50400001928E-02 0. -1.
</event>
<event>
 5   0  0.3852126E-06  0.2996717E+04  0.7818609E-02  0.8244669E-01
       -1   -1    0    0    0  501  0.00000000000E+00  0.00000000000E+00  0.94872249707E+03  0.94872249709E+03  0.50400001928E-02 0.  1.
        1   -1    0    0  501    0  0.00000000000E+00  0.00000000000E+00 -0.23664227124E+04  0.23664227124E+04  0.50400001928E-02 0. -1.
    10030    2    1    2    0    0  0.00000000000E+00  0.00000000000E+00 -0.14177002154E+04  0.33151452095E+04  0.29967171804E+04 0.  0.
        1    1    3    3  502    0  0.98276907189E+03 -0.18920657229E+03 -0.19424376202E+04  0.21851082545E+04  0.50400001928E-02 0. -1.
       -1    1    3    3    0  502 -0.98276907189E+03  0.18920657229E+03  0.52473740481E+03  0.11300369550E+04  0.50400001928E-02 0.  1.
</event>
<event>
 5   0  0.1089569E-05  0.2729173E+04  0.7818609E-02  0.8325601E-01
       -2   -1    0    0    0  501  0.00000000000E+00  0.00000000000E+00  0.97634863409E+03  0.97634863409E+03  0.25500000920E-02 0.  1.
        2   -1    0    0  501    0  0.00000000000E+00  0.00000000000E+00 -0.19072048831E+04  0.19072048831E+04  0.25500000920E-02 0. -1.
    10030    2    1    2    0    0  0.00000000000E+00  0.00000000000E+00 -0.93085624902E+03  0.28835535172E+04  0.27291734152E+04 0.  0.
        5    1    3    3  502    0  0.73740590368E+03 -0.88602762722E+03 -0.12369839470E+04  0.16908470653E+04  0.46999998093E+01 0. -1.
       -5    1    3    3    0  502 -0.73740590368E+03  0.88602762722E+03  0.30612769800E+03  0.11927064519E+04  0.46999998093E+01 0.  1.
</event>
<event>
 5   0  0.1029922E-05  0.2990473E+04  0.7818609E-02  0.8246457E-01
        2   -1    0    0  501    0  0.00000000000E+00  0.00000000000E+00  0.30133801548E+04  0.30133801548E+04  0.25500000920E-02 0. -1.
       -2   -1    0    0    0  501  0.00000000000E+00  0.00000000000E+00 -0.74193511892E+03  0.74193511893E+03  0.25500000920E-02 0.  1.
    10030    2    1    2    0    0  0.00000000000E+00  0.00000000000E+00  0.22714450359E+04  0.37553152738E+04  0.29904732492E+04 0.  0.
        1    1    3    3  502    0 -0.93645835026E+03 -0.15883208654E+03 -0.31442186929E+03  0.10005213568E+04  0.50400001928E-02 0.  1.
       -1    1    3    3    0  502  0.93645835026E+03  0.15883208654E+03  0.25858669052E+04  0.27547939170E+04  0.50400001928E-02 0. -1.
</event>
<event>
 5   0  0.1089569E-05  0.3008555E+04  0.7818609E-02  0.8241292E-01
       -2   -1    0    0    0  501  0.00000000000E+00  0.00000000000E+00  0.20182662857E+04  0.20182662857E+04  0.25500000920E-02 0.  1.
        2   -1    0    0  501    0  0.00000000000E+00  0.00000000000E+00 -0.11211857161E+04  0.11211857161E+04  0.25500000920E-02 0. -1.
    10030    2    1    2    0    0  0.00000000000E+00  0.00000000000E+00  0.89708056959E+03  0.31394520018E+04  0.30085553548E+04 0.  0.
        5    1    3    3  502    0 -0.60131692001E+03  0.11594365319E+04 -0.33022315690E+03  0.13471987727E+04  0.46999998093E+01 0. -1.
       -5    1    3    3    0  502  0.60131692001E+03 -0.11594365319E+04  0.12273037265E+04  0.17922532290E+04  0.46999998093E+01 0.  1.
</event>
<event>
 5   0  0.1089569E-05  0.2449484E+04  0.7818609E-02  0.8421207E-01
        2   -1    0    0  501    0  0.00000000000E+00  0.00000000000E+00  0.22951754011E+04  0.22951754011E+04  0.25500000920E-02 0. -1.
       -2   -1    0    0    0  501  0.00000000000E+00  0.00000000000E+00 -0.65354152739E+03  0.65354152740E+03  0.25500000920E-02 0.  1.
    10030    2    1    2    0    0  0.00000000000E+00  0.00000000000E+00  0.16416338738E+04  0.29487169285E+04  0.24494835679E+04 0.  0.
        5    1    3    3  502    0  0.14154203697E+03  0.10671100507E+04  0.11762980215E+03  0.10828743551E+04  0.46999998093E+01 0.  1.
       -5    1    3    3    0  502 -0.14154203697E+03 -0.10671100507E+04  0.15240040716E+04  0.18658425734E+04  0.46999998093E+01 0. -1.
</event>
<event>
 5   0  0.3725232E-06  0.3031850E+04  0.7818609E-02  0.8234694E-01
       -1   -1    0    0    0  501  0.00000000000E+00  0.00000000000E+00  0.86147476798E+03  0.86147476799E+03  0.50400001928E-02 0. -1.
        1   -1    0    0  501    0  0.00000000000E+00  0.00000000000E+00 -0.26675520704E+04  0.26675520704E+04  0.50400001928E-02 0.  1.
    10030    2    1    2    0    0  0.00000000000E+00  0.00000000000E+00 -0.18060773024E+04  0.35290268384E+04  0.30318501288E+04 0.  0.
        2    1    3    3  502    0 -0.71575174377E+03 -0.21173670971E+03 -0.24388349677E+04  0.25504997535E+04  0.25500000920E-02 0.  1.
       -2    1    3    3    0  502  0.71575174377E+03  0.21173670971E+03  0.63275766526E+03  0.97852708491E+03  0.25500000920E-02 0. -1.
</event>
<event>
 5   0  0.1028450E-05  0.2989246E+04  0.7818609E-02  0.8246809E-01
        2   -1    0    0  501    0  0.00000000000E+00  0.00000000000E+00  0.17831395022E+04  0.17831395022E+04  0.25500000920E-02 0.  1.
       -2   -1    0    0    0  501  0.00000000000E+00  0.00000000000E+00 -0.12527888266E+04  0.12527888266E+04  0.25500000920E-02 0. -1.
    10030    2    1    2    0    0  0.00000000000E+00  0.00000000000E+00  0.53035067564E+03  0.30359283288E+04  0.29892455534E+04 0.  0.
        3    1    3    3  502    0  0.76777990939E+03 -0.12758445430E+04  0.39615427807E+03  0.15408450634E+04  0.10100000352E+00 0.  1.
       -3    1    3    3    0  502 -0.76777990939E+03  0.12758445430E+04  0.13419639757E+03  0.14950832654E+04  0.10100000352E+00 0. -1.
</event>
<event>
 5   0  0.3725232E-06  0.3013685E+04  0.7818609E-02  0.8239834E-01
       -1   -1    0    0    0  501  0.00000000000E+00  0.00000000000E+00  0.84087624067E+03  0.84087624069E+03  0.50400001928E-02 0.  1.
        1   -1    0    0  501    0  0.00000000000E+00  0.00000000000E+00 -0.27002476675E+04  0.27002476675E+04  0.50400001928E-02 0. -1.
    10030    2    1    2    0    0  0.00000000000E+00  0.00000000000E+00 -0.18593714268E+04  0.35411239082E+04  0.30136848591E+04 0.  0.
        2    1    3    3  502    0 -0.14106489291E+04  0.52735969795E+03 -0.98885158595E+03  0.18016287384E+04  0.25500000920E-02 0.  1.
       -2    1    3    3    0  502  0.14106489291E+04 -0.52735969795E+03 -0.87051984084E+03  0.17394951697E+04  0.25500000920E-02 0. -1.
</event>
<event>
 5   0  0.1057036E-05  0.2995597E+04  0.7818609E-02  0.8244989E-01
        2   -1    0    0  501    0  0.00000000000E+00  0.00000000000E+00  0.17021572258E+04  0.17021572258E+04  0.25500000920E-02 0.  1.
       -2   -1    0    0    0  501  0.00000000000E+00  0.00000000000E+00 -0.13179750238E+04  0.13179750238E+04  0.25500000920E-02 0. -1.
    10030    2    1    2    0    0  0.00000000000E+00  0.00000000000E+00  0.38418220201E+03  0.30201322496E+04  0.29955972428E+04 0.  0.
        4    1    3    3  502    0  0.11919301768E+04  0.90545100411E+03  0.13817383766E+03  0.15032074672E+04  0.12699999809E+01 0.  1.
       -4    1    3    3    0  502 -0.11919301768E+04 -0.90545100411E+03  0.24600836435E+03  0.15169247824E+04  0.12699999809E+01 0. -1.
</event>
<event>
 5   0  0.3592331E-06  0.3014757E+04  0.7818609E-02  0.8239529E-01
       -1   -1    0    0    0  501  0.00000000000E+00  0.00000000000E+00  0.15343367199E+04  0.15343367199E+04  0.50400001928E-02 0. -1.
        1   -1    0    0  501    0  0.00000000000E+00  0.00000000000E+00 -0.14808941606E+04  0.14808941606E+04  0.50400001928E-02 0.  1.
    10030    2    1    2    0    0  0.00000000000E+00  0.00000000000E+00  0.53442559246E+02  0.30152308805E+04  0.30147572299E+04 0.  0.
        3    1    3    3  502    0  0.77177269975E+03 -0.21226909095E+03  0.13042234141E+04  0.15302581453E+04  0.10100000352E+00 0. -1.
       -3    1    3    3    0  502 -0.77177269975E+03  0.21226909095E+03 -0.12507808549E+04  0.14849727352E+04  0.10100000352E+00 0.  1.
</event>
<event>
 5   0  0.1028450E-05  0.2839383E+04  0.7818609E-02  0.8291145E-01
        2   -1    0    0  501    0  0.00000000000E+00  0.00000000000E+00  0.12112418470E+04  0.12112418470E+04  0.25500000920E-02 0.  1.
       -2   -1    0    0    0  501  0.00000000000E+00  0.00000000000E+00 -0.16640143099E+04  0.16640143099E+04  0.25500000920E-02 0. -1.
    10030    2    1    2    0    0  0.00000000000E+00  0.00000000000E+00 -0.45277246283E+03  0.28752561569E+04  0.28393828669E+04 0.  0.
        3    1    3    3  502    0 -0.78051368416E+03 -0.35610331088E+03  0.91906041276E+03  0.12572522546E+04  0.10100000352E+00 0.  1.
       -3    1    3    3    0  502  0.78051368416E+03  0.35610331088E+03 -0.13718328756E+04  0.16180039023E+04  0.10100000352E+00 0. -1.
</event>
<event>
 5   0  0.3636718E-06  0.1921873E+04  0.7818609E-02  0.8644045E-01
        1   -1    0    0  501    0  0.00000000000E+00  0.00000000000E+00  0.14395967803E+04  0.14395967803E+04  0.50400001928E-02 0.  1.
       -1   -1    0    0    0  501  0.00000000000E+00  0.00000000000E+00 -0.64142915568E+03  0.64142915570E+03  0.50400001928E-02 0. -1.
    10030    2    1    2    0    0  0.00000000000E+00  0.00000000000E+00  0.79816762458E+03  0.20810259360E+04  0.19218734061E+04 0.  0.
        4    1    3    3  502    0  0.95515233123E+02 -0.38494976426E+03 -0.54866253066E+03  0.67700935460E+03  0.12699999809E+01 0. -1.
       -4    1    3    3    0  502 -0.95515233123E+02  0.38494976426E+03  0.13468301552E+04  0.14040165814E+04  0.12699999809E+01 0.  1.
</event>
<event>
 5   0  0.1029922E-05  0.3035783E+04  0.7818609E-02  0.8233586E-01
        2   -1    0    0  501    0  0.00000000000E+00  0.00000000000E+00  0.28529242542E+04  0.28529242542E+04  0.25500000920E-02 0.  1.
       -2   -1    0    0    0  501  0.00000000000E+00  0.00000000000E+00 -0.80759067023E+03  0.80759067023E+03  0.25500000920E-02 0. -1.
    10030    2    1    2    0    0  0.00000000000E+00  0.00000000000E+00  0.20453335840E+04  0.36605149244E+04  0.30357832667E+04 0.  0.
        1    1    3    3  502    0 -0.38455039104E+03  0.42671160767E+02 -0.74713252797E+03  0.84137200191E+03  0.50400001928E-02 0. -1.
       -1    1    3    3    0  502  0.38455039104E+03 -0.42671160767E+02  0.27924661120E+04  0.28191429225E+04  0.50400001928E-02 0.  1.
</event>
<event>
 5   0  0.3896630E-06  0.2937064E+04  0.7818609E-02  0.8261934E-01
       -1   -1    0    0    0  501  0.00000000000E+00  0.00000000000E+00  0.14385695764E+04  0.14385695764E+04  0.50400001928E-02 0. -1.
        1   -1    0    0  501    0  0.00000000000E+00  0.00000000000E+00 -0.14991185193E+04  0.14991185193E+04  0.50400001928E-02 0.  1.
    10030    2    1    2    0    0  0.00000000000E+00  0.00000000000E+00 -0.60548942885E+02  0.29376880956E+04  0.29370640396E+04 0.  0.
        5    1    3    3  502    0  0.17183206215E+02  0.57822971282E+03 -0.13803461921E+04  0.14966704926E+04  0.46999998093E+01 0.  1.
       -5    1    3    3    0  502 -0.17183206215E+02 -0.57822971282E+03  0.13197972492E+04  0.14410176031E+04  0.46999998093E+01 0. -1.
</event>
<event>
 5   0  0.3636718E-06  0.2971101E+04  0.7818609E-02  0.8252032E-01
        1   -1    0    0  501    0  0.00000000000E+00  0.00000000000E+00  0.16796292538E+04  0.16796292538E+04  0.50400001928E-02 0. -1.
       -1   -1    0    0    0  501  0.00000000000E+00  0.00000000000E+00 -0.13138973676E+04  0.13138973676E+04  0.50400001928E-02 0.  1.
    10030    2    1    2    0    0  0.00000000000E+00  0.00000000000E+00  0.36573188619E+03  0.29935266213E+04  0.29711011124E+04 0.  0.
        4    1    3    3  502    0 -0.29759711866E+02 -0.60235872287E+03  0.15507349881E+04  0.16638816928E+04  0.12699999809E+01 0. -1.
       -4    1    3    3    0  502  0.29759711866E+02  0.60235872287E+03 -0.11850031019E+04  0.13296449285E+04  0.12699999809E+01 0.  1.
</event>
<event>
 5   0  0.1028450E-05  0.2980473E+04  0.7818609E-02  0.8249329E-01
        2   -1    0    0  501    0  0.00000000000E+00  0.00000000000E+00  0.19522983613E+04  0.19522983613E+04  0.25500000920E-02 0.  1.
       -2   -1    0    0    0  501  0.00000000000E+00  0.00000000000E+00 -0.11375334637E+04  0.11375334637E+04  0.25500000920E-02 0. -1.
    10030    2    1    2    0    0  0.00000000000E+00  0.00000000000E+00  0.81476489761E+03  0.30898318250E+04  0.29804729270E+04 0.  0.
        3    1    3    3  502    0 -0.86335983286E+03 -0.90898666409E+03  0.12426484113E+04  0.17651691253E+04  0.10100000352E+00 0.  1.
       -3    1    3    3    0  502  0.86335983286E+03  0.90898666409E+03 -0.42788351372E+03  0.13246626997E+04  0.10100000352E+00 0. -1.
</event>
<event>
 5   0  0.3313750E-06  0.3052106E+04  0.7818609E-02  0.8229006E-01
       -3   -1    0    0    0  501  0.00000000000E+00  0.00000000000E+00  0.14665255693E+04  0.14665255727E+04  0.10100000352E+00 0.  1.
        3   -1    0    0  501    0  0.00000000000E+00  0.00000000000E+00 -0.15879967986E+04  0.15879968018E+04  0.10100000352E+00 0. -1.
    10030    2    1    2    0    0  0.00000000000E+00  0.00000000000E+00 -0.12147122931E+03  0.30545223745E+04  0.30521061051E+04 0.  0.
        2    1    3    3  502    0 -0.10813166160E+04 -0.34647591782E+03  0.95965320671E+03  0.14866827042E+04  0.25500000920E-02 0.  1.
       -2    1    3    3    0  502  0.10813166160E+04  0.34647591782E+03 -0.10811244360E+04  0.15678396703E+04  0.25500000920E-02 0. -1.
</event>
<event>
 5   0  0.3592331E-06  0.2967154E+04  0.7818609E-02  0.8253173E-01
        1   -1    0    0  501    0  0.00000000000E+00  0.00000000000E+00  0.19901482843E+04  0.19901482843E+04  0.50400001928E-02 0. -1.
       -1   -1    0    0    0  501  0.00000000000E+00  0.00000000000E+00 -0.11059482813E+04  0.11059482813E+04  0.50400001928E-02 0.  1.
    10030    2    1    2    0    0  0.00000000000E+00  0.00000000000E+00  0.88420000304E+03  0.30960965656E+04  0.29671542424E+04 0.  0.
        3    1    3    3  502    0 -0.57827074468E+03 -0.83377759433E+03 -0.68725503827E+03  0.12255209622E+04  0.10100000352E+00 0.  1.
       -3    1    3    3    0  502  0.57827074468E+03  0.83377759433E+03  0.15714550413E+04  0.18705756034E+04  0.10100000352E+00 0. -1.
</event>
<event>
 5   0  0.3725232E-06  0.3069017E+04  0.7818609E-02  0.8224293E-01
       -1   -1    0    0    0  501  0.00000000000E+00  0.00000000000E+00  0.15466584142E+04  0.15466584142E+04  0.50400001928E-02 0. -1.
        1   -1    0    0  501    0  0.00000000000E+00  0.00000000000E+00 -0.15224541810E+04  0.15224541810E+04  0.50400001928E-02 0.  1.
    10030    2    1    2    0    0  0.00000000000E+00  0.00000000000E+00  0.24204233232E+02  0.30691125952E+04  0.30690171517E+04 0.  0.
        2    1    3    3  502    0  0.62082785099E+03 -0.95466802032E+03  0.10406759448E+04  0.15426680368E+04  0.25500000920E-02 0. -1.
       -2    1    3    3    0  502 -0.62082785099E+03  0.95466802032E+03 -0.10164717116E+04  0.15264445584E+04  0.25500000920E-02 0.  1.
</event>
<event>
 5   0  0.9647945E-06  0.2993377E+04  0.7818609E-02  0.8245625E-01
        2   -1    0    0  501    0  0.00000000000E+00  0.00000000000E+00  0.17141704614E+04  0.17141704614E+04  0.25500000920E-02 0.  1.
       -2   -1    0    0    0  501  0.00000000000E+00  0.00000000000E+00 -0.13067988052E+04  0.13067988052E+04  0.25500000920E-02 0. -1.
    10030    2    1    2    0    0  0.00000000000E+00  0.00000000000E+00  0.40737165617E+03  0.30209692666E+04  0.29933766291E+04 0.  0.
        2    1    3    3  502    0  0.12310078600E+04 -0.50127723283E+02 -0.65396103824E+03  0.13948326708E+04  0.25500000920E-02 0. -1.
       -2    1    3    3    0  502 -0.12310078600E+04  0.50127723283E+02  0.10613326944E+04  0.16261365958E+04  0.25500000920E-02 0.  1.
</event>
<event>
 5   0  0.3636718E-06  0.2785541E+04  0.7818609E-02  0.8307772E-01
       -1   -1    0    0    0  501  0.00000000000E+00  0.00000000000E+00  0.78208279506E+03  0.78208279508E+03  0.50400001928E-02 0. -1.
        1   -1    0    0  501    0  0.00000000000E+00  0.00000000000E+00 -0.24803117832E+04  0.24803117832E+04  0.50400001928E-02 0.  1.
    10030    2    1    2    0    0  0.00000000000E+00  0.00000000000E+00 -0.16982289881E+04  0.32623945783E+04  0.27855406456E+04 0.  0.
        4    1    3    3  502    0  0.91219481771E+03  0.39221551779E+03  0.29474519910E+03  0.10357648107E+04  0.12699999809E+01 0. -1.
       -4    1    3    3    0  502 -0.91219481771E+03 -0.39221551779E+03 -0.19929741872E+04  0.22266297676E+04  0.12699999809E+01 0.  1.
</event>
<event>
 5   0  0.3725232E-06  0.2993367E+04  0.7818609E-02  0.8245627E-01
        1   -1    0    0  501    0  0.00000000000E+00  0.00000000000E+00  0.25967631138E+04  0.25967631138E+04  0.50400001928E-02 0. -1.
       -1   -1    0    0    0  501  0.00000000000E+00  0.00000000000E+00 -0.86263615367E+03  0.86263615368E+03  0.50400001928E-02 0.  1.
    10030    2    1    2    0    0  0.00000000000E+00  0.00000000000E+00  0.17341269601E+04  0.34593992675E+04  0.29933671639E+04 0.  0.
        2    1    3    3  502    0  0.11675714490E+04  0.67283055816E+03  0.16197153332E+04  0.21069888014E+04  0.25500000920E-02 0. -1.
       -2    1    3    3    0  502 -0.11675714490E+04 -0.67283055816E+03  0.11441162690E+03  0.13524104661E+04  0.25500000920E-02 0.  1.
</event>
<event>
 5   0  0.3592331E-06  0.3007074E+04  0.7818609E-02  0.8241714E-01
       -1   -1    0    0    0  501  0.00000000000E+00  0.00000000000E+00  0.12087703149E+04  0.12087703149E+04  0.50400001928E-02 0.  1.
        1   -1    0    0  501    0  0.00000000000E+00  0.00000000000E+00 -0.18701847815E+04  0.18701847816E+04  0.50400001928E-02 0. -1.
    10030    2    1    2    0    0  0.00000000000E+00  0.00000000000E+00 -0.66141446662E+03  0.30789550965E+04  0.30070742241E+04 0.  0.
        3    1    3    3  502    0  0.46112845792E+03  0.58234316399E+03 -0.16691892906E+04  0.18270073654E+04  0.10100000352E+00 0. -1.
       -3    1    3    3    0  502 -0.46112845792E+03 -0.58234316399E+03  0.10077748239E+04  0.12519477311E+04  0.10100000352E+00 0.  1.
</event>
<event>
 5   0  0.1029922E-05  0.3018997E+04  0.7818609E-02  0.8238327E-01
       -2   -1    0    0    0  501  0.00000000000E+00  0.00000000000E+00  0.14832557728E+04  0.14832557728E+04  0.25500000920E-02 0. -1.
        2   -1    0    0  501    0  0.00000000000E+00  0.00000000000E+00 -0.15362050678E+04  0.15362050678E+04  0.25500000920E-02 0.  1.
    10030    2    1    2    0    0  0.00000000000E+00  0.00000000000E+00 -0.52949294967E+02  0.30194608405E+04  0.30189965452E+04 0.  0.
        1    1    3    3  502    0  0.76462945943E+03 -0.12433686512E+04 -0.41119108282E+03  0.15164768115E+04  0.50400001928E-02 0. -1.
       -1    1    3    3    0  502 -0.76462945943E+03  0.12433686512E+04  0.35824178785E+03  0.15029840291E+04  0.50400001928E-02 0.  1.
</event>
<event>
 5   0  0.1057036E-05  0.3120273E+04  0.7818609E-02  0.8210196E-01
       -2   -1    0    0    0  501  0.00000000000E+00  0.00000000000E+00  0.19157806819E+04  0.19157806819E+04  0.25500000920E-02 0. -1.
        2   -1    0    0  501    0  0.00000000000E+00  0.00000000000E+00 -0.12705136710E+04  0.12705136710E+04  0.25500000920E-02 0.  1.
    10030    2    1    2    0    0  0.00000000000E+00  0.00000000000E+00  0.64526701096E+03  0.31862943529E+04  0.31202727746E+04 0.  0.
        4    1    3    3  502    0 -0.74109350816E+03 -0.11275324038E+04 -0.47718560271E+03  0.14311731627E+04  0.12699999809E+01 0.  1.
       -4    1    3    3    0  502  0.74109350816E+03  0.11275324038E+04  0.11224526137E+04  0.17551211902E+04  0.12699999809E+01 0. -1.
</event>
<event>
 5   0  0.3852126E-06  0.3127706E+04  0.7818609E-02  0.8208175E-01
       -1   -1    0    0    0  501  0.00000000000E+00  0.00000000000E+00  0.13834889118E+04  0.13834889118E+04  0.50400001928E-02 0. -1.
        1   -1    0    0  501    0  0.00000000000E+00  0.00000000000E+00 -0.17677305084E+04  0.17677305084E+04  0.50400001928E-02 0.  1.
    10030    2    1    2    0    0  0.00000000000E+00  0.00000000000E+00 -0.38424159662E+03  0.31512194201E+04  0.31277055855E+04 0.  0.
        1    1    3    3  502    0  0.19142312940E+01  0.80229972809E+03 -0.15445788067E+04  0.17405206716E+04  0.50400001928E-02 0.  1.
       -1    1    3    3    0  502 -0.19142312940E+01 -0.80229972809E+03  0.11603372101E+04  0.14106987486E+04  0.50400001928E-02 0. -1.
</event>
<event>
 5   0  0.1029922E-05  0.3007770E+04  0.7818609E-02  0.8241515E-01
        2   -1    0    0  501    0  0.00000000000E+00  0.00000000000E+00  0.12798715357E+04  0.12798715357E+04  0.25500000920E-02 0.  1.
       -2   -1    0    0    0  501  0.00000000000E+00  0.00000000000E+00 -0.17671075961E+04  0.17671075961E+04  0.25500000920E-02 0. -1.
    10030    2    1    2    0    0  0.00000000000E+00  0.00000000000E+00 -0.48723606039E+03  0.30469791319E+04  0.30077704120E+04 0.  0.
        1    1    3    3  502    0 -0.38652408742E+03 -0.11179295694E+04  0.69719903189E+03  0.13730454772E+04  0.50400001928E-02 0.  1.
       -1    1    3    3    0  502  0.38652408742E+03  0.11179295694E+04 -0.11844350923E+04  0.16739336547E+04  0.50400001928E-02 0. -1.
</event>
<event>
 5   0  0.1057036E-05  0.3115458E+04  0.7818609E-02  0.8211508E-01
        2   -1    0    0  501    0  0.00000000000E+00  0.00000000000E+00  0.15125321075E+04  0.15125321075E+04  0.25500000920E-02 0.  1.
       -2   -1    0    0    0  501  0.00000000000E+00  0.00000000000E+00 -0.16042764315E+04  0.16042764315E+04  0.25500000920E-02 0. -1.
    10030    2    1    2    0    0  0.00000000000E+00  0.00000000000E+00 -0.91744324027E+02  0.31168085391E+04  0.31154579837E+04 0.  0.
        4    1    3    3  502    0 -0.58942803234E+03 -0.60044534757E+03  0.12656339554E+04  0.15197996390E+04  0.12699999809E+01 0.  1.
       -4    1    3    3    0  502  0.58942803234E+03  0.60044534757E+03 -0.13573782794E+04  0.15970089001E+04  0.12699999809E+01 0. -1.
</event>
<event>
 5   0  0.1089569E-05  0.3039326E+04  0.7818609E-02  0.8232589E-01
       -2   -1    0    0    0  501  0.00000000000E+00  0.00000000000E+00  0.12417970919E+04  0.12417970919E+04  0.25500000920E-02 0.  1.
        2   -1    0    0  501    0  0.00000000000E+00  0.00000000000E+00 -0.18597048202E+04  0.18597048202E+04  0.25500000920E-02 0. -1.
    10030    2    1    2    0    0  0.00000000000E+00  0.00000000000E+00 -0.61790772831E+03  0.31015019121E+04  0.30393262658E+04 0.  0.
        5    1    3    3  502    0 -0.12392151748E+04 -0.35753205040E+02 -0.12058081348E+04  0.17294299318E+04  0.46999998093E+01 0. -1.
       -5    1    3    3    0  502  0.12392151748E+04  0.35753205040E+02  0.58790040649E+03  0.13720719803E+04  0.46999998093E+01 0.  1.
</event>
<event>
 5   0  0.1029922E-05  0.3178409E+04  0.7818609E-02  0.8194543E-01
        2   -1    0    0  501    0  0.00000000000E+00  0.00000000000E+00  0.15505771260E+04  0.15505771260E+04  0.25500000920E-02 0. -1.
       -2   -1    0    0    0  501  0.00000000000E+00  0.00000000000E+00 -0.16287940805E+04  0.16287940805E+04  0.25500000920E-02 0.  1.
    10030    2    1    2    0    0  0.00000000000E+00  0.00000000000E+00 -0.78216954518E+02  0.31793712065E+04  0.31784089379E+04 0.  0.
        1    1    3    3  502    0  0.78378259327E+03 -0.92887121600E+03 -0.10633588827E+04  0.16148835881E+04  0.50400001928E-02 0.  1.
       -1    1    3    3    0  502 -0.78378259327E+03  0.92887121600E+03  0.98514192823E+03  0.15644876184E+04  0.50400001928E-02 0. -1.
</event>
<event>
 5   0  0.1089569E-05  0.3020482E+04  0.7818609E-02  0.8237906E-01
        2   -1    0    0  501    0  0.00000000000E+00  0.00000000000E+00  0.14770080623E+04  0.14770080623E+04  0.25500000920E-02 0. -1.
       -2   -1    0    0    0  501  0.00000000000E+00  0.00000000000E+00 -0.15442218515E+04  0.15442218515E+04  0.25500000920E-02 0.  1.
    10030    2    1    2    0    0  0.00000000000E+00  0.00000000000E+00 -0.67213789169E+02  0.30212299138E+04  0.30204821633E+04 0.  0.
        5    1    3    3  502    0  0.12023054462E+04  0.76407749957E+02  0.87734876981E+03  0.14903487793E+04  0.46999998093E+01 0. -1.
       -5    1    3    3    0  502 -0.12023054462E+04 -0.76407749957E+02 -0.94456255898E+03  0.15308811345E+04  0.46999998093E+01 0.  1.
</event>
<event>
 5   0  0.1029922E-05  0.3044707E+04  0.7818609E-02  0.8231079E-01
        2   -1    0    0  501    0  0.00000000000E+00  0.00000000000E+00  0.18144913642E+04  0.18144913642E+04  0.25500000920E-02 0. -1.
       -2   -1    0    0    0  501  0.00000000000E+00  0.00000000000E+00 -0.12772503144E+04  0.12772503144E+04  0.25500000920E-02 0.  1.
    10030    2    1    2    0    0  0.00000000000E+00  0.00000000000E+00  0.53724104975E+03  0.30917416786E+04  0.30447066626E+04 0.  0.
        1    1    3    3  502    0 -0.10957804808E+03  0.12999263725E+04 -0.52819492563E+03  0.14074110281E+04  0.50400001928E-02 0.  1.
       -1    1    3    3    0  502  0.10957804808E+03 -0.12999263725E+04  0.10654359754E+04  0.16843306505E+04  0.50400001928E-02 0. -1.
</event>
<event>
 5   0  0.3636718E-06  0.3042645E+04  0.7818609E-02  0.8231657E-01
       -1   -1    0    0    0  501  0.00000000000E+00  0.00000000000E+00  0.13877332929E+04  0.13877332929E+04  0.50400001928E-02 0. -1.
        1   -1    0    0  501    0  0.00000000000E+00  0.00000000000E+00 -0.16677713238E+04  0.16677713238E+04  0.50400001928E-02 0.  1.
    10030    2    1    2    0    0  0.00000000000E+00  0.00000000000E+00 -0.28003803082E+03  0.30555046167E+04  0.30426447647E+04 0.  0.
        4    1    3    3  502    0  0.91668429981E+03  0.17445179637E+03  0.10665902583E+04  0.14171661606E+04  0.12699999809E+01 0. -1.
       -4    1    3    3    0  502 -0.91668429981E+03 -0.17445179637E+03 -0.13466282891E+04  0.16383384561E+04  0.12699999809E+01 0.  1.
</event>
<event>
 5   0  0.3592331E-06  0.3001440E+04  0.7818609E-02  0.8243320E-01
       -1   -1    0    0    0  501  0.00000000000E+00  0.00000000000E+00  0.10548574965E+04  0.10548574965E+04  0.50400001928E-02 0. -1.
        1   -1    0    0  501    0  0.00000000000E+00  0.00000000000E+00 -0.21350378191E+04  0.21350378191E+04  0.50400001928E-02 0.  1.
    10030    2    1    2    0    0  0.00000000000E+00  0.00000000000E+00 -0.10801803227E+04  0.31898953156E+04  0.30014400869E+04 0.  0.
        3    1    3    3  502    0  0.86446268066E+03 -0.24280501581E+03  0.73787047962E+03  0.11621974259E+04  0.10100000352E+00 0. -1.
       -3    1    3    3    0  502 -0.86446268066E+03  0.24280501581E+03 -0.18180508023E+04  0.20276978897E+04  0.10100000352E+00 0.  1.
</event>
<event>
 5   0  0.1029922E-05  0.3419524E+04  0.7818609E-02  0.8133131E-01
        2   -1    0    0  501    0  0.00000000000E+00  0.00000000000E+00  0.16032892550E+04  0.16032892550E+04  0.25500000920E-02 0.  1.
       -2   -1    0    0    0  501  0.00000000000E+00  0.00000000000E+00 -0.18233056590E+04  0.18233056590E+04  0.25500000920E-02 0. -1.
    10030    2    1    2    0    0  0.00000000000E+00  0.00000000000E+00 -0.22001640406E+03  0.34265949140E+04  0.34195241609E+04 0.  0.
        1    1    3    3  502    0  0.35777513388E+03 -0.53308379795E+03  0.14779151110E+04  0.16113393365E+04  0.50400001928E-02 0.  1.
       -1    1    3    3    0  502 -0.35777513388E+03  0.53308379795E+03 -0.16979315150E+04  0.18152555775E+04  0.50400001928E-02 0. -1.
</event>
<event>
 5   0  0.3725232E-06  0.3047860E+04  0.7818609E-02  0.8230195E-01
       -1   -1    0    0    0  501  0.00000000000E+00  0.00000000000E+00  0.83425845713E+03  0.83425845714E+03  0.50400001928E-02 0. -1.
        1   -1    0    0  501    0  0.00000000000E+00  0.00000000000E+00 -0.27837454660E+04  0.27837454660E+04  0.50400001928E-02 0.  1.
    10030    2    1    2    0    0  0.00000000000E+00  0.00000000000E+00 -0.19494870089E+04  0.36180039231E+04  0.30478603626E+04 0.  0.
        2    1    3    3  502    0 -0.10614986066E+04  0.18714611905E+03 -0.22535587662E+04  0.24980652663E+04  0.25500000920E-02 0.  1.
       -2    1    3    3    0  502  0.10614986066E+04 -0.18714611905E+03  0.30407175735E+03  0.11199386569E+04  0.25500000920E-02 0. -1.
</event>
<event>
 5   0  0.9647945E-06  0.2856658E+04  0.7818609E-02  0.8285891E-01
        2   -1    0    0  501    0  0.00000000000E+00  0.00000000000E+00  0.16308217162E+04  0.16308217162E+04  0.25500000920E-02 0. -1.
       -2   -1    0    0    0  501  0.00000000000E+00  0.00000000000E+00 -0.12509790591E+04  0.12509790591E+04  0.25500000920E-02 0.  1.
    10030    2    1    2    0    0  0.00000000000E+00  0.00000000000E+00  0.37984265707E+03  0.28818007753E+04  0.28566580587E+04 0.  0.
        2    1    3    3  502    0  0.12849936643E+04 -0.30246963467E+03  0.74009024563E+03  0.15134167202E+04  0.25500000920E-02 0.  1.
       -2    1    3    3    0  502 -0.12849936643E+04  0.30246963467E+03 -0.36024758856E+03  0.13683840551E+04  0.25500000920E-02 0. -1.
</event>
<event>
 5   0  0.3636718E-06  0.2875810E+04  0.7818609E-02  0.8280111E-01
        1   -1    0    0  501    0  0.00000000000E+00  0.00000000000E+00  0.17732739782E+04  0.17732739782E+04  0.50400001928E-02 0.  1.
       -1   -1    0    0    0  501  0.00000000000E+00  0.00000000000E+00 -0.11659623002E+04  0.11659623002E+04  0.50400001928E-02 0. -1.
    10030    2    1    2    0    0  0.00000000000E+00  0.00000000000E+00  0.60731167802E+03  0.29392362784E+04  0.28758098730E+04 0.  0.
        4    1    3    3  502    0  0.47369564796E+03 -0.52219668941E+03  0.15844879276E+04  0.17342665755E+04  0.12699999809E+01 0.  1.
       -4    1    3    3    0  502 -0.47369564796E+03  0.52219668941E+03 -0.97717624954E+03  0.12049697029E+04  0.12699999809E+01 0. -1.
</event>
<event>
 5   0  0.1089569E-05  0.2975461E+04  0.7818609E-02  0.8250773E-01
        2   -1    0    0  501    0  0.00000000000E+00  0.00000000000E+00  0.23631184638E+04  0.23631184638E+04  0.25500000920E-02 0. -1.
       -2   -1    0    0    0  501  0.00000000000E+00  0.00000000000E+00 -0.93661905432E+03  0.93661905432E+03  0.25500000920E-02 0.  1.
    10030    2    1    2    0    0  0.00000000000E+00  0.00000000000E+00  0.14264994095E+04  0.32997375181E+04  0.29754608254E+04 0.  0.
        5    1    3    3  502    0 -0.58756751315E+03 -0.12826356145E+04  0.18963792889E+03  0.14235077576E+04  0.46999998093E+01 0.  1.
       -5    1    3    3    0  502  0.58756751315E+03  0.12826356145E+04  0.12368614806E+04  0.18762297605E+04  0.46999998093E+01 0. -1.
</event>
<event>
 5   0  0.3852126E-06  0.3042100E+04  0.7818609E-02  0.8231810E-01
        1   -1    0    0  501    0  0.00000000000E+00  0.00000000000E+00  0.20996960943E+04  0.20996960943E+04  0.50400001928E-02 0. -1.
       -1   -1    0    0    0  501  0.00000000000E+00  0.00000000000E+00 -0.11018707721E+04  0.11018707721E+04  0.50400001928E-02 0.  1.
    10030    2    1    2    0    0  0.00000000000E+00  0.00000000000E+00  0.99782532227E+03  0.32015668664E+04  0.30421004300E+04 0.  0.
        1    1    3    3  502    0 -0.26529104122E+03 -0.13422917700E+04 -0.20034665674E+03  0.13828468155E+04  0.50400001928E-02 0.  1.
       -1    1    3    3    0  502  0.26529104122E+03  0.13422917700E+04  0.11981719790E+04  0.18187200509E+04  0.50400001928E-02 0. -1.
</event>
<event>
 5   0  0.1029922E-05  0.2422237E+04  0.7818609E-02  0.8431225E-01
       -2   -1    0    0    0  501  0.00000000000E+00  0.00000000000E+00  0.10006332318E+04  0.10006332318E+04  0.25500000920E-02 0.  1.
        2   -1    0    0  501    0  0.00000000000E+00  0.00000000000E+00 -0.14658792554E+04  0.14658792554E+04  0.25500000920E-02 0. -1.
    10030    2    1    2    0    0  0.00000000000E+00  0.00000000000E+00 -0.46524602353E+03  0.24665124872E+04  0.24222365671E+04 0.  0.
        1    1    3    3  502    0 -0.22684289281E+03 -0.40212480552E+03 -0.13727523597E+04  0.14483131907E+04  0.50400001928E-02 0. -1.
       -1    1    3    3    0  502  0.22684289281E+03  0.40212480552E+03  0.90750633615E+03  0.10181992965E+04  0.50400001928E-02 0.  1.
</event>
<event>
 5   0  0.3725232E-06  0.2716185E+04  0.7818609E-02  0.8329773E-01
       -1   -1    0    0    0  501  0.00000000000E+00  0.00000000000E+00  0.95753279426E+03  0.95753279427E+03  0.50400001928E-02 0.  1.
        1   -1    0    0  501    0  0.00000000000E+00  0.00000000000E+00 -0.19262158543E+04  0.19262158543E+04  0.50400001928E-02 0. -1.
    10030    2    1    2    0    0  0.00000000000E+00  0.00000000000E+00 -0.96868306004E+03  0.28837486486E+04  0.27161847134E+04 0.  0.
        2    1    3    3  502    0 -0.58378072700E+03 -0.18233054450E+03  0.80305250186E+03  0.10094244328E+04  0.25500000920E-02 0.  1.
       -2    1    3    3    0  502  0.58378072700E+03  0.18233054450E+03 -0.17717355619E+04  0.18743242158E+04  0.25500000920E-02 0. -1.
</event>
<event>
 5   0  0.3725232E-06  0.2773677E+04  0.7818609E-02  0.8311488E-01
       -1   -1    0    0    0  501  0.00000000000E+00  0.00000000000E+00  0.92871924271E+03  0.92871924273E+03  0.50400001928E-02 0.  1.
        1   -1    0    0  501    0  0.00000000000E+00  0.00000000000E+00 -0.20709389388E+04  0.20709389388E+04  0.50400001928E-02 0. -1.
    10030    2    1    2    0    0  0.00000000000E+00  0.00000000000E+00 -0.11422196961E+04  0.29996581815E+04  0.27736768687E+04 0.  0.
        2    1    3    3  502    0 -0.14136390227E+02  0.12542100768E+04 -0.12109896011E+04  0.17434846051E+04  0.25500000920E-02 0. -1.
       -2    1    3    3    0  502  0.14136390227E+02 -0.12542100768E+04  0.68769905023E+02  0.12561735764E+04  0.25500000920E-02 0.  1.
</event>
<event>
 5   0  0.3896630E-06  0.2992795E+04  0.7818609E-02  0.8245791E-01
       -1   -1    0    0    0  501  0.00000000000E+00  0.00000000000E+00  0.84618152049E+03  0.84618152050E+03  0.50400001928E-02 0. -1.
        1   -1    0    0  501    0  0.00000000000E+00  0.00000000000E+00 -0.26462471621E+04  0.26462471621E+04  0.50400001928E-02 0.  1.
    10030    2    1    2    0    0  0.00000000000E+00  0.00000000000E+00 -0.18000656416E+04  0.34924286826E+04  0.29927949794E+04 0.  0.
        5    1    3    3  502    0  0.35120726944E+03  0.45624096740E+03 -0.25118042601E+04  0.25769526766E+04  0.46999998093E+01 0.  1.
       -5    1    3    3    0  502 -0.35120726944E+03 -0.45624096740E+03  0.71173861850E+03  0.91547600597E+03  0.46999998093E+01 0. -1.
</event>
<event>
 5   0  0.3896630E-06  0.2921586E+04  0.7818609E-02  0.8266484E-01
        1   -1    0    0  501    0  0.00000000000E+00  0.00000000000E+00  0.20370792186E+04  0.20370792186E+04  0.50400001928E-02 0. -1.
       -1   -1    0    0    0  501  0.00000000000E+00  0.00000000000E+00 -0.10475368436E+04  0.10475368436E+04  0.50400001928E-02 0.  1.
    10030    2    1    2    0    0  0.00000000000E+00  0.00000000000E+00  0.98954237507E+03  0.30846160622E+04  0.29215855523E+04 0.  0.
        5    1    3    3  502    0  0.25701519827E+03  0.13745221926E+04  0.94087145567E+03  0.16854166417E+04  0.46999998093E+01 0. -1.
       -5    1    3    3    0  502 -0.25701519827E+03 -0.13745221926E+04  0.48670919400E+02  0.13991994205E+04  0.46999998093E+01 0.  1.
</event>
<event>
 5   0  0.3636718E-06  0.3053856E+04  0.7818609E-02  0.8228517E-01
       -1   -1    0    0    0  501  0.00000000000E+00  0.00000000000E+00  0.14983866086E+04  0.14983866086E+04  0.50400001928E-02 0.  1.
        1   -1    0    0  501    0  0.00000000000E+00  0.00000000000E+00 -0.15560135456E+04  0.15560135456E+04  0.50400001928E-02 0. -1.
    10030    2    1    2    0    0  0.00000000000E+00  0.00000000000E+00 -0.57626936990E+02  0.30544001542E+04  0.30538564862E+04 0.  0.
        4    1    3    3  502    0  0.58994019116E+02  0.14943046446E+03  0.14899095193E+04  0.14985465446E+04  0.12699999809E+01 0.  1.
       -4    1    3    3    0  502 -0.58994019116E+02 -0.14943046446E+03 -0.15475364562E+04  0.15558536095E+04  0.12699999809E+01 0. -1.
</event>
<event>
 5   0  0.1057036E-05  0.3026987E+04  0.7818609E-02  0.8236066E-01
       -2   -1    0    0    0  501  0.00000000000E+00  0.00000000000E+00  0.32797062103E+04  0.32797062103E+04  0.25500000920E-02 0. -1.
        2   -1    0    0  501    0  0.00000000000E+00  0.00000000000E+00 -0.69843522426E+03  0.69843522426E+03  0.25500000920E-02 0.  1.
    10030    2    1    2    0    0  0.00000000000E+00  0.00000000000E+00  0.25812709861E+04  0.39781414346E+04  0.30269868467E+04 0.  0.
        4    1    3    3  502    0 -0.11102100619E+04 -0.79035153483E+03  0.42540149096E+03  0.14276519084E+04  0.12699999809E+01 0.  1.
       -4    1    3    3    0  502  0.11102100619E+04  0.79035153483E+03  0.21558694951E+04  0.25504895262E+04  0.12699999809E+01 0. -1.
</event>
<event>
 5   0  0.1029922E-05  0.1966883E+04  0.7818609E-02  0.8622262E-01
        2   -1    0    0  501    0  0.00000000000E+00  0.00000000000E+00  0.15038606107E+04  0.15038606107E+04  0.25500000920E-02 0.  1.
       -2   -1    0    0    0  501  0.00000000000E+00  0.00000000000E+00 -0.64311607774E+03  0.64311607774E+03  0.25500000920E-02 0. -1.
    10030    2    1    2    0    0  0.00000000000E+00  0.00000000000E+00  0.86074453292E+03  0.21469766884E+04  0.19668827493E+04 0.  0.
        1    1    3    3  502    0  0.89565920948E+03 -0.20527581487E+02 -0.12391003583E+02  0.89598009918E+03  0.50400001928E-02 0. -1.
       -1    1    3    3    0  502 -0.89565920948E+03  0.20527581487E+02  0.87313553650E+03  0.12509965892E+04  0.50400001928E-02 0.  1.
</event>
<event>
 5   0  0.1089569E-05  0.2974636E+04  0.7818609E-02  0.8251011E-01
        2   -1    0    0  501    0  0.00000000000E+00  0.00000000000E+00  0.17389275832E+04  0.17389275832E+04  0.25500000920E-02 0.  1.
       -2   -1    0    0    0  501  0.00000000000E+00  0.00000000000E+00 -0.12721141738E+04  0.12721141738E+04  0.25500000920E-02 0. -1.
    10030    2    1    2    0    0  0.00000000000E+00  0.00000000000E+00  0.46681340944E+03  0.30110417570E+04  0.29746357262E+04 0.  0.
        5    1    3    3  502    0 -0.13538634231E+04 -0.61023256205E+03  0.15016652284E+03  0.14926158323E+04  0.46999998093E+01 0. -1.
       -5    1    3    3    0  502  0.13538634231E+04  0.61023256205E+03  0.31664688659E+03  0.15184259248E+04  0.46999998093E+01 0.  1.
</event>
<event>
 5   0  0.9647945E-06  0.3004978E+04  0.7818609E-02  0.8242311E-01
        2   -1    0    0  501    0  0.00000000000E+00  0.00000000000E+00  0.21759032145E+04  0.21759032145E+04  0.25500000920E-02 0.  1.
       -2   -1    0    0    0  501  0.00000000000E+00  0.00000000000E+00 -0.10374876781E+04  0.10374876781E+04  0.25500000920E-02 0. -1.
    10030    2    1    2    0    0  0.00000000000E+00  0.00000000000E+00  0.11384155364E+04  0.32133908925E+04  0.30049777195E+04 0.  0.
        2    1    3    3  502    0 -0.42894275937E+02 -0.14185201224E+04  0.41598411032E+02  0.14197780405E+04  0.25500000920E-02 0. -1.
       -2    1    3    3    0  502  0.42894275937E+02  0.14185201224E+04  0.10968171254E+04  0.17936128520E+04  0.25500000920E-02 0.  1.
</event>
<event>
 5   0  0.3725232E-06  0.3025063E+04  0.7818609E-02  0.8236610E-01
        1   -1    0    0  501    0  0.00000000000E+00  0.00000000000E+00  0.23004627321E+04  0.23004627321E+04  0.50400001928E-02 0.  1.
       -1   -1    0    0    0  501  0.00000000000E+00  0.00000000000E+00 -0.99447463998E+03  0.99447463999E+03  0.50400001928E-02 0. -1.
    10030    2    1    2    0    0  0.00000000000E+00  0.00000000000E+00  0.13059880921E+04  0.32949373720E+04  0.30250632041E+04 0.  0.
        2    1    3    3  502    0  0.46056230416E+03 -0.92627271440E+03  0.18549110939E+04  0.21238629767E+04  0.25500000920E-02 0.  1.
       -2    1    3    3    0  502 -0.46056230416E+03  0.92627271440E+03 -0.54892300185E+03  0.11710743953E+04  0.25500000920E-02 0. -1.
</event>
<event>
 5   0  0.3852126E-06  0.2918379E+04  0.7818609E-02  0.8267430E-01
        1   -1    0    0  501    0  0.00000000000E+00  0.00000000000E+00  0.91446004915E+03  0.91446004916E+03  0.50400001928E-02 0. -1.
       -1   -1    0    0    0  501  0.00000000000E+00  0.00000000000E+00 -0.23284050632E+04  0.23284050633E+04  0.50400001928E-02 0.  1.
    10030    2    1    2    0    0  0.00000000000E+00  0.00000000000E+00 -0.14139450141E+04  0.32428651124E+04  0.29183785968E+04 0.  0.
        1    1    3    3  502    0 -0.10523666999E+04  0.46411096483E+03 -0.17047906686E+04  0.20564984518E+04  0.50400001928E-02 0.  1.
       -1    1    3    3    0  502  0.10523666999E+04 -0.46411096483E+03  0.29084565446E+03  0.11863666606E+04  0.50400001928E-02 0. -1.
</event>
<event>
 5   0  0.1089569E-05  0.2974985E+04  0.7818609E-02  0.8250910E-01
        2   -1    0    0  501    0  0.00000000000E+00  0.00000000000E+00  0.19451774486E+04  0.19451774486E+04  0.25500000920E-02 0.  1.
       -2   -1    0    0    0  501  0.00000000000E+00  0.00000000000E+00 -0.11374971806E+04  0.11374971806E+04  0.25500000920E-02 0. -1.
    10030    2    1    2    0    0  0.00000000000E+00  0.00000000000E+00  0.80768026799E+03  0.30826746292E+04  0.29749849503E+04 0.  0.
        5    1    3    3  502    0  0.60593988068E+03  0.45584302098E+03  0.17298728085E+04  0.18887662699E+04  0.46999998093E+01 0.  1.
       -5    1    3    3    0  502 -0.60593988068E+03 -0.45584302098E+03 -0.92219254049E+03  0.11939083593E+04  0.46999998093E+01 0. -1.
</event>
<event>
 5   0  0.1029922E-05  0.3012030E+04  0.7818609E-02  0.8240304E-01
        2   -1    0    0  501    0  0.00000000000E+00  0.00000000000E+00  0.23976562466E+04  0.23976562466E+04  0.25500000920E-02 0.  1.
       -2   -1    0    0    0  501  0.00000000000E+00  0.00000000000E+00 -0.94595759155E+03  0.94595759156E+03  0.25500000920E-02 0. -1.
    10030    2    1    2    0    0  0.00000000000E+00  0.00000000000E+00  0.14516986551E+04  0.33436138382E+04  0.30120299656E+04 0.  0.
        1    1    3    3  502    0 -0.80788296453E+03 -0.10273419684E+04  0.15565432594E+04  0.20324697594E+04  0.50400001928E-02 0.  1.
       -1    1    3    3    0  502  0.80788296453E+03  0.10273419684E+04 -0.10484460428E+03  0.13111440788E+04  0.50400001928E-02 0. -1.
</event>
<event>
 5   0  0.3313750E-06  0.3020012E+04  0.7818609E-02  0.8238039E-01
       -3   -1    0    0    0  501  0.00000000000E+00  0.00000000000E+00  0.19019810696E+04  0.19019810723E+04  0.10100000352E+00 0.  1.
        3   -1    0    0  501    0  0.00000000000E+00  0.00000000000E+00 -0.11988121193E+04  0.11988121236E+04  0.10100000352E+00 0. -1.
    10030    2    1    2    0    0  0.00000000000E+00  0.00000000000E+00  0.70316895033E+03  0.31007931959E+04  0.30200118992E+04 0.  0.
        4    1    3    3  502    0 -0.15057205787E+04  0.55006722193E+02  0.45372483357E+03  0.15735590355E+04  0.12699999809E+01 0. -1.
       -4    1    3    3    0  502  0.15057205787E+04 -0.55006722193E+02  0.24944411675E+03  0.15272341605E+04  0.12699999809E+01 0.  1.
</event>
<event>
 5   0  0.3592331E-06  0.2951698E+04  0.7818609E-02  0.8257660E-01
       -1   -1    0    0    0  501  0.00000000000E+00  0.00000000000E+00  0.96153507614E+03  0.96153507616E+03  0.50400001928E-02 0.  1.
        1   -1    0    0  501    0  0.00000000000E+00  0.00000000000E+00 -0.22652630870E+04  0.22652630870E+04  0.50400001928E-02 0. -1.
    10030    2    1    2    0    0  0.00000000000E+00  0.00000000000E+00 -0.13037280109E+04  0.32267981632E+04  0.29516977589E+04 0.  0.
        3    1    3    3  502    0  0.25290043701E+03 -0.14946992940E+03  0.92924972650E+03  0.97457937349E+03  0.10100000352E+00 0.  1.
       -3    1    3    3    0  502 -0.25290043701E+03  0.14946992940E+03 -0.22329777374E+04  0.22522187897E+04  0.10100000352E+00 0. -1.
</event>
<event>
 5   0  0.1089569E-05  0.3147948E+04  0.7818609E-02  0.8202701E-01
        2   -1    0    0  501    0  0.00000000000E+00  0.00000000000E+00  0.24098866200E+04  0.24098866200E+04  0.25500000920E-02 0. -1.
       -2   -1    0    0    0  501  0.00000000000E+00  0.00000000000E+00 -0.10280127245E+04  0.10280127245E+04  0.25500000920E-02 0.  1.
    10030    2    1    2    0    0  0.00000000000E+00  0.00000000000E+00  0.13818738955E+04  0.34378993444E+04  0.31479479728E+04 0.  0.
        5    1    3    3  502    0 -0.20281749734E+03  0.69564463460E+03 -0.83501418590E+03  0.11055890627E+04  0.46999998093E+01 0.  1.
       -5    1    3    3    0  502  0.20281749734E+03 -0.69564463460E+03  0.22168880814E+04  0.23323102817E+04  0.46999998093E+01 0. -1.
</event>
<event>
 5   0  0.3592331E-06  0.3499124E+04  0.7818609E-02  0.8113998E-01
       -1   -1    0    0    0  501  0.00000000000E+00  0.00000000000E+00  0.18436822179E+04  0.18436822179E+04  0.50400001928E-02 0. -1.
        1   -1    0    0  501    0  0.00000000000E+00  0.00000000000E+00 -0.16602469075E+04  0.16602469075E+04  0.50400001928E-02 0.  1.
    10030    2    1    2    0    0  0.00000000000E+00  0.00000000000E+00  0.18343531043E+03  0.35039291254E+04  0.34991242909E+04 0.  0.
        3    1    3    3  502    0 -0.13750293039E+04  0.98639303114E+02 -0.98704170550E+03  0.16954900876E+04  0.10100000352E+00 0.  1.
       -3    1    3    3    0  502  0.13750293039E+04 -0.98639303114E+02  0.11704770159E+04  0.18084390378E+04  0.10100000352E+00 0. -1.
</event>
<event>
 5   0  0.1089569E-05  0.3041979E+04  0.7818609E-02  0.8231844E-01
       -2   -1    0    0    0  501  0.00000000000E+00  0.00000000000E+00  0.98093056577E+03  0.98093056577E+03  0.25500000920E-02 0.  1.
        2   -1    0    0  501    0  0.00000000000E+00  0.00000000000E+00 -0.23583823735E+04  0.23583823735E+04  0.25500000920E-02 0. -1.
    10030    2    1    2    0    0  0.00000000000E+00  0.00000000000E+00 -0.13774518077E+04  0.33393129392E+04  0.30419791951E+04 0.  0.
        5    1    3    3  502    0 -0.76851617917E+03 -0.50985840126E+02  0.75102261430E+03  0.10757665782E+04  0.46999998093E+01 0.  1.
       -5    1    3    3    0  502  0.76851617917E+03  0.50985840126E+02 -0.21284744220E+04  0.22635463611E+04  0.46999998093E+01 0. -1.
</event>
<event>
 5   0  0.3725232E-06  0.3009179E+04  0.7818609E-02  0.8241115E-01
       -1   -1    0    0    0  501  0.00000000000E+00  0.00000000000E+00  0.10031125969E+04  0.10031125969E+04  0.50400001928E-02 0.  1.
        1   -1    0    0  501    0  0.00000000000E+00  0.00000000000E+00 -0.22567655910E+04  0.22567655910E+04  0.50400001928E-02 0. -1.
    10030    2    1    2    0    0  0.00000000000E+00  0.00000000000E+00 -0.12536529941E+04  0.32598781878E+04  0.30091792851E+04 0.  0.
        2    1    3    3  502    0  0.85263908703E+03 -0.12153594564E+02  0.71606408789E+03  0.11135029863E+04  0.25500000920E-02 0.  1.
       -2    1    3    3    0  502 -0.85263908703E+03  0.12153594564E+02 -0.19697170820E+04  0.21463752015E+04  0.25500000920E-02 0. -1.
</event>
<event>
 5   0  0.1029922E-05  0.2516066E+04  0.7818609E-02  0.8397284E-01
       -2   -1    0    0    0  501  0.00000000000E+00  0.00000000000E+00  0.15283065026E+04  0.15283065026E+04  0.25500000920E-02 0.  1.
        2   -1    0    0  501    0  0.00000000000E+00  0.00000000000E+00 -0.10355560275E+04  0.10355560275E+04  0.25500000920E-02 0. -1.
    10030    2    1    2    0    0  0.00000000000E+00  0.00000000000E+00  0.49275047504E+03  0.25638625301E+04  0.25160659854E+04 0.  0.
        1    1    3    3  502    0 -0.19783809034E+03  0.48035480333E+02 -0.10186586683E+04  0.10388035425E+04  0.50400001928E-02 0. -1.
       -1    1    3    3    0  502  0.19783809034E+03 -0.48035480333E+02  0.15114091433E+04  0.15250589877E+04  0.50400001928E-02 0.  1.
</event>
<event>
 5   0  0.3725232E-06  0.2982578E+04  0.7818609E-02  0.8248723E-01
        1   -1    0    0  501    0  0.00000000000E+00  0.00000000000E+00  0.14693685617E+04  0.14693685618E+04  0.50400001928E-02 0.  1.
       -1   -1    0    0    0  501  0.00000000000E+00  0.00000000000E+00 -0.15135363284E+04  0.15135363284E+04  0.50400001928E-02 0. -1.
    10030    2    1    2    0    0  0.00000000000E+00  0.00000000000E+00 -0.44167766638E+02  0.29829048901E+04  0.29825778769E+04 0.  0.
        2    1    3    3  502    0  0.35727801712E+03 -0.31712336846E+03  0.13907733414E+04  0.14705323184E+04  0.25500000920E-02 0.  1.
       -2    1    3    3    0  502 -0.35727801712E+03  0.31712336846E+03 -0.14349411080E+04  0.15123725718E+04  0.25500000920E-02 0. -1.
</event>
<event>
 5   0  0.1057036E-05  0.2840163E+04  0.7818609E-02  0.8290907E-01
       -2   -1    0    0    0  501  0.00000000000E+00  0.00000000000E+00  0.17322499862E+04  0.17322499862E+04  0.25500000920E-02 0.  1.
        2   -1    0    0  501    0  0.00000000000E+00  0.00000000000E+00 -0.11641692095E+04  0.11641692095E+04  0.25500000920E-02 0. -1.
    10030    2    1    2    0    0  0.00000000000E+00  0.00000000000E+00  0.56808077664E+03  0.28964191957E+04  0.28401634440E+04 0.  0.
        4    1    3    3  502    0 -0.26824015898E+03  0.62022759508E+03 -0.98969656038E+03  0.11983888964E+04  0.12699999809E+01 0. -1.
       -4    1    3    3    0  502  0.26824015898E+03 -0.62022759508E+03  0.15577773370E+04  0.16980302993E+04  0.12699999809E+01 0.  1.
</event>
<event>
 5   0  0.3636718E-06  0.2914761E+04  0.7818609E-02  0.8268499E-01
        1   -1    0    0  501    0  0.00000000000E+00  0.00000000000E+00  0.17570426344E+04  0.17570426344E+04  0.50400001928E-02 0.  1.
       -1   -1    0    0    0  501  0.00000000000E+00  0.00000000000E+00 -0.12088255619E+04  0.12088255619E+04  0.50400001928E-02 0. -1.
    10030    2    1    2    0    0  0.00000000000E+00  0.00000000000E+00  0.54821707256E+03  0.29658681963E+04  0.29147610879E+04 0.  0.
        4    1    3    3  502    0  0.55082458975E+03  0.11149279820E+04 -0.49913976742E+03  0.13400053187E+04  0.12699999809E+01 0. -1.
       -4    1    3    3    0  502 -0.55082458975E+03 -0.11149279820E+04  0.10473568400E+04  0.16258628777E+04  0.12699999809E+01 0.  1.
</event>
<event>
 5   0  0.3725232E-06  0.2999243E+04  0.7818609E-02  0.8243947E-01
       -1   -1    0    0    0  501  0.00000000000E+00  0.00000000000E+00  0.18021154753E+04  0.18021154753E+04  0.50400001928E-02 0. -1.
        1   -1    0    0  501    0  0.00000000000E+00  0.00000000000E+00 -0.12479028127E+04  0.12479028127E+04  0.50400001928E-02 0.  1.
    10030    2    1    2    0    0  0.00000000000E+00  0.00000000000E+00  0.55421266260E+03  0.30500182881E+04  0.29992432182E+04 0.  0.
        2    1    3    3  502    0 -0.44937046078E+03 -0.15688113001E+03  0.17232639820E+04  0.17877875297E+04  0.25500000920E-02 0. -1.
       -2    1    3    3    0  502  0.44937046078E+03  0.15688113001E+03 -0.11690513194E+04  0.12622307583E+04  0.25500000920E-02 0.  1.
</event>
<event>
 5   0  0.3896630E-06  0.3031652E+04  0.7818609E-02  0.8234750E-01
       -1   -1    0    0    0  501  0.00000000000E+00  0.00000000000E+00  0.18666100236E+04  0.18666100236E+04  0.50400001928E-02 0. -1.
        1   -1    0    0  501    0  0.00000000000E+00  0.00000000000E+00 -0.12309635006E+04  0.12309635006E+04  0.50400001928E-02 0.  1.
    10030    2    1    2    0    0  0.00000000000E+00  0.00000000000E+00  0.63564652301E+03  0.30975735243E+04  0.30316522287E+04 0.  0.
        5    1    3    3  502    0 -0.18006747471E+03 -0.14682604535E+04  0.65591669683E+03  0.16181662022E+04  0.46999998093E+01 0. -1.
       -5    1    3    3    0  502  0.18006747471E+03  0.14682604535E+04 -0.20270173818E+02  0.14794073221E+04  0.46999998093E+01 0.  1.
</event>
<event>
 5   0  0.3725232E-06  0.2970067E+04  0.7818609E-02  0.8252330E-01
       -1   -1    0    0    0  501  0.00000000000E+00  0.00000000000E+00  0.25409686518E+04  0.25409686518E+04  0.50400001928E-02 0. -1.
        1   -1    0    0  501    0  0.00000000000E+00  0.00000000000E+00 -0.86790697815E+03  0.86790697817E+03  0.50400001928E-02 0.  1.
    10030    2    1    2    0    0  0.00000000000E+00  0.00000000000E+00  0.16730616736E+04  0.34088756300E+04  0.29700669516E+04 0.  0.
        2    1    3    3  502    0  0.14697291842E+04 -0.55733735232E+02  0.10720681468E+04  0.18200385258E+04  0.25500000920E-02 0.  1.
       -2    1    3    3    0  502 -0.14697291842E+04  0.55733735232E+02  0.60099352680E+03  0.15888371041E+04  0.25500000920E-02 0. -1.
</event>
<event>
 5   0  0.3592331E-06  0.2980275E+04  0.7818609E-02  0.8249386E-01
        1   -1    0    0  501    0  0.00000000000E+00  0.00000000000E+00  0.13675642688E+04  0.13675642689E+04  0.50400001928E-02 0.  1.
       -1   -1    0    0    0  501  0.00000000000E+00  0.00000000000E+00 -0.16236965907E+04  0.16236965907E+04  0.50400001928E-02 0. -1.
    10030    2    1    2    0    0  0.00000000000E+00  0.00000000000E+00 -0.25613232186E+03  0.29912608596E+04  0.29802747799E+04 0.  0.
        3    1    3    3  502    0  0.24133259835E+03 -0.43547545548E+03 -0.15377466936E+04  0.16163369696E+04  0.10100000352E+00 0. -1.
       -3    1    3    3    0  502 -0.24133259835E+03  0.43547545548E+03  0.12816143717E+04  0.13749238900E+04  0.10100000352E+00 0.  1.
</event>
<event>
 5   0  0.3896630E-06  0.2211000E+04  0.7818609E-02  0.8513863E-01
       -1   -1    0    0    0  501  0.00000000000E+00  0.00000000000E+00  0.79100415853E+03  0.79100415854E+03  0.50400001928E-02 0.  1.
        1   -1    0    0  501    0  0.00000000000E+00  0.00000000000E+00 -0.15450368150E+04  0.15450368150E+04  0.50400001928E-02 0. -1.
    10030    2    1    2    0    0  0.00000000000E+00  0.00000000000E+00 -0.75403265645E+03  0.23360409735E+04  0.22110002675E+04 0.  0.
        5    1    3    3  502    0  0.49399745937E+03 -0.15549829894E+03  0.65489410328E+03  0.83493807395E+03  0.46999998093E+01 0.  1.
       -5    1    3    3    0  502 -0.49399745937E+03  0.15549829894E+03 -0.14089267597E+04  0.15011028996E+04  0.46999998093E+01 0. -1.
</event>
<event>
 5   0  0.3896630E-06  0.3005151E+04  0.7818609E-02  0.8242261E-01
       -1   -1    0    0    0  501  0.00000000000E+00  0.00000000000E+00  0.71509864177E+03  0.71509864179E+03  0.50400001928E-02 0. -1.
        1   -1    0    0  501    0  0.00000000000E+00  0.00000000000E+00 -0.31572337598E+04  0.31572337598E+04  0.50400001928E-02 0.  1.
    10030    2    1    2    0    0  0.00000000000E+00  0.00000000000E+00 -0.24421351180E+04  0.38723324016E+04  0.30051512930E+04 0.  0.
        5    1    3    3  502    0  0.11070833047E+04 -0.16977747767E+03 -0.25117270003E+04  0.27501368056E+04  0.46999998093E+01 0.  1.
       -5    1    3    3    0  502 -0.11070833047E+04  0.16977747767E+03  0.69591882285E+02  0.11221955960E+04  0.46999998093E+01 0. -1.
</event>
<event>
 5   0  0.3896630E-06  0.2989410E+04  0.7818609E-02  0.8246761E-01
        1   -1    0    0  501    0  0.00000000000E+00  0.00000000000E+00  0.21921130925E+04  0.21921130925E+04  0.50400001928E-02 0.  1.
       -1   -1    0    0    0  501  0.00000000000E+00  0.00000000000E+00 -0.10191735574E+04  0.10191735574E+04  0.50400001928E-02 0. -1.
    10030    2    1    2    0    0  0.00000000000E+00  0.00000000000E+00  0.11729395351E+04  0.32112866500E+04  0.29894104428E+04 0.  0.
        5    1    3    3  502    0  0.14059611157E+04  0.38542013819E+03  0.23206439553E+03  0.14761948772E+04  0.46999998093E+01 0. -1.
       -5    1    3    3    0  502 -0.14059611157E+04 -0.38542013819E+03  0.94087513953E+03  0.17350917728E+04  0.46999998093E+01 0.  1.
</event>
<event>
 5   0  0.1057036E-05  0.3230894E+04  0.7818609E-02  0.8180706E-01
       -2   -1    0    0    0  501  0.00000000000E+00  0.00000000000E+00  0.12493926465E+04  0.12493926465E+04  0.25500000920E-02 0. -1.
        2   -1    0    0  501    0  0.00000000000E+00  0.00000000000E+00 -0.20887497097E+04  0.20887497097E+04  0.25500000920E-02 0.  1.
    10030    2    1    2    0    0  0.00000000000E+00  0.00000000000E+00 -0.83935706316E+03  0.33381423562E+04  0.32308937015E+04 0.  0.
        4    1    3    3  502    0 -0.50333996997E+03  0.89207818715E+03 -0.17103502132E+04  0.19936032910E+04  0.12699999809E+01 0.  1.
       -4    1    3    3    0  502  0.50333996997E+03 -0.89207818715E+03  0.87099315003E+03  0.13445390651E+04  0.12699999809E+01 0. -1.
</event>
<event>
 5   0  0.3636718E-06  0.1931836E+04  0.7818609E-02  0.8639170E-01
       -1   -1    0    0    0  501  0.00000000000E+00  0.00000000000E+00  0.83445743721E+03  0.83445743722E+03  0.50400001928E-02 0. -1.
        1   -1    0    0  501    0  0.00000000000E+00  0.00000000000E+00 -0.11180885622E+04  0.11180885622E+04  0.50400001928E-02 0.  1.
    10030    2    1    2    0    0  0.00000000000E+00  0.00000000000E+00 -0.28363112501E+03  0.19525459994E+04  0.19318357241E+04 0.  0.
        4    1    3    3  502    0  0.49231374052E+03 -0.70596866801E+03 -0.58495758331E+03  0.10406447840E+04  0.12699999809E+01 0.  1.
       -4    1    3    3    0  502 -0.49231374052E+03  0.70596866801E+03  0.30132645830E+03  0.91190121543E+03  0.12699999809E+01 0. -1.
</event>
<event>
 5   0  0.1028450E-05  0.3069123E+04  0.7818609E-02  0.8224263E-01
       -2   -1    0    0    0  501  0.00000000000E+00  0.00000000000E+00  0.11030615698E+04  0.11030615698E+04  0.25500000920E-02 0.  1.
        2   -1    0    0  501    0  0.00000000000E+00  0.00000000000E+00 -0.21348568799E+04  0.21348568799E+04  0.25500000920E-02 0. -1.
    10030    2    1    2    0    0  0.00000000000E+00  0.00000000000E+00 -0.10317953101E+04  0.32379184498E+04  0.30691227290E+04 0.  0.
        3    1    3    3  502    0  0.12760050475E+04 -0.80585005820E+03 -0.80920868914E+03  0.17124257387E+04  0.10100000352E+00 0. -1.
       -3    1    3    3    0  502 -0.12760050475E+04  0.80585005820E+03 -0.22258662098E+03  0.15254927111E+04  0.10100000352E+00 0.  1.
</event>
<event>
 5   0  0.1029922E-05  0.2241557E+04  0.7818609E-02  0.8501328E-01
        2   -1    0    0  501    0  0.00000000000E+00  0.00000000000E+00  0.76795776962E+03  0.76795776962E+03  0.25500000920E-02 0.  1.
       -2   -1    0    0    0  501  0.00000000000E+00  0.00000000000E+00 -0.16356949286E+04  0.16356949286E+04  0.25500000920E-02 0. -1.
    10030    2    1    2    0    0  0.00000000000E+00  0.00000000000E+00 -0.86773715901E+03  0.24036526983E+04  0.22415571634E+04 0.  0.
        1    1    3    3  502    0  0.44684858283E+03  0.85071947371E+03  0.18468767317E+03  0.97852277213E+03  0.50400001928E-02 0.  1.
       -1    1    3    3    0  502 -0.44684858283E+03 -0.85071947371E+03 -0.10524248322E+04  0.14251299261E+04  0.50400001928E-02 0. -1.
</event>
<event>
 5   0  0.3636718E-06  0.2901746E+04  0.7818609E-02  0.8272358E-01
        1   -1    0    0  501    0  0.00000000000E+00  0.00000000000E+00  0.16279113195E+04  0.16279113195E+04  0.50400001928E-02 0.  1.
       -1   -1    0    0    0  501  0.00000000000E+00  0.00000000000E+00 -0.12930876147E+04  0.12930876147E+04  0.50400001928E-02 0. -1.
    10030    2    1    2    0    0  0.00000000000E+00  0.00000000000E+00  0.33482370483E+03  0.29209989342E+04  0.29017456574E+04 0.  0.
        4    1    3    3  502    0  0.68818611113E+03  0.12319437616E+04  0.50691032509E+03  0.14994149679E+04  0.12699999809E+01 0. -1.
       -4    1    3    3    0  502 -0.68818611113E+03 -0.12319437616E+04 -0.17208662026E+03  0.14215839663E+04  0.12699999809E+01 0.  1.
</event>
<event>
 5   0  0.1029922E-05  0.2347229E+04  0.7818609E-02  0.8459529E-01
       -2   -1    0    0    0  501  0.00000000000E+00  0.00000000000E+00  0.53411769155E+03  0.53411769155E+03  0.25500000920E-02 0. -1.
        2   -1    0    0  501    0  0.00000000000E+00  0.00000000000E+00 -0.25787774181E+04  0.25787774181E+04  0.25500000920E-02 0.  1.
    10030    2    1    2    0    0  0.00000000000E+00  0.00000000000E+00 -0.20446597265E+04  0.31128951096E+04  0.23472286992E+04 0.  0.
        1    1    3    3  502    0  0.23631803754E+03 -0.19273133432E+03  0.48065874429E+03  0.56923142094E+03  0.50400001928E-02 0. -1.
       -1    1    3    3    0  502 -0.23631803754E+03  0.19273133432E+03 -0.25253184708E+04  0.25436636887E+04  0.50400001928E-02 0.  1.
</event>
<event>
 5   0  0.1028450E-05  0.3064018E+04  0.7818609E-02  0.8225683E-01
       -2   -1    0    0    0  501  0.00000000000E+00  0.00000000000E+00  0.83758906125E+03  0.83758906126E+03  0.25500000920E-02 0.  1.
        2   -1    0    0  501    0  0.00000000000E+00  0.00000000000E+00 -0.28021520011E+04  0.28021520011E+04  0.25500000920E-02 0. -1.
    10030    2    1    2    0    0  0.00000000000E+00  0.00000000000E+00 -0.19645629398E+04  0.36397410624E+04  0.30640181880E+04 0.  0.
        3    1    3    3  502    0  0.11247199471E+04 -0.36934250049E+03 -0.21374431085E+04  0.24433730567E+04  0.10100000352E+00 0. -1.
       -3    1    3    3    0  502 -0.11247199471E+04  0.36934250049E+03  0.17288016861E+03  0.11963680057E+04  0.10100000352E+00 0.  1.
</event>
<event>
 5   0  0.3725232E-06  0.3038569E+04  0.7818609E-02  0.8232802E-01
        1   -1    0    0  501    0  0.00000000000E+00  0.00000000000E+00  0.26862440023E+04  0.26862440023E+04  0.50400001928E-02 0.  1.
       -1   -1    0    0    0  501  0.00000000000E+00  0.00000000000E+00 -0.85927602783E+03  0.85927602784E+03  0.50400001928E-02 0. -1.
    10030    2    1    2    0    0  0.00000000000E+00  0.00000000000E+00  0.18269679745E+04  0.35455200302E+04  0.30385687921E+04 0.  0.
        2    1    3    3  502    0 -0.90640313630E+03  0.66246373259E+03  0.21078848698E+04  0.23882218211E+04  0.25500000920E-02 0.  1.
       -2    1    3    3    0  502  0.90640313630E+03 -0.66246373259E+03 -0.28091689534E+03  0.11572982090E+04  0.25500000920E-02 0. -1.
</event>
<event>
 5   0  0.1028450E-05  0.2996015E+04  0.7818609E-02  0.8244870E-01
        2   -1    0    0  501    0  0.00000000000E+00  0.00000000000E+00  0.15962584075E+04  0.15962584075E+04  0.25500000920E-02 0. -1.
       -2   -1    0    0    0  501  0.00000000000E+00  0.00000000000E+00 -0.14058037898E+04  0.14058037898E+04  0.25500000920E-02 0.  1.
    10030    2    1    2    0    0  0.00000000000E+00  0.00000000000E+00  0.19045461772E+03  0.30020621973E+04  0.29960147655E+04 0.  0.
        3    1    3    3  502    0  0.99009511734E+01  0.58141331107E+03  0.14785524479E+04  0.15887909927E+04  0.10100000352E+00 0. -1.
       -3    1    3    3    0  502 -0.99009511734E+01 -0.58141331107E+03 -0.12880978302E+04  0.14132712045E+04  0.10100000352E+00 0.  1.
</event>
<event>
 5   0  0.3852126E-06  0.1893560E+04  0.7818609E-02  0.8658068E-01
       -1   -1    0    0    0  501  0.00000000000E+00  0.00000000000E+00  0.12330998322E+04  0.12330998322E+04  0.50400001928E-02 0. -1.
        1   -1    0    0  501    0  0.00000000000E+00  0.00000000000E+00 -0.72694261221E+03  0.72694261222E+03  0.50400001928E-02 0.  1.
    10030    2    1    2    0    0  0.00000000000E+00  0.00000000000E+00  0.50615721998E+03  0.19600424444E+04  0.18935604697E+04 0.  0.
        1    1    3    3  502    0 -0.39817026983E+03 -0.80846953629E+03  0.55349274527E+03  0.10575995338E+04  0.50400001928E-02 0. -1.
       -1    1    3    3    0  502  0.39817026983E+03  0.80846953629E+03 -0.47335525293E+02  0.90244291058E+03  0.50400001928E-02 0.  1.
</event>
<event>
 5   0  0.3725232E-06  0.2966235E+04  0.7818609E-02  0.8253439E-01
       -1   -1    0    0    0  501  0.00000000000E+00  0.00000000000E+00  0.11164105878E+04  0.11164105878E+04  0.50400001928E-02 0. -1.
        1   -1    0    0  501    0  0.00000000000E+00  0.00000000000E+00 -0.19702771367E+04  0.19702771367E+04  0.50400001928E-02 0.  1.
    10030    2    1    2    0    0  0.00000000000E+00  0.00000000000E+00 -0.85386654891E+03  0.30866877245E+04  0.29662354973E+04 0.  0.
        2    1    3    3  502    0 -0.38970896680E+03  0.41152859225E+03  0.99927250772E+03  0.11488143478E+04  0.25500000920E-02 0. -1.
       -2    1    3    3    0  502  0.38970896680E+03 -0.41152859225E+03 -0.18531390566E+04  0.19378733767E+04  0.25500000920E-02 0.  1.
</event>
<event>
 5   0  0.3852126E-06  0.2993161E+04  0.7818609E-02  0.8245687E-01
        1   -1    0    0  501    0  0.00000000000E+00  0.00000000000E+00  0.17857155352E+04  0.17857155352E+04  0.50400001928E-02 0.  1.
       -1   -1    0    0    0  501  0.00000000000E+00  0.00000000000E+00 -0.12542606539E+04  0.12542606539E+04  0.50400001928E-02 0. -1.
    10030    2    1    2    0    0  0.00000000000E+00  0.00000000000E+00  0.53145488128E+03  0.30399761892E+04  0.29931606940E+04 0.  0.
        1    1    3    3  502    0 -0.89210922409E+03 -0.48011547154E+03 -0.85303815318E+03  0.13244031956E+04  0.50400001928E-02 0. -1.
       -1    1    3    3    0  502  0.89210922409E+03  0.48011547154E+03  0.13844930345E+04  0.17155729936E+04  0.50400001928E-02 0.  1.
</event>
<event>
 5   0  0.1029922E-05  0.3067874E+04  0.7818609E-02  0.8224610E-01
        2   -1    0    0  501    0  0.00000000000E+00  0.00000000000E+00  0.92890630249E+03  0.92890630249E+03  0.25500000920E-02 0. -1.
       -2   -1    0    0    0  501  0.00000000000E+00  0.00000000000E+00 -0.25330465491E+04  0.25330465491E+04  0.25500000920E-02 0.  1.
    10030    2    1    2    0    0  0.00000000000E+00  0.00000000000E+00 -0.16041402466E+04  0.34619528516E+04  0.30678741200E+04 0.  0.
        1    1    3    3  502    0  0.32950345692E+01  0.15332523097E+04 -0.85365169543E+03  0.17548774087E+04  0.50400001928E-02 0. -1.
       -1    1    3    3    0  502 -0.32950345692E+01 -0.15332523097E+04 -0.75048855119E+03  0.17070754429E+04  0.50400001928E-02 0.  1.
</event>
<event>
 5   0  0.3852126E-06  0.2970257E+04  0.7818609E-02  0.8252275E-01
       -1   -1    0    0    0  501  0.00000000000E+00  0.00000000000E+00  0.90707206106E+03  0.90707206107E+03  0.50400001928E-02 0.  1.
        1   -1    0    0  501    0  0.00000000000E+00  0.00000000000E+00 -0.24315678912E+04  0.24315678912E+04  0.50400001928E-02 0. -1.
    10030    2    1    2    0    0  0.00000000000E+00  0.00000000000E+00 -0.15244958302E+04  0.33386399523E+04  0.29702574291E+04 0.  0.
        1    1    3    3  502    0 -0.91229310707E+03  0.16759392547E+03 -0.20659414763E+04  0.22646148945E+04  0.50400001928E-02 0. -1.
       -1    1    3    3    0  502  0.91229310707E+03 -0.16759392547E+03  0.54144564609E+03  0.10740250578E+04  0.50400001928E-02 0.  1.
</event>
<event>
 5   0  0.3636718E-06  0.2586033E+04  0.7818609E-02  0.8372961E-01
       -1   -1    0    0    0  501  0.00000000000E+00  0.00000000000E+00  0.12216147146E+04  0.12216147146E+04  0.50400001928E-02 0. -1.
        1   -1    0    0  501    0  0.00000000000E+00  0.00000000000E+00 -0.13685912470E+04  0.13685912470E+04  0.50400001928E-02 0.  1.
    10030    2    1    2    0    0  0.00000000000E+00  0.00000000000E+00 -0.14697653234E+03  0.25902059616E+04  0.25860326414E+04 0.  0.
        4    1    3    3  502    0 -0.73720662168E+03  0.12215706948E+03  0.98343672426E+03  0.12351296921E+04  0.12699999809E+01 0. -1.
       -4    1    3    3    0  502  0.73720662168E+03 -0.12215706948E+03 -0.11304132566E+04  0.13550762695E+04  0.12699999809E+01 0.  1.
</event>
<event>
 5   0  0.9647945E-06  0.3000351E+04  0.7818609E-02  0.8243631E-01
        2   -1    0    0  501    0  0.00000000000E+00  0.00000000000E+00  0.16271643193E+04  0.16271643193E+04  0.25500000920E-02 0.  1.
       -2   -1    0    0    0  501  0.00000000000E+00  0.00000000000E+00 -0.13830969793E+04  0.13830969793E+04  0.25500000920E-02 0. -1.
    10030    2    1    2    0    0  0.00000000000E+00  0.00000000000E+00  0.24406734001E+03  0.30102612986E+04  0.30003506827E+04 0.  0.
        2    1    3    3  502    0  0.35466787642E+03  0.22604189697E+03 -0.13227374359E+04  0.13879908379E+04  0.25500000920E-02 0. -1.
       -2    1    3    3    0  502 -0.35466787642E+03 -0.22604189697E+03  0.15668047759E+04  0.16222704607E+04  0.25500000920E-02 0.  1.
</event>
<event>
 5   0  0.9647945E-06  0.2970904E+04  0.7818609E-02  0.8252089E-01
        2   -1    0    0  501    0  0.00000000000E+00  0.00000000000E+00  0.22188377234E+04  0.22188377234E+04  0.25500000920E-02 0.  1.
       -2   -1    0    0    0  501  0.00000000000E+00  0.00000000000E+00 -0.99446972243E+03  0.99446972244E+03  0.25500000920E-02 0. -1.
    10030    2    1    2    0    0  0.00000000000E+00  0.00000000000E+00  0.12243680010E+04  0.32133074458E+04  0.29709035224E+04 0.  0.
        2    1    3    3  502    0 -0.26445674890E+03 -0.79557674851E+03  0.19384861794E+04  0.21120152468E+04  0.25500000920E-02 0.  1.
       -2    1    3    3    0  502  0.26445674890E+03  0.79557674851E+03 -0.71411817848E+03  0.11012921990E+04  0.25500000920E-02 0. -1.
</event>
<event>
 5   0  0.3725232E-06  0.2909224E+04  0.7818609E-02  0.8270138E-01
        1   -1    0    0  501    0  0.00000000000E+00  0.00000000000E+00  0.16087032748E+04  0.16087032748E+04  0.50400001928E-02 0.  1.
       -1   -1    0    0    0  501  0.00000000000E+00  0.00000000000E+00 -0.13152802438E+04  0.13152802438E+04  0.50400001928E-02 0. -1.
    10030    2    1    2    0    0  0.00000000000E+00  0.00000000000E+00  0.29342303106E+03  0.29239835186E+04  0.29092237009E+04 0.  0.
        2    1    3    3  502    0  0.13736128823E+04  0.31578761212E+03 -0.21478180149E+03  0.14257157461E+04  0.25500000920E-02 0. -1.
       -2    1    3    3    0  502 -0.13736128823E+04 -0.31578761212E+03  0.50820483255E+03  0.14982677725E+04  0.25500000920E-02 0.  1.
</event>
<event>
 5   0  0.1029922E-05  0.2982734E+04  0.7818609E-02  0.8248678E-01
        2   -1    0    0  501    0  0.00000000000E+00  0.00000000000E+00  0.15751343683E+04  0.15751343683E+04  0.25500000920E-02 0. -1.
       -2   -1    0    0    0  501  0.00000000000E+00  0.00000000000E+00 -0.14120546153E+04  0.14120546153E+04  0.25500000920E-02 0.  1.
    10030    2    1    2    0    0  0.00000000000E+00  0.00000000000E+00  0.16307975299E+03  0.29871889837E+04  0.29827341515E+04 0.  0.
        1    1    3    3  502    0  0.93019868871E+03  0.11371958521E+04  0.33822669171E+03  0.15076078076E+04  0.50400001928E-02 0.  1.
       -1    1    3    3    0  502 -0.93019868871E+03 -0.11371958521E+04 -0.17514693872E+03  0.14795811761E+04  0.50400001928E-02 0. -1.
</event>
<event>
 5   0  0.3592331E-06  0.2920948E+04  0.7818609E-02  0.8266672E-01
       -1   -1    0    0    0  501  0.00000000000E+00  0.00000000000E+00  0.11362552434E+04  0.11362552434E+04  0.50400001928E-02 0. -1.
        1   -1    0    0  501    0  0.00000000000E+00  0.00000000000E+00 -0.18772050413E+04  0.18772050413E+04  0.50400001928E-02 0.  1.
    10030    2    1    2    0    0  0.00000000000E+00  0.00000000000E+00 -0.74094979794E+03  0.30134602847E+04  0.29209478401E+04 0.  0.
        3    1    3    3  502    0  0.14795113665E+02  0.26552570411E+02  0.11359288730E+04  0.11363354914E+04  0.10100000352E+00 0. -1.
       -3    1    3    3    0  502 -0.14795113665E+02 -0.26552570411E+02 -0.18768786709E+04  0.18771247934E+04  0.10100000352E+00 0.  1.
</event>
<event>
 5   0  0.1057036E-05  0.2793760E+04  0.7818609E-02  0.8305208E-01
       -2   -1    0    0    0  501  0.00000000000E+00  0.00000000000E+00  0.10735924159E+04  0.10735924159E+04  0.25500000920E-02 0.  1.
        2   -1    0    0  501    0  0.00000000000E+00  0.00000000000E+00 -0.18175178625E+04  0.18175178625E+04  0.25500000920E-02 0. -1.
    10030    2    1    2    0    0  0.00000000000E+00  0.00000000000E+00 -0.74392544665E+03  0.28911102784E+04  0.27937597555E+04 0.  0.
        4    1    3    3  502    0  0.83009863514E+03  0.68571578829E+02  0.78849848962E+03  0.11469513009E+04  0.12699999809E+01 0. -1.
       -4    1    3    3    0  502 -0.83009863514E+03 -0.68571578829E+02 -0.15324239363E+04  0.17441589775E+04  0.12699999809E+01 0.  1.
</event>
<event>
 5   0  0.3313750E-06  0.2695916E+04  0.7818609E-02  0.8336331E-01
       -4   -1    0    0    0  501  0.00000000000E+00  0.00000000000E+00  0.30492707355E+04  0.30492710000E+04  0.12699999809E+01 0.  1.
        4   -1    0    0  501    0  0.00000000000E+00  0.00000000000E+00 -0.59587621999E+03  0.59587757338E+03  0.12699999809E+01 0. -1.
    10030    2    1    2    0    0  0.00000000000E+00  0.00000000000E+00  0.24533945155E+04  0.36451485733E+04  0.26959160731E+04 0.  0.
        5    1    3    3  502    0  0.29075102653E+03  0.12153064267E+04  0.19100938240E+04  0.22825394579E+04  0.46999998093E+01 0.  1.
       -5    1    3    3    0  502 -0.29075102653E+03 -0.12153064267E+04  0.54330069146E+03  0.13626091155E+04  0.46999998093E+01 0. -1.
</event>
<event>
 5   0  0.1028450E-05  0.3021418E+04  0.7818609E-02  0.8237641E-01
       -2   -1    0    0    0  501  0.00000000000E+00  0.00000000000E+00  0.86888342542E+03  0.86888342542E+03  0.25500000920E-02 0.  1.
        2   -1    0    0  501    0  0.00000000000E+00  0.00000000000E+00 -0.26266369850E+04  0.26266369850E+04  0.25500000920E-02 0. -1.
    10030    2    1    2    0    0  0.00000000000E+00  0.00000000000E+00 -0.17577535595E+04  0.34955204104E+04  0.30214177737E+04 0.  0.
        3    1    3    3  502    0  0.17077186844E+03 -0.12657378564E+04  0.54564235735E+02  0.12783710800E+04  0.10100000352E+00 0.  1.
       -3    1    3    3    0  502 -0.17077186844E+03  0.12657378564E+04 -0.18123177953E+04  0.22171493304E+04  0.10100000352E+00 0. -1.
</event>
<event>
 5   0  0.3852126E-06  0.2907730E+04  0.7818609E-02  0.8270581E-01
       -1   -1    0    0    0  501  0.00000000000E+00  0.00000000000E+00  0.80603959195E+03  0.80603959196E+03  0.50400001928E-02 0.  1.
        1   -1    0    0  501    0  0.00000000000E+00  0.00000000000E+00 -0.26223567101E+04  0.26223567101E+04  0.50400001928E-02 0. -1.
    10030    2    1    2    0    0  0.00000000000E+00  0.00000000000E+00 -0.18163171182E+04  0.34283963021E+04  0.29077299274E+04 0.  0.
        1    1    3    3  502    0 -0.13370367597E+04 -0.23106509155E+03 -0.29248342132E+03  0.13880219469E+04  0.50400001928E-02 0.  1.
       -1    1    3    3    0  502  0.13370367597E+04  0.23106509155E+03 -0.15238336969E+04  0.20403743552E+04  0.50400001928E-02 0. -1.
</event>
<event>
 5   0  0.3725232E-06  0.2958259E+04  0.7818609E-02  0.8255752E-01
        1   -1    0    0  501    0  0.00000000000E+00  0.00000000000E+00  0.20419984305E+04  0.20419984305E+04  0.50400001928E-02 0.  1.
       -1   -1    0    0    0  501  0.00000000000E+00  0.00000000000E+00 -0.10714132761E+04  0.10714132761E+04  0.50400001928E-02 0. -1.
    10030    2    1    2    0    0  0.00000000000E+00  0.00000000000E+00  0.97058515437E+03  0.31134117067E+04  0.29582591018E+04 0.  0.
        2    1    3    3  502    0 -0.22671056855E+02  0.13469062203E+04  0.11281939135E+04  0.17571260199E+04  0.25500000920E-02 0.  1.
       -2    1    3    3    0  502  0.22671056855E+02 -0.13469062203E+04 -0.15760875914E+03  0.13562856868E+04  0.25500000920E-02 0. -1.
</event>
<event>
 5   0  0.3725232E-06  0.3044879E+04  0.7818609E-02  0.8231030E-01
        1   -1    0    0  501    0  0.00000000000E+00  0.00000000000E+00  0.12850749820E+04  0.12850749820E+04  0.50400001928E-02 0. -1.
       -1   -1    0    0    0  501  0.00000000000E+00  0.00000000000E+00 -0.18036472714E+04  0.18036472714E+04  0.50400001928E-02 0.  1.
    10030    2    1    2    0    0  0.00000000000E+00  0.00000000000E+00 -0.51857228938E+03  0.30887222534E+04  0.30448789696E+04 0.  0.
        2    1    3    3  502    0 -0.91516166910E+02 -0.63207251848E+03  0.11426159142E+04  0.13089927444E+04  0.25500000920E-02 0. -1.
       -2    1    3    3    0  502  0.91516166910E+02  0.63207251848E+03 -0.16611882036E+04  0.17797295090E+04  0.25500000920E-02 0.  1.
</event>
<event>
 5   0  0.9647945E-06  0.2108820E+04  0.7818609E-02  0.8557368E-01
       -2   -1    0    0    0  501  0.00000000000E+00  0.00000000000E+00  0.86395689063E+03  0.86395689064E+03  0.25500000920E-02 0. -1.
        2   -1    0    0  501    0  0.00000000000E+00  0.00000000000E+00 -0.12868469436E+04  0.12868469436E+04  0.25500000920E-02 0.  1.
    10030    2    1    2    0    0  0.00000000000E+00  0.00000000000E+00 -0.42289005299E+03  0.21508038343E+04  0.21088198445E+04 0.  0.
        2    1    3    3  502    0 -0.10408298214E+04  0.15547525443E+03 -0.14471296305E+03  0.10622810897E+04  0.25500000920E-02 0.  1.
       -2    1    3    3    0  502  0.10408298214E+04 -0.15547525443E+03 -0.27817708995E+03  0.10885227445E+04  0.25500000920E-02 0. -1.
</event>
<event>
 5   0  0.1057036E-05  0.3173125E+04  0.7818609E-02  0.8195951E-01
        2   -1    0    0  501    0  0.00000000000E+00  0.00000000000E+00  0.17936218996E+04  0.17936218996E+04  0.25500000920E-02 0.  1.
       -2   -1    0    0    0  501  0.00000000000E+00  0.00000000000E+00 -0.14034067745E+04  0.14034067745E+04  0.25500000920E-02 0. -1.
    10030    2    1    2    0    0  0.00000000000E+00  0.00000000000E+00  0.39021512511E+03  0.31970286742E+04  0.31731253520E+04 0.  0.
        4    1    3    3  502    0 -0.53069367645E+03  0.72430033414E+03  0.15129872782E+04  0.17593688838E+04  0.12699999809E+01 0.  1.
       -4    1    3    3    0  502  0.53069367645E+03 -0.72430033414E+03 -0.11227721531E+04  0.14376597904E+04  0.12699999809E+01 0. -1.
</event>
<event>
 5   0  0.1089569E-05  0.2939023E+04  0.7818609E-02  0.8261361E-01
       -2   -1    0    0    0  501  0.00000000000E+00  0.00000000000E+00  0.11175711609E+04  0.11175711609E+04  0.25500000920E-02 0. -1.
        2   -1    0    0  501    0  0.00000000000E+00  0.00000000000E+00 -0.19322838280E+04  0.19322838280E+04  0.25500000920E-02 0.  1.
    10030    2    1    2    0    0  0.00000000000E+00  0.00000000000E+00 -0.81471266710E+03  0.30498549889E+04  0.29390234302E+04 0.  0.
        5    1    3    3  502    0 -0.97547748286E+03 -0.33517954186E+03 -0.14935079407E+04  0.18150729197E+04  0.46999998093E+01 0.  1.
       -5    1    3    3    0  502  0.97547748286E+03  0.33517954186E+03  0.67879527365E+03  0.12347820692E+04  0.46999998093E+01 0. -1.
</event>
<event>
 5   0  0.3852126E-06  0.2992610E+04  0.7818609E-02  0.8245844E-01
       -1   -1    0    0    0  501  0.00000000000E+00  0.00000000000E+00  0.11117862740E+04  0.11117862740E+04  0.50400001928E-02 0.  1.
        1   -1    0    0  501    0  0.00000000000E+00  0.00000000000E+00 -0.20138119483E+04  0.20138119484E+04  0.50400001928E-02 0. -1.
    10030    2    1    2    0    0  0.00000000000E+00  0.00000000000E+00 -0.90202567439E+03  0.31255982223E+04  0.29926098861E+04 0.  0.
        1    1    3    3  502    0  0.83787798636E+03 -0.30126645188E+03  0.80497760772E+03  0.12003290982E+04  0.50400001928E-02 0.  1.
       -1    1    3    3    0  502 -0.83787798636E+03  0.30126645188E+03 -0.17070032821E+04  0.19252691241E+04  0.50400001928E-02 0. -1.
</event>
<event>
 5   0  0.3636718E-06  0.2931897E+04  0.7818609E-02  0.8263450E-01
       -1   -1    0    0    0  501  0.00000000000E+00  0.00000000000E+00  0.13072196047E+04  0.13072196047E+04  0.50400001928E-02 0. -1.
        1   -1    0    0  501    0  0.00000000000E+00  0.00000000000E+00 -0.16439511188E+04  0.16439511188E+04  0.50400001928E-02 0.  1.
    10030    2    1    2    0    0  0.00000000000E+00  0.00000000000E+00 -0.33673151406E+03  0.29511707235E+04  0.29318970866E+04 0.  0.
        4    1    3    3  502    0 -0.77613311196E+03 -0.12330466878E+04 -0.33134611309E+03  0.14941815824E+04  0.12699999809E+01 0. -1.
       -4    1    3    3    0  502  0.77613311196E+03  0.12330466878E+04 -0.53854009712E+01  0.14569891410E+04  0.12699999809E+01 0.  1.
</event>
<event>
 5   0  0.9647945E-06  0.2941972E+04  0.7818609E-02  0.8260498E-01
       -2   -1    0    0    0  501  0.00000000000E+00  0.00000000000E+00  0.13992343439E+04  0.13992343439E+04  0.25500000920E-02 0.  1.
        2   -1    0    0  501    0  0.00000000000E+00  0.00000000000E+00 -0.15464172340E+04  0.15464172340E+04  0.25500000920E-02 0. -1.
    10030    2    1    2    0    0  0.00000000000E+00  0.00000000000E+00 -0.14718289013E+03  0.29456515779E+04  0.29419721982E+04 0.  0.
        2    1    3    3  502    0  0.93735395770E+03 -0.23180589914E+03 -0.11846791103E+04  0.15283425700E+04  0.25500000920E-02 0. -1.
       -2    1    3    3    0  502 -0.93735395770E+03  0.23180589914E+03  0.10374962202E+04  0.14173090079E+04  0.25500000920E-02 0.  1.
</event>
<event>
 5   0  0.1029922E-05  0.1944122E+04  0.7818609E-02  0.8633201E-01
        2   -1    0    0  501    0  0.00000000000E+00  0.00000000000E+00  0.18997772578E+04  0.18997772578E+04  0.25500000920E-02 0. -1.
       -2   -1    0    0    0  501  0.00000000000E+00  0.00000000000E+00 -0.49737537581E+03  0.49737537581E+03  0.25500000920E-02 0.  1.
    10030    2    1    2    0    0  0.00000000000E+00  0.00000000000E+00  0.14024018820E+04  0.23971526336E+04  0.19441218352E+04 0.  0.
        1    1    3    3  502    0  0.47429550240E+03  0.14047061696E+03 -0.33058039966E+03  0.59495513989E+03  0.50400001928E-02 0.  1.
       -1    1    3    3    0  502 -0.47429550240E+03 -0.14047061696E+03  0.17329822816E+04  0.18021974937E+04  0.50400001928E-02 0. -1.
</event>
<event>
 5   0  0.1029922E-05  0.2998079E+04  0.7818609E-02  0.8244280E-01
        2   -1    0    0  501    0  0.00000000000E+00  0.00000000000E+00  0.16881551131E+04  0.16881551131E+04  0.25500000920E-02 0.  1.
       -2   -1    0    0    0  501  0.00000000000E+00  0.00000000000E+00 -0.13311099553E+04  0.13311099553E+04  0.25500000920E-02 0. -1.
    10030    2    1    2    0    0  0.00000000000E+00  0.00000000000E+00  0.35704515773E+03  0.30192650684E+04  0.29980794367E+04 0.  0.
        1    1    3    3  502    0  0.91903507191E+03  0.10904469226E+04  0.64376123163E+03  0.15646496342E+04  0.50400001928E-02 0.  1.
       -1    1    3    3    0  502 -0.91903507191E+03 -0.10904469226E+04 -0.28671607390E+03  0.14546154342E+04  0.50400001928E-02 0. -1.
</event>
<event>
 5   0  0.3725232E-06  0.2170078E+04  0.7818609E-02  0.8530986E-01
       -1   -1    0    0    0  501  0.00000000000E+00  0.00000000000E+00  0.65834075445E+03  0.65834075447E+03  0.50400001928E-02 0.  1.
        1   -1    0    0  501    0  0.00000000000E+00  0.00000000000E+00 -0.17882990897E+04  0.17882990897E+04  0.50400001928E-02 0. -1.
    10030    2    1    2    0    0  0.00000000000E+00  0.00000000000E+00 -0.11299583353E+04  0.24466398442E+04  0.21700784981E+04 0.  0.
        2    1    3    3  502    0 -0.94473286389E+03  0.37450523726E+03 -0.13634939073E+03  0.10253611623E+04  0.25500000920E-02 0.  1.
       -2    1    3    3    0  502  0.94473286389E+03 -0.37450523726E+03 -0.99360894452E+03  0.14212786819E+04  0.25500000920E-02 0. -1.
</event>
<event>
 5   0  0.1089569E-05  0.3087135E+04  0.7818609E-02  0.8219277E-01
        2   -1    0    0  501    0  0.00000000000E+00  0.00000000000E+00  0.27679950886E+04  0.27679950886E+04  0.25500000920E-02 0.  1.
       -2   -1    0    0    0  501  0.00000000000E+00  0.00000000000E+00 -0.86076786805E+03  0.86076786806E+03  0.25500000920E-02 0. -1.
    10030    2    1    2    0    0  0.00000000000E+00  0.00000000000E+00  0.19072272205E+04  0.36287629566E+04  0.30871353914E+04 0.  0.
        5    1    3    3  502    0  0.74918570378E+03 -0.10882541492E+04  0.15460757576E+02  0.13213014180E+04  0.46999998093E+01 0. -1.
       -5    1    3    3    0  502 -0.74918570378E+03  0.10882541492E+04  0.18917664629E+04  0.23074615387E+04  0.46999998093E+01 0.  1.
</event>
<event>
 5   0  0.3636718E-06  0.2961919E+04  0.7818609E-02  0.8254690E-01
       -1   -1    0    0    0  501  0.00000000000E+00  0.00000000000E+00  0.98746720319E+03  0.98746720320E+03  0.50400001928E-02 0. -1.
        1   -1    0    0  501    0  0.00000000000E+00  0.00000000000E+00 -0.22210770204E+04  0.22210770204E+04  0.50400001928E-02 0.  1.
    10030    2    1    2    0    0  0.00000000000E+00  0.00000000000E+00 -0.12336098173E+04  0.32085442237E+04  0.29619187791E+04 0.  0.
        4    1    3    3  502    0  0.14744035815E+04 -0.42201533909E+02 -0.47312531769E+03  0.15490306872E+04  0.12699999809E+01 0. -1.
       -4    1    3    3    0  502 -0.14744035815E+04  0.42201533909E+02 -0.76048449956E+03  0.16595135365E+04  0.12699999809E+01 0.  1.
</event>
<event>
 5   0  0.3852126E-06  0.3025655E+04  0.7818609E-02  0.8236443E-01
       -1   -1    0    0    0  501  0.00000000000E+00  0.00000000000E+00  0.13644810971E+04  0.13644810971E+04  0.50400001928E-02 0. -1.
        1   -1    0    0  501    0  0.00000000000E+00  0.00000000000E+00 -0.16773023591E+04  0.16773023591E+04  0.50400001928E-02 0.  1.
    10030    2    1    2    0    0  0.00000000000E+00  0.00000000000E+00 -0.31282126197E+03  0.30417834562E+04  0.30256552105E+04 0.  0.
        1    1    3    3  502    0 -0.11676026850E+04 -0.31601886051E+03 -0.10698148908E+04  0.16148274988E+04  0.50400001928E-02 0.  1.
       -1    1    3    3    0  502  0.11676026850E+04  0.31601886051E+03  0.75699362883E+03  0.14269559574E+04  0.50400001928E-02 0. -1.
</event>
<event>
 5   0  0.3852126E-06  0.2996689E+04  0.7818609E-02  0.8244677E-01
        1   -1    0    0  501    0  0.00000000000E+00  0.00000000000E+00  0.20354559447E+04  0.20354559447E+04  0.50400001928E-02 0.  1.
       -1   -1    0    0    0  501  0.00000000000E+00  0.00000000000E+00 -0.11029647523E+04  0.11029647523E+04  0.50400001928E-02 0. -1.
    10030    2    1    2    0    0  0.00000000000E+00  0.00000000000E+00  0.93249119236E+03  0.31384206970E+04  0.29966889474E+04 0.  0.
        1    1    3    3  502    0  0.27293230102E+03  0.10852723842E+04  0.15097267816E+04  0.18792506869E+04  0.50400001928E-02 0.  1.
       -1    1    3    3    0  502 -0.27293230102E+03 -0.10852723842E+04 -0.57723558927E+03  0.12591700101E+04  0.50400001928E-02 0. -1.
</event>
<event>
 5   0  0.3725232E-06  0.2960689E+04  0.7818609E-02  0.8255046E-01
       -1   -1    0    0    0  501  0.00000000000E+00  0.00000000000E+00  0.83352462721E+03  0.83352462723E+03  0.50400001928E-02 0. -1.
        1   -1    0    0  501    0  0.00000000000E+00  0.00000000000E+00 -0.26291006986E+04  0.26291006986E+04  0.50400001928E-02 0.  1.
    10030    2    1    2    0    0  0.00000000000E+00  0.00000000000E+00 -0.17955760714E+04  0.34626253259E+04  0.29606892304E+04 0.  0.
        2    1    3    3  502    0 -0.13490687941E+04 -0.44531825514E+03 -0.13844112764E+04  0.19836556006E+04  0.25500000920E-02 0.  1.
       -2    1    3    3    0  502  0.13490687941E+04  0.44531825514E+03 -0.41116479504E+03  0.14789697253E+04  0.25500000920E-02 0. -1.
</event>
<event>
 5   0  0.3592331E-06  0.2961467E+04  0.7818609E-02  0.8254821E-01
        1   -1    0    0  501    0  0.00000000000E+00  0.00000000000E+00  0.24387441296E+04  0.24387441296E+04  0.50400001928E-02 0.  1.
       -1   -1    0    0    0  501  0.00000000000E+00  0.00000000000E+00 -0.89905780891E+03  0.89905780892E+03  0.50400001928E-02 0. -1.
    10030    2    1    2    0    0  0.00000000000E+00  0.00000000000E+00  0.15396863207E+04  0.33378019385E+04  0.29614671727E+04 0.  0.
        3    1    3    3  502    0 -0.10223818446E+04 -0.79095629451E+03 -0.44227613045E+02  0.12933802952E+04  0.10100000352E+00 0. -1.
       -3    1    3    3    0  502  0.10223818446E+04  0.79095629451E+03  0.15839139337E+04  0.20444216433E+04  0.10100000352E+00 0.  1.
</event>
<event>
 5   0  0.1028450E-05  0.3015653E+04  0.7818609E-02  0.8239275E-01
       -2   -1    0    0    0  501  0.00000000000E+00  0.00000000000E+00  0.15967039278E+04  0.15967039278E+04  0.25500000920E-02 0.  1.
        2   -1    0    0  501    0  0.00000000000E+00  0.00000000000E+00 -0.14238965940E+04  0.14238965940E+04  0.25500000920E-02 0. -1.
    10030    2    1    2    0    0  0.00000000000E+00  0.00000000000E+00  0.17280733378E+03  0.30206005218E+04  0.30156533517E+04 0.  0.
        3    1    3    3  502    0  0.10885929292E+04  0.57518486441E+03 -0.78546617843E+03  0.14604209398E+04  0.10100000352E+00 0. -1.
       -3    1    3    3    0  502 -0.10885929292E+04 -0.57518486441E+03  0.95827351222E+03  0.15601795820E+04  0.10100000352E+00 0.  1.
</event>
<event>
 5   0  0.3592331E-06  0.2993498E+04  0.7818609E-02  0.8245590E-01
       -1   -1    0    0    0  501  0.00000000000E+00  0.00000000000E+00  0.98653184134E+03  0.98653184135E+03  0.50400001928E-02 0. -1.
        1   -1    0    0  501    0  0.00000000000E+00  0.00000000000E+00 -0.22708422786E+04  0.22708422786E+04  0.50400001928E-02 0.  1.
    10030    2    1    2    0    0  0.00000000000E+00  0.00000000000E+00 -0.12843104372E+04  0.32573741199E+04  0.29934984313E+04 0.  0.
        3    1    3    3  502    0  0.37149008155E+03 -0.95607895721E+03 -0.18282714012E+04  0.20963463883E+04  0.10100000352E+00 0.  1.
       -3    1    3    3    0  502 -0.37149008155E+03  0.95607895721E+03  0.54396096396E+03  0.11610277316E+04  0.10100000352E+00 0. -1.
</event>
<event>
 5   0  0.1057036E-05  0.2998404E+04  0.7818609E-02  0.8244187E-01
       -2   -1    0    0    0  501  0.00000000000E+00  0.00000000000E+00  0.99055929253E+03  0.99055929254E+03  0.25500000920E-02 0.  1.
        2   -1    0    0  501    0  0.00000000000E+00  0.00000000000E+00 -0.22690273643E+04  0.22690273643E+04  0.25500000920E-02 0. -1.
    10030    2    1    2    0    0  0.00000000000E+00  0.00000000000E+00 -0.12784680718E+04  0.32595866568E+04  0.29984036691E+04 0.  0.
        4    1    3    3  502    0  0.68748754652E+03 -0.12792441076E+04 -0.10438073035E+04  0.17884741858E+04  0.12699999809E+01 0. -1.
       -4    1    3    3    0  502 -0.68748754652E+03  0.12792441076E+04 -0.23466076830E+03  0.14711124711E+04  0.12699999809E+01 0.  1.
</event>
<event>
 5   0  0.1028450E-05  0.2886553E+04  0.7818609E-02  0.8276890E-01
        2   -1    0    0  501    0  0.00000000000E+00  0.00000000000E+00  0.12009270862E+04  0.12009270862E+04  0.25500000920E-02 0. -1.
       -2   -1    0    0    0  501  0.00000000000E+00  0.00000000000E+00 -0.17345327241E+04  0.17345327241E+04  0.25500000920E-02 0.  1.
    10030    2    1    2    0    0  0.00000000000E+00  0.00000000000E+00 -0.53360563796E+03  0.29354598103E+04  0.28865531904E+04 0.  0.
        3    1    3    3  502    0 -0.80899144469E+03 -0.11163949619E+04 -0.70093436875E+03  0.15466460060E+04  0.10100000352E+00 0.  1.
       -3    1    3    3    0  502  0.80899144469E+03  0.11163949619E+04  0.16732873079E+03  0.13888138042E+04  0.10100000352E+00 0. -1.
</event>
<event>
 5   0  0.9647945E-06  0.3046960E+04  0.7818609E-02  0.8230447E-01
       -2   -1    0    0    0  501  0.00000000000E+00  0.00000000000E+00  0.80187670796E+03  0.80187670797E+03  0.25500000920E-02 0. -1.
        2   -1    0    0  501    0  0.00000000000E+00  0.00000000000E+00 -0.28944485064E+04  0.28944485064E+04  0.25500000920E-02 0.  1.
    10030    2    1    2    0    0  0.00000000000E+00  0.00000000000E+00 -0.20925717984E+04  0.36963252143E+04  0.30469596910E+04 0.  0.
        2    1    3    3  502    0 -0.11935715707E+04 -0.89403334190E+03 -0.66830216464E+03  0.16341776201E+04  0.25500000920E-02 0. -1.
       -2    1    3    3    0  502  0.11935715707E+04  0.89403334190E+03 -0.14242696337E+04  0.20621475942E+04  0.25500000920E-02 0.  1.
</event>
<event>
 5   0  0.3896630E-06  0.2957948E+04  0.7818609E-02  0.8255842E-01
       -1   -1    0    0    0  501  0.00000000000E+00  0.00000000000E+00  0.92251173644E+03  0.92251173646E+03  0.50400001928E-02 0. -1.
        1   -1    0    0  501    0  0.00000000000E+00  0.00000000000E+00 -0.23710965861E+04  0.23710965861E+04  0.50400001928E-02 0.  1.
    10030    2    1    2    0    0  0.00000000000E+00  0.00000000000E+00 -0.14485848496E+04  0.32936083225E+04  0.29579482274E+04 0.  0.
        5    1    3    3  502    0  0.63312062513E+03  0.68775062038E+03  0.55184184509E+03  0.10855386468E+04  0.46999998093E+01 0. -1.
       -5    1    3    3    0  502 -0.63312062513E+03 -0.68775062038E+03 -0.20004266947E+04  0.22080696757E+04  0.46999998093E+01 0.  1.
</event>
<event>
 5   0  0.3852126E-06  0.2840726E+04  0.7818609E-02  0.8290735E-01
       -1   -1    0    0    0  501  0.00000000000E+00  0.00000000000E+00  0.92191131472E+03  0.92191131474E+03  0.50400001928E-02 0. -1.
        1   -1    0    0  501    0  0.00000000000E+00  0.00000000000E+00 -0.21883129319E+04  0.21883129320E+04  0.50400001928E-02 0.  1.
    10030    2    1    2    0    0  0.00000000000E+00  0.00000000000E+00 -0.12664016172E+04  0.31102242467E+04  0.28407255778E+04 0.  0.
        1    1    3    3  502    0 -0.80135178814E+03 -0.83992602127E+03  0.26284820164E+03  0.11902645028E+04  0.50400001928E-02 0. -1.
       -1    1    3    3    0  502  0.80135178814E+03  0.83992602127E+03 -0.15292498189E+04  0.19199597439E+04  0.50400001928E-02 0.  1.
</event>
<event>
 5   0  0.1029922E-05  0.3081113E+04  0.7818609E-02  0.8220940E-01
        2   -1    0    0  501    0  0.00000000000E+00  0.00000000000E+00  0.20199229430E+04  0.20199229430E+04  0.25500000920E-02 0. -1.
       -2   -1    0    0    0  501  0.00000000000E+00  0.00000000000E+00 -0.11749528798E+04  0.11749528798E+04  0.25500000920E-02 0.  1.
    10030    2    1    2    0    0  0.00000000000E+00  0.00000000000E+00  0.84497006322E+03  0.31948758227E+04  0.30811129669E+04 0.  0.
        1    1    3    3  502    0  0.80623556238E+03 -0.41729368593E+03  0.17130953292E+04  0.19387742027E+04  0.50400001928E-02 0. -1.
       -1    1    3    3    0  502 -0.80623556238E+03  0.41729368593E+03 -0.86812526595E+03  0.12561016200E+04  0.50400001928E-02 0.  1.
</event>
<event>
 5   0  0.1057036E-05  0.2970715E+04  0.7818609E-02  0.8252143E-01
        2   -1    0    0  501    0  0.00000000000E+00  0.00000000000E+00  0.15721665254E+04  0.15721665254E+04  0.25500000920E-02 0.  1.
       -2   -1    0    0    0  501  0.00000000000E+00  0.00000000000E+00 -0.14033415530E+04  0.14033415530E+04  0.25500000920E-02 0. -1.
    10030    2    1    2    0    0  0.00000000000E+00  0.00000000000E+00  0.16882497244E+03  0.29755080784E+04  0.29707148051E+04 0.  0.
        4    1    3    3  502    0 -0.77779671146E+02 -0.10920356912E+04  0.10898715053E+04  0.15448019741E+04  0.12699999809E+01 0.  1.
       -4    1    3    3    0  502  0.77779671146E+02  0.10920356912E+04 -0.92104653291E+03  0.14307061043E+04  0.12699999809E+01 0. -1.
</event>
<event>
 5   0  0.3725232E-06  0.2863763E+04  0.7818609E-02  0.8283741E-01
        1   -1    0    0  501    0  0.00000000000E+00  0.00000000000E+00  0.14747762565E+04  0.14747762565E+04  0.50400001928E-02 0. -1.
       -1   -1    0    0    0  501  0.00000000000E+00  0.00000000000E+00 -0.13902346634E+04  0.13902346635E+04  0.50400001928E-02 0.  1.
    10030    2    1    2    0    0  0.00000000000E+00  0.00000000000E+00  0.84541593092E+02  0.28650109200E+04  0.28637633091E+04 0.  0.
        2    1    3    3  502    0  0.92051247361E+03  0.14540441476E+02 -0.10548976554E+04  0.14001298875E+04  0.25500000920E-02 0.  1.
       -2    1    3    3    0  502 -0.92051247361E+03 -0.14540441476E+02  0.11394392485E+04  0.14648810325E+04  0.25500000920E-02 0. -1.
</event>
<event>
 5   0  0.1028450E-05  0.3041137E+04  0.7818609E-02  0.8232081E-01
        2   -1    0    0  501    0  0.00000000000E+00  0.00000000000E+00  0.11081293079E+04  0.11081293079E+04  0.25500000920E-02 0. -1.
       -2   -1    0    0    0  501  0.00000000000E+00  0.00000000000E+00 -0.20865144805E+04  0.20865144805E+04  0.25500000920E-02 0.  1.
    10030    2    1    2    0    0  0.00000000000E+00  0.00000000000E+00 -0.97838517261E+03  0.31946437885E+04  0.30411365292E+04 0.  0.
        3    1    3    3  502    0 -0.68589076607E+03 -0.10900351409E+03 -0.19101737643E+04  0.20325087279E+04  0.10100000352E+00 0.  1.
       -3    1    3    3    0  502  0.68589076607E+03  0.10900351409E+03  0.93178859170E+03  0.11621350605E+04  0.10100000352E+00 0. -1.
</event>
<event>
 5   0  0.1057036E-05  0.3036755E+04  0.7818609E-02  0.8233313E-01
       -2   -1    0    0    0  501  0.00000000000E+00  0.00000000000E+00  0.13470127824E+04  0.13470127824E+04  0.25500000920E-02 0. -1.
        2   -1    0    0  501    0  0.00000000000E+00  0.00000000000E+00 -0.17115426635E+04  0.17115426635E+04  0.25500000920E-02 0.  1.
    10030    2    1    2    0    0  0.00000000000E+00  0.00000000000E+00 -0.36452988112E+03  0.30585554459E+04  0.30367547450E+04 0.  0.
        4    1    3    3  502    0 -0.57190778755E+03  0.94595504914E+03 -0.12306790883E+04  0.16542315750E+04  0.12699999809E+01 0.  1.
       -4    1    3    3    0  502  0.57190778755E+03 -0.94595504914E+03  0.86614920715E+03  0.14043238709E+04  0.12699999809E+01 0. -1.
</event>
<event>
 5   0  0.3896630E-06  0.2582611E+04  0.7818609E-02  0.8374132E-01
       -1   -1    0    0    0  501  0.00000000000E+00  0.00000000000E+00  0.11548882987E+04  0.11548882987E+04  0.50400001928E-02 0. -1.
        1   -1    0    0  501    0  0.00000000000E+00  0.00000000000E+00 -0.14438362970E+04  0.14438362970E+04  0.50400001928E-02 0.  1.
    10030    2    1    2    0    0  0.00000000000E+00  0.00000000000E+00 -0.28894799835E+03  0.25987245957E+04  0.25826108066E+04 0.  0.
        5    1    3    3  502    0 -0.21169650271E+03 -0.33126356473E+03 -0.13821469960E+04  0.14369771631E+04  0.46999998093E+01 0.  1.
       -5    1    3    3    0  502  0.21169650271E+03  0.33126356473E+03  0.10931989977E+04  0.11617474326E+04  0.46999998093E+01 0. -1.
</event>
<event>
 5   0  0.3725232E-06  0.2067800E+04  0.7818609E-02  0.8575562E-01
        1   -1    0    0  501    0  0.00000000000E+00  0.00000000000E+00  0.15174689854E+04  0.15174689855E+04  0.50400001928E-02 0.  1.
       -1   -1    0    0    0  501  0.00000000000E+00  0.00000000000E+00 -0.70442895356E+03  0.70442895358E+03  0.50400001928E-02 0. -1.
    10030    2    1    2    0    0  0.00000000000E+00  0.00000000000E+00  0.81304003189E+03  0.22218979390E+04  0.20677998835E+04 0.  0.
        2    1    3    3  502    0  0.76849885256E+03  0.15621921499E+03 -0.31745170032E+03  0.84603221662E+03  0.25500000920E-02 0. -1.
       -2    1    3    3    0  502 -0.76849885256E+03 -0.15621921499E+03  0.11304917322E+04  0.13758657224E+04  0.25500000920E-02 0.  1.
</event>
<event>
 5   0  0.1057036E-05  0.2417183E+04  0.7818609E-02  0.8433098E-01
        2   -1    0    0  501    0  0.00000000000E+00  0.00000000000E+00  0.11724763866E+04  0.11724763866E+04  0.25500000920E-02 0. -1.
       -2   -1    0    0    0  501  0.00000000000E+00  0.00000000000E+00 -0.12458189202E+04  0.12458189202E+04  0.25500000920E-02 0.  1.
    10030    2    1    2    0    0  0.00000000000E+00  0.00000000000E+00 -0.73342533561E+02  0.24182953069E+04  0.24171828776E+04 0.  0.
        4    1    3    3  502    0 -0.29320585073E+03 -0.24842854718E+03  0.11097204867E+04  0.11743796599E+04  0.12699999809E+01 0. -1.
       -4    1    3    3    0  502  0.29320585073E+03  0.24842854718E+03 -0.11830630203E+04  0.12439156470E+04  0.12699999809E+01 0.  1.
</event>
<event>
 5   0  0.1028450E-05  0.2954880E+04  0.7818609E-02  0.8256734E-01
       -2   -1    0    0    0  501  0.00000000000E+00  0.00000000000E+00  0.16494162103E+04  0.16494162103E+04  0.25500000920E-02 0.  1.
        2   -1    0    0  501    0  0.00000000000E+00  0.00000000000E+00 -0.13233950020E+04  0.13233950020E+04  0.25500000920E-02 0. -1.
    10030    2    1    2    0    0  0.00000000000E+00  0.00000000000E+00  0.32602120823E+03  0.29728112123E+04  0.29548801458E+04 0.  0.
        3    1    3    3  502    0 -0.63780610387E+03  0.13326226204E+04  0.15071003869E+03  0.14850566321E+04  0.10100000352E+00 0. -1.
       -3    1    3    3    0  502  0.63780610387E+03 -0.13326226204E+04  0.17531116954E+03  0.14877545802E+04  0.10100000352E+00 0.  1.
</event>
<event>
 5   0  0.9647945E-06  0.3007098E+04  0.7818609E-02  0.8241707E-01
       -2   -1    0    0    0  501  0.00000000000E+00  0.00000000000E+00  0.98038757603E+03  0.98038757604E+03  0.25500000920E-02 0.  1.
        2   -1    0    0  501    0  0.00000000000E+00  0.00000000000E+00 -0.23058832617E+04  0.23058832617E+04  0.25500000920E-02 0. -1.
    10030    2    1    2    0    0  0.00000000000E+00  0.00000000000E+00 -0.13254956857E+04  0.32862708377E+04  0.30070978046E+04 0.  0.
        2    1    3    3  502    0 -0.48347601021E+03 -0.14226840649E+04 -0.60409693820E+03  0.16194789630E+04  0.25500000920E-02 0.  1.
       -2    1    3    3    0  502  0.48347601021E+03  0.14226840649E+04 -0.72139874748E+03  0.16667918747E+04  0.25500000920E-02 0. -1.
</event>
<event>
 5   0  0.1057036E-05  0.3040318E+04  0.7818609E-02  0.8232311E-01
        2   -1    0    0  501    0  0.00000000000E+00  0.00000000000E+00  0.20366436982E+04  0.20366436982E+04  0.25500000920E-02 0.  1.
       -2   -1    0    0    0  501  0.00000000000E+00  0.00000000000E+00 -0.11346524168E+04  0.11346524168E+04  0.25500000920E-02 0. -1.
    10030    2    1    2    0    0  0.00000000000E+00  0.00000000000E+00  0.90199128142E+03  0.31712961150E+04  0.30403175454E+04 0.  0.
        4    1    3    3  502    0 -0.31938010252E+02  0.80742112323E+03 -0.89208234168E+03  0.12036450573E+04  0.12699999809E+01 0. -1.
       -4    1    3    3    0  502  0.31938010252E+02 -0.80742112323E+03  0.17940736231E+04  0.19676510577E+04  0.12699999809E+01 0.  1.
</event>
<event>
 5   0  0.3852126E-06  0.2947131E+04  0.7818609E-02  0.8258991E-01
        1   -1    0    0  501    0  0.00000000000E+00  0.00000000000E+00  0.17521167312E+04  0.17521167312E+04  0.50400001928E-02 0. -1.
       -1   -1    0    0    0  501  0.00000000000E+00  0.00000000000E+00 -0.12392979348E+04  0.12392979348E+04  0.50400001928E-02 0.  1.
    10030    2    1    2    0    0  0.00000000000E+00  0.00000000000E+00  0.51281879638E+03  0.29914146660E+04  0.29471305683E+04 0.  0.
        1    1    3    3  502    0  0.84672668786E+03 -0.49899248270E+03 -0.85802049893E+03  0.13046603996E+04  0.50400001928E-02 0.  1.
       -1    1    3    3    0  502 -0.84672668786E+03  0.49899248270E+03  0.13708392953E+04  0.16867542664E+04  0.50400001928E-02 0. -1.
</event>
<event>
 5   0  0.9647945E-06  0.2672422E+04  0.7818609E-02  0.8344009E-01
       -2   -1    0    0    0  501  0.00000000000E+00  0.00000000000E+00  0.85636905799E+03  0.85636905799E+03  0.25500000920E-02 0.  1.
        2   -1    0    0  501    0  0.00000000000E+00  0.00000000000E+00 -0.20849185091E+04  0.20849185091E+04  0.25500000920E-02 0. -1.
    10030    2    1    2    0    0  0.00000000000E+00  0.00000000000E+00 -0.12285494511E+04  0.29412875671E+04  0.26724218975E+04 0.  0.
        2    1    3    3  502    0 -0.23805893913E+03 -0.55645938615E+03  0.69685353019E+03  0.92299726406E+03  0.25500000920E-02 0.  1.
       -2    1    3    3    0  502  0.23805893913E+03  0.55645938615E+03 -0.19254029813E+04  0.20182903030E+04  0.25500000920E-02 0. -1.
</event>
<event>
 5   0  0.3896630E-06  0.2892515E+04  0.7818609E-02  0.8275108E-01
        1   -1    0    0  501    0  0.00000000000E+00  0.00000000000E+00  0.20577185479E+04  0.20577185479E+04  0.50400001928E-02 0.  1.
       -1   -1    0    0    0  501  0.00000000000E+00  0.00000000000E+00 -0.10164954014E+04  0.10164954014E+04  0.50400001928E-02 0. -1.
    10030    2    1    2    0    0  0.00000000000E+00  0.00000000000E+00  0.10412231464E+04  0.30742139493E+04  0.28925154737E+04 0.  0.
        5    1    3    3  502    0  0.86221917725E+03 -0.82829271790E+02 -0.71031046713E+03  0.11201989322E+04  0.46999998093E+01 0. -1.
       -5    1    3    3    0  502 -0.86221917725E+03  0.82829271790E+02  0.17515336135E+04  0.19540150172E+04  0.46999998093E+01 0.  1.
</event>
<event>
 5   0  0.3592331E-06  0.3023513E+04  0.7818609E-02  0.8237048E-01
       -1   -1    0    0    0  501  0.00000000000E+00  0.00000000000E+00  0.12483161255E+04  0.12483161255E+04  0.50400001928E-02 0. -1.
        1   -1    0    0  501    0  0.00000000000E+00  0.00000000000E+00 -0.18307928133E+04  0.18307928133E+04  0.50400001928E-02 0.  1.
    10030    2    1    2    0    0  0.00000000000E+00  0.00000000000E+00 -0.58247668775E+03  0.30791089388E+04  0.30235133149E+04 0.  0.
        3    1    3    3  502    0  0.14794620727E+04 -0.30664122695E+03 -0.23959780586E+03  0.15297856012E+04  0.10100000352E+00 0.  1.
       -3    1    3    3    0  502 -0.14794620727E+04  0.30664122695E+03 -0.34287888190E+03  0.15493233377E+04  0.10100000352E+00 0. -1.
</event>
<event>
 5   0  0.3313750E-06  0.3008768E+04  0.7818609E-02  0.8241231E-01
        4   -1    0    0  501    0  0.00000000000E+00  0.00000000000E+00  0.16762817698E+04  0.16762822509E+04  0.12699999809E+01 0.  1.
       -4   -1    0    0    0  501  0.00000000000E+00  0.00000000000E+00 -0.13501131946E+04  0.13501137919E+04  0.12699999809E+01 0. -1.
    10030    2    1    2    0    0  0.00000000000E+00  0.00000000000E+00  0.32616857526E+03  0.30263960428E+04  0.30087683641E+04 0.  0.
        5    1    3    3  502    0  0.47014186248E+03  0.65152678000E+03 -0.11162277610E+04  0.13753206973E+04  0.46999998093E+01 0. -1.
       -5    1    3    3    0  502 -0.47014186248E+03 -0.65152678000E+03  0.14423963363E+04  0.16510753456E+04  0.46999998093E+01 0.  1.
</event>
<event>
 5   0  0.3896630E-06  0.3126567E+04  0.7818609E-02  0.8208484E-01
        1   -1    0    0  501    0  0.00000000000E+00  0.00000000000E+00  0.14798965985E+04  0.14798965985E+04  0.50400001928E-02 0.  1.
       -1   -1    0    0    0  501  0.00000000000E+00  0.00000000000E+00 -0.16513690530E+04  0.16513690530E+04  0.50400001928E-02 0. -1.
    10030    2    1    2    0    0  0.00000000000E+00  0.00000000000E+00 -0.17147245452E+03  0.31312656516E+04  0.31265670916E+04 0.  0.
        5    1    3    3  502    0  0.97184030550E+03  0.51440503669E+03 -0.11985979179E+04  0.16265746771E+04  0.46999998093E+01 0. -1.
       -5    1    3    3    0  502 -0.97184030550E+03 -0.51440503669E+03  0.10271254634E+04  0.15046909745E+04  0.46999998093E+01 0.  1.
</event>
<event>
 5   0  0.1028450E-05  0.3060247E+04  0.7818609E-02  0.8226733E-01
       -2   -1    0    0    0  501  0.00000000000E+00  0.00000000000E+00  0.14307032156E+04  0.14307032156E+04  0.25500000920E-02 0.  1.
        2   -1    0    0  501    0  0.00000000000E+00  0.00000000000E+00 -0.16364530664E+04  0.16364530664E+04  0.25500000920E-02 0. -1.
    10030    2    1    2    0    0  0.00000000000E+00  0.00000000000E+00 -0.20574985081E+03  0.30671562820E+04  0.30602474829E+04 0.  0.
        3    1    3    3  502    0 -0.72563948439E+03 -0.13470379384E+04 -0.11756356316E+03  0.15345634788E+04  0.10100000352E+00 0. -1.
       -3    1    3    3    0  502  0.72563948439E+03  0.13470379384E+04 -0.88186287651E+02  0.15325928032E+04  0.10100000352E+00 0.  1.
</event>
<event>
 5   0  0.3852126E-06  0.2975368E+04  0.7818609E-02  0.8250800E-01
        1   -1    0    0  501    0  0.00000000000E+00  0.00000000000E+00  0.15148901611E+04  0.15148901611E+04  0.50400001928E-02 0.  1.
       -1   -1    0    0    0  501  0.00000000000E+00  0.00000000000E+00 -0.14609666478E+04  0.14609666478E+04  0.50400001928E-02 0. -1.
    10030    2    1    2    0    0  0.00000000000E+00  0.00000000000E+00  0.53923513251E+02  0.29758568089E+04  0.29753682128E+04 0.  0.
        1    1    3    3  502    0 -0.11850950516E+03  0.60609243652E+03  0.13806283043E+04  0.15124572917E+04  0.50400001928E-02 0.  1.
       -1    1    3    3    0  502  0.11850950516E+03 -0.60609243652E+03 -0.13267047911E+04  0.14633995172E+04  0.50400001928E-02 0. -1.
</event>
<event>
 5   0  0.3896630E-06  0.2693532E+04  0.7818609E-02  0.8337107E-01
       -1   -1    0    0    0  501  0.00000000000E+00  0.00000000000E+00  0.71807151894E+03  0.71807151896E+03  0.50400001928E-02 0. -1.
        1   -1    0    0  501    0  0.00000000000E+00  0.00000000000E+00 -0.25259027028E+04  0.25259027028E+04  0.50400001928E-02 0.  1.
    10030    2    1    2    0    0  0.00000000000E+00  0.00000000000E+00 -0.18078311839E+04  0.32439742218E+04  0.26935320978E+04 0.  0.
        5    1    3    3  502    0 -0.61920295415E+03 -0.11189600341E+04 -0.14124236458E+04  0.19053730610E+04  0.46999998093E+01 0.  1.
       -5    1    3    3    0  502  0.61920295415E+03  0.11189600341E+04 -0.39540753804E+03  0.13386011607E+04  0.46999998093E+01 0. -1.
</event>
<event>
 5   0  0.1028450E-05  0.2948321E+04  0.7818609E-02  0.8258644E-01
        2   -1    0    0  501    0  0.00000000000E+00  0.00000000000E+00  0.22885366333E+04  0.22885366333E+04  0.25500000920E-02 0.  1.
       -2   -1    0    0    0  501  0.00000000000E+00  0.00000000000E+00 -0.94958055807E+03  0.94958055807E+03  0.25500000920E-02 0. -1.
    10030    2    1    2    0    0  0.00000000000E+00  0.00000000000E+00  0.13389560752E+04  0.32381171914E+04  0.29483214841E+04 0.  0.
        3    1    3    3  502    0 -0.98882062023E+03 -0.10702942946E+04  0.91470420052E+03  0.17204592064E+04  0.10100000352E+00 0.  1.
       -3    1    3    3    0  502  0.98882062023E+03  0.10702942946E+04  0.42425187470E+03  0.15176579850E+04  0.10100000352E+00 0. -1.
</event>
<event>
 5   0  0.1089569E-05  0.3013026E+04  0.7818609E-02  0.8240021E-01
        2   -1    0    0  501    0  0.00000000000E+00  0.00000000000E+00  0.18057646019E+04  0.18057646019E+04  0.25500000920E-02 0.  1.
       -2   -1    0    0    0  501  0.00000000000E+00  0.00000000000E+00 -0.12568530332E+04  0.12568530332E+04  0.25500000920E-02 0. -1.
    10030    2    1    2    0    0  0.00000000000E+00  0.00000000000E+00  0.54891156867E+03  0.30626176351E+04  0.30130255340E+04 0.  0.
        5    1    3    3  502    0  0.37359635198E+03  0.10438109156E+04 -0.76235414489E+03  0.13454818445E+04  0.46999998093E+01 0. -1.
       -5    1    3    3    0  502 -0.37359635198E+03 -0.10438109156E+04  0.13112657136E+04  0.17171357906E+04  0.46999998093E+01 0.  1.
</event>
<event>
 5   0  0.1089569E-05  0.3003434E+04  0.7818609E-02  0.8242751E-01
       -2   -1    0    0    0  501  0.00000000000E+00  0.00000000000E+00  0.10590859410E+04  0.10590859410E+04  0.25500000920E-02 0.  1.
        2   -1    0    0  501    0  0.00000000000E+00  0.00000000000E+00 -0.21293398809E+04  0.21293398809E+04  0.25500000920E-02 0. -1.
    10030    2    1    2    0    0  0.00000000000E+00  0.00000000000E+00 -0.10702539400E+04  0.31884258219E+04  0.30034339889E+04 0.  0.
        5    1    3    3  502    0 -0.81673664249E+02  0.44011651593E+02 -0.21262867034E+04  0.21283150256E+04  0.46999998093E+01 0. -1.
       -5    1    3    3    0  502  0.81673664249E+02 -0.44011651593E+02  0.10560327635E+04  0.10601107963E+04  0.46999998093E+01 0.  1.
</event>
<event>
 5   0  0.3636718E-06  0.2965655E+04  0.7818609E-02  0.8253607E-01
        1   -1    0    0  501    0  0.00000000000E+00  0.00000000000E+00  0.10477253367E+04  0.10477253367E+04  0.50400001928E-02 0.  1.
       -1   -1    0    0    0  501  0.00000000000E+00  0.00000000000E+00 -0.20986196689E+04  0.20986196689E+04  0.50400001928E-02 0. -1.
    10030    2    1    2    0    0  0.00000000000E+00  0.00000000000E+00 -0.10508943322E+04  0.31463450056E+04  0.29656547332E+04 0.  0.
        4    1    3    3  502    0  0.89847679843E+03 -0.10047220859E+04 -0.11812071684E+04  0.17921994908E+04  0.12699999809E+01 0. -1.
       -4    1    3    3    0  502 -0.89847679843E+03  0.10047220859E+04  0.13031283623E+03  0.13541455148E+04  0.12699999809E+01 0.  1.
</event>
<event>
 5   0  0.3313750E-06  0.2842395E+04  0.7818609E-02  0.8290226E-01
       -3   -1    0    0    0  501  0.00000000000E+00  0.00000000000E+00  0.15610141412E+04  0.15610141445E+04  0.10100000352E+00 0.  1.
        3   -1    0    0  501    0  0.00000000000E+00  0.00000000000E+00 -0.12939037710E+04  0.12939037749E+04  0.10100000352E+00 0. -1.
    10030    2    1    2    0    0  0.00000000000E+00  0.00000000000E+00  0.26711037028E+03  0.28549179194E+04  0.28423948312E+04 0.  0.
        5    1    3    3  502    0 -0.55287771459E+03  0.10426824090E+04  0.92882620423E+03  0.15018657001E+04  0.46999998093E+01 0.  1.
       -5    1    3    3    0  502  0.55287771459E+03 -0.10426824090E+04 -0.66171583396E+03  0.13530522193E+04  0.46999998093E+01 0. -1.
</event>
<event>
 5   0  0.3636718E-06  0.3001550E+04  0.7818609E-02  0.8243288E-01
        1   -1    0    0  501    0  0.00000000000E+00  0.00000000000E+00  0.21977945650E+04  0.21977945650E+04  0.50400001928E-02 0. -1.
       -1   -1    0    0    0  501  0.00000000000E+00  0.00000000000E+00 -0.10248120407E+04  0.10248120407E+04  0.50400001928E-02 0.  1.
    10030    2    1    2    0    0  0.00000000000E+00  0.00000000000E+00  0.11729825244E+04  0.32226066057E+04  0.30015504881E+04 0.  0.
        4    1    3    3  502    0  0.24185923133E+03  0.12147957996E+04  0.14963083783E+04  0.19424636672E+04  0.12699999809E+01 0. -1.
       -4    1    3    3    0  502 -0.24185923133E+03 -0.12147957996E+04 -0.32332585390E+03  0.12801429385E+04  0.12699999809E+01 0.  1.
</event>
<event>
 5   0  0.3592331E-06  0.3018486E+04  0.7818609E-02  0.8238472E-01
        1   -1    0    0  501    0  0.00000000000E+00  0.00000000000E+00  0.17033539511E+04  0.17033539511E+04  0.50400001928E-02 0. -1.
       -1   -1    0    0    0  501  0.00000000000E+00  0.00000000000E+00 -0.13372526531E+04  0.13372526531E+04  0.50400001928E-02 0.  1.
    10030    2    1    2    0    0  0.00000000000E+00  0.00000000000E+00  0.36610129802E+03  0.30406066042E+04  0.30184861042E+04 0.  0.
        3    1    3    3  502    0 -0.97137131902E+03 -0.99724818777E+03  0.77020158690E+03  0.15909986430E+04  0.10100000352E+00 0. -1.
       -3    1    3    3    0  502  0.97137131902E+03  0.99724818777E+03 -0.40410028888E+03  0.14496079612E+04  0.10100000352E+00 0.  1.
</event>
<event>
 5   0  0.3852126E-06  0.3461331E+04  0.7818609E-02  0.8123016E-01
        1   -1    0    0  501    0  0.00000000000E+00  0.00000000000E+00  0.23051819942E+04  0.23051819942E+04  0.50400001928E-02 0.  1.
       -1   -1    0    0    0  501  0.00000000000E+00  0.00000000000E+00 -0.12993346963E+04  0.12993346964E+04  0.50400001928E-02 0. -1.
    10030    2    1    2    0    0  0.00000000000E+00  0.00000000000E+00  0.10058472978E+04  0.36045166905E+04  0.34613309270E+04 0.  0.
        1    1    3    3  502    0  0.45340797682E+03 -0.57143719758E+03 -0.11314204586E+04  0.13461914865E+04  0.50400001928E-02 0. -1.
       -1    1    3    3    0  502 -0.45340797682E+03  0.57143719758E+03  0.21372677565E+04  0.22583252040E+04  0.50400001928E-02 0.  1.
</event>
<event>
 5   0  0.1089569E-05  0.2939630E+04  0.7818609E-02  0.8261183E-01
       -2   -1    0    0    0  501  0.00000000000E+00  0.00000000000E+00  0.12440351375E+04  0.12440351375E+04  0.25500000920E-02 0. -1.
        2   -1    0    0  501    0  0.00000000000E+00  0.00000000000E+00 -0.17365713980E+04  0.17365713980E+04  0.25500000920E-02 0.  1.
    10030    2    1    2    0    0  0.00000000000E+00  0.00000000000E+00 -0.49253626055E+03  0.29806065355E+04  0.29396297984E+04 0.  0.
        5    1    3    3  502    0 -0.47380293256E+03  0.13764367214E+04 -0.45224133514E+03  0.15243397200E+04  0.46999998093E+01 0.  1.
       -5    1    3    3    0  502  0.47380293256E+03 -0.13764367214E+04 -0.40294925412E+02  0.14562668155E+04  0.46999998093E+01 0. -1.
</event>
<event>
 5   0  0.1089569E-05  0.3025143E+04  0.7818609E-02  0.8236587E-01
        2   -1    0    0  501    0  0.00000000000E+00  0.00000000000E+00  0.13648630815E+04  0.13648630815E+04  0.25500000920E-02 0. -1.
       -2   -1    0    0    0  501  0.00000000000E+00  0.00000000000E+00 -0.16762650066E+04  0.16762650066E+04  0.25500000920E-02 0.  1.
    10030    2    1    2    0    0  0.00000000000E+00  0.00000000000E+00 -0.31140192508E+03  0.30411280881E+04  0.30251427883E+04 0.  0.
        5    1    3    3  502    0 -0.25390207678E+02  0.15123506774E+04 -0.15474813432E+03  0.15204664775E+04  0.46999998093E+01 0. -1.
       -5    1    3    3    0  502  0.25390207678E+02 -0.15123506774E+04 -0.15665379076E+03  0.15206616107E+04  0.46999998093E+01 0.  1.
</event>
<event>
 5   0  0.3313750E-06  0.3059445E+04  0.7818609E-02  0.8226957E-01
        4   -1    0    0  501    0  0.00000000000E+00  0.00000000000E+00  0.18393924146E+04  0.18393928531E+04  0.12699999809E+01 0. -1.
       -4   -1    0    0    0  501  0.00000000000E+00  0.00000000000E+00 -0.12721862609E+04  0.12721868948E+04  0.12699999809E+01 0.  1.
    10030    2    1    2    0    0  0.00000000000E+00  0.00000000000E+00  0.56720615375E+03  0.31115797478E+04  0.30594453266E+04 0.  0.
        5    1    3    3  502    0  0.35932358510E+03  0.49415095669E+03  0.17099024501E+04  0.18157882822E+04  0.46999998093E+01 0. -1.
       -5    1    3    3    0  502 -0.35932358510E+03 -0.49415095669E+03 -0.11426962964E+04  0.12957914657E+04  0.46999998093E+01 0.  1.
</event>
<event>
 5   0  0.3852126E-06  0.2938907E+04  0.7818609E-02  0.8261395E-01
        1   -1    0    0  501    0  0.00000000000E+00  0.00000000000E+00  0.16357268579E+04  0.16357268579E+04  0.50400001928E-02 0. -1.
       -1   -1    0    0    0  501  0.00000000000E+00  0.00000000000E+00 -0.13200820683E+04  0.13200820683E+04  0.50400001928E-02 0.  1.
    10030    2    1    2    0    0  0.00000000000E+00  0.00000000000E+00  0.31564478956E+03  0.29558089262E+04  0.29389070715E+04 0.  0.
        1    1    3    3  502    0 -0.75596861180E+03  0.79117956989E+03  0.11441971043E+04  0.15832374009E+04  0.50400001928E-02 0. -1.
       -1    1    3    3    0  502  0.75596861180E+03 -0.79117956989E+03 -0.82855231478E+03  0.13725715254E+04  0.50400001928E-02 0.  1.
</event>
<event>
 5   0  0.1029922E-05  0.2961661E+04  0.7818609E-02  0.8254764E-01
       -2   -1    0    0    0  501  0.00000000000E+00  0.00000000000E+00  0.11601574237E+04  0.11601574237E+04  0.25500000920E-02 0. -1.
        2   -1    0    0  501    0  0.00000000000E+00  0.00000000000E+00 -0.18901387383E+04  0.18901387383E+04  0.25500000920E-02 0.  1.
    10030    2    1    2    0    0  0.00000000000E+00  0.00000000000E+00 -0.72998131459E+03  0.30502961620E+04  0.29616606754E+04 0.  0.
        1    1    3    3  502    0  0.64341503109E+02  0.14781745397E+04 -0.42779673974E+03  0.15401785122E+04  0.50400001928E-02 0. -1.
       -1    1    3    3    0  502 -0.64341503109E+02 -0.14781745397E+04 -0.30218457485E+03  0.15101176498E+04  0.50400001928E-02 0.  1.
</event>
<event>
 5   0  0.1029922E-05  0.2902853E+04  0.7818609E-02  0.8272029E-01
       -2   -1    0    0    0  501  0.00000000000E+00  0.00000000000E+00  0.15977316448E+04  0.15977316448E+04  0.25500000920E-02 0. -1.
        2   -1    0    0  501    0  0.00000000000E+00  0.00000000000E+00 -0.13185187662E+04  0.13185187662E+04  0.25500000920E-02 0.  1.
    10030    2    1    2    0    0  0.00000000000E+00  0.00000000000E+00  0.27921287857E+03  0.29162504110E+04  0.29028531874E+04 0.  0.
        1    1    3    3  502    0 -0.66705260497E+03 -0.12811386581E+04 -0.37536544175E+01  0.14443993662E+04  0.50400001928E-02 0.  1.
       -1    1    3    3    0  502  0.66705260497E+03  0.12811386581E+04  0.28296653299E+03  0.14718510448E+04  0.50400001928E-02 0. -1.
</event>
<event>
 5   0  0.3592331E-06  0.3323760E+04  0.7818609E-02  0.8156876E-01
       -1   -1    0    0    0  501  0.00000000000E+00  0.00000000000E+00  0.10917220314E+04  0.10917220314E+04  0.50400001928E-02 0.  1.
        1   -1    0    0  501    0  0.00000000000E+00  0.00000000000E+00 -0.25298068870E+04  0.25298068870E+04  0.50400001928E-02 0. -1.
    10030    2    1    2    0    0  0.00000000000E+00  0.00000000000E+00 -0.14380848556E+04  0.36215289184E+04  0.33237604689E+04 0.  0.
        3    1    3    3  502    0  0.49337623822E+03 -0.14425448610E+04 -0.14397288859E+04  0.20969442204E+04  0.10100000352E+00 0. -1.
       -3    1    3    3    0  502 -0.49337623822E+03  0.14425448610E+04  0.16440302333E+01  0.15245846980E+04  0.10100000352E+00 0.  1.
</event>
<event>
 5   0  0.1057036E-05  0.3021457E+04  0.7818609E-02  0.8237630E-01
        2   -1    0    0  501    0  0.00000000000E+00  0.00000000000E+00  0.16094014213E+04  0.16094014213E+04  0.25500000920E-02 0.  1.
       -2   -1    0    0    0  501  0.00000000000E+00  0.00000000000E+00 -0.14181050800E+04  0.14181050800E+04  0.25500000920E-02 0. -1.
    10030    2    1    2    0    0  0.00000000000E+00  0.00000000000E+00  0.19129634125E+03  0.30275065013E+04  0.30214568217E+04 0.  0.
        4    1    3    3  502    0 -0.12902165673E+04  0.78401848036E+03  0.41179873602E+02  0.15103116112E+04  0.12699999809E+01 0.  1.
       -4    1    3    3    0  502  0.12902165673E+04 -0.78401848036E+03  0.15011646764E+03  0.15171948902E+04  0.12699999809E+01 0. -1.
</event>
<event>
 5   0  0.3725232E-06  0.2984438E+04  0.7818609E-02  0.8248189E-01
       -1   -1    0    0    0  501  0.00000000000E+00  0.00000000000E+00  0.12769243179E+04  0.12769243179E+04  0.50400001928E-02 0. -1.
        1   -1    0    0  501    0  0.00000000000E+00  0.00000000000E+00 -0.17438137957E+04  0.17438137957E+04  0.50400001928E-02 0.  1.
    10030    2    1    2    0    0  0.00000000000E+00  0.00000000000E+00 -0.46688947783E+03  0.30207381136E+04  0.29844384676E+04 0.  0.
        2    1    3    3  502    0  0.37657489535E+03 -0.21616722679E+03 -0.16784580728E+04  0.17337123244E+04  0.25500000920E-02 0.  1.
       -2    1    3    3    0  502 -0.37657489535E+03  0.21616722679E+03  0.12115685950E+04  0.12870257892E+04  0.25500000920E-02 0. -1.
</event>
<event>
 5   0  0.9647945E-06  0.3004276E+04  0.7818609E-02  0.8242511E-01
       -2   -1    0    0    0  501  0.00000000000E+00  0.00000000000E+00  0.10930248406E+04  0.10930248406E+04  0.25500000920E-02 0.  1.
        2   -1    0    0  501    0  0.00000000000E+00  0.00000000000E+00 -0.20643801029E+04  0.20643801029E+04  0.25500000920E-02 0. -1.
    10030    2    1    2    0    0  0.00000000000E+00  0.00000000000E+00 -0.97135526229E+03  0.31574049434E+04  0.30042761077E+04 0.  0.
        2    1    3    3  502    0 -0.14061484706E+04 -0.76658292427E+02  0.63738355215E+02  0.14096781878E+04  0.25500000920E-02 0.  1.
       -2    1    3    3    0  502  0.14061484706E+04  0.76658292427E+02 -0.10350936175E+04  0.17477267556E+04  0.25500000920E-02 0. -1.
</event>
<event>
 5   0  0.3592331E-06  0.2980669E+04  0.7818609E-02  0.8249273E-01
       -1   -1    0    0    0  501  0.00000000000E+00  0.00000000000E+00  0.17535552911E+04  0.17535552911E+04  0.50400001928E-02 0.  1.
        1   -1    0    0  501    0  0.00000000000E+00  0.00000000000E+00 -0.12666252019E+04  0.12666252019E+04  0.50400001928E-02 0. -1.
    10030    2    1    2    0    0  0.00000000000E+00  0.00000000000E+00  0.48693008913E+03  0.30201804930E+04  0.29806692703E+04 0.  0.
        3    1    3    3  502    0 -0.14798470541E+04  0.70384445902E+02  0.40746243420E+03  0.15365308065E+04  0.10100000352E+00 0. -1.
       -3    1    3    3    0  502  0.14798470541E+04 -0.70384445902E+02  0.79467654929E+02  0.14836496865E+04  0.10100000352E+00 0.  1.
</event>
<event>
 5   0  0.9647945E-06  0.2720184E+04  0.7818609E-02  0.8328485E-01
       -2   -1    0    0    0  501  0.00000000000E+00  0.00000000000E+00  0.75853124183E+03  0.75853124183E+03  0.25500000920E-02 0. -1.
        2   -1    0    0  501    0  0.00000000000E+00  0.00000000000E+00 -0.24387272826E+04  0.24387272826E+04  0.25500000920E-02 0.  1.
    10030    2    1    2    0    0  0.00000000000E+00  0.00000000000E+00 -0.16801960408E+04  0.31972585245E+04  0.27201844306E+04 0.  0.
        2    1    3    3  502    0 -0.78029111694E+03  0.30486471279E+03  0.41929297267E+03  0.93680484479E+03  0.25500000920E-02 0. -1.
       -2    1    3    3    0  502  0.78029111694E+03 -0.30486471279E+03 -0.20994890135E+04  0.22604536797E+04  0.25500000920E-02 0.  1.
</event>
<event>
 5   0  0.1089569E-05  0.2990488E+04  0.7818609E-02  0.8246452E-01
        2   -1    0    0  501    0  0.00000000000E+00  0.00000000000E+00  0.18206319440E+04  0.18206319440E+04  0.25500000920E-02 0.  1.
       -2   -1    0    0    0  501  0.00000000000E+00  0.00000000000E+00 -0.12280104851E+04  0.12280104851E+04  0.25500000920E-02 0. -1.
    10030    2    1    2    0    0  0.00000000000E+00  0.00000000000E+00  0.59262145891E+03  0.30486424291E+04  0.29904883325E+04 0.  0.
        5    1    3    3  502    0 -0.45103473309E+03  0.31499328799E+03  0.17137004624E+04  0.17998456786E+04  0.46999998093E+01 0.  1.
       -5    1    3    3    0  502  0.45103473309E+03 -0.31499328799E+03 -0.11210790035E+04  0.12487967505E+04  0.46999998093E+01 0. -1.
</event>
<event>
 5   0  0.1089569E-05  0.2931415E+04  0.7818609E-02  0.8263591E-01
        2   -1    0    0  501    0  0.00000000000E+00  0.00000000000E+00  0.23490706177E+04  0.23490706177E+04  0.25500000920E-02 0.  1.
       -2   -1    0    0    0  501  0.00000000000E+00  0.00000000000E+00 -0.91453126346E+03  0.91453126347E+03  0.25500000920E-02 0. -1.
    10030    2    1    2    0    0  0.00000000000E+00  0.00000000000E+00  0.14345393542E+04  0.32636018811E+04  0.29314150303E+04 0.  0.
        5    1    3    3  502    0 -0.12688072222E+04 -0.73090612410E+03  0.64528256045E+03  0.16001584929E+04  0.46999998093E+01 0. -1.
       -5    1    3    3    0  502  0.12688072222E+04  0.73090612410E+03  0.78925679375E+03  0.16634433883E+04  0.46999998093E+01 0.  1.
</event>
<event>
 5   0  0.3725232E-06  0.3063075E+04  0.7818609E-02  0.8225945E-01
        1   -1    0    0  501    0  0.00000000000E+00  0.00000000000E+00  0.16651314460E+04  0.16651314460E+04  0.50400001928E-02 0. -1.
       -1   -1    0    0    0  501  0.00000000000E+00  0.00000000000E+00 -0.14086618918E+04  0.14086618918E+04  0.50400001928E-02 0.  1.
    10030    2    1    2    0    0  0.00000000000E+00  0.00000000000E+00  0.25646955421E+03  0.30737933378E+04  0.30630750645E+04 0.  0.
        2    1    3    3  502    0  0.49189445516E+03 -0.11696398956E+04  0.98890109482E+03  0.16087084931E+04  0.25500000920E-02 0. -1.
       -2    1    3    3    0  502 -0.49189445516E+03  0.11696398956E+04 -0.73243154061E+03  0.14650848447E+04  0.25500000920E-02 0.  1.
</event>
<event>
 5   0  0.3592331E-06  0.3047399E+04  0.7818609E-02  0.8230324E-01
       -1   -1    0    0    0  501  0.00000000000E+00  0.00000000000E+00  0.17184706447E+04  0.17184706447E+04  0.50400001928E-02 0.  1.
        1   -1    0    0  501    0  0.00000000000E+00  0.00000000000E+00 -0.13510041059E+04  0.13510041059E+04  0.50400001928E-02 0. -1.
    10030    2    1    2    0    0  0.00000000000E+00  0.00000000000E+00  0.36746653881E+03  0.30694747506E+04  0.30473994795E+04 0.  0.
        3    1    3    3  502    0 -0.98969314820E+03  0.10053292930E+04  0.76364813258E+03  0.16041627086E+04  0.10100000352E+00 0.  1.
       -3    1    3    3    0  502  0.98969314820E+03 -0.10053292930E+04 -0.39618159377E+03  0.14653120420E+04  0.10100000352E+00 0. -1.
</event>
<event>
 5   0  0.3592331E-06  0.3063917E+04  0.7818609E-02  0.8225711E-01
        1   -1    0    0  501    0  0.00000000000E+00  0.00000000000E+00  0.17135501202E+04  0.17135501202E+04  0.50400001928E-02 0.  1.
       -1   -1    0    0    0  501  0.00000000000E+00  0.00000000000E+00 -0.13696112789E+04  0.13696112789E+04  0.50400001928E-02 0. -1.
    10030    2    1    2    0    0  0.00000000000E+00  0.00000000000E+00  0.34393884123E+03  0.30831613991E+04  0.30639174738E+04 0.  0.
        3    1    3    3  502    0  0.15251696936E+04  0.13295890808E+03  0.22778759168E+03  0.15478074372E+04  0.10100000352E+00 0. -1.
       -3    1    3    3    0  502 -0.15251696936E+04 -0.13295890808E+03  0.11615124954E+03  0.15353539619E+04  0.10100000352E+00 0.  1.
</event>
<event>
 5   0  0.3896630E-06  0.3027232E+04  0.7818609E-02  0.8235997E-01
        1   -1    0    0  501    0  0.00000000000E+00  0.00000000000E+00  0.11663690313E+04  0.11663690313E+04  0.50400001928E-02 0.  1.
       -1   -1    0    0    0  501  0.00000000000E+00  0.00000000000E+00 -0.19642443120E+04  0.19642443120E+04  0.50400001928E-02 0. -1.
    10030    2    1    2    0    0  0.00000000000E+00  0.00000000000E+00 -0.79787528068E+03  0.31306133434E+04  0.30272322247E+04 0.  0.
        5    1    3    3  502    0 -0.81108241883E+03  0.65905236821E+03 -0.15312293221E+04  0.18538851208E+04  0.46999998093E+01 0. -1.
       -5    1    3    3    0  502  0.81108241883E+03 -0.65905236821E+03  0.73335404145E+03  0.12767282226E+04  0.46999998093E+01 0.  1.
</event>
<event>
 5   0  0.1029922E-05  0.3049811E+04  0.7818609E-02  0.8229648E-01
        2   -1    0    0  501    0  0.00000000000E+00  0.00000000000E+00  0.11127857228E+04  0.11127857228E+04  0.25500000920E-02 0. -1.
       -2   -1    0    0    0  501  0.00000000000E+00  0.00000000000E+00 -0.20896536788E+04  0.20896536788E+04  0.25500000920E-02 0.  1.
    10030    2    1    2    0    0  0.00000000000E+00  0.00000000000E+00 -0.97686795601E+03  0.32024394017E+04  0.30498109971E+04 0.  0.
        1    1    3    3  502    0 -0.12050908962E+04  0.32517097728E+03 -0.14082619151E+04  0.18818028202E+04  0.50400001928E-02 0.  1.
       -1    1    3    3    0  502  0.12050908962E+04 -0.32517097728E+03  0.43139395908E+03  0.13206365815E+04  0.50400001928E-02 0. -1.
</event>
<event>
 5   0  0.3896630E-06  0.2814823E+04  0.7818609E-02  0.8298681E-01
        1   -1    0    0  501    0  0.00000000000E+00  0.00000000000E+00  0.18273013025E+04  0.18273013025E+04  0.50400001928E-02 0. -1.
       -1   -1    0    0    0  501  0.00000000000E+00  0.00000000000E+00 -0.10840066273E+04  0.10840066273E+04  0.50400001928E-02 0.  1.
    10030    2    1    2    0    0  0.00000000000E+00  0.00000000000E+00  0.74329467520E+03  0.29113079298E+04  0.28148227099E+04 0.  0.
        5    1    3    3  502    0  0.66548886077E+03 -0.97914459975E+03  0.11587760830E+04  0.16566181430E+04  0.46999998093E+01 0. -1.
       -5    1    3    3    0  502 -0.66548886077E+03  0.97914459975E+03 -0.41548140783E+03  0.12546897869E+04  0.46999998093E+01 0.  1.
</event>
<event>
 5   0  0.1029922E-05  0.2988954E+04  0.7818609E-02  0.8246892E-01
       -2   -1    0    0    0  501  0.00000000000E+00  0.00000000000E+00  0.13136065333E+04  0.13136065333E+04  0.25500000920E-02 0. -1.
        2   -1    0    0  501    0  0.00000000000E+00  0.00000000000E+00 -0.17002509786E+04  0.17002509786E+04  0.25500000920E-02 0.  1.
    10030    2    1    2    0    0  0.00000000000E+00  0.00000000000E+00 -0.38664444526E+03  0.30138575119E+04  0.29889535251E+04 0.  0.
        1    1    3    3  502    0  0.36206321906E+03 -0.12891829931E+04  0.47581697965E+03  0.14210856281E+04  0.50400001928E-02 0. -1.
       -1    1    3    3    0  502 -0.36206321906E+03  0.12891829931E+04 -0.86246142491E+03  0.15927718838E+04  0.50400001928E-02 0.  1.
</event>
<event>
 5   0  0.1028450E-05  0.2992777E+04  0.7818609E-02  0.8245796E-01
        2   -1    0    0  501    0  0.00000000000E+00  0.00000000000E+00  0.23953023841E+04  0.23953023842E+04  0.25500000920E-02 0.  1.
       -2   -1    0    0    0  501  0.00000000000E+00  0.00000000000E+00 -0.93482074813E+03  0.93482074813E+03  0.25500000920E-02 0. -1.
    10030    2    1    2    0    0  0.00000000000E+00  0.00000000000E+00  0.14604816360E+04  0.33301231323E+04  0.29927768823E+04 0.  0.
        3    1    3    3  502    0  0.76027705844E+02 -0.14619386858E+04  0.10752440436E+04  0.18163685465E+04  0.10100000352E+00 0.  1.
       -3    1    3    3    0  502 -0.76027705844E+02  0.14619386858E+04  0.38523759242E+03  0.15137545858E+04  0.10100000352E+00 0. -1.
</event>
<event>
 5   0  0.9647945E-06  0.3197602E+04  0.7818609E-02  0.8189451E-01
        2   -1    0    0  501    0  0.00000000000E+00  0.00000000000E+00  0.24166200712E+04  0.24166200712E+04  0.25500000920E-02 0.  1.
       -2   -1    0    0    0  501  0.00000000000E+00  0.00000000000E+00 -0.10577436689E+04  0.10577436689E+04  0.25500000920E-02 0. -1.
    10030    2    1    2    0    0  0.00000000000E+00  0.00000000000E+00  0.13588764023E+04  0.34743637401E+04  0.31976019642E+04 0.  0.
        2    1    3    3  502    0 -0.32170476151E+03  0.35597788902E+03  0.23365473066E+04  0.23853023974E+04  0.25500000920E-02 0.  1.
       -2    1    3    3    0  502  0.32170476151E+03 -0.35597788902E+03 -0.97767090429E+03  0.10890613427E+04  0.25500000920E-02 0. -1.
</event>
<event>
 5   0  0.3636718E-06  0.3067661E+04  0.7818609E-02  0.8224670E-01
        1   -1    0    0  501    0  0.00000000000E+00  0.00000000000E+00  0.18469977750E+04  0.18469977750E+04  0.50400001928E-02 0.  1.
       -1   -1    0    0    0  501  0.00000000000E+00  0.00000000000E+00 -0.12737618690E+04  0.12737618690E+04  0.50400001928E-02 0. -1.
    10030    2    1    2    0    0  0.00000000000E+00  0.00000000000E+00  0.57323590600E+03  0.31207596440E+04  0.30676605666E+04 0.  0.
        4    1    3    3  502    0  0.12798812986E+04  0.68024778635E+03  0.79710102189E+03  0.16541477689E+04  0.12699999809E+01 0.  1.
       -4    1    3    3    0  502 -0.12798812986E+04 -0.68024778635E+03 -0.22386511588E+03  0.14666118751E+04  0.12699999809E+01 0. -1.
</event>
<event>
 5   0  0.1089569E-05  0.3144425E+04  0.7818609E-02  0.8203651E-01
       -2   -1    0    0    0  501  0.00000000000E+00  0.00000000000E+00  0.11000230223E+04  0.11000230223E+04  0.25500000920E-02 0. -1.
        2   -1    0    0  501    0  0.00000000000E+00  0.00000000000E+00 -0.22470907444E+04  0.22470907444E+04  0.25500000920E-02 0.  1.
    10030    2    1    2    0    0  0.00000000000E+00  0.00000000000E+00 -0.11470677221E+04  0.33471137668E+04  0.31444246228E+04 0.  0.
        5    1    3    3  502    0  0.13123737989E+04  0.66735646370E+03  0.13503755514E+02  0.14723770166E+04  0.46999998093E+01 0. -1.
       -5    1    3    3    0  502 -0.13123737989E+04 -0.66735646370E+03 -0.11605714776E+04  0.18747367501E+04  0.46999998093E+01 0.  1.
</event>
<event>
 5   0  0.1089569E-05  0.1890282E+04  0.7818609E-02  0.8659709E-01
       -2   -1    0    0    0  501  0.00000000000E+00  0.00000000000E+00  0.14533312813E+04  0.14533312813E+04  0.25500000920E-02 0.  1.
        2   -1    0    0  501    0  0.00000000000E+00  0.00000000000E+00 -0.61465090360E+03  0.61465090360E+03  0.25500000920E-02 0. -1.
    10030    2    1    2    0    0  0.00000000000E+00  0.00000000000E+00  0.83868037775E+03  0.20679821849E+04  0.18902818682E+04 0.  0.
        5    1    3    3  502    0 -0.28166885202E+03  0.68675199744E+03  0.10594080009E+04  0.12935737515E+04  0.46999998093E+01 0.  1.
       -5    1    3    3    0  502  0.28166885202E+03 -0.68675199744E+03 -0.22072762315E+03  0.77440843346E+03  0.46999998093E+01 0. -1.
</event>
<event>
 5   0  0.1029922E-05  0.2769129E+04  0.7818609E-02  0.8312917E-01
        2   -1    0    0  501    0  0.00000000000E+00  0.00000000000E+00  0.10096536668E+04  0.10096536668E+04  0.25500000920E-02 0.  1.
       -2   -1    0    0    0  501  0.00000000000E+00  0.00000000000E+00 -0.18986896051E+04  0.18986896051E+04  0.25500000920E-02 0. -1.
    10030    2    1    2    0    0  0.00000000000E+00  0.00000000000E+00 -0.88903593827E+03  0.29083432719E+04  0.27691290486E+04 0.  0.
        1    1    3    3  502    0 -0.13298016814E+04  0.79999326642E+02 -0.48401142341E+02  0.13330847965E+04  0.50400001928E-02 0.  1.
       -1    1    3    3    0  502  0.13298016814E+04 -0.79999326642E+02 -0.84063479593E+03  0.15752584754E+04  0.50400001928E-02 0. -1.
</event>
<event>
 5   0  0.1057036E-05  0.2999473E+04  0.7818609E-02  0.8243882E-01
        2   -1    0    0  501    0  0.00000000000E+00  0.00000000000E+00  0.13627165206E+04  0.13627165206E+04  0.25500000920E-02 0. -1.
       -2   -1    0    0    0  501  0.00000000000E+00  0.00000000000E+00 -0.16505332128E+04  0.16505332128E+04  0.25500000920E-02 0.  1.
    10030    2    1    2    0    0  0.00000000000E+00  0.00000000000E+00 -0.28781669217E+03  0.30132497333E+04  0.29994725382E+04 0.  0.
        4    1    3    3  502    0  0.11484654346E+04  0.17529720991E+03  0.80887048509E+03  0.14156182539E+04  0.12699999809E+01 0. -1.
       -4    1    3    3    0  502 -0.11484654346E+04 -0.17529720991E+03 -0.10966871773E+04  0.15976314794E+04  0.12699999809E+01 0.  1.
</event>
<event>
 5   0  0.3636718E-06  0.2945583E+04  0.7818609E-02  0.8259443E-01
        1   -1    0    0  501    0  0.00000000000E+00  0.00000000000E+00  0.16798881159E+04  0.16798881159E+04  0.50400001928E-02 0.  1.
       -1   -1    0    0    0  501  0.00000000000E+00  0.00000000000E+00 -0.12912258522E+04  0.12912258522E+04  0.50400001928E-02 0. -1.
    10030    2    1    2    0    0  0.00000000000E+00  0.00000000000E+00  0.38866226366E+03  0.29711139681E+04  0.29455831097E+04 0.  0.
        4    1    3    3  502    0 -0.20217052838E+03  0.11858670447E+04  0.10513779214E+04  0.15976704031E+04  0.12699999809E+01 0.  1.
       -4    1    3    3    0  502  0.20217052838E+03 -0.11858670447E+04 -0.66271565778E+03  0.13734435650E+04  0.12699999809E+01 0. -1.
</event>
<event>
 5   0  0.3725232E-06  0.2957822E+04  0.7818609E-02  0.8255879E-01
       -1   -1    0    0    0  501  0.00000000000E+00  0.00000000000E+00  0.19473616293E+04  0.19473616293E+04  0.50400001928E-02 0. -1.
        1   -1    0    0  501    0  0.00000000000E+00  0.00000000000E+00 -0.11231490264E+04  0.11231490264E+04  0.50400001928E-02 0.  1.
    10030    2    1    2    0    0  0.00000000000E+00  0.00000000000E+00  0.82421260298E+03  0.30705106557E+04  0.29578217106E+04 0.  0.
        2    1    3    3  502    0 -0.49914024251E+03  0.77823071908E+03  0.16103767087E+04  0.18569052689E+04  0.25500000920E-02 0. -1.
       -2    1    3    3    0  502  0.49914024251E+03 -0.77823071908E+03 -0.78616410569E+03  0.12136053868E+04  0.25500000920E-02 0.  1.
</event>
<event>
 5   0  0.1089569E-05  0.1862379E+04  0.7818609E-02  0.8673813E-01
       -2   -1    0    0    0  501  0.00000000000E+00  0.00000000000E+00  0.10161511101E+04  0.10161511101E+04  0.25500000920E-02 0. -1.
        2   -1    0    0  501    0  0.00000000000E+00  0.00000000000E+00 -0.85333145004E+03  0.85333145004E+03  0.25500000920E-02 0.  1.
    10030    2    1    2    0    0  0.00000000000E+00  0.00000000000E+00  0.16281966003E+03  0.18694825601E+04  0.18623788017E+04 0.  0.
        5    1    3    3  502    0 -0.57733485214E+03 -0.57642296518E+03  0.53202369350E+03  0.97398678981E+03  0.46999998093E+01 0. -1.
       -5    1    3    3    0  502  0.57733485214E+03  0.57642296518E+03 -0.36920403347E+03  0.89549577029E+03  0.46999998093E+01 0.  1.
</event>
<event>
 5   0  0.1028450E-05  0.3001221E+04  0.7818609E-02  0.8243382E-01
        2   -1    0    0  501    0  0.00000000000E+00  0.00000000000E+00  0.17970455925E+04  0.17970455925E+04  0.25500000920E-02 0.  1.
       -2   -1    0    0    0  501  0.00000000000E+00  0.00000000000E+00 -0.12530743067E+04  0.12530743067E+04  0.25500000920E-02 0. -1.
    10030    2    1    2    0    0  0.00000000000E+00  0.00000000000E+00  0.54397128578E+03  0.30501198991E+04  0.30012208581E+04 0.  0.
        3    1    3    3  502    0  0.49036576735E+03 -0.58849654333E+03  0.15833758249E+04  0.17589388222E+04  0.10100000352E+00 0.  1.
       -3    1    3    3    0  502 -0.49036576735E+03  0.58849654333E+03 -0.10394045391E+04  0.12911810769E+04  0.10100000352E+00 0. -1.
</event>
<event>
 5   0  0.3725232E-06  0.3033050E+04  0.7818609E-02  0.8234356E-01
        1   -1    0    0  501    0  0.00000000000E+00  0.00000000000E+00  0.18316782028E+04  0.18316782029E+04  0.50400001928E-02 0.  1.
       -1   -1    0    0    0  501  0.00000000000E+00  0.00000000000E+00 -0.12555957760E+04  0.12555957760E+04  0.50400001928E-02 0. -1.
    10030    2    1    2    0    0  0.00000000000E+00  0.00000000000E+00  0.57608242688E+03  0.30872739788E+04  0.30330495640E+04 0.  0.
        2    1    3    3  502    0 -0.13408837927E+04  0.12163996874E+02  0.10090337115E+04  0.16781735129E+04  0.25500000920E-02 0.  1.
       -2    1    3    3    0  502  0.13408837927E+04 -0.12163996874E+02 -0.43295128459E+03  0.14091004660E+04  0.25500000920E-02 0. -1.
</event>
<event>
 5   0  0.9647945E-06  0.2865792E+04  0.7818609E-02  0.8283129E-01
       -2   -1    0    0    0  501  0.00000000000E+00  0.00000000000E+00  0.71334860836E+03  0.71334860836E+03  0.25500000920E-02 0. -1.
        2   -1    0    0  501    0  0.00000000000E+00  0.00000000000E+00 -0.28782429722E+04  0.28782429722E+04  0.25500000920E-02 0.  1.
    10030    2    1    2    0    0  0.00000000000E+00  0.00000000000E+00 -0.21648943638E+04  0.35915915805E+04  0.28657917710E+04 0.  0.
        2    1    3    3  502    0  0.48569528609E+03  0.12900233973E+04 -0.59202179883E+03  0.15001833511E+04  0.25500000920E-02 0. -1.
       -2    1    3    3    0  502 -0.48569528609E+03 -0.12900233973E+04 -0.15728725650E+04  0.20914082294E+04  0.25500000920E-02 0.  1.
</event>
<event>
 5   0  0.3636718E-06  0.2722494E+04  0.7818609E-02  0.8327743E-01
        1   -1    0    0  501    0  0.00000000000E+00  0.00000000000E+00  0.19774180424E+04  0.19774180424E+04  0.50400001928E-02 0.  1.
       -1   -1    0    0    0  501  0.00000000000E+00  0.00000000000E+00 -0.93707744288E+03  0.93707744290E+03  0.50400001928E-02 0. -1.
    10030    2    1    2    0    0  0.00000000000E+00  0.00000000000E+00  0.10403405995E+04  0.29144954853E+04  0.27224943289E+04 0.  0.
        4    1    3    3  502    0  0.34525100627E+03 -0.71503970330E+03  0.17038194842E+04  0.18797559635E+04  0.12699999809E+01 0.  1.
       -4    1    3    3    0  502 -0.34525100627E+03  0.71503970330E+03 -0.66347888471E+03  0.10347395218E+04  0.12699999809E+01 0. -1.
</event>
<event>
 5   0  0.3592331E-06  0.3088386E+04  0.7818609E-02  0.8218932E-01
       -1   -1    0    0    0  501  0.00000000000E+00  0.00000000000E+00  0.15003701699E+04  0.15003701699E+04  0.50400001928E-02 0.  1.
        1   -1    0    0  501    0  0.00000000000E+00  0.00000000000E+00 -0.15892962521E+04  0.15892962521E+04  0.50400001928E-02 0. -1.
    10030    2    1    2    0    0  0.00000000000E+00  0.00000000000E+00 -0.88926082167E+02  0.30896664220E+04  0.30883864316E+04 0.  0.
        3    1    3    3  502    0 -0.14310154063E+04 -0.30146899472E+03 -0.54049515046E+03  0.15591098953E+04  0.10100000352E+00 0. -1.
       -3    1    3    3    0  502  0.14310154063E+04  0.30146899472E+03  0.45156906830E+03  0.15305565267E+04  0.10100000352E+00 0.  1.
</event>
<event>
 5   0  0.1028450E-05  0.2979056E+04  0.7818609E-02  0.8249737E-01
       -2   -1    0    0    0  501  0.00000000000E+00  0.00000000000E+00  0.17146570421E+04  0.17146570421E+04  0.25500000920E-02 0. -1.
        2   -1    0    0  501    0  0.00000000000E+00  0.00000000000E+00 -0.12939578588E+04  0.12939578588E+04  0.25500000920E-02 0.  1.
    10030    2    1    2    0    0  0.00000000000E+00  0.00000000000E+00  0.42069918330E+03  0.30086149009E+04  0.29790561960E+04 0.  0.
        3    1    3    3  502    0  0.76733785927E+03 -0.88549592412E+03  0.11391395609E+04  0.16341815601E+04  0.10100000352E+00 0. -1.
       -3    1    3    3    0  502 -0.76733785927E+03  0.88549592412E+03 -0.71844037762E+03  0.13744333408E+04  0.10100000352E+00 0.  1.
</event>
<event>
 5   0  0.3725232E-06  0.2970205E+04  0.7818609E-02  0.8252290E-01
        1   -1    0    0  501    0  0.00000000000E+00  0.00000000000E+00  0.16994804313E+04  0.16994804313E+04  0.50400001928E-02 0.  1.
       -1   -1    0    0    0  501  0.00000000000E+00  0.00000000000E+00 -0.12977671880E+04  0.12977671880E+04  0.50400001928E-02 0. -1.
    10030    2    1    2    0    0  0.00000000000E+00  0.00000000000E+00  0.40171324323E+03  0.29972476193E+04  0.29702053400E+04 0.  0.
        2    1    3    3  502    0 -0.12100091832E+04  0.27443368529E+03 -0.62271972980E+03  0.13882420297E+04  0.25500000920E-02 0. -1.
       -2    1    3    3    0  502  0.12100091832E+04 -0.27443368529E+03  0.10244329730E+04  0.16090055896E+04  0.25500000920E-02 0.  1.
</event>
<event>
 5   0  0.1029922E-05  0.1917480E+04  0.7818609E-02  0.8646204E-01
       -2   -1    0    0    0  501  0.00000000000E+00  0.00000000000E+00  0.58741439816E+03  0.58741439816E+03  0.25500000920E-02 0. -1.
        2   -1    0    0  501    0  0.00000000000E+00  0.00000000000E+00 -0.15647940731E+04  0.15647940731E+04  0.25500000920E-02 0.  1.
    10030    2    1    2    0    0  0.00000000000E+00  0.00000000000E+00 -0.97737967497E+03  0.21522084713E+04  0.19174801889E+04 0.  0.
        1    1    3    3  502    0  0.63539701786E+03 -0.70685325512E+03 -0.34755235125E+03  0.10120096499E+04  0.50400001928E-02 0. -1.
       -1    1    3    3    0  502 -0.63539701786E+03  0.70685325512E+03 -0.62982732372E+03  0.11401988214E+04  0.50400001928E-02 0.  1.
</event>
<event>
 5   0  0.1028450E-05  0.2957538E+04  0.7818609E-02  0.8255961E-01
       -2   -1    0    0    0  501  0.00000000000E+00  0.00000000000E+00  0.24367386654E+04  0.24367386654E+04  0.25500000920E-02 0. -1.
        2   -1    0    0  501    0  0.00000000000E+00  0.00000000000E+00 -0.89741151282E+03  0.89741151283E+03  0.25500000920E-02 0.  1.
    10030    2    1    2    0    0  0.00000000000E+00  0.00000000000E+00  0.15393271525E+04  0.33341501782E+04  0.29575377137E+04 0.  0.
        3    1    3    3  502    0 -0.75009912448E+03  0.12678411916E+04  0.91529275485E+03  0.17343098976E+04  0.10100000352E+00 0.  1.
       -3    1    3    3    0  502  0.75009912448E+03 -0.12678411916E+04  0.62403439769E+03  0.15998402806E+04  0.10100000352E+00 0. -1.
</event>
<event>
 5   0  0.3592331E-06  0.2481725E+04  0.7818609E-02  0.8409525E-01
       -1   -1    0    0    0  501  0.00000000000E+00  0.00000000000E+00  0.11088921768E+04  0.11088921768E+04  0.50400001928E-02 0. -1.
        1   -1    0    0  501    0  0.00000000000E+00  0.00000000000E+00 -0.13885391915E+04  0.13885391915E+04  0.50400001928E-02 0.  1.
    10030    2    1    2    0    0  0.00000000000E+00  0.00000000000E+00 -0.27964701471E+03  0.24974313683E+04  0.24817254051E+04 0.  0.
        3    1    3    3  502    0 -0.14885914751E+03  0.45577124274E+03  0.10119079848E+04  0.11197518705E+04  0.10100000352E+00 0. -1.
       -3    1    3    3    0  502  0.14885914751E+03 -0.45577124274E+03 -0.12915549995E+04  0.13776794978E+04  0.10100000352E+00 0.  1.
</event>
<event>
 5   0  0.3852126E-06  0.2970301E+04  0.7818609E-02  0.8252263E-01
       -1   -1    0    0    0  501  0.00000000000E+00  0.00000000000E+00  0.13912803024E+04  0.13912803025E+04  0.50400001928E-02 0.  1.
        1   -1    0    0  501    0  0.00000000000E+00  0.00000000000E+00 -0.15853542444E+04  0.15853542444E+04  0.50400001928E-02 0. -1.
    10030    2    1    2    0    0  0.00000000000E+00  0.00000000000E+00 -0.19407394191E+03  0.29766345468E+04  0.29703010841E+04 0.  0.
        1    1    3    3  502    0 -0.21677462308E+03 -0.79593736266E+03  0.11405718719E+04  0.14076262706E+04  0.50400001928E-02 0.  1.
       -1    1    3    3    0  502  0.21677462308E+03  0.79593736266E+03 -0.13346458138E+04  0.15690082762E+04  0.50400001928E-02 0. -1.
</event>
<event>
 5   0  0.1029922E-05  0.3014944E+04  0.7818609E-02  0.8239476E-01
       -2   -1    0    0    0  501  0.00000000000E+00  0.00000000000E+00  0.13207269949E+04  0.13207269949E+04  0.25500000920E-02 0.  1.
        2   -1    0    0  501    0  0.00000000000E+00  0.00000000000E+00 -0.17206217119E+04  0.17206217119E+04  0.25500000920E-02 0. -1.
    10030    2    1    2    0    0  0.00000000000E+00  0.00000000000E+00 -0.39989471705E+03  0.30413487068E+04  0.30149438090E+04 0.  0.
        1    1    3    3  502    0 -0.44999867880E+02 -0.30349971753E+03 -0.16887916404E+04  0.17164365038E+04  0.50400001928E-02 0. -1.
       -1    1    3    3    0  502  0.44999867880E+02  0.30349971753E+03  0.12888969234E+04  0.13249122030E+04  0.50400001928E-02 0.  1.
</event>
<event>
 5   0  0.3725232E-06  0.3028997E+04  0.7818609E-02  0.8235499E-01
       -1   -1    0    0    0  501  0.00000000000E+00  0.00000000000E+00  0.20622934054E+04  0.20622934054E+04  0.50400001928E-02 0. -1.
        1   -1    0    0  501    0  0.00000000000E+00  0.00000000000E+00 -0.11122109043E+04  0.11122109043E+04  0.50400001928E-02 0.  1.
    10030    2    1    2    0    0  0.00000000000E+00  0.00000000000E+00  0.95008250106E+03  0.31745043097E+04  0.30289966744E+04 0.  0.
        2    1    3    3  502    0 -0.12342146981E+04 -0.87620655498E+03  0.42077183722E+03  0.15710101168E+04  0.25500000920E-02 0.  1.
       -2    1    3    3    0  502  0.12342146981E+04  0.87620655498E+03  0.52931066384E+03  0.16034941930E+04  0.25500000920E-02 0. -1.
</event>
<event>
 5   0  0.3852126E-06  0.2950719E+04  0.7818609E-02  0.8257945E-01
        1   -1    0    0  501    0  0.00000000000E+00  0.00000000000E+00  0.19797708844E+04  0.19797708844E+04  0.50400001928E-02 0.  1.
       -1   -1    0    0    0  501  0.00000000000E+00  0.00000000000E+00 -0.10994633935E+04  0.10994633935E+04  0.50400001928E-02 0. -1.
    10030    2    1    2    0    0  0.00000000000E+00  0.00000000000E+00  0.88030749092E+03  0.30792342779E+04  0.29507189733E+04 0.  0.
        1    1    3    3  502    0  0.27241097671E+03  0.13420095662E+03 -0.10664966757E+04  0.11088880900E+04  0.50400001928E-02 0. -1.
       -1    1    3    3    0  502 -0.27241097671E+03 -0.13420095662E+03  0.19468041666E+04  0.19703461879E+04  0.50400001928E-02 0.  1.
</event>
<event>
 5   0  0.1028450E-05  0.2941308E+04  0.7818609E-02  0.8260692E-01
       -2   -1    0    0    0  501  0.00000000000E+00  0.00000000000E+00  0.17149180405E+04  0.17149180405E+04  0.25500000920E-02 0. -1.
        2   -1    0    0  501    0  0.00000000000E+00  0.00000000000E+00 -0.12611817472E+04  0.12611817472E+04  0.25500000920E-02 0.  1.
    10030    2    1    2    0    0  0.00000000000E+00  0.00000000000E+00  0.45373629329E+03  0.29760997877E+04  0.29413080971E+04 0.  0.
        3    1    3    3  502    0  0.35177235926E+03 -0.67573526218E+03  0.14997073137E+04  0.16821070044E+04  0.10100000352E+00 0. -1.
       -3    1    3    3    0  502 -0.35177235926E+03  0.67573526218E+03 -0.10459710204E+04  0.12939927832E+04  0.10100000352E+00 0.  1.
</event>
<event>
 5   0  0.3636718E-06  0.2978207E+04  0.7818609E-02  0.8249982E-01
       -1   -1    0    0    0  501  0.00000000000E+00  0.00000000000E+00  0.87064109772E+03  0.87064109773E+03  0.50400001928E-02 0.  1.
        1   -1    0    0  501    0  0.00000000000E+00  0.00000000000E+00 -0.25468923967E+04  0.25468923967E+04  0.50400001928E-02 0. -1.
    10030    2    1    2    0    0  0.00000000000E+00  0.00000000000E+00 -0.16762512990E+04  0.34175334944E+04  0.29782069720E+04 0.  0.
        4    1    3    3  502    0  0.35573478686E+03  0.12764740204E+04 -0.16176705392E+04  0.20911223660E+04  0.12699999809E+01 0. -1.
       -4    1    3    3    0  502 -0.35573478686E+03 -0.12764740204E+04 -0.58580759817E+02  0.13264111284E+04  0.12699999809E+01 0.  1.
</event>
<event>
 5   0  0.3852126E-06  0.3087793E+04  0.7818609E-02  0.8219096E-01
        1   -1    0    0  501    0  0.00000000000E+00  0.00000000000E+00  0.21428862108E+04  0.21428862108E+04  0.50400001928E-02 0. -1.
       -1   -1    0    0    0  501  0.00000000000E+00  0.00000000000E+00 -0.11123393637E+04  0.11123393637E+04  0.50400001928E-02 0.  1.
    10030    2    1    2    0    0  0.00000000000E+00  0.00000000000E+00  0.10305468471E+04  0.32552255745E+04  0.30877931823E+04 0.  0.
        1    1    3    3  502    0  0.28572859148E+03 -0.36224513553E+03  0.20685121912E+04  0.21193407115E+04  0.50400001928E-02 0. -1.
       -1    1    3    3    0  502 -0.28572859148E+03  0.36224513553E+03 -0.10379653442E+04  0.11358848630E+04  0.50400001928E-02 0.  1.
</event>
<event>
 5   0  0.3852126E-06  0.2997866E+04  0.7818609E-02  0.8244340E-01
       -1   -1    0    0    0  501  0.00000000000E+00  0.00000000000E+00  0.87667498933E+03  0.87667498934E+03  0.50400001928E-02 0.  1.
        1   -1    0    0  501    0  0.00000000000E+00  0.00000000000E+00 -0.25628662391E+04  0.25628662391E+04  0.50400001928E-02 0. -1.
    10030    2    1    2    0    0  0.00000000000E+00  0.00000000000E+00 -0.16861912498E+04  0.34395412285E+04  0.29978663965E+04 0.  0.
        1    1    3    3  502    0 -0.28460481770E+03 -0.91480600823E+03  0.47953760149E+03  0.10713665322E+04  0.50400001928E-02 0.  1.
       -1    1    3    3    0  502  0.28460481770E+03  0.91480600823E+03 -0.21657288513E+04  0.23681746963E+04  0.50400001928E-02 0. -1.
</event>
<event>
 5   0  0.9647945E-06  0.3042034E+04  0.7818609E-02  0.8231829E-01
        2   -1    0    0  501    0  0.00000000000E+00  0.00000000000E+00  0.24037165858E+04  0.24037165858E+04  0.25500000920E-02 0. -1.
       -2   -1    0    0    0  501  0.00000000000E+00  0.00000000000E+00 -0.96246481257E+03  0.96246481257E+03  0.25500000920E-02 0.  1.
    10030    2    1    2    0    0  0.00000000000E+00  0.00000000000E+00  0.14412517732E+04  0.33661813984E+04  0.30420339467E+04 0.  0.
        2    1    3    3  502    0  0.45636771307E+03 -0.14509227604E+04  0.72798986130E+03  0.16862436313E+04  0.25500000920E-02 0.  1.
       -2    1    3    3    0  502 -0.45636771307E+03  0.14509227604E+04  0.71326191194E+03  0.16799377670E+04  0.25500000920E-02 0. -1.
</event>
<event>
 5   0  0.1057036E-05  0.2971908E+04  0.7818609E-02  0.8251799E-01
       -2   -1    0    0    0  501  0.00000000000E+00  0.00000000000E+00  0.93250250050E+03  0.93250250050E+03  0.25500000920E-02 0. -1.
        2   -1    0    0  501    0  0.00000000000E+00  0.00000000000E+00 -0.23678853522E+04  0.23678853522E+04  0.25500000920E-02 0.  1.
    10030    2    1    2    0    0  0.00000000000E+00  0.00000000000E+00 -0.14353828517E+04  0.33003878527E+04  0.29719078127E+04 0.  0.
        4    1    3    3  502    0 -0.38791879879E+03 -0.14343045797E+04 -0.69701122273E+03  0.16411998292E+04  0.12699999809E+01 0.  1.
       -4    1    3    3    0  502  0.38791879879E+03  0.14343045797E+04 -0.73837162893E+03  0.16591880235E+04  0.12699999809E+01 0. -1.
</event>
<event>
 5   0  0.1028450E-05  0.3066124E+04  0.7818609E-02  0.8225097E-01
       -2   -1    0    0    0  501  0.00000000000E+00  0.00000000000E+00  0.12906509383E+04  0.12906509383E+04  0.25500000920E-02 0.  1.
        2   -1    0    0  501    0  0.00000000000E+00  0.00000000000E+00 -0.18210028955E+04  0.18210028955E+04  0.25500000920E-02 0. -1.
    10030    2    1    2    0    0  0.00000000000E+00  0.00000000000E+00 -0.53035195722E+03  0.31116538338E+04  0.30661239999E+04 0.  0.
        3    1    3    3  502    0 -0.15312596011E+04  0.36133109340E+02 -0.19926920810E+03  0.15445937314E+04  0.10100000352E+00 0. -1.
       -3    1    3    3    0  502  0.15312596011E+04 -0.36133109340E+02 -0.33108274912E+03  0.15670601024E+04  0.10100000352E+00 0.  1.
</event>
<event>
 5   0  0.3592331E-06  0.2991402E+04  0.7818609E-02  0.8246190E-01
       -1   -1    0    0    0  501  0.00000000000E+00  0.00000000000E+00  0.15319318775E+04  0.15319318775E+04  0.50400001928E-02 0. -1.
        1   -1    0    0  501    0  0.00000000000E+00  0.00000000000E+00 -0.14603273128E+04  0.14603273128E+04  0.50400001928E-02 0.  1.
    10030    2    1    2    0    0  0.00000000000E+00  0.00000000000E+00  0.71604564703E+02  0.29922591903E+04  0.29914023213E+04 0.  0.
        3    1    3    3  502    0 -0.93909038392E+03 -0.71757990807E+03  0.95274925499E+03  0.15180720756E+04  0.10100000352E+00 0. -1.
       -3    1    3    3    0  502  0.93909038392E+03  0.71757990807E+03 -0.88114469029E+03  0.14741871147E+04  0.10100000352E+00 0.  1.
</event>
<event>
 5   0  0.1089569E-05  0.1912018E+04  0.7818609E-02  0.8648897E-01
        2   -1    0    0  501    0  0.00000000000E+00  0.00000000000E+00  0.65446914821E+03  0.65446914822E+03  0.25500000920E-02 0.  1.
       -2   -1    0    0    0  501  0.00000000000E+00  0.00000000000E+00 -0.13964801451E+04  0.13964801451E+04  0.25500000920E-02 0. -1.
    10030    2    1    2    0    0  0.00000000000E+00  0.00000000000E+00 -0.74201099689E+03  0.20509492933E+04  0.19120179613E+04 0.  0.
        5    1    3    3  502    0  0.14895237738E+03 -0.92803149136E+03 -0.18366751443E+03  0.95769781536E+03  0.46999998093E+01 0.  1.
       -5    1    3    3    0  502 -0.14895237738E+03  0.92803149136E+03 -0.55834348246E+03  0.10932514780E+04  0.46999998093E+01 0. -1.
</event>
<event>
 5   0  0.9647945E-06  0.2552274E+04  0.7818609E-02  0.8384596E-01
        2   -1    0    0  501    0  0.00000000000E+00  0.00000000000E+00  0.12862164458E+04  0.12862164458E+04  0.25500000920E-02 0.  1.
       -2   -1    0    0    0  501  0.00000000000E+00  0.00000000000E+00 -0.12661367409E+04  0.12661367409E+04  0.25500000920E-02 0. -1.
    10030    2    1    2    0    0  0.00000000000E+00  0.00000000000E+00  0.20079704930E+02  0.25523531867E+04  0.25522742007E+04 0.  0.
        2    1    3    3  502    0 -0.75429541150E+03  0.95576048266E+03 -0.37218426099E+03  0.12731695850E+04  0.25500000920E-02 0. -1.
       -2    1    3    3    0  502  0.75429541150E+03 -0.95576048266E+03  0.39226396592E+03  0.12791836018E+04  0.25500000920E-02 0.  1.
</event>
<event>
 5   0  0.3592331E-06  0.2985891E+04  0.7818609E-02  0.8247771E-01
        1   -1    0    0  501    0  0.00000000000E+00  0.00000000000E+00  0.21103111128E+04  0.21103111128E+04  0.50400001928E-02 0.  1.
       -1   -1    0    0    0  501  0.00000000000E+00  0.00000000000E+00 -0.10561882409E+04  0.10561882409E+04  0.50400001928E-02 0. -1.
    10030    2    1    2    0    0  0.00000000000E+00  0.00000000000E+00  0.10541228719E+04  0.31664993537E+04  0.29858906758E+04 0.  0.
        3    1    3    3  502    0  0.11469050624E+03 -0.90328830344E+03  0.17817583260E+04  0.20009363843E+04  0.10100000352E+00 0.  1.
       -3    1    3    3    0  502 -0.11469050624E+03  0.90328830344E+03 -0.72763545414E+03  0.11655629694E+04  0.10100000352E+00 0. -1.
</event>
<event>
 5   0  0.1089569E-05  0.3116772E+04  0.7818609E-02  0.8211150E-01
       -2   -1    0    0    0  501  0.00000000000E+00  0.00000000000E+00  0.18620067823E+04  0.18620067823E+04  0.25500000920E-02 0.  1.
        2   -1    0    0  501    0  0.00000000000E+00  0.00000000000E+00 -0.13042739454E+04  0.13042739454E+04  0.25500000920E-02 0. -1.
    10030    2    1    2    0    0  0.00000000000E+00  0.00000000000E+00  0.55773283690E+03  0.31662807278E+04  0.31167720048E+04 0.  0.
        5    1    3    3  502    0 -0.80270014147E+03  0.13354892636E+04  0.25226358064E+03  0.15784543371E+04  0.46999998093E+01 0. -1.
       -5    1    3    3    0  502  0.80270014147E+03 -0.13354892636E+04  0.30546925626E+03  0.15878263906E+04  0.46999998093E+01 0.  1.
</event>
<event>
 5   0  0.3313750E-06  0.2254182E+04  0.7818609E-02  0.8496209E-01
        3   -1    0    0  501    0  0.00000000000E+00  0.00000000000E+00  0.65829127138E+03  0.65829127913E+03  0.10100000352E+00 0. -1.
       -3   -1    0    0    0  501  0.00000000000E+00  0.00000000000E+00 -0.19297442930E+04  0.19297442957E+04  0.10100000352E+00 0.  1.
    10030    2    1    2    0    0  0.00000000000E+00  0.00000000000E+00 -0.12714530216E+04  0.25880355748E+04  0.22541817474E+04 0.  0.
        5    1    3    3  502    0  0.85134309134E+03  0.52271414965E+03 -0.12348307976E+04  0.15883464137E+04  0.46999998093E+01 0.  1.
       -5    1    3    3    0  502 -0.85134309134E+03 -0.52271414965E+03 -0.36622224080E+02  0.99968916105E+03  0.46999998093E+01 0. -1.
</event>
<event>
 5   0  0.1089569E-05  0.3006775E+04  0.7818609E-02  0.8241799E-01
        2   -1    0    0  501    0  0.00000000000E+00  0.00000000000E+00  0.11631100103E+04  0.11631100103E+04  0.25500000920E-02 0. -1.
       -2   -1    0    0    0  501  0.00000000000E+00  0.00000000000E+00 -0.19432162133E+04  0.19432162133E+04  0.25500000920E-02 0.  1.
    10030    2    1    2    0    0  0.00000000000E+00  0.00000000000E+00 -0.78010620297E+03  0.31063262236E+04  0.30067751695E+04 0.  0.
        5    1    3    3  502    0 -0.11001373596E+04 -0.70408273050E+03 -0.11590897151E+04  0.17462948660E+04  0.46999998093E+01 0.  1.
       -5    1    3    3    0  502  0.11001373596E+04  0.70408273050E+03  0.37898351208E+03  0.13600313577E+04  0.46999998093E+01 0. -1.
</event>
<event>
 5   0  0.1029922E-05  0.3059758E+04  0.7818609E-02  0.8226870E-01
        2   -1    0    0  501    0  0.00000000000E+00  0.00000000000E+00  0.15176329625E+04  0.15176329625E+04  0.25500000920E-02 0. -1.
       -2   -1    0    0    0  501  0.00000000000E+00  0.00000000000E+00 -0.15422237658E+04  0.15422237658E+04  0.25500000920E-02 0.  1.
    10030    2    1    2    0    0  0.00000000000E+00  0.00000000000E+00 -0.24590803314E+02  0.30598567284E+04  0.30597579137E+04 0.  0.
        1    1    3    3  502    0 -0.12461737427E+04  0.28134472833E+03 -0.85400290866E+03  0.15366928194E+04  0.50400001928E-02 0.  1.
       -1    1    3    3    0  502  0.12461737427E+04 -0.28134472833E+03  0.82941210535E+03  0.15231639090E+04  0.50400001928E-02 0. -1.
</event>
<event>
 5   0  0.1057036E-05  0.2964243E+04  0.7818609E-02  0.8254016E-01
       -2   -1    0    0    0  501  0.00000000000E+00  0.00000000000E+00  0.14160757898E+04  0.14160757898E+04  0.25500000920E-02 0.  1.
        2   -1    0    0  501    0  0.00000000000E+00  0.00000000000E+00 -0.15512474338E+04  0.15512474338E+04  0.25500000920E-02 0. -1.
    10030    2    1    2    0    0  0.00000000000E+00  0.00000000000E+00 -0.13517164400E+03  0.29673232237E+04  0.29642428613E+04 0.  0.
        4    1    3    3  502    0 -0.12991400059E+04 -0.63394503911E+03 -0.39508210968E+03  0.14985801793E+04  0.12699999809E+01 0. -1.
       -4    1    3    3    0  502  0.12991400059E+04  0.63394503911E+03  0.25991046568E+03  0.14687430444E+04  0.12699999809E+01 0.  1.
</event>
<event>
 5   0  0.3592331E-06  0.3050552E+04  0.7818609E-02  0.8229441E-01
       -1   -1    0    0    0  501  0.00000000000E+00  0.00000000000E+00  0.17558725822E+04  0.17558725822E+04  0.50400001928E-02 0. -1.
        1   -1    0    0  501    0  0.00000000000E+00  0.00000000000E+00 -0.13249637192E+04  0.13249637192E+04  0.50400001928E-02 0.  1.
    10030    2    1    2    0    0  0.00000000000E+00  0.00000000000E+00  0.43090886303E+03  0.30808363015E+04  0.30505523874E+04 0.  0.
        3    1    3    3  502    0  0.14802126432E+04  0.29393537818E+03 -0.81937047804E+01  0.15091370456E+04  0.10100000352E+00 0. -1.
       -3    1    3    3    0  502 -0.14802126432E+04 -0.29393537818E+03  0.43910256781E+03  0.15716992558E+04  0.10100000352E+00 0.  1.
</event>
<event>
 5   0  0.3636718E-06  0.3023663E+04  0.7818609E-02  0.8237006E-01
       -1   -1    0    0    0  501  0.00000000000E+00  0.00000000000E+00  0.81704814989E+03  0.81704814990E+03  0.50400001928E-02 0. -1.
        1   -1    0    0  501    0  0.00000000000E+00  0.00000000000E+00 -0.27974300988E+04  0.27974300988E+04  0.50400001928E-02 0.  1.
    10030    2    1    2    0    0  0.00000000000E+00  0.00000000000E+00 -0.19803819489E+04  0.36144782487E+04  0.30236633984E+04 0.  0.
        4    1    3    3  502    0  0.29483687429E+03  0.14305704981E+04 -0.14565072835E+04  0.20627350320E+04  0.12699999809E+01 0.  1.
       -4    1    3    3    0  502 -0.29483687429E+03 -0.14305704981E+04 -0.52387466547E+03  0.15517432167E+04  0.12699999809E+01 0. -1.
</event>
<event>
 5   0  0.1029922E-05  0.2560871E+04  0.7818609E-02  0.8381615E-01
       -2   -1    0    0    0  501  0.00000000000E+00  0.00000000000E+00  0.11753775714E+04  0.11753775714E+04  0.25500000920E-02 0. -1.
        2   -1    0    0  501    0  0.00000000000E+00  0.00000000000E+00 -0.13948839274E+04  0.13948839274E+04  0.25500000920E-02 0.  1.
    10030    2    1    2    0    0  0.00000000000E+00  0.00000000000E+00 -0.21950635602E+03  0.25702614988E+04  0.25608711666E+04 0.  0.
        1    1    3    3  502    0 -0.35938236676E+03 -0.23415488095E+03  0.11011246400E+04  0.11817189457E+04  0.50400001928E-02 0. -1.
       -1    1    3    3    0  502  0.35938236676E+03  0.23415488095E+03 -0.13206309960E+04  0.13885425530E+04  0.50400001928E-02 0.  1.
</event>
<event>
 5   0  0.3852126E-06  0.2995613E+04  0.7818609E-02  0.8244985E-01
       -1   -1    0    0    0  501  0.00000000000E+00  0.00000000000E+00  0.11747824286E+04  0.11747824286E+04  0.50400001928E-02 0. -1.
        1   -1    0    0  501    0  0.00000000000E+00  0.00000000000E+00 -0.19096507349E+04  0.19096507349E+04  0.50400001928E-02 0.  1.
    10030    2    1    2    0    0  0.00000000000E+00  0.00000000000E+00 -0.73486830627E+03  0.30844331635E+04  0.29956128776E+04 0.  0.
        1    1    3    3  502    0 -0.71907439782E+03  0.63931191280E+01  0.98541611076E+03  0.12198990831E+04  0.50400001928E-02 0. -1.
       -1    1    3    3    0  502  0.71907439782E+03 -0.63931191280E+01 -0.17202844170E+04  0.18645340804E+04  0.50400001928E-02 0.  1.
</event>
<event>
 5   0  0.1057036E-05  0.3032877E+04  0.7818609E-02  0.8234404E-01
        2   -1    0    0  501    0  0.00000000000E+00  0.00000000000E+00  0.14535829175E+04  0.14535829175E+04  0.25500000920E-02 0.  1.
       -2   -1    0    0    0  501  0.00000000000E+00  0.00000000000E+00 -0.15820123488E+04  0.15820123489E+04  0.25500000920E-02 0. -1.
    10030    2    1    2    0    0  0.00000000000E+00  0.00000000000E+00 -0.12842943131E+03  0.30355952664E+04  0.30328772647E+04 0.  0.
        4    1    3    3  502    0  0.15114486050E+04 -0.73126845861E+02 -0.16309642750E+03  0.15219811033E+04  0.12699999809E+01 0. -1.
       -4    1    3    3    0  502 -0.15114486050E+04  0.73126845861E+02  0.34666996191E+02  0.15136141631E+04  0.12699999809E+01 0.  1.
</event>
<event>
 5   0  0.1089569E-05  0.2863858E+04  0.7818609E-02  0.8283713E-01
        2   -1    0    0  501    0  0.00000000000E+00  0.00000000000E+00  0.17186217560E+04  0.17186217560E+04  0.25500000920E-02 0. -1.
       -2   -1    0    0    0  501  0.00000000000E+00  0.00000000000E+00 -0.11930607876E+04  0.11930607876E+04  0.25500000920E-02 0.  1.
    10030    2    1    2    0    0  0.00000000000E+00  0.00000000000E+00  0.52556096840E+03  0.29116825437E+04  0.28638576961E+04 0.  0.
        5    1    3    3  502    0  0.13610914820E+04  0.69114650845E+02 -0.18393286368E+03  0.13752091644E+04  0.46999998093E+01 0.  1.
       -5    1    3    3    0  502 -0.13610914820E+04 -0.69114650845E+02  0.70949383208E+03  0.15364733793E+04  0.46999998093E+01 0. -1.
</event>
<event>
 5   0  0.3313750E-06  0.2942138E+04  0.7818609E-02  0.8260450E-01
       -4   -1    0    0    0  501  0.00000000000E+00  0.00000000000E+00  0.21421601935E+04  0.21421605700E+04  0.12699999809E+01 0.  1.
        4   -1    0    0  501    0  0.00000000000E+00  0.00000000000E+00 -0.10102147774E+04  0.10102155757E+04  0.12699999809E+01 0. -1.
    10030    2    1    2    0    0  0.00000000000E+00  0.00000000000E+00  0.11319454161E+04  0.31523761456E+04  0.29421378177E+04 0.  0.
        3    1    3    3  502    0 -0.82834935568E+03 -0.11927295805E+04  0.31406114350E+03  0.14857324522E+04  0.10100000352E+00 0.  1.
       -3    1    3    3    0  502  0.82834935568E+03  0.11927295805E+04  0.81788427263E+03  0.16666436935E+04  0.10100000352E+00 0. -1.
</event>
<event>
 5   0  0.3636718E-06  0.3077276E+04  0.7818609E-02  0.8222002E-01
       -1   -1    0    0    0  501  0.00000000000E+00  0.00000000000E+00  0.93183548160E+03  0.93183548162E+03  0.50400001928E-02 0. -1.
        1   -1    0    0  501    0  0.00000000000E+00  0.00000000000E+00 -0.25405840165E+04  0.25405840166E+04  0.50400001928E-02 0.  1.
    10030    2    1    2    0    0  0.00000000000E+00  0.00000000000E+00 -0.16087485349E+04  0.34724194982E+04  0.30772756332E+04 0.  0.
        4    1    3    3  502    0 -0.58743182895E+03  0.14220171904E+04 -0.82015882925E+03  0.17435226301E+04  0.12699999809E+01 0. -1.
       -4    1    3    3    0  502  0.58743182895E+03 -0.14220171904E+04 -0.78858970569E+03  0.17288968681E+04  0.12699999809E+01 0.  1.
</event>
<event>
 5   0  0.3636718E-06  0.2960995E+04  0.7818609E-02  0.8254958E-01
        1   -1    0    0  501    0  0.00000000000E+00  0.00000000000E+00  0.27184372431E+04  0.27184372431E+04  0.50400001928E-02 0.  1.
       -1   -1    0    0    0  501  0.00000000000E+00  0.00000000000E+00 -0.80629867082E+03  0.80629867084E+03  0.50400001928E-02 0. -1.
    10030    2    1    2    0    0  0.00000000000E+00  0.00000000000E+00  0.19121385723E+04  0.35247359139E+04  0.29609946544E+04 0.  0.
        4    1    3    3  502    0  0.95403116463E+03  0.11040981761E+04  0.12540531453E+04  0.19240216085E+04  0.12699999809E+01 0. -1.
       -4    1    3    3    0  502 -0.95403116463E+03 -0.11040981761E+04  0.65808542692E+03  0.16007143054E+04  0.12699999809E+01 0.  1.
</event>
<event>
 5   0  0.3852126E-06  0.2970510E+04  0.7818609E-02  0.8252202E-01
       -1   -1    0    0    0  501  0.00000000000E+00  0.00000000000E+00  0.21238115285E+04  0.21238115285E+04  0.50400001928E-02 0.  1.
        1   -1    0    0  501    0  0.00000000000E+00  0.00000000000E+00 -0.10386901016E+04  0.10386901016E+04  0.50400001928E-02 0. -1.
    10030    2    1    2    0    0  0.00000000000E+00  0.00000000000E+00  0.10851214269E+04  0.31625016301E+04  0.29705097288E+04 0.  0.
        1    1    3    3  502    0 -0.27922379377E+02  0.14301695152E+04  0.11695057954E+03  0.14352149454E+04  0.50400001928E-02 0. -1.
       -1    1    3    3    0  502  0.27922379377E+02 -0.14301695152E+04  0.96817084737E+03  0.17272866847E+04  0.50400001928E-02 0.  1.
</event>
<event>
 5   0  0.3313750E-06  0.3041144E+04  0.7818609E-02  0.8232079E-01
       -4   -1    0    0    0  501  0.00000000000E+00  0.00000000000E+00  0.10388433945E+04  0.10388441708E+04  0.12699999809E+01 0. -1.
        4   -1    0    0  501    0  0.00000000000E+00  0.00000000000E+00 -0.22256837844E+04  0.22256841468E+04  0.12699999809E+01 0.  1.
    10030    2    1    2    0    0  0.00000000000E+00  0.00000000000E+00 -0.11868403899E+04  0.32645283176E+04  0.30411437034E+04 0.  0.
        5    1    3    3  502    0 -0.11133686667E+04  0.28330708026E+03  0.47587375654E+03  0.12435154248E+04  0.46999998093E+01 0.  1.
       -5    1    3    3    0  502  0.11133686667E+04 -0.28330708026E+03 -0.16627141465E+04  0.20210128927E+04  0.46999998093E+01 0. -1.
</event>
<event>
 5   0  0.1029922E-05  0.2974598E+04  0.7818609E-02  0.8251022E-01
        2   -1    0    0  501    0  0.00000000000E+00  0.00000000000E+00  0.21913792061E+04  0.21913792061E+04  0.25500000920E-02 0. -1.
       -2   -1    0    0    0  501  0.00000000000E+00  0.00000000000E+00 -0.10094365148E+04  0.10094365148E+04  0.25500000920E-02 0.  1.
    10030    2    1    2    0    0  0.00000000000E+00  0.00000000000E+00  0.11819426913E+04  0.32008157209E+04  0.29745979146E+04 0.  0.
        1    1    3    3  502    0  0.43111743321E+03 -0.12647458635E+03  0.21166112877E+04  0.21637701832E+04  0.50400001928E-02 0. -1.
       -1    1    3    3    0  502 -0.43111743321E+03  0.12647458635E+03 -0.93466859638E+03  0.10370455377E+04  0.50400001928E-02 0.  1.
</event>
<event>
 5   0  0.1029922E-05  0.3044420E+04  0.7818609E-02  0.8231159E-01
       -2   -1    0    0    0  501  0.00000000000E+00  0.00000000000E+00  0.11847176020E+04  0.11847176020E+04  0.25500000920E-02 0. -1.
        2   -1    0    0  501    0  0.00000000000E+00  0.00000000000E+00 -0.19558443418E+04  0.19558443418E+04  0.25500000920E-02 0.  1.
    10030    2    1    2    0    0  0.00000000000E+00  0.00000000000E+00 -0.77112673974E+03  0.31405619438E+04  0.30444199569E+04 0.  0.
        1    1    3    3  502    0  0.24347961340E+02 -0.15187334890E+04 -0.28251384834E+03  0.15449784168E+04  0.50400001928E-02 0.  1.
       -1    1    3    3    0  502 -0.24347961340E+02  0.15187334890E+04 -0.48861289140E+03  0.15955835270E+04  0.50400001928E-02 0. -1.
</event>
<event>
 5   0  0.1029922E-05  0.2996936E+04  0.7818609E-02  0.8244606E-01
       -2   -1    0    0    0  501  0.00000000000E+00  0.00000000000E+00  0.11706107837E+04  0.11706107837E+04  0.25500000920E-02 0.  1.
        2   -1    0    0  501    0  0.00000000000E+00  0.00000000000E+00 -0.19181492490E+04  0.19181492490E+04  0.25500000920E-02 0. -1.
    10030    2    1    2    0    0  0.00000000000E+00  0.00000000000E+00 -0.74753846528E+03  0.30887600327E+04  0.29969358989E+04 0.  0.
        1    1    3    3  502    0 -0.63521001581E+03  0.13520635945E+04 -0.49501057049E+03  0.15737227178E+04  0.50400001928E-02 0.  1.
       -1    1    3    3    0  502  0.63521001581E+03 -0.13520635945E+04 -0.25252789479E+03  0.15150373148E+04  0.50400001928E-02 0. -1.
</event>
<event>
 5   0  0.3725232E-06  0.3159515E+04  0.7818609E-02  0.8199592E-01
       -1   -1    0    0    0  501  0.00000000000E+00  0.00000000000E+00  0.19492784335E+04  0.19492784335E+04  0.50400001928E-02 0.  1.
        1   -1    0    0  501    0  0.00000000000E+00  0.00000000000E+00 -0.12802857921E+04  0.12802857921E+04  0.50400001928E-02 0. -1.
    10030    2    1    2    0    0  0.00000000000E+00  0.00000000000E+00  0.66899264146E+03  0.32295642256E+04  0.31595148255E+04 0.  0.
        2    1    3    3  502    0 -0.17795806369E+03  0.11177903947E+03 -0.12659341336E+04  0.12832586866E+04  0.25500000920E-02 0. -1.
       -2    1    3    3    0  502  0.17795806369E+03 -0.11177903947E+03  0.19349267751E+04  0.19463055390E+04  0.25500000920E-02 0.  1.
</event>
<event>
 5   0  0.3896630E-06  0.2983067E+04  0.7818609E-02  0.8248583E-01
        1   -1    0    0  501    0  0.00000000000E+00  0.00000000000E+00  0.17698379289E+04  0.17698379289E+04  0.50400001928E-02 0. -1.
       -1   -1    0    0    0  501  0.00000000000E+00  0.00000000000E+00 -0.12569921967E+04  0.12569921967E+04  0.50400001928E-02 0.  1.
    10030    2    1    2    0    0  0.00000000000E+00  0.00000000000E+00  0.51284573224E+03  0.30268301256E+04  0.29830671907E+04 0.  0.
        5    1    3    3  502    0 -0.31484871150E+03  0.13375782534E+03  0.17294886690E+04  0.17630014218E+04  0.46999998093E+01 0. -1.
       -5    1    3    3    0  502  0.31484871150E+03 -0.13375782534E+03 -0.12166429368E+04  0.12638287038E+04  0.46999998093E+01 0.  1.
</event>
<event>
 5   0  0.1089569E-05  0.2987363E+04  0.7818609E-02  0.8247349E-01
       -2   -1    0    0    0  501  0.00000000000E+00  0.00000000000E+00  0.10829230385E+04  0.10829230385E+04  0.25500000920E-02 0.  1.
        2   -1    0    0  501    0  0.00000000000E+00  0.00000000000E+00 -0.20602423267E+04  0.20602423267E+04  0.25500000920E-02 0. -1.
    10030    2    1    2    0    0  0.00000000000E+00  0.00000000000E+00 -0.97731928821E+03  0.31431653652E+04  0.29873626365E+04 0.  0.
        5    1    3    3  502    0  0.24877491986E+03 -0.10625978570E+04  0.58436129055E+03  0.12379432032E+04  0.46999998093E+01 0. -1.
       -5    1    3    3    0  502 -0.24877491986E+03  0.10625978570E+04 -0.15616805788E+04  0.19052221620E+04  0.46999998093E+01 0.  1.
</event>
<event>
 5   0  0.3636718E-06  0.2961847E+04  0.7818609E-02  0.8254710E-01
        1   -1    0    0  501    0  0.00000000000E+00  0.00000000000E+00  0.14708582158E+04  0.14708582158E+04  0.50400001928E-02 0.  1.
       -1   -1    0    0    0  501  0.00000000000E+00  0.00000000000E+00 -0.14910574748E+04  0.14910574748E+04  0.50400001928E-02 0. -1.
    10030    2    1    2    0    0  0.00000000000E+00  0.00000000000E+00 -0.20199258989E+02  0.29619156906E+04  0.29618468137E+04 0.  0.
        4    1    3    3  502    0 -0.60295386885E+03  0.57278767580E+03 -0.12354825366E+04  0.14893145405E+04  0.12699999809E+01 0. -1.
       -4    1    3    3    0  502  0.60295386885E+03 -0.57278767580E+03  0.12152832776E+04  0.14726011501E+04  0.12699999809E+01 0.  1.
</event>
<event>
 5   0  0.9647945E-06  0.2979423E+04  0.7818609E-02  0.8249631E-01
       -2   -1    0    0    0  501  0.00000000000E+00  0.00000000000E+00  0.12887440487E+04  0.12887440487E+04  0.25500000920E-02 0. -1.
        2   -1    0    0  501    0  0.00000000000E+00  0.00000000000E+00 -0.17220183305E+04  0.17220183305E+04  0.25500000920E-02 0.  1.
    10030    2    1    2    0    0  0.00000000000E+00  0.00000000000E+00 -0.43327428178E+03  0.30107623792E+04  0.29794233503E+04 0.  0.
        2    1    3    3  502    0  0.34084128417E+03 -0.10261492284E+04 -0.12521527932E+04  0.16544006883E+04  0.25500000920E-02 0.  1.
       -2    1    3    3    0  502 -0.34084128417E+03  0.10261492284E+04  0.81887851144E+03  0.13563616908E+04  0.25500000920E-02 0. -1.
</event>
<event>
 5   0  0.3852126E-06  0.2423541E+04  0.7818609E-02  0.8430742E-01
       -1   -1    0    0    0  501  0.00000000000E+00  0.00000000000E+00  0.98886443561E+03  0.98886443562E+03  0.50400001928E-02 0. -1.
        1   -1    0    0  501    0  0.00000000000E+00  0.00000000000E+00 -0.14849233095E+04  0.14849233095E+04  0.50400001928E-02 0.  1.
    10030    2    1    2    0    0  0.00000000000E+00  0.00000000000E+00 -0.49605887391E+03  0.24737877451E+04  0.24235410873E+04 0.  0.
        1    1    3    3  502    0  0.97681719942E+03 -0.22834375784E+03  0.44582496453E+03  0.10977579933E+04  0.50400001928E-02 0. -1.
       -1    1    3    3    0  502 -0.97681719942E+03  0.22834375784E+03 -0.94188383844E+03  0.13760297518E+04  0.50400001928E-02 0.  1.
</event>
<event>
 5   0  0.1028450E-05  0.3005925E+04  0.7818609E-02  0.8242041E-01
        2   -1    0    0  501    0  0.00000000000E+00  0.00000000000E+00  0.13216460346E+04  0.13216460346E+04  0.25500000920E-02 0. -1.
       -2   -1    0    0    0  501  0.00000000000E+00  0.00000000000E+00 -0.17091533703E+04  0.17091533703E+04  0.25500000920E-02 0.  1.
    10030    2    1    2    0    0  0.00000000000E+00  0.00000000000E+00 -0.38750733576E+03  0.30307994049E+04  0.30059246660E+04 0.  0.
        3    1    3    3  502    0  0.77854400206E+03 -0.12590103574E+04 -0.45601751384E+03  0.15489318340E+04  0.10100000352E+00 0.  1.
       -3    1    3    3    0  502 -0.77854400206E+03  0.12590103574E+04  0.68510178083E+02  0.14818675709E+04  0.10100000352E+00 0. -1.
</event>
<event>
 5   0  0.3725232E-06  0.2994388E+04  0.7818609E-02  0.8245335E-01
       -1   -1    0    0    0  501  0.00000000000E+00  0.00000000000E+00  0.11774110931E+04  0.11774110931E+04  0.50400001928E-02 0. -1.
        1   -1    0    0  501    0  0.00000000000E+00  0.00000000000E+00 -0.19038288200E+04  0.19038288200E+04  0.50400001928E-02 0.  1.
    10030    2    1    2    0    0  0.00000000000E+00  0.00000000000E+00 -0.72641772686E+03  0.30812399131E+04  0.29943875314E+04 0.  0.
        2    1    3    3  502    0  0.13237195307E+03 -0.36096798154E+03  0.11257472155E+04  0.11895911108E+04  0.25500000920E-02 0. -1.
       -2    1    3    3    0  502 -0.13237195307E+03  0.36096798154E+03 -0.18521649423E+04  0.18916488023E+04  0.25500000920E-02 0.  1.
</event>
<event>
 5   0  0.3852126E-06  0.2920962E+04  0.7818609E-02  0.8266668E-01
       -1   -1    0    0    0  501  0.00000000000E+00  0.00000000000E+00  0.14865424948E+04  0.14865424948E+04  0.50400001928E-02 0. -1.
        1   -1    0    0  501    0  0.00000000000E+00  0.00000000000E+00 -0.14348760794E+04  0.14348760794E+04  0.50400001928E-02 0.  1.
    10030    2    1    2    0    0  0.00000000000E+00  0.00000000000E+00  0.51666415436E+02  0.29214185743E+04  0.29209616683E+04 0.  0.
        1    1    3    3  502    0 -0.82474521200E+03 -0.45205059708E+03  0.11433485156E+04  0.14804729768E+04  0.50400001928E-02 0. -1.
       -1    1    3    3    0  502  0.82474521200E+03  0.45205059708E+03 -0.10916821001E+04  0.14409455974E+04  0.50400001928E-02 0.  1.
</event>
<event>
 5   0  0.3636718E-06  0.2417791E+04  0.7818609E-02  0.8432873E-01
       -1   -1    0    0    0  501  0.00000000000E+00  0.00000000000E+00  0.92556782249E+03  0.92556782250E+03  0.50400001928E-02 0. -1.
        1   -1    0    0  501    0  0.00000000000E+00  0.00000000000E+00 -0.15789536871E+04  0.15789536871E+04  0.50400001928E-02 0.  1.
    10030    2    1    2    0    0  0.00000000000E+00  0.00000000000E+00 -0.65338586457E+03  0.25045215096E+04  0.24177913276E+04 0.  0.
        4    1    3    3  502    0  0.98271597721E+03 -0.32321997519E+03  0.32122410376E+03  0.10832305304E+04  0.12699999809E+01 0. -1.
       -4    1    3    3    0  502 -0.98271597721E+03  0.32321997519E+03 -0.97460996833E+03  0.14212909792E+04  0.12699999809E+01 0.  1.
</event>
<event>
 5   0  0.3313750E-06  0.2896483E+04  0.7818609E-02  0.8273925E-01
       -3   -1    0    0    0  501  0.00000000000E+00  0.00000000000E+00  0.15657512651E+04  0.15657512684E+04  0.10100000352E+00 0.  1.
        3   -1    0    0  501    0  0.00000000000E+00  0.00000000000E+00 -0.13395504195E+04  0.13395504233E+04  0.10100000352E+00 0. -1.
    10030    2    1    2    0    0  0.00000000000E+00  0.00000000000E+00  0.22620084559E+03  0.29053016917E+04  0.28964825387E+04 0.  0.
        5    1    3    3  502    0 -0.44191695833E+03  0.46014933012E+03  0.14171946893E+04  0.15541849573E+04  0.46999998093E+01 0.  1.
       -5    1    3    3    0  502  0.44191695833E+03 -0.46014933012E+03 -0.11909938437E+04  0.13511167344E+04  0.46999998093E+01 0. -1.
</event>
<event>
 5   0  0.3896630E-06  0.2930727E+04  0.7818609E-02  0.8263794E-01
       -1   -1    0    0    0  501  0.00000000000E+00  0.00000000000E+00  0.10889062901E+04  0.10889062901E+04  0.50400001928E-02 0. -1.
        1   -1    0    0  501    0  0.00000000000E+00  0.00000000000E+00 -0.19719698830E+04  0.19719698830E+04  0.50400001928E-02 0.  1.
    10030    2    1    2    0    0  0.00000000000E+00  0.00000000000E+00 -0.88306359294E+03  0.30608761731E+04  0.29307271517E+04 0.  0.
        5    1    3    3  502    0  0.98465647601E+01  0.40914301553E+02  0.10882671854E+04  0.10890906719E+04  0.46999998093E+01 0. -1.
       -5    1    3    3    0  502 -0.98465647601E+01 -0.40914301553E+02 -0.19713307783E+04  0.19717855011E+04  0.46999998093E+01 0.  1.
</event>
<event>
 5   0  0.3313750E-06  0.2965125E+04  0.7818609E-02  0.8253760E-01
       -4   -1    0    0    0  501  0.00000000000E+00  0.00000000000E+00  0.11373473161E+04  0.11373480251E+04  0.12699999809E+01 0.  1.
        4   -1    0    0  501    0  0.00000000000E+00  0.00000000000E+00 -0.19325585003E+04  0.19325589176E+04  0.12699999809E+01 0. -1.
    10030    2    1    2    0    0  0.00000000000E+00  0.00000000000E+00 -0.79521118424E+03  0.30699069427E+04  0.29651252603E+04 0.  0.
        5    1    3    3  502    0  0.19488466034E+03 -0.31508394480E+03 -0.18838519728E+04  0.19199422565E+04  0.46999998093E+01 0. -1.
       -5    1    3    3    0  502 -0.19488466034E+03  0.31508394480E+03  0.10886407885E+04  0.11499646862E+04  0.46999998093E+01 0.  1.
</event>
<event>
 5   0  0.1089569E-05  0.2986417E+04  0.7818609E-02  0.8247620E-01
       -2   -1    0    0    0  501  0.00000000000E+00  0.00000000000E+00  0.10521983068E+04  0.10521983068E+04  0.25500000920E-02 0.  1.
        2   -1    0    0  501    0  0.00000000000E+00  0.00000000000E+00 -0.21190606445E+04  0.21190606445E+04  0.25500000920E-02 0. -1.
    10030    2    1    2    0    0  0.00000000000E+00  0.00000000000E+00 -0.10668623378E+04  0.31712589513E+04  0.29864172663E+04 0.  0.
        5    1    3    3  502    0 -0.27886356462E+00 -0.47943606247E+02 -0.21182352274E+04  0.21187829610E+04  0.46999998093E+01 0. -1.
       -5    1    3    3    0  502  0.27886356462E+00  0.47943606247E+02  0.10513728896E+04  0.10524759903E+04  0.46999998093E+01 0.  1.
</event>
<event>
 5   0  0.1089569E-05  0.3052792E+04  0.7818609E-02  0.8228815E-01
       -2   -1    0    0    0  501  0.00000000000E+00  0.00000000000E+00  0.13567301161E+04  0.13567301161E+04  0.25500000920E-02 0.  1.
        2   -1    0    0  501    0  0.00000000000E+00  0.00000000000E+00 -0.17172789420E+04  0.17172789420E+04  0.25500000920E-02 0. -1.
    10030    2    1    2    0    0  0.00000000000E+00  0.00000000000E+00 -0.36054882586E+03  0.30740090580E+04  0.30527915476E+04 0.  0.
        5    1    3    3  502    0  0.21784233201E+03 -0.15105104495E+04 -0.15242594060E+03  0.15337381971E+04  0.46999998093E+01 0.  1.
       -5    1    3    3    0  502 -0.21784233201E+03  0.15105104495E+04 -0.20812288526E+03  0.15402708610E+04  0.46999998093E+01 0. -1.
</event>
<event>
 5   0  0.1089569E-05  0.2692099E+04  0.7818609E-02  0.8337573E-01
        2   -1    0    0  501    0  0.00000000000E+00  0.00000000000E+00  0.14225847399E+04  0.14225847399E+04  0.25500000920E-02 0. -1.
       -2   -1    0    0    0  501  0.00000000000E+00  0.00000000000E+00 -0.12736318767E+04  0.12736318767E+04  0.25500000920E-02 0.  1.
    10030    2    1    2    0    0  0.00000000000E+00  0.00000000000E+00  0.14895286323E+03  0.26962166166E+04  0.26920990116E+04 0.  0.
        5    1    3    3  502    0 -0.54543971297E+03  0.24236570072E+03  0.12827966047E+04  0.14148621249E+04  0.46999998093E+01 0. -1.
       -5    1    3    3    0  502  0.54543971297E+03 -0.24236570072E+03 -0.11338437415E+04  0.12813544917E+04  0.46999998093E+01 0.  1.
</event>
<event>
 5   0  0.3725232E-06  0.2946659E+04  0.7818609E-02  0.8259129E-01
       -1   -1    0    0    0  501  0.00000000000E+00  0.00000000000E+00  0.11849444008E+04  0.11849444008E+04  0.50400001928E-02 0.  1.
        1   -1    0    0  501    0  0.00000000000E+00  0.00000000000E+00 -0.18318998683E+04  0.18318998683E+04  0.50400001928E-02 0. -1.
    10030    2    1    2    0    0  0.00000000000E+00  0.00000000000E+00 -0.64695546754E+03  0.30168442691E+04  0.29466587802E+04 0.  0.
        2    1    3    3  502    0  0.10040872658E+04  0.20798771387E+03  0.75966695057E+03  0.12761441934E+04  0.25500000920E-02 0.  1.
       -2    1    3    3    0  502 -0.10040872658E+04 -0.20798771387E+03 -0.14066224181E+04  0.17407000757E+04  0.25500000920E-02 0. -1.
</event>
<event>
 5   0  0.1028450E-05  0.2974711E+04  0.7818609E-02  0.8250989E-01
       -2   -1    0    0    0  501  0.00000000000E+00  0.00000000000E+00  0.81799701150E+03  0.81799701150E+03  0.25500000920E-02 0. -1.
        2   -1    0    0  501    0  0.00000000000E+00  0.00000000000E+00 -0.27044424634E+04  0.27044424634E+04  0.25500000920E-02 0.  1.
    10030    2    1    2    0    0  0.00000000000E+00  0.00000000000E+00 -0.18864454520E+04  0.35224394750E+04  0.29747106433E+04 0.  0.
        3    1    3    3  502    0 -0.54727177008E+03  0.13821949897E+04 -0.88697397130E+03  0.17310956691E+04  0.10100000352E+00 0. -1.
       -3    1    3    3    0  502  0.54727177008E+03 -0.13821949897E+04 -0.99947148065E+03  0.17913438058E+04  0.10100000352E+00 0.  1.
</event>
<event>
 5   0  0.9647945E-06  0.2304920E+04  0.7818609E-02  0.8475984E-01
        2   -1    0    0  501    0  0.00000000000E+00  0.00000000000E+00  0.14454458936E+04  0.14454458936E+04  0.25500000920E-02 0. -1.
       -2   -1    0    0    0  501  0.00000000000E+00  0.00000000000E+00 -0.91886114682E+03  0.91886114682E+03  0.25500000920E-02 0.  1.
    10030    2    1    2    0    0  0.00000000000E+00  0.00000000000E+00  0.52658474678E+03  0.23643070404E+04  0.23049200172E+04 0.  0.
        2    1    3    3  502    0  0.20025894514E+03  0.28265699190E+03 -0.86419379322E+03  0.93103680509E+03  0.25500000920E-02 0.  1.
       -2    1    3    3    0  502 -0.20025894514E+03 -0.28265699190E+03  0.13907785400E+04  0.14332702353E+04  0.25500000920E-02 0. -1.
</event>
<event>
 5   0  0.1028450E-05  0.2071215E+04  0.7818609E-02  0.8574030E-01
        2   -1    0    0  501    0  0.00000000000E+00  0.00000000000E+00  0.21309373416E+04  0.21309373416E+04  0.25500000920E-02 0.  1.
       -2   -1    0    0    0  501  0.00000000000E+00  0.00000000000E+00 -0.50329158546E+03  0.50329158546E+03  0.25500000920E-02 0. -1.
    10030    2    1    2    0    0  0.00000000000E+00  0.00000000000E+00  0.16276457562E+04  0.26342289271E+04  0.20712149412E+04 0.  0.
        3    1    3    3  502    0  0.73584712182E+03  0.44341547604E+03  0.78364769080E+02  0.86268726565E+03  0.10100000352E+00 0. -1.
       -3    1    3    3    0  502 -0.73584712182E+03 -0.44341547604E+03  0.15492809871E+04  0.17715416615E+04  0.10100000352E+00 0.  1.
</event>
<event>
 5   0  0.3725232E-06  0.2903669E+04  0.7818609E-02  0.8271787E-01
       -1   -1    0    0    0  501  0.00000000000E+00  0.00000000000E+00  0.12816700996E+04  0.12816700996E+04  0.50400001928E-02 0. -1.
        1   -1    0    0  501    0  0.00000000000E+00  0.00000000000E+00 -0.16445912535E+04  0.16445912535E+04  0.50400001928E-02 0.  1.
    10030    2    1    2    0    0  0.00000000000E+00  0.00000000000E+00 -0.36292115390E+03  0.29262613531E+04  0.29036690140E+04 0.  0.
        2    1    3    3  502    0 -0.49799681337E+03  0.13632208087E+04 -0.21985736437E+03  0.14678927277E+04  0.25500000920E-02 0. -1.
       -2    1    3    3    0  502  0.49799681337E+03 -0.13632208087E+04 -0.14306378953E+03  0.14583686253E+04  0.25500000920E-02 0.  1.
</event>
<event>
 5   0  0.9647945E-06  0.2342353E+04  0.7818609E-02  0.8461407E-01
       -2   -1    0    0    0  501  0.00000000000E+00  0.00000000000E+00  0.67301707207E+03  0.67301707208E+03  0.25500000920E-02 0.  1.
        2   -1    0    0  501    0  0.00000000000E+00  0.00000000000E+00 -0.20380677872E+04  0.20380677872E+04  0.25500000920E-02 0. -1.
    10030    2    1    2    0    0  0.00000000000E+00  0.00000000000E+00 -0.13650507151E+04  0.27110848593E+04  0.23423530177E+04 0.  0.
        2    1    3    3  502    0  0.65382225682E+02 -0.61557626337E+03  0.46818789533E+03  0.77615003498E+03  0.25500000920E-02 0.  1.
       -2    1    3    3    0  502 -0.65382225682E+02  0.61557626337E+03 -0.18332386104E+04  0.19349348243E+04  0.25500000920E-02 0. -1.
</event>
<event>
 5   0  0.3636718E-06  0.2827967E+04  0.7818609E-02  0.8294638E-01
       -1   -1    0    0    0  501  0.00000000000E+00  0.00000000000E+00  0.13142852579E+04  0.13142852579E+04  0.50400001928E-02 0. -1.
        1   -1    0    0  501    0  0.00000000000E+00  0.00000000000E+00 -0.15212444526E+04  0.15212444526E+04  0.50400001928E-02 0.  1.
    10030    2    1    2    0    0  0.00000000000E+00  0.00000000000E+00 -0.20695919468E+03  0.28355297105E+04  0.28279668723E+04 0.  0.
        4    1    3    3  502    0 -0.16030083915E+03  0.58706612653E+03 -0.13832175004E+04  0.15111701632E+04  0.12699999809E+01 0.  1.
       -4    1    3    3    0  502  0.16030083915E+03 -0.58706612653E+03  0.11762583057E+04  0.13243595473E+04  0.12699999809E+01 0. -1.
</event>
<event>
 5   0  0.3636718E-06  0.2341185E+04  0.7818609E-02  0.8461857E-01
        1   -1    0    0  501    0  0.00000000000E+00  0.00000000000E+00  0.15794800180E+04  0.15794800181E+04  0.50400001928E-02 0. -1.
       -1   -1    0    0    0  501  0.00000000000E+00  0.00000000000E+00 -0.86755567917E+03  0.86755567919E+03  0.50400001928E-02 0.  1.
    10030    2    1    2    0    0  0.00000000000E+00  0.00000000000E+00  0.71192433888E+03  0.24470356972E+04  0.23411850502E+04 0.  0.
        4    1    3    3  502    0 -0.84428042364E+03 -0.32638409027E+03 -0.41985673221E+03  0.99780624201E+03  0.12699999809E+01 0.  1.
       -4    1    3    3    0  502  0.84428042364E+03  0.32638409027E+03  0.11317810711E+04  0.14492294552E+04  0.12699999809E+01 0. -1.
</event>
<event>
 5   0  0.1057036E-05  0.2783916E+04  0.7818609E-02  0.8308279E-01
        2   -1    0    0  501    0  0.00000000000E+00  0.00000000000E+00  0.18401508708E+04  0.18401508708E+04  0.25500000920E-02 0. -1.
       -2   -1    0    0    0  501  0.00000000000E+00  0.00000000000E+00 -0.10529286103E+04  0.10529286103E+04  0.25500000920E-02 0.  1.
    10030    2    1    2    0    0  0.00000000000E+00  0.00000000000E+00  0.78722226053E+03  0.28930794811E+04  0.27839163056E+04 0.  0.
        4    1    3    3  502    0 -0.11758456103E+04  0.59333520461E+03 -0.74480175612E+02  0.13191696153E+04  0.12699999809E+01 0. -1.
       -4    1    3    3    0  502  0.11758456103E+04 -0.59333520461E+03  0.86170243615E+03  0.15739098658E+04  0.12699999809E+01 0.  1.
</event>
<event>
 5   0  0.3896630E-06  0.3026004E+04  0.7818609E-02  0.8236344E-01
       -1   -1    0    0    0  501  0.00000000000E+00  0.00000000000E+00  0.14724518484E+04  0.14724518484E+04  0.50400001928E-02 0. -1.
        1   -1    0    0  501    0  0.00000000000E+00  0.00000000000E+00 -0.15546693297E+04  0.15546693298E+04  0.50400001928E-02 0.  1.
    10030    2    1    2    0    0  0.00000000000E+00  0.00000000000E+00 -0.82217481339E+02  0.30271211782E+04  0.30260044470E+04 0.  0.
        5    1    3    3  502    0  0.66575343788E+03  0.11209294733E+03  0.13134076320E+04  0.14767715350E+04  0.46999998093E+01 0. -1.
       -5    1    3    3    0  502 -0.66575343788E+03 -0.11209294733E+03 -0.13956251134E+04  0.15503496431E+04  0.46999998093E+01 0.  1.
</event>
<event>
 5   0  0.3725232E-06  0.3027038E+04  0.7818609E-02  0.8236052E-01
        1   -1    0    0  501    0  0.00000000000E+00  0.00000000000E+00  0.19179732250E+04  0.19179732250E+04  0.50400001928E-02 0.  1.
       -1   -1    0    0    0  501  0.00000000000E+00  0.00000000000E+00 -0.11943544144E+04  0.11943544144E+04  0.50400001928E-02 0. -1.
    10030    2    1    2    0    0  0.00000000000E+00  0.00000000000E+00  0.72361881058E+03  0.31123276394E+04  0.30270380163E+04 0.  0.
        2    1    3    3  502    0 -0.13910842014E+04  0.46201223682E+03  0.74948658134E+03  0.16462990913E+04  0.25500000920E-02 0. -1.
       -2    1    3    3    0  502  0.13910842014E+04 -0.46201223682E+03 -0.25867770758E+02  0.14660285481E+04  0.25500000920E-02 0.  1.
</event>
<event>
 5   0  0.1028450E-05  0.2931049E+04  0.7818609E-02  0.8263699E-01
       -2   -1    0    0    0  501  0.00000000000E+00  0.00000000000E+00  0.14534349861E+04  0.14534349861E+04  0.25500000920E-02 0.  1.
        2   -1    0    0  501    0  0.00000000000E+00  0.00000000000E+00 -0.14777149123E+04  0.14777149123E+04  0.25500000920E-02 0. -1.
    10030    2    1    2    0    0  0.00000000000E+00  0.00000000000E+00 -0.24279926190E+02  0.29311498983E+04  0.29310493363E+04 0.  0.
        3    1    3    3  502    0 -0.61516846842E+03 -0.13301379130E+04 -0.20104570359E+02  0.14656409233E+04  0.10100000352E+00 0.  1.
       -3    1    3    3    0  502  0.61516846842E+03  0.13301379130E+04 -0.41753558305E+01  0.14655089750E+04  0.10100000352E+00 0. -1.
</event>
<event>
 5   0  0.1028450E-05  0.2981222E+04  0.7818609E-02  0.8249114E-01
       -2   -1    0    0    0  501  0.00000000000E+00  0.00000000000E+00  0.14917425459E+04  0.14917425459E+04  0.25500000920E-02 0. -1.
        2   -1    0    0  501    0  0.00000000000E+00  0.00000000000E+00 -0.14894800913E+04  0.14894800913E+04  0.25500000920E-02 0.  1.
    10030    2    1    2    0    0  0.00000000000E+00  0.00000000000E+00  0.22624545785E+01  0.29812226371E+04  0.29812217787E+04 0.  0.
        3    1    3    3  502    0  0.24331954276E+03  0.11235103243E+04 -0.94778472427E+03  0.14898911848E+04  0.10100000352E+00 0.  1.
       -3    1    3    3    0  502 -0.24331954276E+03 -0.11235103243E+04  0.95004717885E+03  0.14913314524E+04  0.10100000352E+00 0. -1.
</event>
<event>
 5   0  0.9647945E-06  0.2998299E+04  0.7818609E-02  0.8244217E-01
       -2   -1    0    0    0  501  0.00000000000E+00  0.00000000000E+00  0.10527110433E+04  0.10527110433E+04  0.25500000920E-02 0. -1.
        2   -1    0    0  501    0  0.00000000000E+00  0.00000000000E+00 -0.21349160327E+04  0.21349160327E+04  0.25500000920E-02 0.  1.
    10030    2    1    2    0    0  0.00000000000E+00  0.00000000000E+00 -0.10822049894E+04  0.31876270760E+04  0.29982993073E+04 0.  0.
        2    1    3    3  502    0 -0.14140049790E+04 -0.46661743920E+03 -0.35601822654E+03  0.15309771040E+04  0.25500000920E-02 0. -1.
       -2    1    3    3    0  502  0.14140049790E+04  0.46661743920E+03 -0.72618676282E+03  0.16566499720E+04  0.25500000920E-02 0.  1.
</event>
<event>
 5   0  0.3852126E-06  0.2977804E+04  0.7818609E-02  0.8250098E-01
       -1   -1    0    0    0  501  0.00000000000E+00  0.00000000000E+00  0.14452848294E+04  0.14452848295E+04  0.50400001928E-02 0.  1.
        1   -1    0    0  501    0  0.00000000000E+00  0.00000000000E+00 -0.15338358430E+04  0.15338358430E+04  0.50400001928E-02 0. -1.
    10030    2    1    2    0    0  0.00000000000E+00  0.00000000000E+00 -0.88551013528E+02  0.29791206724E+04  0.29778043419E+04 0.  0.
        1    1    3    3  502    0 -0.23223511248E+03 -0.16830511748E+03 -0.15059380854E+04  0.15330066135E+04  0.50400001928E-02 0. -1.
       -1    1    3    3    0  502  0.23223511248E+03  0.16830511748E+03  0.14173870718E+04  0.14461140589E+04  0.50400001928E-02 0.  1.
</event>
<event>
 5   0  0.1057036E-05  0.2989233E+04  0.7818609E-02  0.8246812E-01
        2   -1    0    0  501    0  0.00000000000E+00  0.00000000000E+00  0.18195263816E+04  0.18195263816E+04  0.25500000920E-02 0.  1.
       -2   -1    0    0    0  501  0.00000000000E+00  0.00000000000E+00 -0.12277250921E+04  0.12277250921E+04  0.25500000920E-02 0. -1.
    10030    2    1    2    0    0  0.00000000000E+00  0.00000000000E+00  0.59180128953E+03  0.30472514737E+04  0.29892328076E+04 0.  0.
        4    1    3    3  502    0 -0.13650811870E+03 -0.14864527518E+04  0.37286659326E+03  0.15385731569E+04  0.12699999809E+01 0.  1.
       -4    1    3    3    0  502  0.13650811870E+03  0.14864527518E+04  0.21893469627E+03  0.15086783169E+04  0.12699999809E+01 0. -1.
</event>
<event>
 5   0  0.3592331E-06  0.3035217E+04  0.7818609E-02  0.8233745E-01
       -1   -1    0    0    0  501  0.00000000000E+00  0.00000000000E+00  0.12587519394E+04  0.12587519394E+04  0.50400001928E-02 0.  1.
        1   -1    0    0  501    0  0.00000000000E+00  0.00000000000E+00 -0.18296974623E+04  0.18296974623E+04  0.50400001928E-02 0. -1.
    10030    2    1    2    0    0  0.00000000000E+00  0.00000000000E+00 -0.57094552294E+03  0.30884494017E+04  0.30352167825E+04 0.  0.
        3    1    3    3  502    0  0.10389551624E+04  0.30010238417E+03 -0.13688744196E+04  0.17445075113E+04  0.10100000352E+00 0. -1.
       -3    1    3    3    0  502 -0.10389551624E+04 -0.30010238417E+03  0.79792889662E+03  0.13439418904E+04  0.10100000352E+00 0.  1.
</event>
<event>
 5   0  0.1028450E-05  0.3000051E+04  0.7818609E-02  0.8243716E-01
        2   -1    0    0  501    0  0.00000000000E+00  0.00000000000E+00  0.20274532281E+04  0.20274532281E+04  0.25500000920E-02 0. -1.
       -2   -1    0    0    0  501  0.00000000000E+00  0.00000000000E+00 -0.11098046432E+04  0.11098046432E+04  0.25500000920E-02 0.  1.
    10030    2    1    2    0    0  0.00000000000E+00  0.00000000000E+00  0.91764858495E+03  0.31372578713E+04  0.30000513372E+04 0.  0.
        3    1    3    3  502    0  0.12364012703E+04  0.24824445811E+03  0.13082310300E+04  0.18170805844E+04  0.10100000352E+00 0. -1.
       -3    1    3    3    0  502 -0.12364012703E+04 -0.24824445811E+03 -0.39058244501E+03  0.13201772869E+04  0.10100000352E+00 0.  1.
</event>
<event>
 5   0  0.1089569E-05  0.2885667E+04  0.7818609E-02  0.8277155E-01
        2   -1    0    0  501    0  0.00000000000E+00  0.00000000000E+00  0.11621291595E+04  0.11621291595E+04  0.25500000920E-02 0. -1.
       -2   -1    0    0    0  501  0.00000000000E+00  0.00000000000E+00 -0.17913396429E+04  0.17913396429E+04  0.25500000920E-02 0.  1.
    10030    2    1    2    0    0  0.00000000000E+00  0.00000000000E+00 -0.62921048335E+03  0.29534688024E+04  0.28856666707E+04 0.  0.
        5    1    3    3  502    0 -0.87182306053E+02  0.48461608203E+03  0.10734655556E+04  0.11810181585E+04  0.46999998093E+01 0. -1.
       -5    1    3    3    0  502  0.87182306053E+02 -0.48461608203E+03 -0.17026760390E+04  0.17724506439E+04  0.46999998093E+01 0.  1.
</event>
<event>
 5   0  0.3852126E-06  0.3000159E+04  0.7818609E-02  0.8243686E-01
        1   -1    0    0  501    0  0.00000000000E+00  0.00000000000E+00  0.19412445272E+04  0.19412445272E+04  0.50400001928E-02 0. -1.
       -1   -1    0    0    0  501  0.00000000000E+00  0.00000000000E+00 -0.11591730060E+04  0.11591730061E+04  0.50400001928E-02 0.  1.
    10030    2    1    2    0    0  0.00000000000E+00  0.00000000000E+00  0.78207152112E+03  0.31004175332E+04  0.30001588318E+04 0.  0.
        1    1    3    3  502    0  0.71904518929E+03 -0.92083635772E+03 -0.58129598636E+03  0.13049408438E+04  0.50400001928E-02 0.  1.
       -1    1    3    3    0  502 -0.71904518929E+03  0.92083635772E+03  0.13633675075E+04  0.17954766895E+04  0.50400001928E-02 0. -1.
</event>
<event>
 5   0  0.3852126E-06  0.2989194E+04  0.7818609E-02  0.8246823E-01
        1   -1    0    0  501    0  0.00000000000E+00  0.00000000000E+00  0.14895080477E+04  0.14895080477E+04  0.50400001928E-02 0. -1.
       -1   -1    0    0    0  501  0.00000000000E+00  0.00000000000E+00 -0.14997036915E+04  0.14997036915E+04  0.50400001928E-02 0.  1.
    10030    2    1    2    0    0  0.00000000000E+00  0.00000000000E+00 -0.10195643767E+02  0.29892117392E+04  0.29891943515E+04 0.  0.
        1    1    3    3  502    0 -0.19986127030E+03 -0.10160380505E+04 -0.10828530740E+04  0.14982818918E+04  0.50400001928E-02 0.  1.
       -1    1    3    3    0  502  0.19986127030E+03  0.10160380505E+04  0.10726574302E+04  0.14909298475E+04  0.50400001928E-02 0. -1.
</event>
<event>
 5   0  0.1029922E-05  0.3132109E+04  0.7818609E-02  0.8206981E-01
        2   -1    0    0  501    0  0.00000000000E+00  0.00000000000E+00  0.17160000329E+04  0.17160000329E+04  0.25500000920E-02 0.  1.
       -2   -1    0    0    0  501  0.00000000000E+00  0.00000000000E+00 -0.14292110025E+04  0.14292110025E+04  0.25500000920E-02 0. -1.
    10030    2    1    2    0    0  0.00000000000E+00  0.00000000000E+00  0.28678903039E+03  0.31452110355E+04  0.31321086363E+04 0.  0.
        1    1    3    3  502    0  0.13265747514E+04  0.56491454167E+03  0.75717734032E+03  0.16285719312E+04  0.50400001928E-02 0.  1.
       -1    1    3    3    0  502 -0.13265747514E+04 -0.56491454167E+03 -0.47038830993E+03  0.15166391043E+04  0.50400001928E-02 0. -1.
</event>
<event>
 5   0  0.3636718E-06  0.2752361E+04  0.7818609E-02  0.8318213E-01
       -1   -1    0    0    0  501  0.00000000000E+00  0.00000000000E+00  0.80467286826E+03  0.80467286827E+03  0.50400001928E-02 0.  1.
        1   -1    0    0  501    0  0.00000000000E+00  0.00000000000E+00 -0.23535937641E+04  0.23535937641E+04  0.50400001928E-02 0. -1.
    10030    2    1    2    0    0  0.00000000000E+00  0.00000000000E+00 -0.15489208958E+04  0.31582666324E+04  0.27523612008E+04 0.  0.
        4    1    3    3  502    0  0.54651182116E+03 -0.40748867316E+03 -0.21462331510E+04  0.22518970982E+04  0.12699999809E+01 0.  1.
       -4    1    3    3    0  502 -0.54651182116E+03  0.40748867316E+03  0.59731225518E+03  0.90636953419E+03  0.12699999809E+01 0. -1.
</event>
<event>
 5   0  0.1089569E-05  0.2898346E+04  0.7818609E-02  0.8273370E-01
       -2   -1    0    0    0  501  0.00000000000E+00  0.00000000000E+00  0.14138709835E+04  0.14138709835E+04  0.25500000920E-02 0. -1.
        2   -1    0    0  501    0  0.00000000000E+00  0.00000000000E+00 -0.14853566682E+04  0.14853566682E+04  0.25500000920E-02 0.  1.
    10030    2    1    2    0    0  0.00000000000E+00  0.00000000000E+00 -0.71485684667E+02  0.28992276517E+04  0.28983462135E+04 0.  0.
        5    1    3    3  502    0  0.89741471763E+03 -0.98039848562E+03  0.54196741613E+03  0.14353693379E+04  0.46999998093E+01 0. -1.
       -5    1    3    3    0  502 -0.89741471763E+03  0.98039848562E+03 -0.61345310080E+03  0.14638583138E+04  0.46999998093E+01 0.  1.
</event>
<event>
 5   0  0.3725232E-06  0.3047676E+04  0.7818609E-02  0.8230246E-01
        1   -1    0    0  501    0  0.00000000000E+00  0.00000000000E+00  0.18713122769E+04  0.18713122770E+04  0.50400001928E-02 0.  1.
       -1   -1    0    0    0  501  0.00000000000E+00  0.00000000000E+00 -0.12408845134E+04  0.12408845134E+04  0.50400001928E-02 0. -1.
    10030    2    1    2    0    0  0.00000000000E+00  0.00000000000E+00  0.63042776358E+03  0.31121967903E+04  0.30476761141E+04 0.  0.
        2    1    3    3  502    0 -0.10625315647E+04 -0.50222208001E+03 -0.67531202267E+03  0.13554507264E+04  0.25500000920E-02 0. -1.
       -2    1    3    3    0  502  0.10625315647E+04  0.50222208001E+03  0.13057397862E+04  0.17567460639E+04  0.25500000920E-02 0.  1.
</event>
<event>
 5   0  0.3896630E-06  0.2353669E+04  0.7818609E-02  0.8457056E-01
        1   -1    0    0  501    0  0.00000000000E+00  0.00000000000E+00  0.85098006422E+03  0.85098006424E+03  0.50400001928E-02 0. -1.
       -1   -1    0    0    0  501  0.00000000000E+00  0.00000000000E+00 -0.16274643176E+04  0.16274643176E+04  0.50400001928E-02 0.  1.
    10030    2    1    2    0    0  0.00000000000E+00  0.00000000000E+00 -0.77648425342E+03  0.24784443819E+04  0.23536692117E+04 0.  0.
        5    1    3    3  502    0  0.96917716031E+03  0.31186389659E+03  0.23326231984E+03  0.10445079501E+04  0.46999998093E+01 0. -1.
       -5    1    3    3    0  502 -0.96917716031E+03 -0.31186389659E+03 -0.10097465733E+04  0.14339364317E+04  0.46999998093E+01 0.  1.
</event>
<event>
 5   0  0.3592331E-06  0.1930052E+04  0.7818609E-02  0.8640040E-01
       -1   -1    0    0    0  501  0.00000000000E+00  0.00000000000E+00  0.90190906169E+03  0.90190906171E+03  0.50400001928E-02 0.  1.
        1   -1    0    0  501    0  0.00000000000E+00  0.00000000000E+00 -0.10325602266E+04  0.10325602266E+04  0.50400001928E-02 0. -1.
    10030    2    1    2    0    0  0.00000000000E+00  0.00000000000E+00 -0.13065116492E+03  0.19344692883E+04  0.19300522533E+04 0.  0.
        3    1    3    3  502    0 -0.60062603024E+03  0.90633544943E+02 -0.81691459687E+03  0.10179958430E+04  0.10100000352E+00 0. -1.
       -3    1    3    3    0  502  0.60062603024E+03 -0.90633544943E+02  0.68626343195E+03  0.91647344528E+03  0.10100000352E+00 0.  1.
</event>
<event>
 5   0  0.1089569E-05  0.2972007E+04  0.7818609E-02  0.8251770E-01
       -2   -1    0    0    0  501  0.00000000000E+00  0.00000000000E+00  0.14919321771E+04  0.14919321771E+04  0.25500000920E-02 0.  1.
        2   -1    0    0  501    0  0.00000000000E+00  0.00000000000E+00 -0.14800984034E+04  0.14800984034E+04  0.25500000920E-02 0. -1.
    10030    2    1    2    0    0  0.00000000000E+00  0.00000000000E+00  0.11833773686E+02  0.29720305804E+04  0.29720070210E+04 0.  0.
        5    1    3    3  502    0  0.10041470227E+03 -0.63723240463E+03 -0.13327632485E+04  0.14806850497E+04  0.46999998093E+01 0. -1.
       -5    1    3    3    0  502 -0.10041470227E+03  0.63723240463E+03  0.13445970222E+04  0.14913455307E+04  0.46999998093E+01 0.  1.
</event>
<event>
 5   0  0.3725232E-06  0.3018081E+04  0.7818609E-02  0.8238587E-01
       -1   -1    0    0    0  501  0.00000000000E+00  0.00000000000E+00  0.18230918322E+04  0.18230918322E+04  0.50400001928E-02 0.  1.
        1   -1    0    0  501    0  0.00000000000E+00  0.00000000000E+00 -0.12490885411E+04  0.12490885411E+04  0.50400001928E-02 0. -1.
    10030    2    1    2    0    0  0.00000000000E+00  0.00000000000E+00  0.57400329111E+03  0.30721803734E+04  0.30180809247E+04 0.  0.
        2    1    3    3  502    0  0.33492397496E+03 -0.14087058811E+04 -0.14555878857E+03  0.14552710021E+04  0.25500000920E-02 0.  1.
       -2    1    3    3    0  502 -0.33492397496E+03  0.14087058811E+04  0.71956207968E+03  0.16169093713E+04  0.25500000920E-02 0. -1.
</event>
<event>
 5   0  0.3592331E-06  0.3008325E+04  0.7818609E-02  0.8241358E-01
       -1   -1    0    0    0  501  0.00000000000E+00  0.00000000000E+00  0.90118937891E+03  0.90118937892E+03  0.50400001928E-02 0.  1.
        1   -1    0    0  501    0  0.00000000000E+00  0.00000000000E+00 -0.25105756315E+04  0.25105756315E+04  0.50400001928E-02 0. -1.
    10030    2    1    2    0    0  0.00000000000E+00  0.00000000000E+00 -0.16093862526E+04  0.34117650105E+04  0.30083245132E+04 0.  0.
        3    1    3    3  502    0 -0.22720398909E+03 -0.13862084237E+03 -0.24836582787E+04  0.24978782689E+04  0.10100000352E+00 0. -1.
       -3    1    3    3    0  502  0.22720398909E+03  0.13862084237E+03  0.87427202609E+03  0.91388674156E+03  0.10100000352E+00 0.  1.
</event>
<event>
 5   0  0.1028450E-05  0.3004563E+04  0.7818609E-02  0.8242429E-01
       -2   -1    0    0    0  501  0.00000000000E+00  0.00000000000E+00  0.13965160251E+04  0.13965160251E+04  0.25500000920E-02 0. -1.
        2   -1    0    0  501    0  0.00000000000E+00  0.00000000000E+00 -0.16160571587E+04  0.16160571587E+04  0.25500000920E-02 0.  1.
    10030    2    1    2    0    0  0.00000000000E+00  0.00000000000E+00 -0.21954113360E+03  0.30125731837E+04  0.30045630095E+04 0.  0.
        3    1    3    3  502    0 -0.12018980632E+04  0.82998451667E+03  0.24247280312E+03  0.14806168723E+04  0.10100000352E+00 0. -1.
       -3    1    3    3    0  502  0.12018980632E+04 -0.82998451667E+03 -0.46201393673E+03  0.15319563114E+04  0.10100000352E+00 0.  1.
</event>
<event>
 5   0  0.3313750E-06  0.2901441E+04  0.7818609E-02  0.8272449E-01
        4   -1    0    0  501    0  0.00000000000E+00  0.00000000000E+00  0.16045896871E+04  0.16045901897E+04  0.12699999809E+01 0. -1.
       -4   -1    0    0    0  501  0.00000000000E+00  0.00000000000E+00 -0.13116048533E+04  0.13116054682E+04  0.12699999809E+01 0.  1.
    10030    2    1    2    0    0  0.00000000000E+00  0.00000000000E+00  0.29298483381E+03  0.29161956579E+04  0.29014405047E+04 0.  0.
        5    1    3    3  502    0 -0.12237410024E+02  0.42725779427E+03  0.15398570662E+04  0.15980866219E+04  0.46999998093E+01 0. -1.
       -5    1    3    3    0  502  0.12237410024E+02 -0.42725779427E+03 -0.12468722324E+04  0.13181090360E+04  0.46999998093E+01 0.  1.
</event>
<event>
 5   0  0.1029922E-05  0.2907803E+04  0.7818609E-02  0.8270560E-01
        2   -1    0    0  501    0  0.00000000000E+00  0.00000000000E+00  0.11572834758E+04  0.11572834758E+04  0.25500000920E-02 0.  1.
       -2   -1    0    0    0  501  0.00000000000E+00  0.00000000000E+00 -0.18265444913E+04  0.18265444913E+04  0.25500000920E-02 0. -1.
    10030    2    1    2    0    0  0.00000000000E+00  0.00000000000E+00 -0.66926101553E+03  0.29838279671E+04  0.29078031279E+04 0.  0.
        1    1    3    3  502    0 -0.11226836175E+04 -0.59774599125E+03 -0.10573973182E+04  0.16540277699E+04  0.50400001928E-02 0. -1.
       -1    1    3    3    0  502  0.11226836175E+04  0.59774599125E+03  0.38813630266E+03  0.13298001972E+04  0.50400001928E-02 0.  1.
</event>
<event>
 5   0  0.3636718E-06  0.2999764E+04  0.7818609E-02  0.8243798E-01
        1   -1    0    0  501    0  0.00000000000E+00  0.00000000000E+00  0.18843651658E+04  0.18843651658E+04  0.50400001928E-02 0.  1.
       -1   -1    0    0    0  501  0.00000000000E+00  0.00000000000E+00 -0.11938479685E+04  0.11938479685E+04  0.50400001928E-02 0. -1.
    10030    2    1    2    0    0  0.00000000000E+00  0.00000000000E+00  0.69051719727E+03  0.30782131343E+04  0.29997636741E+04 0.  0.
        4    1    3    3  502    0  0.74486355687E+03 -0.12789978628E+04  0.59448184652E+03  0.15950133323E+04  0.12699999809E+01 0.  1.
       -4    1    3    3    0  502 -0.74486355687E+03  0.12789978628E+04  0.96035350747E+02  0.14831998021E+04  0.12699999809E+01 0. -1.
</event>
<event>
 5   0  0.3896630E-06  0.2974995E+04  0.7818609E-02  0.8250907E-01
       -1   -1    0    0    0  501  0.00000000000E+00  0.00000000000E+00  0.12057704631E+04  0.12057704631E+04  0.50400001928E-02 0.  1.
        1   -1    0    0  501    0  0.00000000000E+00  0.00000000000E+00 -0.18350499872E+04  0.18350499872E+04  0.50400001928E-02 0. -1.
    10030    2    1    2    0    0  0.00000000000E+00  0.00000000000E+00 -0.62927952413E+03  0.30408204503E+04  0.29749951750E+04 0.  0.
        5    1    3    3  502    0 -0.10593607219E+04  0.45641911321E+03  0.64532307757E+03  0.13217516826E+04  0.46999998093E+01 0.  1.
       -5    1    3    3    0  502  0.10593607219E+04 -0.45641911321E+03 -0.12746026017E+04  0.17190687677E+04  0.46999998093E+01 0. -1.
</event>
<event>
 5   0  0.3592331E-06  0.2993357E+04  0.7818609E-02  0.8245630E-01
        1   -1    0    0  501    0  0.00000000000E+00  0.00000000000E+00  0.18023226190E+04  0.18023226190E+04  0.50400001928E-02 0.  1.
       -1   -1    0    0    0  501  0.00000000000E+00  0.00000000000E+00 -0.12428667589E+04  0.12428667590E+04  0.50400001928E-02 0. -1.
    10030    2    1    2    0    0  0.00000000000E+00  0.00000000000E+00  0.55945586002E+03  0.30451893779E+04  0.29933572270E+04 0.  0.
        3    1    3    3  502    0  0.32138642751E+02 -0.50877693669E+03  0.17112758791E+04  0.17855957013E+04  0.10100000352E+00 0.  1.
       -3    1    3    3    0  502 -0.32138642751E+02  0.50877693669E+03 -0.11518200191E+04  0.12595936767E+04  0.10100000352E+00 0. -1.
</event>
<event>
 5   0  0.9647945E-06  0.1998442E+04  0.7818609E-02  0.8607350E-01
        2   -1    0    0  501    0  0.00000000000E+00  0.00000000000E+00  0.10363917974E+04  0.10363917974E+04  0.25500000920E-02 0. -1.
       -2   -1    0    0    0  501  0.00000000000E+00  0.00000000000E+00 -0.96338290967E+03  0.96338290968E+03  0.25500000920E-02 0.  1.
    10030    2    1    2    0    0  0.00000000000E+00  0.00000000000E+00  0.73008887692E+02  0.19997747070E+04  0.19984415381E+04 0.  0.
        2    1    3    3  502    0  0.42952170827E+03 -0.82499796593E+03  0.40189403750E+03  0.10132272001E+04  0.25500000920E-02 0. -1.
       -2    1    3    3    0  502 -0.42952170827E+03  0.82499796593E+03 -0.32888514980E+03  0.98654750693E+03  0.25500000920E-02 0.  1.
</event>
<event>
 5   0  0.3592331E-06  0.3000527E+04  0.7818609E-02  0.8243580E-01
       -1   -1    0    0    0  501  0.00000000000E+00  0.00000000000E+00  0.17825769589E+04  0.17825769589E+04  0.50400001928E-02 0.  1.
        1   -1    0    0  501    0  0.00000000000E+00  0.00000000000E+00 -0.12626614476E+04  0.12626614476E+04  0.50400001928E-02 0. -1.
    10030    2    1    2    0    0  0.00000000000E+00  0.00000000000E+00  0.51991551123E+03  0.30452384065E+04  0.30005274226E+04 0.  0.
        3    1    3    3  502    0 -0.10686284139E+04 -0.59628812517E+03 -0.62088337603E+03  0.13722326305E+04  0.10100000352E+00 0.  1.
       -3    1    3    3    0  502  0.10686284139E+04  0.59628812517E+03  0.11407988873E+04  0.16730057760E+04  0.10100000352E+00 0. -1.
</event>
<event>
 5   0  0.3725232E-06  0.3011339E+04  0.7818609E-02  0.8240500E-01
        1   -1    0    0  501    0  0.00000000000E+00  0.00000000000E+00  0.12509940264E+04  0.12509940264E+04  0.50400001928E-02 0.  1.
       -1   -1    0    0    0  501  0.00000000000E+00  0.00000000000E+00 -0.18121919243E+04  0.18121919243E+04  0.50400001928E-02 0. -1.
    10030    2    1    2    0    0  0.00000000000E+00  0.00000000000E+00 -0.56119789798E+03  0.30631859507E+04  0.30113394176E+04 0.  0.
        2    1    3    3  502    0 -0.56381654480E+03 -0.12804647091E+04 -0.84656149034E+03  0.16352814205E+04  0.25500000920E-02 0. -1.
       -2    1    3    3    0  502  0.56381654480E+03  0.12804647091E+04  0.28536359236E+03  0.14279045302E+04  0.25500000920E-02 0.  1.
</event>
<event>
 5   0  0.3636718E-06  0.3111706E+04  0.7818609E-02  0.8212533E-01
        1   -1    0    0  501    0  0.00000000000E+00  0.00000000000E+00  0.11894288738E+04  0.11894288738E+04  0.50400001928E-02 0.  1.
       -1   -1    0    0    0  501  0.00000000000E+00  0.00000000000E+00 -0.20351598861E+04  0.20351598861E+04  0.50400001928E-02 0. -1.
    10030    2    1    2    0    0  0.00000000000E+00  0.00000000000E+00 -0.84573101227E+03  0.32245887600E+04  0.31117055975E+04 0.  0.
        4    1    3    3  502    0 -0.19608576374E+03 -0.32217955465E+03  0.11413385095E+04  0.12020418039E+04  0.12699999809E+01 0.  1.
       -4    1    3    3    0  502  0.19608576374E+03  0.32217955465E+03 -0.19870695218E+04  0.20225469561E+04  0.12699999809E+01 0. -1.
</event>
<event>
 5   0  0.1028450E-05  0.2978980E+04  0.7818609E-02  0.8249759E-01
        2   -1    0    0  501    0  0.00000000000E+00  0.00000000000E+00  0.16690178663E+04  0.16690178663E+04  0.25500000920E-02 0. -1.
       -2   -1    0    0    0  501  0.00000000000E+00  0.00000000000E+00 -0.13292733557E+04  0.13292733557E+04  0.25500000920E-02 0.  1.
    10030    2    1    2    0    0  0.00000000000E+00  0.00000000000E+00  0.33974451065E+03  0.29982912220E+04  0.29789803489E+04 0.  0.
        3    1    3    3  502    0 -0.34025636148E+03  0.60975536278E+03 -0.11543330790E+04  0.13490963129E+04  0.10100000352E+00 0.  1.
       -3    1    3    3    0  502  0.34025636148E+03 -0.60975536278E+03  0.14940775897E+04  0.16491949091E+04  0.10100000352E+00 0. -1.
</event>
<event>
 5   0  0.1028450E-05  0.2835851E+04  0.7818609E-02  0.8292224E-01
       -2   -1    0    0    0  501  0.00000000000E+00  0.00000000000E+00  0.11573592322E+04  0.11573592322E+04  0.25500000920E-02 0.  1.
        2   -1    0    0  501    0  0.00000000000E+00  0.00000000000E+00 -0.17371551023E+04  0.17371551023E+04  0.25500000920E-02 0. -1.
    10030    2    1    2    0    0  0.00000000000E+00  0.00000000000E+00 -0.57979587009E+03  0.28945143346E+04  0.28358508392E+04 0.  0.
        3    1    3    3  502    0 -0.10982948116E+04  0.15156102557E+03 -0.11920890015E+04  0.16279737207E+04  0.10100000352E+00 0. -1.
       -3    1    3    3    0  502  0.10982948116E+04 -0.15156102557E+03  0.61229313144E+03  0.12665406139E+04  0.10100000352E+00 0.  1.
</event>
<event>
 5   0  0.3725232E-06  0.3006876E+04  0.7818609E-02  0.8241770E-01
       -1   -1    0    0    0  501  0.00000000000E+00  0.00000000000E+00  0.28865164103E+04  0.28865164103E+04  0.50400001928E-02 0. -1.
        1   -1    0    0  501    0  0.00000000000E+00  0.00000000000E+00 -0.78306352575E+03  0.78306352576E+03  0.50400001928E-02 0.  1.
    10030    2    1    2    0    0  0.00000000000E+00  0.00000000000E+00  0.21034528845E+04  0.36695799360E+04  0.30068759319E+04 0.  0.
        2    1    3    3  502    0  0.13948760697E+04 -0.55912219921E+03  0.99675664983E+03  0.18032805390E+04  0.25500000920E-02 0. -1.
       -2    1    3    3    0  502 -0.13948760697E+04  0.55912219921E+03  0.11066962347E+04  0.18662993970E+04  0.25500000920E-02 0.  1.
</event>
<event>
 5   0  0.3896630E-06  0.1957243E+04  0.7818609E-02  0.8626876E-01
        1   -1    0    0  501    0  0.00000000000E+00  0.00000000000E+00  0.67109526754E+03  0.67109526756E+03  0.50400001928E-02 0.  1.
       -1   -1    0    0    0  501  0.00000000000E+00  0.00000000000E+00 -0.14270706026E+04  0.14270706027E+04  0.50400001928E-02 0. -1.
    10030    2    1    2    0    0  0.00000000000E+00  0.00000000000E+00 -0.75597533511E+03  0.20981658702E+04  0.19572432939E+04 0.  0.
        5    1    3    3  502    0 -0.30245745828E+03  0.12626942794E+03 -0.13664708480E+04  0.14052363328E+04  0.46999998093E+01 0. -1.
       -5    1    3    3    0  502  0.30245745828E+03 -0.12626942794E+03  0.61049551293E+03  0.69292953741E+03  0.46999998093E+01 0.  1.
</event>
<event>
 5   0  0.1089569E-05  0.2893459E+04  0.7818609E-02  0.8274826E-01
       -2   -1    0    0    0  501  0.00000000000E+00  0.00000000000E+00  0.15723390437E+04  0.15723390437E+04  0.25500000920E-02 0. -1.
        2   -1    0    0  501    0  0.00000000000E+00  0.00000000000E+00 -0.13311542300E+04  0.13311542300E+04  0.25500000920E-02 0.  1.
    10030    2    1    2    0    0  0.00000000000E+00  0.00000000000E+00  0.24118481372E+03  0.29034932738E+04  0.28934586703E+04 0.  0.
        5    1    3    3  502    0 -0.59132637625E+03  0.13191497355E+04  0.63998489514E+02  0.14470455434E+04  0.46999998093E+01 0.  1.
       -5    1    3    3    0  502  0.59132637625E+03 -0.13191497355E+04  0.17718632421E+03  0.14564477304E+04  0.46999998093E+01 0. -1.
</event>
<event>
 5   0  0.1029922E-05  0.2985334E+04  0.7818609E-02  0.8247931E-01
        2   -1    0    0  501    0  0.00000000000E+00  0.00000000000E+00  0.18030196330E+04  0.18030196330E+04  0.25500000920E-02 0. -1.
       -2   -1    0    0    0  501  0.00000000000E+00  0.00000000000E+00 -0.12357348099E+04  0.12357348100E+04  0.25500000920E-02 0.  1.
    10030    2    1    2    0    0  0.00000000000E+00  0.00000000000E+00  0.56728482307E+03  0.30387544430E+04  0.29853335650E+04 0.  0.
        1    1    3    3  502    0  0.51240478980E+03  0.18268160505E+03  0.16985240655E+04  0.17835120517E+04  0.50400001928E-02 0. -1.
       -1    1    3    3    0  502 -0.51240478980E+03 -0.18268160505E+03 -0.11312392424E+04  0.12552423913E+04  0.50400001928E-02 0.  1.
</event>
<event>
 5   0  0.3313750E-06  0.3041578E+04  0.7818609E-02  0.8231957E-01
        3   -1    0    0  501    0  0.00000000000E+00  0.00000000000E+00  0.17155465987E+04  0.17155466017E+04  0.10100000352E+00 0.  1.
       -3   -1    0    0    0  501  0.00000000000E+00  0.00000000000E+00 -0.13481412932E+04  0.13481412970E+04  0.10100000352E+00 0. -1.
    10030    2    1    2    0    0  0.00000000000E+00  0.00000000000E+00  0.36740530552E+03  0.30636878987E+04  0.30415780250E+04 0.  0.
        5    1    3    3  502    0 -0.93383565338E+03  0.64888519579E+03 -0.83342785470E+03  0.14098670518E+04  0.46999998093E+01 0. -1.
       -5    1    3    3    0  502  0.93383565338E+03 -0.64888519579E+03  0.12008331602E+04  0.16538208469E+04  0.46999998093E+01 0.  1.
</event>
<event>
 5   0  0.3636718E-06  0.2967385E+04  0.7818609E-02  0.8253106E-01
       -1   -1    0    0    0  501  0.00000000000E+00  0.00000000000E+00  0.13744849607E+04  0.13744849607E+04  0.50400001928E-02 0.  1.
        1   -1    0    0  501    0  0.00000000000E+00  0.00000000000E+00 -0.16015772763E+04  0.16015772763E+04  0.50400001928E-02 0. -1.
    10030    2    1    2    0    0  0.00000000000E+00  0.00000000000E+00 -0.22709231555E+03  0.29760622370E+04  0.29673853000E+04 0.  0.
        4    1    3    3  502    0 -0.87118796825E+03  0.84191566631E+03  0.74543465352E+03  0.14224854659E+04  0.12699999809E+01 0. -1.
       -4    1    3    3    0  502  0.87118796825E+03 -0.84191566631E+03 -0.97252696907E+03  0.15535767711E+04  0.12699999809E+01 0.  1.
</event>
<event>
 5   0  0.1057036E-05  0.2856396E+04  0.7818609E-02  0.8285970E-01
       -2   -1    0    0    0  501  0.00000000000E+00  0.00000000000E+00  0.97430199051E+03  0.97430199051E+03  0.25500000920E-02 0.  1.
        2   -1    0    0  501    0  0.00000000000E+00  0.00000000000E+00 -0.20935499313E+04  0.20935499313E+04  0.25500000920E-02 0. -1.
    10030    2    1    2    0    0  0.00000000000E+00  0.00000000000E+00 -0.11192479408E+04  0.30678519218E+04  0.28563962367E+04 0.  0.
        4    1    3    3  502    0 -0.13084592344E+04 -0.12780470959E+03  0.39669337447E+02  0.13152850950E+04  0.12699999809E+01 0.  1.
       -4    1    3    3    0  502  0.13084592344E+04  0.12780470959E+03 -0.11589172782E+04  0.17525668268E+04  0.12699999809E+01 0. -1.
</event>
<event>
 5   0  0.1028450E-05  0.3071921E+04  0.7818609E-02  0.8223487E-01
        2   -1    0    0  501    0  0.00000000000E+00  0.00000000000E+00  0.20762122765E+04  0.20762122765E+04  0.25500000920E-02 0.  1.
       -2   -1    0    0    0  501  0.00000000000E+00  0.00000000000E+00 -0.11362875138E+04  0.11362875138E+04  0.25500000920E-02 0. -1.
    10030    2    1    2    0    0  0.00000000000E+00  0.00000000000E+00  0.93992476267E+03  0.32124997903E+04  0.30719206278E+04 0.  0.
        3    1    3    3  502    0  0.56925759067E+03  0.97634156454E+01 -0.10218628353E+04  0.11697662985E+04  0.10100000352E+00 0. -1.
       -3    1    3    3    0  502 -0.56925759067E+03 -0.97634156454E+01  0.19617875980E+04  0.20427334918E+04  0.10100000352E+00 0.  1.
</event>
<event>
 5   0  0.1089569E-05  0.2772268E+04  0.7818609E-02  0.8311930E-01
       -2   -1    0    0    0  501  0.00000000000E+00  0.00000000000E+00  0.10926001825E+04  0.10926001825E+04  0.25500000920E-02 0. -1.
        2   -1    0    0  501    0  0.00000000000E+00  0.00000000000E+00 -0.17585272713E+04  0.17585272713E+04  0.25500000920E-02 0.  1.
    10030    2    1    2    0    0  0.00000000000E+00  0.00000000000E+00 -0.66592708878E+03  0.28511274538E+04  0.27722678208E+04 0.  0.
        5    1    3    3  502    0 -0.14523049941E+03  0.45509198859E+03  0.10052593688E+04  0.11130000470E+04  0.46999998093E+01 0. -1.
       -5    1    3    3    0  502  0.14523049941E+03 -0.45509198859E+03 -0.16711864576E+04  0.17381274068E+04  0.46999998093E+01 0.  1.
</event>
<event>
 5   0  0.1089569E-05  0.3019137E+04  0.7818609E-02  0.8238287E-01
       -2   -1    0    0    0  501  0.00000000000E+00  0.00000000000E+00  0.10225944453E+04  0.10225944453E+04  0.25500000920E-02 0. -1.
        2   -1    0    0  501    0  0.00000000000E+00  0.00000000000E+00 -0.22284471382E+04  0.22284471382E+04  0.25500000920E-02 0.  1.
    10030    2    1    2    0    0  0.00000000000E+00  0.00000000000E+00 -0.12058526929E+04  0.32510415834E+04  0.30191374033E+04 0.  0.
        5    1    3    3  502    0  0.42052034749E+03 -0.30753092332E+03  0.92271551737E+03  0.10596408106E+04  0.46999998093E+01 0. -1.
       -5    1    3    3    0  502 -0.42052034749E+03  0.30753092332E+03 -0.21285682103E+04  0.21914007728E+04  0.46999998093E+01 0.  1.
</event>
<event>
 5   0  0.1089569E-05  0.2955329E+04  0.7818609E-02  0.8256603E-01
        2   -1    0    0  501    0  0.00000000000E+00  0.00000000000E+00  0.27740143848E+04  0.27740143848E+04  0.25500000920E-02 0. -1.
       -2   -1    0    0    0  501  0.00000000000E+00  0.00000000000E+00 -0.78712343776E+03  0.78712343776E+03  0.25500000920E-02 0.  1.
    10030    2    1    2    0    0  0.00000000000E+00  0.00000000000E+00  0.19868909470E+04  0.35611378225E+04  0.29553285698E+04 0.  0.
        5    1    3    3  502    0 -0.34799812022E+03 -0.99278846997E+03 -0.25692304960E+03  0.10829419104E+04  0.46999998093E+01 0.  1.
       -5    1    3    3    0  502  0.34799812022E+03  0.99278846997E+03  0.22438139966E+04  0.24781959122E+04  0.46999998093E+01 0. -1.
</event>
<event>
 5   0  0.3896630E-06  0.2860717E+04  0.7818609E-02  0.8284662E-01
        1   -1    0    0  501    0  0.00000000000E+00  0.00000000000E+00  0.18460768254E+04  0.18460768255E+04  0.50400001928E-02 0. -1.
       -1   -1    0    0    0  501  0.00000000000E+00  0.00000000000E+00 -0.11082555921E+04  0.11082555921E+04  0.50400001928E-02 0.  1.
    10030    2    1    2    0    0  0.00000000000E+00  0.00000000000E+00  0.73782123332E+03  0.29543324176E+04  0.28607166692E+04 0.  0.
        5    1    3    3  502    0  0.13412254182E+04 -0.27221329942E+03  0.79835168639E+03  0.15844157308E+04  0.46999998093E+01 0. -1.
       -5    1    3    3    0  502 -0.13412254182E+04  0.27221329942E+03 -0.60530453064E+02  0.13699166868E+04  0.46999998093E+01 0.  1.
</event>
<event>
 5   0  0.1029922E-05  0.2399600E+04  0.7818609E-02  0.8439653E-01
        2   -1    0    0  501    0  0.00000000000E+00  0.00000000000E+00  0.12602594048E+04  0.12602594048E+04  0.25500000920E-02 0.  1.
       -2   -1    0    0    0  501  0.00000000000E+00  0.00000000000E+00 -0.11422407030E+04  0.11422407030E+04  0.25500000920E-02 0. -1.
    10030    2    1    2    0    0  0.00000000000E+00  0.00000000000E+00  0.11801870181E+03  0.24025001079E+04  0.23995996238E+04 0.  0.
        1    1    3    3  502    0 -0.11135685429E+04 -0.30608350047E+03  0.38466790972E+03  0.12172474727E+04  0.50400001928E-02 0.  1.
       -1    1    3    3    0  502  0.11135685429E+04  0.30608350047E+03 -0.26664920792E+03  0.11852526352E+04  0.50400001928E-02 0. -1.
</event>
<event>
 5   0  0.3725232E-06  0.2387045E+04  0.7818609E-02  0.8444370E-01
       -1   -1    0    0    0  501  0.00000000000E+00  0.00000000000E+00  0.14788259093E+04  0.14788259093E+04  0.50400001928E-02 0.  1.
        1   -1    0    0  501    0  0.00000000000E+00  0.00000000000E+00 -0.96326110009E+03  0.96326110011E+03  0.50400001928E-02 0. -1.
    10030    2    1    2    0    0  0.00000000000E+00  0.00000000000E+00  0.51556480917E+03  0.24420870094E+04  0.23870445930E+04 0.  0.
        2    1    3    3  502    0  0.83011807992E+03  0.38814889539E+03 -0.52453313781E+03  0.10558838024E+04  0.25500000920E-02 0. -1.
       -2    1    3    3    0  502 -0.83011807992E+03 -0.38814889539E+03  0.10400979470E+04  0.13862032069E+04  0.25500000920E-02 0.  1.
</event>
<event>
 5   0  0.3636718E-06  0.3004877E+04  0.7818609E-02  0.8242340E-01
        1   -1    0    0  501    0  0.00000000000E+00  0.00000000000E+00  0.20282590411E+04  0.20282590411E+04  0.50400001928E-02 0. -1.
       -1   -1    0    0    0  501  0.00000000000E+00  0.00000000000E+00 -0.11129351755E+04  0.11129351756E+04  0.50400001928E-02 0.  1.
    10030    2    1    2    0    0  0.00000000000E+00  0.00000000000E+00  0.91532386555E+03  0.31411942167E+04  0.30048765911E+04 0.  0.
        4    1    3    3  502    0  0.10822499158E+04 -0.77666417540E+02 -0.62872492538E+03  0.12540309396E+04  0.12699999809E+01 0.  1.
       -4    1    3    3    0  502 -0.10822499158E+04  0.77666417540E+02  0.15440487909E+04  0.18871632771E+04  0.12699999809E+01 0. -1.
</event>
<event>
 5   0  0.3592331E-06  0.2968669E+04  0.7818609E-02  0.8252735E-01
       -1   -1    0    0    0  501  0.00000000000E+00  0.00000000000E+00  0.24989787033E+04  0.24989787033E+04  0.50400001928E-02 0. -1.
        1   -1    0    0  501    0  0.00000000000E+00  0.00000000000E+00 -0.88165946628E+03  0.88165946630E+03  0.50400001928E-02 0.  1.
    10030    2    1    2    0    0  0.00000000000E+00  0.00000000000E+00  0.16173192371E+04  0.33806381696E+04  0.29686685432E+04 0.  0.
        3    1    3    3  502    0  0.11672384488E+04  0.22352708370E+03 -0.20404039946E+03  0.12058368249E+04  0.10100000352E+00 0.  1.
       -3    1    3    3    0  502 -0.11672384488E+04 -0.22352708370E+03  0.18213596365E+04  0.21748013448E+04  0.10100000352E+00 0. -1.
</event>
<event>
 5   0  0.1029922E-05  0.2446440E+04  0.7818609E-02  0.8422319E-01
       -2   -1    0    0    0  501  0.00000000000E+00  0.00000000000E+00  0.53917077361E+03  0.53917077361E+03  0.25500000920E-02 0. -1.
        2   -1    0    0  501    0  0.00000000000E+00  0.00000000000E+00 -0.27751265800E+04  0.27751265800E+04  0.25500000920E-02 0.  1.
    10030    2    1    2    0    0  0.00000000000E+00  0.00000000000E+00 -0.22359558063E+04  0.33142973536E+04  0.24464399809E+04 0.  0.
        1    1    3    3  502    0  0.23534841530E+03  0.10810798442E+04 -0.41124258337E+03  0.11803571360E+04  0.50400001928E-02 0.  1.
       -1    1    3    3    0  502 -0.23534841530E+03 -0.10810798442E+04 -0.18247132230E+04  0.21339402176E+04  0.50400001928E-02 0. -1.
</event>
<event>
 5   0  0.3636718E-06  0.3054388E+04  0.7818609E-02  0.8228368E-01
       -1   -1    0    0    0  501  0.00000000000E+00  0.00000000000E+00  0.10661038662E+04  0.10661038663E+04  0.50400001928E-02 0. -1.
        1   -1    0    0  501    0  0.00000000000E+00  0.00000000000E+00 -0.21877058760E+04  0.21877058760E+04  0.50400001928E-02 0.  1.
    10030    2    1    2    0    0  0.00000000000E+00  0.00000000000E+00 -0.11216020098E+04  0.32538097423E+04  0.30543881172E+04 0.  0.
        4    1    3    3  502    0 -0.44874061435E+03 -0.11734828823E+04  0.36415672539E+03  0.13080680210E+04  0.12699999809E+01 0. -1.
       -4    1    3    3    0  502  0.44874061435E+03  0.11734828823E+04 -0.14857587352E+04  0.19457417213E+04  0.12699999809E+01 0.  1.
</event>
<event>
 5   0  0.3636718E-06  0.2878077E+04  0.7818609E-02  0.8279430E-01
        1   -1    0    0  501    0  0.00000000000E+00  0.00000000000E+00  0.29906788239E+04  0.29906788239E+04  0.50400001928E-02 0.  1.
       -1   -1    0    0    0  501  0.00000000000E+00  0.00000000000E+00 -0.69242859577E+03  0.69242859579E+03  0.50400001928E-02 0. -1.
    10030    2    1    2    0    0  0.00000000000E+00  0.00000000000E+00  0.22982502281E+04  0.36831074197E+04  0.28780768151E+04 0.  0.
        4    1    3    3  502    0 -0.62404308564E+03  0.98658209963E+03  0.22259517304E+04  0.25134909451E+04  0.12699999809E+01 0.  1.
       -4    1    3    3    0  502  0.62404308564E+03 -0.98658209963E+03  0.72298497761E+02  0.11696164746E+04  0.12699999809E+01 0. -1.
</event>
<event>
 5   0  0.3896630E-06  0.3099975E+04  0.7818609E-02  0.8215745E-01
        1   -1    0    0  501    0  0.00000000000E+00  0.00000000000E+00  0.26995220479E+04  0.26995220479E+04  0.50400001928E-02 0. -1.
       -1   -1    0    0    0  501  0.00000000000E+00  0.00000000000E+00 -0.88995823696E+03  0.88995823697E+03  0.50400001928E-02 0.  1.
    10030    2    1    2    0    0  0.00000000000E+00  0.00000000000E+00  0.18095638109E+04  0.35894802848E+04  0.30999754079E+04 0.  0.
        5    1    3    3  502    0  0.46664044513E+03 -0.44450669809E+03  0.25370188978E+04  0.26175993749E+04  0.46999998093E+01 0. -1.
       -5    1    3    3    0  502 -0.46664044513E+03  0.44450669809E+03 -0.72745508689E+03  0.97188090995E+03  0.46999998093E+01 0.  1.
</event>
<event>
 5   0  0.9647945E-06  0.2888471E+04  0.7818609E-02  0.8276316E-01
        2   -1    0    0  501    0  0.00000000000E+00  0.00000000000E+00  0.17619106803E+04  0.17619106803E+04  0.25500000920E-02 0.  1.
       -2   -1    0    0    0  501  0.00000000000E+00  0.00000000000E+00 -0.11838378273E+04  0.11838378273E+04  0.25500000920E-02 0. -1.
    10030    2    1    2    0    0  0.00000000000E+00  0.00000000000E+00  0.57807285295E+03  0.29457485076E+04  0.28884712300E+04 0.  0.
        2    1    3    3  502    0  0.28703148071E+03  0.99898763228E+02  0.17289295530E+04  0.17554384732E+04  0.25500000920E-02 0.  1.
       -2    1    3    3    0  502 -0.28703148071E+03 -0.99898763228E+02 -0.11508567001E+04  0.11903100344E+04  0.25500000920E-02 0. -1.
</event>
<event>
 5   0  0.1057036E-05  0.3027516E+04  0.7818609E-02  0.8235917E-01
        2   -1    0    0  501    0  0.00000000000E+00  0.00000000000E+00  0.22199404826E+04  0.22199404826E+04  0.25500000920E-02 0. -1.
       -2   -1    0    0    0  501  0.00000000000E+00  0.00000000000E+00 -0.10322181536E+04  0.10322181536E+04  0.25500000920E-02 0.  1.
    10030    2    1    2    0    0  0.00000000000E+00  0.00000000000E+00  0.11877223290E+04  0.32521586362E+04  0.30275157249E+04 0.  0.
        4    1    3    3  502    0 -0.10662359765E+04  0.10245938573E+04  0.94162601666E+03  0.17530866773E+04  0.12699999809E+01 0. -1.
       -4    1    3    3    0  502  0.10662359765E+04 -0.10245938573E+04  0.24609631233E+03  0.14990719589E+04  0.12699999809E+01 0.  1.
</event>
<event>
 5   0  0.1089569E-05  0.2916220E+04  0.7818609E-02  0.8268068E-01
        2   -1    0    0  501    0  0.00000000000E+00  0.00000000000E+00  0.17832903414E+04  0.17832903415E+04  0.25500000920E-02 0.  1.
       -2   -1    0    0    0  501  0.00000000000E+00  0.00000000000E+00 -0.11922254471E+04  0.11922254471E+04  0.25500000920E-02 0. -1.
    10030    2    1    2    0    0  0.00000000000E+00  0.00000000000E+00  0.59106489439E+03  0.29755157885E+04  0.29162195559E+04 0.  0.
        5    1    3    3  502    0 -0.10140299983E+04  0.40116076155E+02  0.13638149796E+04  0.16999645660E+04  0.46999998093E+01 0.  1.
       -5    1    3    3    0  502  0.10140299983E+04 -0.40116076155E+02 -0.77275008519E+03  0.12755512225E+04  0.46999998093E+01 0. -1.
</event>
<event>
 5   0  0.1028450E-05  0.3015204E+04  0.7818609E-02  0.8239403E-01
       -2   -1    0    0    0  501  0.00000000000E+00  0.00000000000E+00  0.16924145979E+04  0.16924145979E+04  0.25500000920E-02 0.  1.
        2   -1    0    0  501    0  0.00000000000E+00  0.00000000000E+00 -0.13429707639E+04  0.13429707639E+04  0.25500000920E-02 0. -1.
    10030    2    1    2    0    0  0.00000000000E+00  0.00000000000E+00  0.34944383401E+03  0.30353853619E+04  0.30152036916E+04 0.  0.
        3    1    3    3  502    0  0.59369799852E+03 -0.13220755107E+04  0.59283589042E+03  0.15658273764E+04  0.10100000352E+00 0.  1.
       -3    1    3    3    0  502 -0.59369799852E+03  0.13220755107E+04 -0.24339205641E+03  0.14695579855E+04  0.10100000352E+00 0. -1.
</event>
<event>
 5   0  0.1089569E-05  0.2980579E+04  0.7818609E-02  0.8249298E-01
        2   -1    0    0  501    0  0.00000000000E+00  0.00000000000E+00  0.25197479383E+04  0.25197479383E+04  0.25500000920E-02 0. -1.
       -2   -1    0    0    0  501  0.00000000000E+00  0.00000000000E+00 -0.88142259573E+03  0.88142259573E+03  0.25500000920E-02 0.  1.
    10030    2    1    2    0    0  0.00000000000E+00  0.00000000000E+00  0.16383253426E+04  0.34011705341E+04  0.29805789830E+04 0.  0.
        5    1    3    3  502    0 -0.30422509956E+03  0.11953544300E+04 -0.13522860489E+03  0.12408601815E+04  0.46999998093E+01 0.  1.
       -5    1    3    3    0  502  0.30422509956E+03 -0.11953544300E+04  0.17735539475E+04  0.21603103525E+04  0.46999998093E+01 0. -1.
</event>
<event>
 5   0  0.9647945E-06  0.2548669E+04  0.7818609E-02  0.8385849E-01
       -2   -1    0    0    0  501  0.00000000000E+00  0.00000000000E+00  0.78240600670E+03  0.78240600671E+03  0.25500000920E-02 0.  1.
        2   -1    0    0  501    0  0.00000000000E+00  0.00000000000E+00 -0.20755568090E+04  0.20755568090E+04  0.25500000920E-02 0. -1.
    10030    2    1    2    0    0  0.00000000000E+00  0.00000000000E+00 -0.12931508023E+04  0.28579628157E+04  0.25486687620E+04 0.  0.
        2    1    3    3  502    0  0.15230010827E+03 -0.27605428354E+03  0.73798119531E+03  0.80250703117E+03  0.25500000920E-02 0.  1.
       -2    1    3    3    0  502 -0.15230010827E+03  0.27605428354E+03 -0.20311319976E+04  0.20554557846E+04  0.25500000920E-02 0. -1.
</event>
<event>
 5   0  0.3852126E-06  0.2938506E+04  0.7818609E-02  0.8261512E-01
       -1   -1    0    0    0  501  0.00000000000E+00  0.00000000000E+00  0.18959451704E+04  0.18959451704E+04  0.50400001928E-02 0. -1.
        1   -1    0    0  501    0  0.00000000000E+00  0.00000000000E+00 -0.11385901856E+04  0.11385901856E+04  0.50400001928E-02 0.  1.
    10030    2    1    2    0    0  0.00000000000E+00  0.00000000000E+00  0.75735498480E+03  0.30345353560E+04  0.29385061262E+04 0.  0.
        1    1    3    3  502    0 -0.74632601560E+03  0.38814972316E+03 -0.86528008021E+03  0.12068025300E+04  0.50400001928E-02 0.  1.
       -1    1    3    3    0  502  0.74632601560E+03 -0.38814972316E+03  0.16226350650E+04  0.18277328260E+04  0.50400001928E-02 0. -1.
</event>
<event>
 5   0  0.3636718E-06  0.1983847E+04  0.7818609E-02  0.8614210E-01
       -1   -1    0    0    0  501  0.00000000000E+00  0.00000000000E+00  0.69886692195E+03  0.69886692197E+03  0.50400001928E-02 0. -1.
        1   -1    0    0  501    0  0.00000000000E+00  0.00000000000E+00 -0.14078674210E+04  0.14078674210E+04  0.50400001928E-02 0.  1.
    10030    2    1    2    0    0  0.00000000000E+00  0.00000000000E+00 -0.70900049906E+03  0.21067343430E+04  0.19838467391E+04 0.  0.
        4    1    3    3  502    0 -0.13036129209E+03  0.63542563857E+03 -0.11514187574E+04  0.13215621728E+04  0.12699999809E+01 0.  1.
       -4    1    3    3    0  502  0.13036129209E+03 -0.63542563857E+03  0.44241825838E+03  0.78517217021E+03  0.12699999809E+01 0. -1.
</event>
<event>
 5   0  0.1057036E-05  0.2857578E+04  0.7818609E-02  0.8285612E-01
       -2   -1    0    0    0  501  0.00000000000E+00  0.00000000000E+00  0.73910651765E+03  0.73910651765E+03  0.25500000920E-02 0. -1.
        2   -1    0    0  501    0  0.00000000000E+00  0.00000000000E+00 -0.27620355175E+04  0.27620355175E+04  0.25500000920E-02 0.  1.
    10030    2    1    2    0    0  0.00000000000E+00  0.00000000000E+00 -0.20229289998E+04  0.35011420351E+04  0.28575783125E+04 0.  0.
        4    1    3    3  502    0 -0.11455113963E+04 -0.79494298631E+03 -0.62927241594E+03  0.15297438011E+04  0.12699999809E+01 0. -1.
       -4    1    3    3    0  502  0.11455113963E+04  0.79494298631E+03 -0.13936565839E+04  0.19713982341E+04  0.12699999809E+01 0.  1.
</event>
<event>
 5   0  0.1057036E-05  0.2984391E+04  0.7818609E-02  0.8248202E-01
        2   -1    0    0  501    0  0.00000000000E+00  0.00000000000E+00  0.25313867904E+04  0.25313867904E+04  0.25500000920E-02 0. -1.
       -2   -1    0    0    0  501  0.00000000000E+00  0.00000000000E+00 -0.87961545329E+03  0.87961545330E+03  0.25500000920E-02 0.  1.
    10030    2    1    2    0    0  0.00000000000E+00  0.00000000000E+00  0.16517713371E+04  0.34110022437E+04  0.29843906843E+04 0.  0.
        4    1    3    3  502    0 -0.14299087330E+04  0.28574575975E+03  0.11879596825E+04  0.18808347732E+04  0.12699999809E+01 0. -1.
       -4    1    3    3    0  502  0.14299087330E+04 -0.28574575975E+03  0.46381165459E+03  0.15301674705E+04  0.12699999809E+01 0.  1.
</event>
<event>
 5   0  0.3725232E-06  0.3026825E+04  0.7818609E-02  0.8236112E-01
        1   -1    0    0  501    0  0.00000000000E+00  0.00000000000E+00  0.16885415959E+04  0.16885415959E+04  0.50400001928E-02 0.  1.
       -1   -1    0    0    0  501  0.00000000000E+00  0.00000000000E+00 -0.13564475325E+04  0.13564475325E+04  0.50400001928E-02 0. -1.
    10030    2    1    2    0    0  0.00000000000E+00  0.00000000000E+00  0.33209406338E+03  0.30449891284E+04  0.30268254534E+04 0.  0.
        2    1    3    3  502    0 -0.32504214627E+03  0.75728053671E+03  0.14430310950E+04  0.16617656120E+04  0.25500000920E-02 0.  1.
       -2    1    3    3    0  502  0.32504214627E+03 -0.75728053671E+03 -0.11109370316E+04  0.13832235164E+04  0.25500000920E-02 0. -1.
</event>
<event>
 5   0  0.3725232E-06  0.2944139E+04  0.7818609E-02  0.8259865E-01
        1   -1    0    0  501    0  0.00000000000E+00  0.00000000000E+00  0.18186312619E+04  0.18186312619E+04  0.50400001928E-02 0. -1.
       -1   -1    0    0    0  501  0.00000000000E+00  0.00000000000E+00 -0.11915489856E+04  0.11915489856E+04  0.50400001928E-02 0.  1.
    10030    2    1    2    0    0  0.00000000000E+00  0.00000000000E+00  0.62708227631E+03  0.30101802475E+04  0.29441387436E+04 0.  0.
        2    1    3    3  502    0  0.14086044136E+04  0.42539147091E+03  0.35768292631E+03  0.15142857635E+04  0.25500000920E-02 0. -1.
       -2    1    3    3    0  502 -0.14086044136E+04 -0.42539147091E+03  0.26939935001E+03  0.14958944841E+04  0.25500000920E-02 0.  1.
</event>
<event>
 5   0  0.9647945E-06  0.2983186E+04  0.7818609E-02  0.8248549E-01
       -2   -1    0    0    0  501  0.00000000000E+00  0.00000000000E+00  0.13828518726E+04  0.13828518726E+04  0.25500000920E-02 0.  1.
        2   -1    0    0  501    0  0.00000000000E+00  0.00000000000E+00 -0.16088850671E+04  0.16088850671E+04  0.25500000920E-02 0. -1.
    10030    2    1    2    0    0  0.00000000000E+00  0.00000000000E+00 -0.22603319452E+03  0.29917369398E+04  0.29831860337E+04 0.  0.
        2    1    3    3  502    0 -0.42233469902E+03 -0.27202885334E+03  0.12954603681E+04  0.13894545190E+04  0.25500000920E-02 0.  1.
       -2    1    3    3    0  502  0.42233469902E+03  0.27202885334E+03 -0.15214935626E+04  0.16022824208E+04  0.25500000920E-02 0. -1.
</event>
<event>
 5   0  0.1028450E-05  0.3081179E+04  0.7818609E-02  0.8220922E-01
        2   -1    0    0  501    0  0.00000000000E+00  0.00000000000E+00  0.25766842848E+04  0.25766842848E+04  0.25500000920E-02 0. -1.
       -2   -1    0    0    0  501  0.00000000000E+00  0.00000000000E+00 -0.92111275997E+03  0.92111275998E+03  0.25500000920E-02 0.  1.
    10030    2    1    2    0    0  0.00000000000E+00  0.00000000000E+00  0.16555715248E+04  0.34977970448E+04  0.30811794970E+04 0.  0.
        3    1    3    3  502    0 -0.73866162279E+03  0.13383310019E+04  0.10451603532E+04  0.18517859050E+04  0.10100000352E+00 0. -1.
       -3    1    3    3    0  502  0.73866162279E+03 -0.13383310019E+04  0.61041117160E+03  0.16460111398E+04  0.10100000352E+00 0.  1.
</event>
<event>
 5   0  0.9647945E-06  0.2427002E+04  0.7818609E-02  0.8429463E-01
       -2   -1    0    0    0  501  0.00000000000E+00  0.00000000000E+00  0.89419927571E+03  0.89419927571E+03  0.25500000920E-02 0. -1.
        2   -1    0    0  501    0  0.00000000000E+00  0.00000000000E+00 -0.16468196530E+04  0.16468196530E+04  0.25500000920E-02 0.  1.
    10030    2    1    2    0    0  0.00000000000E+00  0.00000000000E+00 -0.75262037733E+03  0.25410189288E+04  0.24270022175E+04 0.  0.
        2    1    3    3  502    0 -0.33487108128E+03  0.10789225489E+04  0.87647085262E+02  0.11330906933E+04  0.25500000920E-02 0. -1.
       -2    1    3    3    0  502  0.33487108128E+03 -0.10789225489E+04 -0.84026746259E+03  0.14079282355E+04  0.25500000920E-02 0.  1.
</event>
<event>
 5   0  0.1029922E-05  0.2189824E+04  0.7818609E-02  0.8522675E-01
       -2   -1    0    0    0  501  0.00000000000E+00  0.00000000000E+00  0.92370058217E+03  0.92370058217E+03  0.25500000920E-02 0.  1.
        2   -1    0    0  501    0  0.00000000000E+00  0.00000000000E+00 -0.12978585667E+04  0.12978585667E+04  0.25500000920E-02 0. -1.
    10030    2    1    2    0    0  0.00000000000E+00  0.00000000000E+00 -0.37415798453E+03  0.22215591489E+04  0.21898243890E+04 0.  0.
        1    1    3    3  502    0 -0.16706270741E+02  0.31358126444E+03 -0.12511936856E+04  0.12899992046E+04  0.50400001928E-02 0. -1.
       -1    1    3    3    0  502  0.16706270741E+02 -0.31358126444E+03  0.87703570106E+03  0.93155994431E+03  0.50400001928E-02 0.  1.
</event>
<event>
 5   0  0.3896630E-06  0.2963716E+04  0.7818609E-02  0.8254168E-01
       -1   -1    0    0    0  501  0.00000000000E+00  0.00000000000E+00  0.11798065132E+04  0.11798065132E+04  0.50400001928E-02 0.  1.
        1   -1    0    0  501    0  0.00000000000E+00  0.00000000000E+00 -0.18612402726E+04  0.18612402726E+04  0.50400001928E-02 0. -1.
    10030    2    1    2    0    0  0.00000000000E+00  0.00000000000E+00 -0.68143375936E+03  0.30410467859E+04  0.29637161783E+04 0.  0.
        5    1    3    3  502    0 -0.71625992428E+03 -0.10728486719E+04 -0.10890251828E+04  0.16882033321E+04  0.46999998093E+01 0. -1.
       -5    1    3    3    0  502  0.71625992428E+03  0.10728486719E+04  0.40759142340E+03  0.13528434537E+04  0.46999998093E+01 0.  1.
</event>
<event>
 5   0  0.1089569E-05  0.3317922E+04  0.7818609E-02  0.8158350E-01
       -2   -1    0    0    0  501  0.00000000000E+00  0.00000000000E+00  0.10355022337E+04  0.10355022337E+04  0.25500000920E-02 0.  1.
        2   -1    0    0  501    0  0.00000000000E+00  0.00000000000E+00 -0.26577941298E+04  0.26577941298E+04  0.25500000920E-02 0. -1.
    10030    2    1    2    0    0  0.00000000000E+00  0.00000000000E+00 -0.16222918961E+04  0.36932963635E+04  0.33179220956E+04 0.  0.
        5    1    3    3  502    0 -0.73144294489E+01 -0.37200290377E+02  0.10350125346E+04  0.10357173356E+04  0.46999998093E+01 0.  1.
       -5    1    3    3    0  502  0.73144294489E+01  0.37200290377E+02 -0.26573044307E+04  0.26575790279E+04  0.46999998093E+01 0. -1.
</event>
<event>
 5   0  0.1057036E-05  0.3005172E+04  0.7818609E-02  0.8242256E-01
       -2   -1    0    0    0  501  0.00000000000E+00  0.00000000000E+00  0.13228762946E+04  0.13228762946E+04  0.25500000920E-02 0.  1.
        2   -1    0    0  501    0  0.00000000000E+00  0.00000000000E+00 -0.17067088345E+04  0.17067088345E+04  0.25500000920E-02 0. -1.
    10030    2    1    2    0    0  0.00000000000E+00  0.00000000000E+00 -0.38383253992E+03  0.30295851291E+04  0.30051719810E+04 0.  0.
        4    1    3    3  502    0  0.82380923221E+03 -0.82588675705E+03  0.76288517383E+03  0.13938242313E+04  0.12699999809E+01 0.  1.
       -4    1    3    3    0  502 -0.82380923221E+03  0.82588675705E+03 -0.11467177137E+04  0.16357608977E+04  0.12699999809E+01 0. -1.
</event>
<event>
 5   0  0.9647945E-06  0.2998284E+04  0.7818609E-02  0.8244221E-01
       -2   -1    0    0    0  501  0.00000000000E+00  0.00000000000E+00  0.89252384554E+03  0.89252384555E+03  0.25500000920E-02 0. -1.
        2   -1    0    0  501    0  0.00000000000E+00  0.00000000000E+00 -0.25180571673E+04  0.25180571673E+04  0.25500000920E-02 0.  1.
    10030    2    1    2    0    0  0.00000000000E+00  0.00000000000E+00 -0.16255333217E+04  0.34105810128E+04  0.29982835531E+04 0.  0.
        2    1    3    3  502    0  0.21157708920E+03 -0.36713445301E+03  0.82298605792E+03  0.92566658295E+03  0.25500000920E-02 0. -1.
       -2    1    3    3    0  502 -0.21157708920E+03  0.36713445301E+03 -0.24485193797E+04  0.24849144299E+04  0.25500000920E-02 0.  1.
</event>
<event>
 5   0  0.3896630E-06  0.2958414E+04  0.7818609E-02  0.8255707E-01
        1   -1    0    0  501    0  0.00000000000E+00  0.00000000000E+00  0.21975203799E+04  0.21975203799E+04  0.50400001928E-02 0. -1.
       -1   -1    0    0    0  501  0.00000000000E+00  0.00000000000E+00 -0.99569164285E+03  0.99569164286E+03  0.50400001928E-02 0.  1.
    10030    2    1    2    0    0  0.00000000000E+00  0.00000000000E+00  0.12018287371E+04  0.31932120228E+04  0.29584135460E+04 0.  0.
        5    1    3    3  502    0 -0.26952166486E+03  0.63570049155E+03  0.20128945194E+04  0.21280327721E+04  0.46999998093E+01 0. -1.
       -5    1    3    3    0  502  0.26952166486E+03 -0.63570049155E+03 -0.81106578235E+03  0.10651792507E+04  0.46999998093E+01 0.  1.
</event>
<event>
 5   0  0.3896630E-06  0.3026411E+04  0.7818609E-02  0.8236229E-01
        1   -1    0    0  501    0  0.00000000000E+00  0.00000000000E+00  0.29599828692E+04  0.29599828692E+04  0.50400001928E-02 0.  1.
       -1   -1    0    0    0  501  0.00000000000E+00  0.00000000000E+00 -0.77358264892E+03  0.77358264894E+03  0.50400001928E-02 0. -1.
    10030    2    1    2    0    0  0.00000000000E+00  0.00000000000E+00  0.21864002203E+04  0.37335655181E+04  0.30264113328E+04 0.  0.
        5    1    3    3  502    0  0.97643881334E+03 -0.14555807964E+03  0.25079620438E+04  0.26952765376E+04  0.46999998093E+01 0.  1.
       -5    1    3    3    0  502 -0.97643881334E+03  0.14555807964E+03 -0.32156182357E+03  0.10382889805E+04  0.46999998093E+01 0. -1.
</event>
<event>
 5   0  0.1029922E-05  0.3061432E+04  0.7818609E-02  0.8226403E-01
       -2   -1    0    0    0  501  0.00000000000E+00  0.00000000000E+00  0.16450888955E+04  0.16450888955E+04  0.25500000920E-02 0. -1.
        2   -1    0    0  501    0  0.00000000000E+00  0.00000000000E+00 -0.14242945208E+04  0.14242945208E+04  0.25500000920E-02 0.  1.
    10030    2    1    2    0    0  0.00000000000E+00  0.00000000000E+00  0.22079437469E+03  0.30693834163E+04  0.30614317566E+04 0.  0.
        1    1    3    3  502    0 -0.15169973233E+04  0.47199575242E+02 -0.89072882085E+02  0.15203429406E+04  0.50400001928E-02 0. -1.
       -1    1    3    3    0  502  0.15169973233E+04 -0.47199575242E+02  0.30986725678E+03  0.15490404757E+04  0.50400001928E-02 0.  1.
</event>
<event>
 5   0  0.1089569E-05  0.2982903E+04  0.7818609E-02  0.8248630E-01
       -2   -1    0    0    0  501  0.00000000000E+00  0.00000000000E+00  0.13390866044E+04  0.13390866044E+04  0.25500000920E-02 0. -1.
        2   -1    0    0  501    0  0.00000000000E+00  0.00000000000E+00 -0.16611530447E+04  0.16611530447E+04  0.25500000920E-02 0.  1.
    10030    2    1    2    0    0  0.00000000000E+00  0.00000000000E+00 -0.32206644030E+03  0.30002396491E+04  0.29829031429E+04 0.  0.
        5    1    3    3  502    0 -0.51302319138E+03  0.30571014836E+03 -0.15356342229E+04  0.16476789877E+04  0.46999998093E+01 0.  1.
       -5    1    3    3    0  502  0.51302319138E+03 -0.30571014836E+03  0.12135677827E+04  0.13525606614E+04  0.46999998093E+01 0. -1.
</event>
<event>
 5   0  0.1089569E-05  0.2957891E+04  0.7818609E-02  0.8255859E-01
        2   -1    0    0  501    0  0.00000000000E+00  0.00000000000E+00  0.13800465626E+04  0.13800465626E+04  0.25500000920E-02 0. -1.
       -2   -1    0    0    0  501  0.00000000000E+00  0.00000000000E+00 -0.15849316346E+04  0.15849316346E+04  0.25500000920E-02 0.  1.
    10030    2    1    2    0    0  0.00000000000E+00  0.00000000000E+00 -0.20488507196E+03  0.29649781972E+04  0.29578907717E+04 0.  0.
        5    1    3    3  502    0 -0.14354846504E+04  0.62925588208E+02  0.24865598852E+03  0.14582275892E+04  0.46999998093E+01 0. -1.
       -5    1    3    3    0  502  0.14354846504E+04 -0.62925588208E+02 -0.45354106048E+03  0.15067506080E+04  0.46999998093E+01 0.  1.
</event>
<event>
 5   0  0.3636718E-06  0.2924558E+04  0.7818609E-02  0.8265608E-01
        1   -1    0    0  501    0  0.00000000000E+00  0.00000000000E+00  0.13890179121E+04  0.13890179122E+04  0.50400001928E-02 0.  1.
       -1   -1    0    0    0  501  0.00000000000E+00  0.00000000000E+00 -0.15394040754E+04  0.15394040755E+04  0.50400001928E-02 0. -1.
    10030    2    1    2    0    0  0.00000000000E+00  0.00000000000E+00 -0.15038616330E+03  0.29284219876E+04  0.29245579733E+04 0.  0.
        4    1    3    3  502    0  0.91485260022E+03  0.63469019107E+03  0.87393654406E+03  0.14154693973E+04  0.12699999809E+01 0.  1.
       -4    1    3    3    0  502 -0.91485260022E+03 -0.63469019107E+03 -0.10243227074E+04  0.15129525903E+04  0.12699999809E+01 0. -1.
</event>
<event>
 5   0  0.3636718E-06  0.2983919E+04  0.7818609E-02  0.8248338E-01
       -1   -1    0    0    0  501  0.00000000000E+00  0.00000000000E+00  0.15385593244E+04  0.15385593244E+04  0.50400001928E-02 0.  1.
        1   -1    0    0  501    0  0.00000000000E+00  0.00000000000E+00 -0.14467714094E+04  0.14467714094E+04  0.50400001928E-02 0. -1.
    10030    2    1    2    0    0  0.00000000000E+00  0.00000000000E+00  0.91787915062E+02  0.29853307338E+04  0.29839193302E+04 0.  0.
        4    1    3    3  502    0 -0.78695968710E+02 -0.87460781970E+03  0.12526195771E+04  0.15297677313E+04  0.12699999809E+01 0.  1.
       -4    1    3    3    0  502  0.78695968710E+02  0.87460781970E+03 -0.11608316621E+04  0.14555630025E+04  0.12699999809E+01 0. -1.
</event>
<event>
 5   0  0.3725232E-06  0.3090072E+04  0.7818609E-02  0.8218468E-01
        1   -1    0    0  501    0  0.00000000000E+00  0.00000000000E+00  0.20939703200E+04  0.20939703200E+04  0.50400001928E-02 0. -1.
       -1   -1    0    0    0  501  0.00000000000E+00  0.00000000000E+00 -0.11400051150E+04  0.11400051150E+04  0.50400001928E-02 0.  1.
    10030    2    1    2    0    0  0.00000000000E+00  0.00000000000E+00  0.95396520500E+03  0.32339754350E+04  0.30900724105E+04 0.  0.
        2    1    3    3  502    0 -0.47121174200E+03 -0.12566736065E+04  0.12780478311E+04  0.18532877051E+04  0.25500000920E-02 0. -1.
       -2    1    3    3    0  502  0.47121174200E+03  0.12566736065E+04 -0.32408262612E+03  0.13806877300E+04  0.25500000920E-02 0.  1.
</event>
<event>
 5   0  0.1029922E-05  0.2992447E+04  0.7818609E-02  0.8245891E-01
       -2   -1    0    0    0  501  0.00000000000E+00  0.00000000000E+00  0.15069104284E+04  0.15069104284E+04  0.25500000920E-02 0. -1.
        2   -1    0    0  501    0  0.00000000000E+00  0.00000000000E+00 -0.14856120720E+04  0.14856120720E+04  0.25500000920E-02 0.  1.
    10030    2    1    2    0    0  0.00000000000E+00  0.00000000000E+00  0.21298356404E+02  0.29925225003E+04  0.29924467071E+04 0.  0.
        1    1    3    3  502    0  0.12255851547E+04  0.46783348811E+03 -0.70892250527E+03  0.14911399205E+04  0.50400001928E-02 0.  1.
       -1    1    3    3    0  502 -0.12255851547E+04 -0.46783348811E+03  0.73022086168E+03  0.15013825798E+04  0.50400001928E-02 0. -1.
</event>
<event>
 5   0  0.1089569E-05  0.2962969E+04  0.7818609E-02  0.8254385E-01
       -2   -1    0    0    0  501  0.00000000000E+00  0.00000000000E+00  0.30880498441E+04  0.30880498441E+04  0.25500000920E-02 0.  1.
        2   -1    0    0  501    0  0.00000000000E+00  0.00000000000E+00 -0.71073855813E+03  0.71073855813E+03  0.25500000920E-02 0. -1.
    10030    2    1    2    0    0  0.00000000000E+00  0.00000000000E+00  0.23773112860E+04  0.37987884023E+04  0.29629688447E+04 0.  0.
        5    1    3    3  502    0  0.91530497930E+03  0.11557714793E+04  0.13752560706E+04  0.20161701980E+04  0.46999998093E+01 0.  1.
       -5    1    3    3    0  502 -0.91530497930E+03 -0.11557714793E+04  0.10020552154E+04  0.17826182043E+04  0.46999998093E+01 0. -1.
</event>
<event>
 5   0  0.1028450E-05  0.3018701E+04  0.7818609E-02  0.8238411E-01
        2   -1    0    0  501    0  0.00000000000E+00  0.00000000000E+00  0.18098863777E+04  0.18098863777E+04  0.25500000920E-02 0. -1.
       -2   -1    0    0    0  501  0.00000000000E+00  0.00000000000E+00 -0.12587194838E+04  0.12587194838E+04  0.25500000920E-02 0.  1.
    10030    2    1    2    0    0  0.00000000000E+00  0.00000000000E+00  0.55116689387E+03  0.30686058615E+04  0.30187012089E+04 0.  0.
        3    1    3    3  502    0  0.17117535022E+02 -0.14428525059E+04  0.72564753087E+03  0.16151410815E+04  0.10100000352E+00 0. -1.
       -3    1    3    3    0  502 -0.17117535022E+02  0.14428525059E+04 -0.17448063700E+03  0.14534647800E+04  0.10100000352E+00 0.  1.
</event>
<event>
 5   0  0.3852126E-06  0.2996969E+04  0.7818609E-02  0.8244597E-01
       -1   -1    0    0    0  501  0.00000000000E+00  0.00000000000E+00  0.10688805234E+04  0.10688805234E+04  0.50400001928E-02 0.  1.
        1   -1    0    0  501    0  0.00000000000E+00  0.00000000000E+00 -0.21007548647E+04  0.21007548647E+04  0.50400001928E-02 0. -1.
    10030    2    1    2    0    0  0.00000000000E+00  0.00000000000E+00 -0.10318743414E+04  0.31696353881E+04  0.29969691085E+04 0.  0.
        1    1    3    3  502    0 -0.11205381970E+04  0.91389039788E+03 -0.10001865957E+03  0.14494154830E+04  0.50400001928E-02 0.  1.
       -1    1    3    3    0  502  0.11205381970E+04 -0.91389039788E+03 -0.93185568179E+03  0.17202199051E+04  0.50400001928E-02 0. -1.
</event>
<event>
 5   0  0.1029922E-05  0.3003179E+04  0.7818609E-02  0.8242824E-01
        2   -1    0    0  501    0  0.00000000000E+00  0.00000000000E+00  0.23878068856E+04  0.23878068856E+04  0.25500000920E-02 0. -1.
       -2   -1    0    0    0  501  0.00000000000E+00  0.00000000000E+00 -0.94428505248E+03  0.94428505248E+03  0.25500000920E-02 0.  1.
    10030    2    1    2    0    0  0.00000000000E+00  0.00000000000E+00  0.14435218331E+04  0.33320919381E+04  0.30031785497E+04 0.  0.
        1    1    3    3  502    0  0.13831780890E+04  0.45700986691E+03  0.11259843854E+04  0.18411628066E+04  0.50400001928E-02 0.  1.
       -1    1    3    3    0  502 -0.13831780890E+04 -0.45700986691E+03  0.31753744770E+03  0.14909291315E+04  0.50400001928E-02 0. -1.
</event>
<event>
 5   0  0.3636718E-06  0.3009837E+04  0.7818609E-02  0.8240928E-01
       -1   -1    0    0    0  501  0.00000000000E+00  0.00000000000E+00  0.15819497853E+04  0.15819497853E+04  0.50400001928E-02 0. -1.
        1   -1    0    0  501    0  0.00000000000E+00  0.00000000000E+00 -0.14316378857E+04  0.14316378857E+04  0.50400001928E-02 0.  1.
    10030    2    1    2    0    0  0.00000000000E+00  0.00000000000E+00  0.15031189956E+03  0.30135876710E+04  0.30098367038E+04 0.  0.
        4    1    3    3  502    0  0.12718054992E+04  0.59588779384E+03 -0.46607866841E+03  0.14797981040E+04  0.12699999809E+01 0.  1.
       -4    1    3    3    0  502 -0.12718054992E+04 -0.59588779384E+03  0.61639056797E+03  0.15337895670E+04  0.12699999809E+01 0. -1.
</event>
<event>
 5   0  0.1028450E-05  0.3129128E+04  0.7818609E-02  0.8207789E-01
        2   -1    0    0  501    0  0.00000000000E+00  0.00000000000E+00  0.33225018613E+04  0.33225018613E+04  0.25500000920E-02 0.  1.
       -2   -1    0    0    0  501  0.00000000000E+00  0.00000000000E+00 -0.73675197145E+03  0.73675197145E+03  0.25500000920E-02 0. -1.
    10030    2    1    2    0    0  0.00000000000E+00  0.00000000000E+00  0.25857498898E+04  0.40592538327E+04  0.31291275439E+04 0.  0.
        3    1    3    3  502    0 -0.11480521666E+04  0.70820957660E+03  0.26462687232E+03  0.13746315773E+04  0.10100000352E+00 0. -1.
       -3    1    3    3    0  502  0.11480521666E+04 -0.70820957660E+03  0.23211230175E+04  0.26846222554E+04  0.10100000352E+00 0.  1.
</event>
<event>
 5   0  0.1057036E-05  0.2987610E+04  0.7818609E-02  0.8247278E-01
       -2   -1    0    0    0  501  0.00000000000E+00  0.00000000000E+00  0.79913789854E+03  0.79913789855E+03  0.25500000920E-02 0.  1.
        2   -1    0    0  501    0  0.00000000000E+00  0.00000000000E+00 -0.27923254799E+04  0.27923254799E+04  0.25500000920E-02 0. -1.
    10030    2    1    2    0    0  0.00000000000E+00  0.00000000000E+00 -0.19931875814E+04  0.35914633785E+04  0.29876098246E+04 0.  0.
        4    1    3    3  502    0 -0.10261894653E+04  0.12218807270E+03  0.30005597820E+03  0.10761179985E+04  0.12699999809E+01 0.  1.
       -4    1    3    3    0  502  0.10261894653E+04 -0.12218807270E+03 -0.22932435596E+04  0.25153453799E+04  0.12699999809E+01 0. -1.
</event>
<event>
 5   0  0.3592331E-06  0.2922172E+04  0.7818609E-02  0.8266311E-01
       -1   -1    0    0    0  501  0.00000000000E+00  0.00000000000E+00  0.11230477279E+04  0.11230477279E+04  0.50400001928E-02 0. -1.
        1   -1    0    0  501    0  0.00000000000E+00  0.00000000000E+00 -0.19008741184E+04  0.19008741184E+04  0.50400001928E-02 0.  1.
    10030    2    1    2    0    0  0.00000000000E+00  0.00000000000E+00 -0.77782639054E+03  0.30239218463E+04  0.29221720413E+04 0.  0.
        3    1    3    3  502    0  0.11649943637E+04 -0.16939173210E+03  0.50658992950E+03  0.12816156964E+04  0.10100000352E+00 0. -1.
       -3    1    3    3    0  502 -0.11649943637E+04  0.16939173210E+03 -0.12844163200E+04  0.17423061499E+04  0.10100000352E+00 0.  1.
</event>
<event>
 5   0  0.1029922E-05  0.3003142E+04  0.7818609E-02  0.8242834E-01
        2   -1    0    0  501    0  0.00000000000E+00  0.00000000000E+00  0.26861459407E+04  0.26861459407E+04  0.25500000920E-02 0.  1.
       -2   -1    0    0    0  501  0.00000000000E+00  0.00000000000E+00 -0.83938681203E+03  0.83938681203E+03  0.25500000920E-02 0. -1.
    10030    2    1    2    0    0  0.00000000000E+00  0.00000000000E+00  0.18467591287E+04  0.35255327528E+04  0.30031420065E+04 0.  0.
        1    1    3    3  502    0  0.36374363263E+03  0.88561640729E+03  0.22813536643E+04  0.24741059785E+04  0.50400001928E-02 0.  1.
       -1    1    3    3    0  502 -0.36374363263E+03 -0.88561640729E+03 -0.43459453565E+03  0.10514267742E+04  0.50400001928E-02 0. -1.
</event>
<event>
 5   0  0.3896630E-06  0.2945840E+04  0.7818609E-02  0.8259368E-01
        1   -1    0    0  501    0  0.00000000000E+00  0.00000000000E+00  0.21889597040E+04  0.21889597041E+04  0.50400001928E-02 0.  1.
       -1   -1    0    0    0  501  0.00000000000E+00  0.00000000000E+00 -0.99110690434E+03  0.99110690435E+03  0.50400001928E-02 0. -1.
    10030    2    1    2    0    0  0.00000000000E+00  0.00000000000E+00  0.11978527997E+04  0.31800666084E+04  0.29458398300E+04 0.  0.
        5    1    3    3  502    0  0.77593591300E+03  0.10311576358E+04  0.13653856027E+04  0.18787396161E+04  0.46999998093E+01 0. -1.
       -5    1    3    3    0  502 -0.77593591300E+03 -0.10311576358E+04 -0.16753280295E+03  0.13013269924E+04  0.46999998093E+01 0.  1.
</event>
<event>
 5   0  0.3896630E-06  0.2851942E+04  0.7818609E-02  0.8287321E-01
        1   -1    0    0  501    0  0.00000000000E+00  0.00000000000E+00  0.20080681140E+04  0.20080681140E+04  0.50400001928E-02 0.  1.
       -1   -1    0    0    0  501  0.00000000000E+00  0.00000000000E+00 -0.10126119198E+04  0.10126119198E+04  0.50400001928E-02 0. -1.
    10030    2    1    2    0    0  0.00000000000E+00  0.00000000000E+00  0.99545619420E+03  0.30206800338E+04  0.28519422912E+04 0.  0.
        5    1    3    3  502    0  0.50364627657E+03  0.14603732671E+03  0.19022256755E+04  0.19731880506E+04  0.46999998093E+01 0.  1.
       -5    1    3    3    0  502 -0.50364627657E+03 -0.14603732671E+03 -0.90676948126E+03  0.10474919832E+04  0.46999998093E+01 0. -1.
</event>
<event>
 5   0  0.3852126E-06  0.2260737E+04  0.7818609E-02  0.8493565E-01
        1   -1    0    0  501    0  0.00000000000E+00  0.00000000000E+00  0.13819696509E+04  0.13819696509E+04  0.50400001928E-02 0.  1.
       -1   -1    0    0    0  501  0.00000000000E+00  0.00000000000E+00 -0.92457377051E+03  0.92457377053E+03  0.50400001928E-02 0. -1.
    10030    2    1    2    0    0  0.00000000000E+00  0.00000000000E+00  0.45739588036E+03  0.23065434214E+04  0.22607369514E+04 0.  0.
        1    1    3    3  502    0  0.15744968055E+03  0.97755747367E+03 -0.32762439175E+03  0.10429509856E+04  0.50400001928E-02 0. -1.
       -1    1    3    3    0  502 -0.15744968055E+03 -0.97755747367E+03  0.78502027212E+03  0.12635924358E+04  0.50400001928E-02 0.  1.
</event>
<event>
 5   0  0.3592331E-06  0.3005068E+04  0.7818609E-02  0.8242285E-01
       -1   -1    0    0    0  501  0.00000000000E+00  0.00000000000E+00  0.16938783620E+04  0.16938783620E+04  0.50400001928E-02 0. -1.
        1   -1    0    0  501    0  0.00000000000E+00  0.00000000000E+00 -0.13328042473E+04  0.13328042473E+04  0.50400001928E-02 0.  1.
    10030    2    1    2    0    0  0.00000000000E+00  0.00000000000E+00  0.36107411466E+03  0.30266826093E+04  0.30050679029E+04 0.  0.
        3    1    3    3  502    0 -0.13517167778E+04 -0.64956839524E+03  0.87509747270E+02  0.15022434269E+04  0.10100000352E+00 0. -1.
       -3    1    3    3    0  502  0.13517167778E+04  0.64956839524E+03  0.27356436739E+03  0.15244391824E+04  0.10100000352E+00 0.  1.
</event>
<event>
 5   0  0.3592331E-06  0.2999265E+04  0.7818609E-02  0.8243941E-01
        1   -1    0    0  501    0  0.00000000000E+00  0.00000000000E+00  0.12771262621E+04  0.12771262621E+04  0.50400001928E-02 0. -1.
       -1   -1    0    0    0  501  0.00000000000E+00  0.00000000000E+00 -0.17609043118E+04  0.17609043118E+04  0.50400001928E-02 0.  1.
    10030    2    1    2    0    0  0.00000000000E+00  0.00000000000E+00 -0.48377804969E+03  0.30380305740E+04  0.29992646711E+04 0.  0.
        3    1    3    3  502    0  0.30504808710E+03 -0.10561353397E+04 -0.12750830608E+04  0.16835418062E+04  0.10100000352E+00 0.  1.
       -3    1    3    3    0  502 -0.30504808710E+03  0.10561353397E+04  0.79130501115E+03  0.13544887678E+04  0.10100000352E+00 0. -1.
</event>
<event>
 5   0  0.3636718E-06  0.2977088E+04  0.7818609E-02  0.8250304E-01
        1   -1    0    0  501    0  0.00000000000E+00  0.00000000000E+00  0.18061937297E+04  0.18061937297E+04  0.50400001928E-02 0.  1.
       -1   -1    0    0    0  501  0.00000000000E+00  0.00000000000E+00 -0.12267583342E+04  0.12267583342E+04  0.50400001928E-02 0. -1.
    10030    2    1    2    0    0  0.00000000000E+00  0.00000000000E+00  0.57943539556E+03  0.30329520639E+04  0.29770879806E+04 0.  0.
        4    1    3    3  502    0  0.12567259802E+03 -0.59376513975E+03 -0.10949821175E+04  0.12519337417E+04  0.12699999809E+01 0. -1.
       -4    1    3    3    0  502 -0.12567259802E+03  0.59376513975E+03  0.16744175131E+04  0.17810183222E+04  0.12699999809E+01 0.  1.
</event>
<event>
 5   0  0.3592331E-06  0.3141518E+04  0.7818609E-02  0.8204435E-01
       -1   -1    0    0    0  501  0.00000000000E+00  0.00000000000E+00  0.16248477033E+04  0.16248477033E+04  0.50400001928E-02 0.  1.
        1   -1    0    0  501    0  0.00000000000E+00  0.00000000000E+00 -0.15184709263E+04  0.15184709263E+04  0.50400001928E-02 0. -1.
    10030    2    1    2    0    0  0.00000000000E+00  0.00000000000E+00  0.10637677706E+03  0.31433186296E+04  0.31415181025E+04 0.  0.
        3    1    3    3  502    0 -0.90455917270E+03  0.11856168893E+04 -0.44041907781E+03  0.15549545586E+04  0.10100000352E+00 0. -1.
       -3    1    3    3    0  502  0.90455917270E+03 -0.11856168893E+04  0.54679585487E+03  0.15883640710E+04  0.10100000352E+00 0.  1.
</event>
<event>
 5   0  0.3852126E-06  0.2804591E+04  0.7818609E-02  0.8301845E-01
        1   -1    0    0  501    0  0.00000000000E+00  0.00000000000E+00  0.20841810209E+04  0.20841810209E+04  0.50400001928E-02 0.  1.
       -1   -1    0    0    0  501  0.00000000000E+00  0.00000000000E+00 -0.94350348254E+03  0.94350348256E+03  0.50400001928E-02 0. -1.
    10030    2    1    2    0    0  0.00000000000E+00  0.00000000000E+00  0.11406775384E+04  0.30276845035E+04  0.28045905594E+04 0.  0.
        1    1    3    3  502    0  0.10965612900E+04  0.83402687889E+03  0.85264480269E+03  0.16202008076E+04  0.50400001928E-02 0.  1.
       -1    1    3    3    0  502 -0.10965612900E+04 -0.83402687889E+03  0.28803273571E+03  0.14074836959E+04  0.50400001928E-02 0. -1.
</event>
<event>
 5   0  0.3896630E-06  0.3017892E+04  0.7818609E-02  0.8238640E-01
        1   -1    0    0  501    0  0.00000000000E+00  0.00000000000E+00  0.14646257217E+04  0.14646257217E+04  0.50400001928E-02 0. -1.
       -1   -1    0    0    0  501  0.00000000000E+00  0.00000000000E+00 -0.15546074583E+04  0.15546074583E+04  0.50400001928E-02 0.  1.
    10030    2    1    2    0    0  0.00000000000E+00  0.00000000000E+00 -0.89981736578E+02  0.30192331800E+04  0.30178920263E+04 0.  0.
        5    1    3    3  502    0 -0.32292168186E+03  0.80162609638E+03  0.11924958387E+04  0.14727359663E+04  0.46999998093E+01 0. -1.
       -5    1    3    3    0  502  0.32292168186E+03 -0.80162609638E+03 -0.12824775753E+04  0.15464972137E+04  0.46999998093E+01 0.  1.
</event>
<event>
 5   0  0.1028450E-05  0.2823508E+04  0.7818609E-02  0.8296007E-01
        2   -1    0    0  501    0  0.00000000000E+00  0.00000000000E+00  0.18193406611E+04  0.18193406611E+04  0.25500000920E-02 0. -1.
       -2   -1    0    0    0  501  0.00000000000E+00  0.00000000000E+00 -0.10954785643E+04  0.10954785643E+04  0.25500000920E-02 0.  1.
    10030    2    1    2    0    0  0.00000000000E+00  0.00000000000E+00  0.72386209673E+03  0.29148192254E+04  0.28235075317E+04 0.  0.
        3    1    3    3  502    0  0.14062801941E+04  0.23226338198E+02  0.48788174377E+03  0.14886880308E+04  0.10100000352E+00 0.  1.
       -3    1    3    3    0  502 -0.14062801941E+04 -0.23226338198E+02  0.23598035296E+03  0.14261311946E+04  0.10100000352E+00 0. -1.
</event>
<event>
 5   0  0.9647945E-06  0.2909199E+04  0.7818609E-02  0.8270146E-01
        2   -1    0    0  501    0  0.00000000000E+00  0.00000000000E+00  0.20593202483E+04  0.20593202483E+04  0.25500000920E-02 0.  1.
       -2   -1    0    0    0  501  0.00000000000E+00  0.00000000000E+00 -0.10274553918E+04  0.10274553918E+04  0.25500000920E-02 0. -1.
    10030    2    1    2    0    0  0.00000000000E+00  0.00000000000E+00  0.10318648564E+04  0.30867756401E+04  0.29091989912E+04 0.  0.
        2    1    3    3  502    0 -0.10861200570E+04  0.61795554342E+03  0.13059146900E+04  0.18074675681E+04  0.25500000920E-02 0.  1.
       -2    1    3    3    0  502  0.10861200570E+04 -0.61795554342E+03 -0.27404983360E+03  0.12793080721E+04  0.25500000920E-02 0. -1.
</event>
<event>
 5   0  0.3896630E-06  0.2848231E+04  0.7818609E-02  0.8288449E-01
       -1   -1    0    0    0  501  0.00000000000E+00  0.00000000000E+00  0.15640591537E+04  0.15640591537E+04  0.50400001928E-02 0. -1.
        1   -1    0    0  501    0  0.00000000000E+00  0.00000000000E+00 -0.12966930613E+04  0.12966930614E+04  0.50400001928E-02 0.  1.
    10030    2    1    2    0    0  0.00000000000E+00  0.00000000000E+00  0.26736609236E+03  0.28607522151E+04  0.28482307857E+04 0.  0.
        5    1    3    3  502    0  0.71872255181E+02  0.50732248019E+03 -0.12008949214E+04  0.13056463619E+04  0.46999998093E+01 0.  1.
       -5    1    3    3    0  502 -0.71872255181E+02 -0.50732248019E+03  0.14682610138E+04  0.15551058532E+04  0.46999998093E+01 0. -1.
</event>
<event>
 5   0  0.1028450E-05  0.2998403E+04  0.7818609E-02  0.8244187E-01
       -2   -1    0    0    0  501  0.00000000000E+00  0.00000000000E+00  0.90392185868E+03  0.90392185869E+03  0.25500000920E-02 0.  1.
        2   -1    0    0  501    0  0.00000000000E+00  0.00000000000E+00 -0.24865031062E+04  0.24865031062E+04  0.25500000920E-02 0. -1.
    10030    2    1    2    0    0  0.00000000000E+00  0.00000000000E+00 -0.15825812476E+04  0.33904249649E+04  0.29984025810E+04 0.  0.
        3    1    3    3  502    0  0.20350497856E+03  0.99961775632E+02 -0.24670047349E+04  0.24774016640E+04  0.10100000352E+00 0. -1.
       -3    1    3    3    0  502 -0.20350497856E+03 -0.99961775632E+02  0.88442348731E+03  0.91302330090E+03  0.10100000352E+00 0.  1.
</event>
<event>
 5   0  0.1029922E-05  0.2488480E+04  0.7818609E-02  0.8407101E-01
       -2   -1    0    0    0  501  0.00000000000E+00  0.00000000000E+00  0.12531619731E+04  0.12531619731E+04  0.25500000920E-02 0. -1.
        2   -1    0    0  501    0  0.00000000000E+00  0.00000000000E+00 -0.12353817665E+04  0.12353817665E+04  0.25500000920E-02 0.  1.
    10030    2    1    2    0    0  0.00000000000E+00  0.00000000000E+00  0.17780206618E+02  0.24885437396E+04  0.24884802206E+04 0.  0.
        1    1    3    3  502    0  0.11483461420E+04 -0.46327631576E+03 -0.11280788951E+03  0.12434023591E+04  0.50400001928E-02 0. -1.
       -1    1    3    3    0  502 -0.11483461420E+04  0.46327631576E+03  0.13058809613E+03  0.12451413805E+04  0.50400001928E-02 0.  1.
</event>
<event>
 5   0  0.1057036E-05  0.3023995E+04  0.7818609E-02  0.8236912E-01
       -2   -1    0    0    0  501  0.00000000000E+00  0.00000000000E+00  0.13232290821E+04  0.13232290821E+04  0.25500000920E-02 0. -1.
        2   -1    0    0  501    0  0.00000000000E+00  0.00000000000E+00 -0.17276956486E+04  0.17276956486E+04  0.25500000920E-02 0.  1.
    10030    2    1    2    0    0  0.00000000000E+00  0.00000000000E+00 -0.40446656652E+03  0.30509247307E+04  0.30239954545E+04 0.  0.
        4    1    3    3  502    0  0.13688220621E+04  0.38172080824E+03 -0.72331196635E+03  0.15945427015E+04  0.12699999809E+01 0.  1.
       -4    1    3    3    0  502 -0.13688220621E+04 -0.38172080824E+03  0.31884539984E+03  0.14563820292E+04  0.12699999809E+01 0. -1.
</event>
<event>
 5   0  0.9647945E-06  0.2913793E+04  0.7818609E-02  0.8268785E-01
       -2   -1    0    0    0  501  0.00000000000E+00  0.00000000000E+00  0.13073726535E+04  0.13073726535E+04  0.25500000920E-02 0. -1.
        2   -1    0    0  501    0  0.00000000000E+00  0.00000000000E+00 -0.16235212373E+04  0.16235212373E+04  0.25500000920E-02 0.  1.
    10030    2    1    2    0    0  0.00000000000E+00  0.00000000000E+00 -0.31614858376E+03  0.29308938908E+04  0.29137929013E+04 0.  0.
        2    1    3    3  502    0  0.19983779853E+03  0.53585583173E+03  0.11897415909E+04  0.13200612377E+04  0.25500000920E-02 0. -1.
       -2    1    3    3    0  502 -0.19983779853E+03 -0.53585583173E+03 -0.15058901747E+04  0.16108326531E+04  0.25500000920E-02 0.  1.
</event>
<event>
 5   0  0.3896630E-06  0.2961656E+04  0.7818609E-02  0.8254766E-01
        1   -1    0    0  501    0  0.00000000000E+00  0.00000000000E+00  0.20875917282E+04  0.20875917282E+04  0.50400001928E-02 0. -1.
       -1   -1    0    0    0  501  0.00000000000E+00  0.00000000000E+00 -0.10504216999E+04  0.10504216999E+04  0.50400001928E-02 0.  1.
    10030    2    1    2    0    0  0.00000000000E+00  0.00000000000E+00  0.10371700283E+04  0.31380134280E+04  0.29616560582E+04 0.  0.
        5    1    3    3  502    0  0.37952054446E+03 -0.13605805770E+04  0.47575952164E+02  0.14133297249E+04  0.46999998093E+01 0.  1.
       -5    1    3    3    0  502 -0.37952054446E+03  0.13605805770E+04  0.98959407614E+03  0.17246837031E+04  0.46999998093E+01 0. -1.
</event>
<event>
 5   0  0.9647945E-06  0.2987605E+04  0.7818609E-02  0.8247279E-01
       -2   -1    0    0    0  501  0.00000000000E+00  0.00000000000E+00  0.14137295079E+04  0.14137295079E+04  0.25500000920E-02 0. -1.
        2   -1    0    0  501    0  0.00000000000E+00  0.00000000000E+00 -0.15784111116E+04  0.15784111117E+04  0.25500000920E-02 0.  1.
    10030    2    1    2    0    0  0.00000000000E+00  0.00000000000E+00 -0.16468160372E+03  0.29921406196E+04  0.29876053047E+04 0.  0.
        2    1    3    3  502    0  0.12163636056E+04  0.84694012074E+03 -0.26862955187E+03  0.15063232805E+04  0.25500000920E-02 0.  1.
       -2    1    3    3    0  502 -0.12163636056E+04 -0.84694012074E+03  0.10394794815E+03  0.14858173391E+04  0.25500000920E-02 0. -1.
</event>
<event>
 5   0  0.3896630E-06  0.2955384E+04  0.7818609E-02  0.8256587E-01
       -1   -1    0    0    0  501  0.00000000000E+00  0.00000000000E+00  0.19652810790E+04  0.19652810790E+04  0.50400001928E-02 0. -1.
        1   -1    0    0  501    0  0.00000000000E+00  0.00000000000E+00 -0.11110746584E+04  0.11110746585E+04  0.50400001928E-02 0.  1.
    10030    2    1    2    0    0  0.00000000000E+00  0.00000000000E+00  0.85420642058E+03  0.30763557375E+04  0.29553842415E+04 0.  0.
        5    1    3    3  502    0  0.74550038434E+02 -0.90947764182E+03  0.16369358591E+04  0.18741100250E+04  0.46999998093E+01 0. -1.
       -5    1    3    3    0  502 -0.74550038434E+02  0.90947764182E+03 -0.78272943851E+03  0.12022457124E+04  0.46999998093E+01 0.  1.
</event>
<event>
 5   0  0.3636718E-06  0.2968305E+04  0.7818609E-02  0.8252840E-01
        1   -1    0    0  501    0  0.00000000000E+00  0.00000000000E+00  0.15108528940E+04  0.15108528940E+04  0.50400001928E-02 0.  1.
       -1   -1    0    0    0  501  0.00000000000E+00  0.00000000000E+00 -0.14579235638E+04  0.14579235638E+04  0.50400001928E-02 0. -1.
    10030    2    1    2    0    0  0.00000000000E+00  0.00000000000E+00  0.52929330192E+02  0.29687764578E+04  0.29683045906E+04 0.  0.
        4    1    3    3  502    0  0.53677661119E+03  0.50685204790E+03  0.13141778992E+04  0.15073464408E+04  0.12699999809E+01 0.  1.
       -4    1    3    3    0  502 -0.53677661119E+03 -0.50685204790E+03 -0.12612485690E+04  0.14614300170E+04  0.12699999809E+01 0. -1.
</event>
<event>
 5   0  0.3725232E-06  0.2981188E+04  0.7818609E-02  0.8249123E-01
       -1   -1    0    0    0  501  0.00000000000E+00  0.00000000000E+00  0.30929152304E+04  0.30929152304E+04  0.50400001928E-02 0.  1.
        1   -1    0    0  501    0  0.00000000000E+00  0.00000000000E+00 -0.71837426624E+03  0.71837426626E+03  0.50400001928E-02 0. -1.
    10030    2    1    2    0    0  0.00000000000E+00  0.00000000000E+00  0.23745409642E+04  0.38112894967E+04  0.29811881586E+04 0.  0.
        2    1    3    3  502    0 -0.41155142075E+02 -0.91398584016E+03 -0.31717741524E+03  0.96833123180E+03  0.25500000920E-02 0. -1.
       -2    1    3    3    0  502  0.41155142075E+02  0.91398584016E+03  0.26917183794E+04  0.28429582649E+04  0.25500000920E-02 0.  1.
</event>
<event>
 5   0  0.3636718E-06  0.2979156E+04  0.7818609E-02  0.8249708E-01
       -1   -1    0    0    0  501  0.00000000000E+00  0.00000000000E+00  0.10837254437E+04  0.10837254438E+04  0.50400001928E-02 0. -1.
        1   -1    0    0  501    0  0.00000000000E+00  0.00000000000E+00 -0.20474219929E+04  0.20474219929E+04  0.50400001928E-02 0.  1.
    10030    2    1    2    0    0  0.00000000000E+00  0.00000000000E+00 -0.96369654918E+03  0.31311474367E+04  0.29791564631E+04 0.  0.
        4    1    3    3  502    0  0.14660519991E+03  0.10217249736E+04  0.64692106215E+03  0.12181639791E+04  0.12699999809E+01 0. -1.
       -4    1    3    3    0  502 -0.14660519991E+03 -0.10217249736E+04 -0.16106176113E+04  0.19129834576E+04  0.12699999809E+01 0.  1.
</event>
<event>
 5   0  0.1029922E-05  0.2998817E+04  0.7818609E-02  0.8244069E-01
       -2   -1    0    0    0  501  0.00000000000E+00  0.00000000000E+00  0.17084879843E+04  0.17084879843E+04  0.25500000920E-02 0.  1.
        2   -1    0    0  501    0  0.00000000000E+00  0.00000000000E+00 -0.13159154977E+04  0.13159154977E+04  0.25500000920E-02 0. -1.
    10030    2    1    2    0    0  0.00000000000E+00  0.00000000000E+00  0.39257248662E+03  0.30244034820E+04  0.29988169775E+04 0.  0.
        1    1    3    3  502    0  0.94526063052E+03 -0.33824515818E+03 -0.92690279121E+03  0.13664099791E+04  0.50400001928E-02 0. -1.
       -1    1    3    3    0  502 -0.94526063052E+03  0.33824515818E+03  0.13194752778E+04  0.16579935028E+04  0.50400001928E-02 0.  1.
</event>
<event>
 5   0  0.1057036E-05  0.2606820E+04  0.7818609E-02  0.8365888E-01
       -2   -1    0    0    0  501  0.00000000000E+00  0.00000000000E+00  0.86061810653E+03  0.86061810654E+03  0.25500000920E-02 0.  1.
        2   -1    0    0  501    0  0.00000000000E+00  0.00000000000E+00 -0.19740208501E+04  0.19740208501E+04  0.25500000920E-02 0. -1.
    10030    2    1    2    0    0  0.00000000000E+00  0.00000000000E+00 -0.11134027436E+04  0.28346389566E+04  0.26068203515E+04 0.  0.
        4    1    3    3  502    0 -0.11271491097E+04 -0.26883975860E+03  0.92224243066E+02  0.11624314411E+04  0.12699999809E+01 0.  1.
       -4    1    3    3    0  502  0.11271491097E+04  0.26883975860E+03 -0.12056269866E+04  0.16722075156E+04  0.12699999809E+01 0. -1.
</event>
<event>
 5   0  0.3592331E-06  0.3050558E+04  0.7818609E-02  0.8229439E-01
        1   -1    0    0  501    0  0.00000000000E+00  0.00000000000E+00  0.16598314690E+04  0.16598314690E+04  0.50400001928E-02 0.  1.
       -1   -1    0    0    0  501  0.00000000000E+00  0.00000000000E+00 -0.14016337486E+04  0.14016337486E+04  0.50400001928E-02 0. -1.
    10030    2    1    2    0    0  0.00000000000E+00  0.00000000000E+00  0.25819772037E+03  0.30614652176E+04  0.30505578532E+04 0.  0.
        3    1    3    3  502    0 -0.10181123703E+04  0.15242582381E+02 -0.10106071567E+04  0.14346121323E+04  0.10100000352E+00 0. -1.
       -3    1    3    3    0  502  0.10181123703E+04 -0.15242582381E+02  0.12688048770E+04  0.16268530853E+04  0.10100000352E+00 0.  1.
</event>
<event>
 5   0  0.1028450E-05  0.2974624E+04  0.7818609E-02  0.8251015E-01
        2   -1    0    0  501    0  0.00000000000E+00  0.00000000000E+00  0.26791933026E+04  0.26791933026E+04  0.25500000920E-02 0. -1.
       -2   -1    0    0    0  501  0.00000000000E+00  0.00000000000E+00 -0.82565759635E+03  0.82565759636E+03  0.25500000920E-02 0.  1.
    10030    2    1    2    0    0  0.00000000000E+00  0.00000000000E+00  0.18535357062E+04  0.35048508989E+04  0.29746235408E+04 0.  0.
        3    1    3    3  502    0 -0.27046375936E+03  0.14557113793E+04  0.76076402965E+03  0.16646345496E+04  0.10100000352E+00 0.  1.
       -3    1    3    3    0  502  0.27046375936E+03 -0.14557113793E+04  0.10927716766E+04  0.18402163493E+04  0.10100000352E+00 0. -1.
</event>
<event>
 5   0  0.3592331E-06  0.2974185E+04  0.7818609E-02  0.8251141E-01
        1   -1    0    0  501    0  0.00000000000E+00  0.00000000000E+00  0.30500775824E+04  0.30500775824E+04  0.50400001928E-02 0.  1.
       -1   -1    0    0    0  501  0.00000000000E+00  0.00000000000E+00 -0.72504532669E+03  0.72504532670E+03  0.50400001928E-02 0. -1.
    10030    2    1    2    0    0  0.00000000000E+00  0.00000000000E+00  0.23250322557E+04  0.37751229091E+04  0.29741852647E+04 0.  0.
        3    1    3    3  502    0  0.26562502783E+03 -0.10435216169E+04 -0.13933320081E+03  0.10857751938E+04  0.10100000352E+00 0. -1.
       -3    1    3    3    0  502 -0.26562502783E+03  0.10435216169E+04  0.24643654565E+04  0.26893477153E+04  0.10100000352E+00 0.  1.
</event>
<event>
 5   0  0.3725232E-06  0.3071314E+04  0.7818609E-02  0.8223655E-01
       -1   -1    0    0    0  501  0.00000000000E+00  0.00000000000E+00  0.17090592291E+04  0.17090592291E+04  0.50400001928E-02 0.  1.
        1   -1    0    0  501    0  0.00000000000E+00  0.00000000000E+00 -0.13798486425E+04  0.13798486426E+04  0.50400001928E-02 0. -1.
    10030    2    1    2    0    0  0.00000000000E+00  0.00000000000E+00  0.32921058659E+03  0.30889078717E+04  0.30713144140E+04 0.  0.
        2    1    3    3  502    0 -0.12646609893E+04 -0.38753960733E+03 -0.62004888982E+03  0.14608268176E+04  0.25500000920E-02 0. -1.
       -2    1    3    3    0  502  0.12646609893E+04  0.38753960733E+03  0.94925947641E+03  0.16280810541E+04  0.25500000920E-02 0.  1.
</event>
<event>
 5   0  0.9647945E-06  0.2770398E+04  0.7818609E-02  0.8312518E-01
       -2   -1    0    0    0  501  0.00000000000E+00  0.00000000000E+00  0.66119272975E+03  0.66119272976E+03  0.25500000920E-02 0.  1.
        2   -1    0    0  501    0  0.00000000000E+00  0.00000000000E+00 -0.29019933669E+04  0.29019933669E+04  0.25500000920E-02 0. -1.
    10030    2    1    2    0    0  0.00000000000E+00  0.00000000000E+00 -0.22408006371E+04  0.35631860966E+04  0.27703984666E+04 0.  0.
        2    1    3    3  502    0 -0.70791296306E+03 -0.11841195329E+04 -0.12805113542E+04  0.18822829649E+04  0.25500000920E-02 0. -1.
       -2    1    3    3    0  502  0.70791296306E+03  0.11841195329E+04 -0.96028928289E+03  0.16809031318E+04  0.25500000920E-02 0.  1.
</event>
<event>
 5   0  0.3313750E-06  0.2935091E+04  0.7818609E-02  0.8262513E-01
        3   -1    0    0  501    0  0.00000000000E+00  0.00000000000E+00  0.23257133053E+04  0.23257133075E+04  0.10100000352E+00 0.  1.
       -3   -1    0    0    0  501  0.00000000000E+00  0.00000000000E+00 -0.92603390608E+03  0.92603391159E+03  0.10100000352E+00 0. -1.
    10030    2    1    2    0    0  0.00000000000E+00  0.00000000000E+00  0.13996793993E+04  0.32517472191E+04  0.29350907237E+04 0.  0.
        3    1    3    3  502    0 -0.73185545401E+03  0.12429378210E+04  0.40013123689E+03  0.14968673453E+04  0.10100000352E+00 0. -1.
       -3    1    3    3    0  502  0.73185545401E+03 -0.12429378210E+04  0.99954816237E+03  0.17548798738E+04  0.10100000352E+00 0.  1.
</event>
<event>
 5   0  0.3852126E-06  0.3041048E+04  0.7818609E-02  0.8232106E-01
       -1   -1    0    0    0  501  0.00000000000E+00  0.00000000000E+00  0.10222119588E+04  0.10222119588E+04  0.50400001928E-02 0.  1.
        1   -1    0    0  501    0  0.00000000000E+00  0.00000000000E+00 -0.22617548339E+04  0.22617548340E+04  0.50400001928E-02 0. -1.
    10030    2    1    2    0    0  0.00000000000E+00  0.00000000000E+00 -0.12395428751E+04  0.32839667928E+04  0.30410477400E+04 0.  0.
        1    1    3    3  502    0 -0.70376401117E+03  0.40208624370E+03 -0.20090175915E+04  0.21663584222E+04  0.50400001928E-02 0. -1.
       -1    1    3    3    0  502  0.70376401117E+03 -0.40208624370E+03  0.76947471635E+03  0.11176083705E+04  0.50400001928E-02 0.  1.
</event>
<event>
 5   0  0.1057036E-05  0.2479041E+04  0.7818609E-02  0.8410490E-01
       -2   -1    0    0    0  501  0.00000000000E+00  0.00000000000E+00  0.99726610648E+03  0.99726610648E+03  0.25500000920E-02 0. -1.
        2   -1    0    0  501    0  0.00000000000E+00  0.00000000000E+00 -0.15406232256E+04  0.15406232256E+04  0.25500000920E-02 0.  1.
    10030    2    1    2    0    0  0.00000000000E+00  0.00000000000E+00 -0.54335711914E+03  0.25378893321E+04  0.24790412064E+04 0.  0.
        4    1    3    3  502    0  0.42128298272E+03  0.50652866348E+02 -0.14639555581E+04  0.15242088287E+04  0.12699999809E+01 0.  1.
       -4    1    3    3    0  502 -0.42128298272E+03 -0.50652866348E+02  0.92059843894E+03  0.10136805035E+04  0.12699999809E+01 0. -1.
</event>
<event>
 5   0  0.3852126E-06  0.3015722E+04  0.7818609E-02  0.8239256E-01
       -1   -1    0    0    0  501  0.00000000000E+00  0.00000000000E+00  0.12901954613E+04  0.12901954613E+04  0.50400001928E-02 0. -1.
        1   -1    0    0  501    0  0.00000000000E+00  0.00000000000E+00 -0.17622484919E+04  0.17622484919E+04  0.50400001928E-02 0.  1.
    10030    2    1    2    0    0  0.00000000000E+00  0.00000000000E+00 -0.47205303061E+03  0.30524439532E+04  0.30157221397E+04 0.  0.
        1    1    3    3  502    0 -0.12701208248E+04  0.38278920280E+03 -0.96163128558E+03  0.16384349889E+04  0.50400001928E-02 0.  1.
       -1    1    3    3    0  502  0.12701208248E+04 -0.38278920280E+03  0.48957825497E+03  0.14140089643E+04  0.50400001928E-02 0. -1.
</event>
<event>
 5   0  0.1057036E-05  0.2202074E+04  0.7818609E-02  0.8517566E-01
       -2   -1    0    0    0  501  0.00000000000E+00  0.00000000000E+00  0.59275998687E+03  0.59275998687E+03  0.25500000920E-02 0. -1.
        2   -1    0    0  501    0  0.00000000000E+00  0.00000000000E+00 -0.20451480719E+04  0.20451480719E+04  0.25500000920E-02 0.  1.
    10030    2    1    2    0    0  0.00000000000E+00  0.00000000000E+00 -0.14523880851E+04  0.26379080588E+04  0.22020735176E+04 0.  0.
        4    1    3    3  502    0  0.81726935100E+03 -0.47087705925E+02 -0.16082194954E+04  0.18045825009E+04  0.12699999809E+01 0.  1.
       -4    1    3    3    0  502 -0.81726935100E+03  0.47087705925E+02  0.15583141036E+03  0.83332555792E+03  0.12699999809E+01 0. -1.
</event>
<event>
 5   0  0.1089569E-05  0.3441369E+04  0.7818609E-02  0.8127827E-01
       -2   -1    0    0    0  501  0.00000000000E+00  0.00000000000E+00  0.18125345437E+04  0.18125345437E+04  0.25500000920E-02 0.  1.
        2   -1    0    0  501    0  0.00000000000E+00  0.00000000000E+00 -0.16334886877E+04  0.16334886877E+04  0.25500000920E-02 0. -1.
    10030    2    1    2    0    0  0.00000000000E+00  0.00000000000E+00  0.17904585607E+03  0.34460232314E+04  0.34413687237E+04 0.  0.
        5    1    3    3  502    0 -0.10490563718E+02 -0.33298888559E+03  0.17799237057E+04  0.18108401746E+04  0.46999998093E+01 0.  1.
       -5    1    3    3    0  502  0.10490563718E+02  0.33298888559E+03 -0.16008778496E+04  0.16351830568E+04  0.46999998093E+01 0. -1.
</event>
<event>
 5   0  0.3636718E-06  0.2923973E+04  0.7818609E-02  0.8265780E-01
        1   -1    0    0  501    0  0.00000000000E+00  0.00000000000E+00  0.23226055556E+04  0.23226055556E+04  0.50400001928E-02 0.  1.
       -1   -1    0    0    0  501  0.00000000000E+00  0.00000000000E+00 -0.92026134167E+03  0.92026134169E+03  0.50400001928E-02 0. -1.
    10030    2    1    2    0    0  0.00000000000E+00  0.00000000000E+00  0.14023442139E+04  0.32428668973E+04  0.29239727118E+04 0.  0.
        4    1    3    3  502    0  0.54512212607E+03 -0.11525526762E+04  0.14946489227E+04  0.19645642821E+04  0.12699999809E+01 0.  1.
       -4    1    3    3    0  502 -0.54512212607E+03  0.11525526762E+04 -0.92304708745E+02  0.12783026151E+04  0.12699999809E+01 0. -1.
</event>
<event>
 5   0  0.1089569E-05  0.1930262E+04  0.7818609E-02  0.8639938E-01
        2   -1    0    0  501    0  0.00000000000E+00  0.00000000000E+00  0.70082581083E+03  0.70082581083E+03  0.25500000920E-02 0. -1.
       -2   -1    0    0    0  501  0.00000000000E+00  0.00000000000E+00 -0.13291147339E+04  0.13291147339E+04  0.25500000920E-02 0.  1.
    10030    2    1    2    0    0  0.00000000000E+00  0.00000000000E+00 -0.62828892308E+03  0.20299405447E+04  0.19302620662E+04 0.  0.
        5    1    3    3  502    0  0.39508321968E+03 -0.77017975010E+03 -0.76302129512E+03  0.11539025889E+04  0.46999998093E+01 0. -1.
       -5    1    3    3    0  502 -0.39508321968E+03  0.77017975010E+03  0.13473237204E+03  0.87603795581E+03  0.46999998093E+01 0.  1.
</event>
<event>
 5   0  0.3725232E-06  0.2577676E+04  0.7818609E-02  0.8375824E-01
        1   -1    0    0  501    0  0.00000000000E+00  0.00000000000E+00  0.23279966509E+04  0.23279966509E+04  0.50400001928E-02 0. -1.
       -1   -1    0    0    0  501  0.00000000000E+00  0.00000000000E+00 -0.71353363977E+03  0.71353363979E+03  0.50400001928E-02 0.  1.
    10030    2    1    2    0    0  0.00000000000E+00  0.00000000000E+00  0.16144630111E+04  0.30415302907E+04  0.25776764139E+04 0.  0.
        2    1    3    3  502    0  0.69350177654E+03 -0.26519999878E+02 -0.47422715848E+03  0.84055899395E+03  0.25500000920E-02 0.  1.
       -2    1    3    3    0  502 -0.69350177654E+03  0.26519999878E+02  0.20886901696E+04  0.22009712967E+04  0.25500000920E-02 0. -1.
</event>
<event>
 5   0  0.9647945E-06  0.3040326E+04  0.7818609E-02  0.8232308E-01
       -2   -1    0    0    0  501  0.00000000000E+00  0.00000000000E+00  0.10390000868E+04  0.10390000868E+04  0.25500000920E-02 0.  1.
        2   -1    0    0  501    0  0.00000000000E+00  0.00000000000E+00 -0.22241532464E+04  0.22241532464E+04  0.25500000920E-02 0. -1.
    10030    2    1    2    0    0  0.00000000000E+00  0.00000000000E+00 -0.11851531596E+04  0.32631533331E+04  0.30403259141E+04 0.  0.
        2    1    3    3  502    0  0.14940606267E+04  0.27466512014E+03 -0.53150896927E+03  0.16093973620E+04  0.25500000920E-02 0.  1.
       -2    1    3    3    0  502 -0.14940606267E+04 -0.27466512014E+03 -0.65364419035E+03  0.16537559711E+04  0.25500000920E-02 0. -1.
</event>
<event>
 5   0  0.3896630E-06  0.2974598E+04  0.7818609E-02  0.8251022E-01
        1   -1    0    0  501    0  0.00000000000E+00  0.00000000000E+00  0.80553265037E+03  0.80553265039E+03  0.50400001928E-02 0.  1.
       -1   -1    0    0    0  501  0.00000000000E+00  0.00000000000E+00 -0.27460816905E+04  0.27460816905E+04  0.50400001928E-02 0. -1.
    10030    2    1    2    0    0  0.00000000000E+00  0.00000000000E+00 -0.19405490401E+04  0.35516143409E+04  0.29745980988E+04 0.  0.
        5    1    3    3  502    0 -0.13415307518E+04  0.15402797988E+02 -0.17367457264E+04  0.21945955920E+04  0.46999998093E+01 0. -1.
       -5    1    3    3    0  502  0.13415307518E+04 -0.15402797988E+02 -0.20380331371E+03  0.13570187489E+04  0.46999998093E+01 0.  1.
</event>
</LesHouchesEvents>
