<LesHouchesEvents version="3.0">
<header>
<!--
#*********************************************************************
#                                                                    *
#                        MadGraph5_aMC@NLO                           *
#                                                                    *
#                           Going Beyond                             *
#                                                                    *
#                   http://madgraph.hep.uiuc.edu                     *
#                   http://madgraph.phys.ucl.ac.be                   *
#                   http://amcatnlo.cern.ch                          *
#                                                                    *
#                     The MadGraph5_aMC@NLO team                     *
#                                                                    *
#....................................................................*
#                                                                    *
# This file contains all the information necessary to reproduce      *
# the events generated:                                              *
#                                                                    *
# 1. software version                                                *
# 2. proc_card          : code generation info including model       *
# 3. param_card         : model primary parameters in the LH format  *
# 4. run_card           : running parameters (collider and cuts)     *
# 5. pythia_card        : present only if pythia has been run        *
# 6. pgs_card           : present only if pgs has been run           *
# 7. delphes_cards      : present only if delphes has been run       *
#                                                                    *
#                                                                    *
#*********************************************************************
-->
<MGVersion>
#5.2.2.3
</MGVersion>
<MG5ProcCard>
#************************************************************
#*                     MadGraph5_aMC@NLO                    *
#*                                                          *
#*                *                       *                 *
#*                  *        * *        *                   *
#*                    * * * * 5 * * * *                     *
#*                  *        * *        *                   *
#*                *                       *                 *
#*                                                          *
#*                                                          *
#*         VERSION 2.2.3                 2015-02-10         *
#*                                                          *
#*    The MadGraph5_aMC@NLO Development Team - Find us at   *
#*    https://server06.fynu.ucl.ac.be/projects/madgraph     *
#*                                                          *
#************************************************************
#*                                                          *
#*               Command File for MadGraph5_aMC@NLO         *
#*                                                          *
#*     run as ./bin/mg5_aMC  filename                       *
#*                                                          *
#************************************************************
set group_subprocesses Auto
set ignore_six_quark_processes False
set loop_optimized_output True
set gauge unitary
set complex_mass_scheme False
import model sm
define p = g u c d s u~ c~ d~ s~
define j = g u c d s u~ c~ d~ s~
define l+ = e+ mu+
define l- = e- mu-
define vl = ve vm vt
define vl~ = ve~ vm~ vt~
import model Zprime_UFO
generate p p > zph, zph > j j
add process p p > zph, zph > b b~
output Dijet_signal
</MG5ProcCard>
<MGProcCard>
#*********************************************************************
#                        MadGraph/MadEvent                           *
#                   http://madgraph.hep.uiuc.edu                     *
#                                                                    *
#                          proc_card.dat                             *
#*********************************************************************
#                                                                    *
#            This Files is generated by MADGRAPH 5                   *
#                                                                    *
# WARNING: This Files is generated for MADEVENT (compatibility issue)*
#          This files is NOT a valid MG4 proc_card.dat               *
#          Running this in MG4 will NEVER reproduce the result of MG5*
#                                                                    *
#*********************************************************************
#*********************************************************************
# Process(es) requested : mg2 input                                  *
#*********************************************************************
# Begin PROCESS # This is TAG. Do not modify this line
p p > zph , zph > j j           #Process
# Be carefull the coupling are here in MG5 convention
          
end_coup           # End the couplings input

done               # this tells MG there are no more procs
# End PROCESS  # This is TAG. Do not modify this line
#*********************************************************************
# Model information                                                  *
#*********************************************************************
# Begin MODEL  # This is TAG. Do not modify this line
Zprime_UFO
# End   MODEL  # This is TAG. Do not modify this line
#*********************************************************************
# Start multiparticle definitions                                    *
#*********************************************************************
# Begin MULTIPARTICLES # This is TAG. Do not modify this line

# End  MULTIPARTICLES # This is TAG. Do not modify this line
</MGProcCard>
<MGRunCard>
#*********************************************************************
#                       MadGraph5_aMC@NLO                            *
#                                                                    *
#                     run_card.dat MadEvent                          *
#                                                                    *
#  This file is used to set the parameters of the run.               *
#                                                                    *
#  Some notation/conventions:                                        *
#                                                                    *
#   Lines starting with a '# ' are info or comments                  *
#                                                                    *
#   mind the format:   value    = variable     ! comment             *
#*********************************************************************
#
#*******************                                                 
# Running parameters
#*******************                                                 
#                                                                    
#*********************************************************************
# Tag name for the run (one word)                                    *
#*********************************************************************
  tag_1     = run_tag ! name of the run 
#*********************************************************************
# Run to generate the grid pack                                      *
#*********************************************************************
  .false.     = gridpack  !True = setting up the grid pack
#*********************************************************************
# Number of events and rnd seed                                      *
# Warning: Do not generate more than 1M events in a single run       *
# If you want to run Pythia, avoid more than 50k events in a run.    *
#*********************************************************************
  2000 = nevents ! Number of unweighted events requested 
 570 = iseed   ! rnd seed (0=assigned automatically=default))
#*********************************************************************
# Collider type and energy                                           *
# lpp: 0=No PDF, 1=proton, -1=antiproton, 2=photon from proton,      *
#                                         3=photon from electron     *
#*********************************************************************
        1     = lpp1    ! beam 1 type 
        1     = lpp2    ! beam 2 type
     4000     = ebeam1  ! beam 1 total energy in GeV
     4000     = ebeam2  ! beam 2 total energy in GeV
#*********************************************************************
# Beam polarization from -100 (left-handed) to 100 (right-handed)    *
#*********************************************************************
        0     = polbeam1 ! beam polarization for beam 1
        0     = polbeam2 ! beam polarization for beam 2
#*********************************************************************
# PDF CHOICE: this automatically fixes also alpha_s and its evol.    *
#*********************************************************************
 'nn23lo1'    = pdlabel     ! PDF set                                     
 230000    = lhaid     ! if pdlabel=lhapdf, this is the lhapdf number
#*********************************************************************
# Renormalization and factorization scales                           *
#*********************************************************************
 F        = fixed_ren_scale  ! if .true. use fixed ren scale
 F        = fixed_fac_scale  ! if .true. use fixed fac scale
 91.1880  = scale            ! fixed ren scale
 91.1880  = dsqrt_q2fact1    ! fixed fact scale for pdf1
 91.1880  = dsqrt_q2fact2    ! fixed fact scale for pdf2
 1        = scalefact        ! scale factor for event-by-event scales
#*********************************************************************
# Matching - Warning! ickkw > 1 is still beta
#*********************************************************************
 0        = ickkw            ! 0 no matching, 1 MLM, 2 CKKW matching
 1        = highestmult      ! for ickkw=2, highest mult group
 1        = ktscheme         ! for ickkw=1, 1 Durham kT, 2 Pythia pTE
 1        = alpsfact         ! scale factor for QCD emission vx
 F        = chcluster        ! cluster only according to channel diag
 T        = pdfwgt           ! for ickkw=1, perform pdf reweighting
 5        = asrwgtflavor     ! highest quark flavor for a_s reweight
 T        = clusinfo         ! include clustering tag in output
 3.0      = lhe_version       ! Change the way clustering information pass to shower.        
#*********************************************************************
#**********************************************************
#
#**********************************************************
# Automatic ptj and mjj cuts if xqcut > 0
# (turn off for VBF and single top processes)
#**********************************************************
   T  = auto_ptj_mjj  ! Automatic setting of ptj and mjj
#**********************************************************
#                                                                    
#**********************************
# BW cutoff (M+/-bwcutoff*Gamma)
#**********************************
  15  = bwcutoff      ! (M+/-bwcutoff*Gamma)
#**********************************************************
# Apply pt/E/eta/dr/mij cuts on decay products or not
# (note that etmiss/ptll/ptheavy/ht/sorted cuts always apply)
#**********************************************************
   T  = cut_decays    ! Cut decay products 
#*************************************************************
# Number of helicities to sum per event (0 = all helicities)
# 0 gives more stable result, but longer run time (needed for
# long decay chains e.g.).
# Use >=2 if most helicities contribute, e.g. pure QCD.
#*************************************************************
   0  = nhel          ! Number of helicities used per event
#*******************                                                 
# Standard Cuts
#*******************                                                 
#                                                                    
#*********************************************************************
# Minimum and maximum pt's (for max, -1 means no cut)                *
#*********************************************************************
 20  = ptj       ! minimum pt for the jets 
  0  = ptb       ! minimum pt for the b 
 10  = pta       ! minimum pt for the photons 
 10  = ptl       ! minimum pt for the charged leptons 
  0  = misset    ! minimum missing Et (sum of neutrino's momenta)
  0  = ptheavy   ! minimum pt for one heavy final state
 1.0 = ptonium   ! minimum pt for the quarkonium states
 -1  = ptjmax    ! maximum pt for the jets
 -1  = ptbmax    ! maximum pt for the b
 -1  = ptamax    ! maximum pt for the photons
 -1  = ptlmax    ! maximum pt for the charged leptons
 -1  = missetmax ! maximum missing Et (sum of neutrino's momenta)
#*********************************************************************
# Minimum and maximum E's (in the center of mass frame)              *
#*********************************************************************
  0  = ej     ! minimum E for the jets 
  0  = eb     ! minimum E for the b 
  0  = ea     ! minimum E for the photons 
  0  = el     ! minimum E for the charged leptons 
 -1   = ejmax ! maximum E for the jets
 -1   = ebmax ! maximum E for the b
 -1   = eamax ! maximum E for the photons
 -1   = elmax ! maximum E for the charged leptons
#*********************************************************************
# Maximum and minimum absolute rapidity (for max, -1 means no cut)   *
#*********************************************************************
   5  = etaj    ! max rap for the jets 
  -1  = etab    ! max rap for the b
 2.5  = etaa    ! max rap for the photons 
 2.5  = etal    ! max rap for the charged leptons 
 0.6  = etaonium ! max rap for the quarkonium states
   0  = etajmin ! min rap for the jets
   0  = etabmin ! min rap for the b
   0  = etaamin ! min rap for the photons
   0  = etalmin ! main rap for the charged leptons
#*********************************************************************
# Minimum and maximum DeltaR distance                                *
#*********************************************************************
 0.4 = drjj    ! min distance between jets 
 0   = drbb    ! min distance between b's 
 0.4 = drll    ! min distance between leptons 
 0.4 = draa    ! min distance between gammas 
 0   = drbj    ! min distance between b and jet 
 0.4 = draj    ! min distance between gamma and jet 
 0.4 = drjl    ! min distance between jet and lepton 
 0   = drab    ! min distance between gamma and b 
 0   = drbl    ! min distance between b and lepton 
 0.4 = dral    ! min distance between gamma and lepton 
 -1  = drjjmax ! max distance between jets
 -1  = drbbmax ! max distance between b's
 -1  = drllmax ! max distance between leptons
 -1  = draamax ! max distance between gammas
 -1  = drbjmax ! max distance between b and jet
 -1  = drajmax ! max distance between gamma and jet
 -1  = drjlmax ! max distance between jet and lepton
 -1  = drabmax ! max distance between gamma and b
 -1  = drblmax ! max distance between b and lepton
 -1  = dralmax ! maxdistance between gamma and lepton
#*********************************************************************
# Minimum and maximum invariant mass for pairs                       *
# WARNING: for four lepton final state mmll cut require to have      *
#          different lepton masses for each flavor!                  *           
#*********************************************************************
 0   = mmjj    ! min invariant mass of a jet pair 
 0   = mmbb    ! min invariant mass of a b pair 
 0   = mmaa    ! min invariant mass of gamma gamma pair
 0   = mmll    ! min invariant mass of l+l- (same flavour) lepton pair
 -1  = mmjjmax ! max invariant mass of a jet pair
 -1  = mmbbmax ! max invariant mass of a b pair
 -1  = mmaamax ! max invariant mass of gamma gamma pair
 -1  = mmllmax ! max invariant mass of l+l- (same flavour) lepton pair
#*********************************************************************
# Minimum and maximum invariant mass for all letpons                 *
#*********************************************************************
 0   = mmnl    ! min invariant mass for all letpons (l+- and vl) 
 -1  = mmnlmax ! max invariant mass for all letpons (l+- and vl) 
#*********************************************************************
# Minimum and maximum pt for 4-momenta sum of leptons                *
#*********************************************************************
 0   = ptllmin  ! Minimum pt for 4-momenta sum of leptons(l and vl)
 -1  = ptllmax  ! Maximum pt for 4-momenta sum of leptons(l and vl)
#*********************************************************************
# Inclusive cuts                                                     *
#*********************************************************************
 0  = xptj ! minimum pt for at least one jet  
 0  = xptb ! minimum pt for at least one b 
 0  = xpta ! minimum pt for at least one photon 
 0  = xptl ! minimum pt for at least one charged lepton 
#*********************************************************************
# Control the pt's of the jets sorted by pt                          *
#*********************************************************************
 0   = ptj1min ! minimum pt for the leading jet in pt
 0   = ptj2min ! minimum pt for the second jet in pt
 0   = ptj3min ! minimum pt for the third jet in pt
 0   = ptj4min ! minimum pt for the fourth jet in pt
 -1  = ptj1max ! maximum pt for the leading jet in pt 
 -1  = ptj2max ! maximum pt for the second jet in pt
 -1  = ptj3max ! maximum pt for the third jet in pt
 -1  = ptj4max ! maximum pt for the fourth jet in pt
 0   = cutuse  ! reject event if fails any (0) / all (1) jet pt cuts
#*********************************************************************
# Control the pt's of leptons sorted by pt                           *
#*********************************************************************
 0   = ptl1min ! minimum pt for the leading lepton in pt
 0   = ptl2min ! minimum pt for the second lepton in pt
 0   = ptl3min ! minimum pt for the third lepton in pt
 0   = ptl4min ! minimum pt for the fourth lepton in pt
 -1  = ptl1max ! maximum pt for the leading lepton in pt 
 -1  = ptl2max ! maximum pt for the second lepton in pt
 -1  = ptl3max ! maximum pt for the third lepton in pt
 -1  = ptl4max ! maximum pt for the fourth lepton in pt
#*********************************************************************
# Control the Ht(k)=Sum of k leading jets                            *
#*********************************************************************
 0   = htjmin ! minimum jet HT=Sum(jet pt)
 -1  = htjmax ! maximum jet HT=Sum(jet pt)
 0   = ihtmin  !inclusive Ht for all partons (including b)
 -1  = ihtmax  !inclusive Ht for all partons (including b)
 0   = ht2min ! minimum Ht for the two leading jets
 0   = ht3min ! minimum Ht for the three leading jets
 0   = ht4min ! minimum Ht for the four leading jets
 -1  = ht2max ! maximum Ht for the two leading jets
 -1  = ht3max ! maximum Ht for the three leading jets
 -1  = ht4max ! maximum Ht for the four leading jets
#***********************************************************************
# Photon-isolation cuts, according to hep-ph/9801442                   *
# When ptgmin=0, all the other parameters are ignored                  *
# When ptgmin>0, pta and draj are not going to be used                 *
#***********************************************************************
   0 = ptgmin ! Min photon transverse momentum
 0.4 = R0gamma ! Radius of isolation code
 1.0 = xn ! n parameter of eq.(3.4) in hep-ph/9801442
 1.0 = epsgamma ! epsilon_gamma parameter of eq.(3.4) in hep-ph/9801442
 .true. = isoEM ! isolate photons from EM energy (photons and leptons)
#*********************************************************************
# WBF cuts                                                           *
#*********************************************************************
 0   = xetamin ! minimum rapidity for two jets in the WBF case  
 0   = deltaeta ! minimum rapidity for two jets in the WBF case 
#*********************************************************************
# KT DURHAM CUT                                                      *
#*********************************************************************
 -1    =  ktdurham        
 0.4  =  dparameter 
#*********************************************************************
# maximal pdg code for quark to be considered as a light jet         *
# (otherwise b cuts are applied)                                     *
#*********************************************************************
 4 = maxjetflavor    ! Maximum jet pdg code
#*********************************************************************
# Jet measure cuts                                                   *
#*********************************************************************
 0   = xqcut   ! minimum kt jet measure between partons
#*********************************************************************
#
#*********************************************************************
# Store info for systematics studies                                 *
# WARNING: If use_syst is T, matched Pythia output is                *
#          meaningful ONLY if plotted taking matchscale              *
#          reweighting into account!                                 *
#*********************************************************************
   F  = use_syst      ! Enable systematics studies
#
#**************************************
# Parameter of the systematics study
#  will be used by SysCalc (if installed)
#**************************************                                  
#
0.5 1 2 = sys_scalefact  # factorization/renormalization scale factor
0.5 1 2 = sys_alpsfact  # \alpha_s emission scale factors
30 50 = sys_matchscale # variation of merging scale
# PDF sets and number of members (0 or none for all members).
CT10nlo.LHgrid = sys_pdf # matching scales
# MSTW2008nlo68cl.LHgrid 1  = sys_pdf
</MGRunCard>
<slha>
######################################################################
## PARAM_CARD AUTOMATICALY GENERATED BY MG5 FOLLOWING UFO MODEL   ####
######################################################################
##                                                                  ##
##  Width set on Auto will be computed following the information    ##
##        present in the decay.py files of the model.               ##
##        See  arXiv:1402.1178 for more details.                    ##
##                                                                  ##
######################################################################

###################################
## INFORMATION FOR CKMBLOCK
###################################
Block ckmblock 
    1 2.277360e-01 # cabi 

###################################
## INFORMATION FOR FRBLOCK
###################################
Block frblock 
    1 2.000000e-01 # gz 

###################################
## INFORMATION FOR MASS
###################################
Block mass 
    1 5.040000e-03 # MD 
    2 2.550000e-03 # MU 
    3 1.010000e-01 # MS 
    4 1.270000e+00 # MC 
    5 4.700000e+00 # MB 
    6 1.720000e+02 # MT 
   11 5.110000e-04 # Me 
   13 1.056600e-01 # MM 
   15 1.777000e+00 # MTA 
   23 9.118760e+01 # MZ 
   25 1.200000e+02 # MH 
  10030 1.300000e+03 # MZph 
  10031 3.000000e+02 # MZpl 
## Dependent parameters, given by model restrictions.
## Those values should be edited following the 
## analytical expression. MG5 ignores those values 
## but they are important for interfacing the output of MG5
## to external program such as Pythia.
  12 0.000000 # ve : 0.0 
  14 0.000000 # vm : 0.0 
  16 0.000000 # vt : 0.0 
  21 0.000000 # g : 0.0 
  22 0.000000 # a : 0.0 
  24 79.824360 # w+ : cmath.sqrt(MZ__exp__2/2. + cmath.sqrt(MZ__exp__4/4. - (aEW*cmath.pi*MZ__exp__2)/(Gf*sqrt__2))) 

###################################
## INFORMATION FOR SMINPUTS
###################################
Block sminputs 
    1 1.279000e+02 # aEWM1 
    2 1.166370e-05 # Gf 
    3 1.184000e-01 # aS 

###################################
## INFORMATION FOR YUKAWA
###################################
Block yukawa 
    1 5.040000e-03 # ymdo 
    2 2.550000e-03 # ymup 
    3 1.010000e-01 # yms 
    4 1.270000e+00 # ymc 
    5 4.700000e+00 # ymb 
    6 1.720000e+02 # ymt 
   11 5.110000e-04 # yme 
   13 1.056600e-01 # ymm 
   15 1.777000e+00 # ymtau 

###################################
## INFORMATION FOR DECAY
###################################
DECAY   6 1.508336e+00 # WT 
DECAY  23 2.495200e+00 # WZ 
DECAY  24 2.085000e+00 # WW 
DECAY  25 5.753088e-03 # WH 
## Dependent parameters, given by model restrictions.
## Those values should be edited following the 
## analytical expression. MG5 ignores those values 
## but they are important for interfacing the output of MG5
## to external program such as Pythia.
DECAY  1 0.000000 # d : 0.0 
DECAY  2 0.000000 # u : 0.0 
DECAY  3 0.000000 # s : 0.0 
DECAY  4 0.000000 # c : 0.0 
DECAY  5 0.000000 # b : 0.0 
DECAY  11 0.000000 # e- : 0.0 
DECAY  12 0.000000 # ve : 0.0 
DECAY  13 0.000000 # mu- : 0.0 
DECAY  14 0.000000 # vm : 0.0 
DECAY  15 0.000000 # ta- : 0.0 
DECAY  16 0.000000 # vt : 0.0 
DECAY  21 0.000000 # g : 0.0 
DECAY  22 0.000000 # a : 0.0 
DECAY  10030 0.308725 # zph : (gz__exp__2*MZph*(5 + cmath.sqrt(1 - (4*MT__exp__2)/MZph__exp__2)))/(144.*cmath.pi) 
DECAY  10031 0.132629 # zpl : (5*gz__exp__2*MZpl)/(144.*cmath.pi) 
#===========================================================
# QUANTUM NUMBERS OF NEW STATE(S) (NON SM PDG CODE)
#===========================================================

Block QNUMBERS 10030  # zph 
        1 0  # 3 times electric charge
        2 3  # number of spin states (2S+1)
        3 1  # colour rep (1: singlet, 3: triplet, 8: octet)
        4 0  # Particle/Antiparticle distinction (0=own anti)
Block QNUMBERS 10031  # zpl 
        1 0  # 3 times electric charge
        2 3  # number of spin states (2S+1)
        3 1  # colour rep (1: singlet, 3: triplet, 8: octet)
        4 0  # Particle/Antiparticle distinction (0=own anti)
</slha>
## END BANNER##
<MGGenerationInfo>
#  Number of Events        :         4031
#  Integrated weight (pb)  :  0.20096E-01
#  Max wgt                 :  0.67428E-05
#  Average wgt             :  0.49854E-05
</MGGenerationInfo>
</header>
<init>
     2212     2212  0.40000000000E+04  0.40000000000E+04 0 0  247000  247000 2   1
  0.20104475263E-01  0.41271398413E-04  0.67428240000E-05   0
</init>
<event>
 5   0  0.6671239E-05  0.1300292E+04  0.7818609E-02  0.9029334E-01
       -2   -1    0    0    0  501  0.00000000000E+00  0.00000000000E+00  0.84189647905E+03  0.84189647905E+03  0.25500000920E-02 0. -1.
        2   -1    0    0  501    0  0.00000000000E+00  0.00000000000E+00 -0.50206866970E+03  0.50206866970E+03  0.25500000920E-02 0.  1.
    10030    2    1    2    0    0  0.00000000000E+00  0.00000000000E+00  0.33982780935E+03  0.13439651488E+04  0.13002920368E+04 0.  0.
        1    1    3    3  502    0  0.57954266286E+03  0.38832054937E+02 -0.13197887230E+03  0.59564758819E+03  0.50400001928E-02 0.  1.
       -1    1    3    3    0  502 -0.57954266286E+03 -0.38832054937E+02  0.47180668165E+03  0.74831756056E+03  0.50400001928E-02 0. -1.
</event>
<event>
 5   0  0.6671239E-05  0.1302767E+04  0.7818609E-02  0.9027374E-01
       -2   -1    0    0    0  501  0.00000000000E+00  0.00000000000E+00  0.78517154131E+03  0.78517154131E+03  0.25500000920E-02 0. -1.
        2   -1    0    0  501    0  0.00000000000E+00  0.00000000000E+00 -0.54039232861E+03  0.54039232861E+03  0.25500000920E-02 0.  1.
    10030    2    1    2    0    0  0.00000000000E+00  0.00000000000E+00  0.24477921270E+03  0.13255638699E+04  0.13027673278E+04 0.  0.
        1    1    3    3  502    0  0.10249115052E+03 -0.51301201069E+03 -0.27249280998E+03  0.58986277266E+03  0.50400001928E-02 0.  1.
       -1    1    3    3    0  502 -0.10249115052E+03  0.51301201069E+03  0.51727202268E+03  0.73570109727E+03  0.50400001928E-02 0. -1.
</event>
<event>
 5   0  0.6458698E-05  0.1299485E+04  0.7818609E-02  0.9029974E-01
        2   -1    0    0  501    0  0.00000000000E+00  0.00000000000E+00  0.14589244043E+04  0.14589244043E+04  0.25500000920E-02 0.  1.
       -2   -1    0    0    0  501  0.00000000000E+00  0.00000000000E+00 -0.28936748075E+03  0.28936748076E+03  0.25500000920E-02 0. -1.
    10030    2    1    2    0    0  0.00000000000E+00  0.00000000000E+00  0.11695569236E+04  0.17482918851E+04  0.12994849433E+04 0.  0.
        3    1    3    3  502    0 -0.35627778275E+03 -0.30595116998E+03 -0.19330383960E+02  0.47001452195E+03  0.10100000352E+00 0. -1.
       -3    1    3    3    0  502  0.35627778275E+03  0.30595116998E+03  0.11888873076E+04  0.12782773632E+04  0.10100000352E+00 0.  1.
</event>
<event>
 5   0  0.6671239E-05  0.1299783E+04  0.7818609E-02  0.9029737E-01
        2   -1    0    0  501    0  0.00000000000E+00  0.00000000000E+00  0.92782104101E+03  0.92782104101E+03  0.25500000920E-02 0. -1.
       -2   -1    0    0    0  501  0.00000000000E+00  0.00000000000E+00 -0.45521609292E+03  0.45521609293E+03  0.25500000920E-02 0.  1.
    10030    2    1    2    0    0  0.00000000000E+00  0.00000000000E+00  0.47260494808E+03  0.13830371339E+04  0.12997831653E+04 0.  0.
        1    1    3    3  502    0  0.67279696454E+02  0.29865947999E+03  0.84628846069E+03  0.89996011093E+03  0.50400001928E-02 0. -1.
       -1    1    3    3    0  502 -0.67279696454E+02 -0.29865947999E+03 -0.37368351260E+03  0.48307702301E+03  0.50400001928E-02 0.  1.
</event>
<event>
 5   0  0.6458698E-05  0.1300396E+04  0.7818609E-02  0.9029251E-01
        2   -1    0    0  501    0  0.00000000000E+00  0.00000000000E+00  0.73273629197E+03  0.73273629197E+03  0.25500000920E-02 0. -1.
       -2   -1    0    0    0  501  0.00000000000E+00  0.00000000000E+00 -0.57695696834E+03  0.57695696835E+03  0.25500000920E-02 0.  1.
    10030    2    1    2    0    0  0.00000000000E+00  0.00000000000E+00  0.15577932363E+03  0.13096932603E+04  0.13003958007E+04 0.  0.
        3    1    3    3  502    0 -0.22900949290E+02  0.64475347039E+03  0.15924970906E+03  0.66452386796E+03  0.10100000352E+00 0.  1.
       -3    1    3    3    0  502  0.22900949290E+02 -0.64475347039E+03 -0.34703854368E+01  0.64516939236E+03  0.10100000352E+00 0. -1.
</event>
<event>
 5   0  0.3689707E-05  0.1300234E+04  0.7818609E-02  0.9029380E-01
        1   -1    0    0  501    0  0.00000000000E+00  0.00000000000E+00  0.97474224503E+03  0.97474224504E+03  0.50400001928E-02 0. -1.
       -1   -1    0    0    0  501  0.00000000000E+00  0.00000000000E+00 -0.43360396330E+03  0.43360396333E+03  0.50400001928E-02 0.  1.
    10030    2    1    2    0    0  0.00000000000E+00  0.00000000000E+00  0.54113828173E+03  0.14083462084E+04  0.13002339800E+04 0.  0.
        1    1    3    3  502    0 -0.27638075065E+03  0.91631561268E+02  0.90016573818E+03  0.94608721509E+03  0.50400001928E-02 0. -1.
       -1    1    3    3    0  502  0.27638075065E+03 -0.91631561268E+02 -0.35902745645E+03  0.46225899327E+03  0.50400001928E-02 0.  1.
</event>
<event>
 5   0  0.3631841E-05  0.1299900E+04  0.7818609E-02  0.9029645E-01
       -1   -1    0    0    0  501  0.00000000000E+00  0.00000000000E+00  0.42871312895E+03  0.42871312898E+03  0.50400001928E-02 0.  1.
        1   -1    0    0  501    0  0.00000000000E+00  0.00000000000E+00 -0.98535544141E+03  0.98535544143E+03  0.50400001928E-02 0. -1.
    10030    2    1    2    0    0  0.00000000000E+00  0.00000000000E+00 -0.55664231247E+03  0.14140685704E+04  0.12998997107E+04 0.  0.
        3    1    3    3  502    0 -0.14734324551E+03 -0.42014520503E+03  0.23676647122E+03  0.50427214617E+03  0.10100000352E+00 0.  1.
       -3    1    3    3    0  502  0.14734324551E+03  0.42014520503E+03 -0.79340878369E+03  0.90979642423E+03  0.10100000352E+00 0. -1.
</event>
<event>
 5   0  0.6671239E-05  0.1300155E+04  0.7818609E-02  0.9029442E-01
       -2   -1    0    0    0  501  0.00000000000E+00  0.00000000000E+00  0.45270932628E+03  0.45270932629E+03  0.25500000920E-02 0. -1.
        2   -1    0    0  501    0  0.00000000000E+00  0.00000000000E+00 -0.93349245601E+03  0.93349245602E+03  0.25500000920E-02 0.  1.
    10030    2    1    2    0    0  0.00000000000E+00  0.00000000000E+00 -0.48078312973E+03  0.13862017823E+04  0.13001549767E+04 0.  0.
        1    1    3    3  502    0  0.55340985159E+03 -0.28913106332E+02 -0.60274022842E+03  0.81877604663E+03  0.50400001928E-02 0.  1.
       -1    1    3    3    0  502 -0.55340985159E+03  0.28913106332E+02  0.12195709869E+03  0.56742573567E+03  0.50400001928E-02 0. -1.
</event>
<event>
 5   0  0.3718559E-05  0.1300161E+04  0.7818609E-02  0.9029438E-01
        1   -1    0    0  501    0  0.00000000000E+00  0.00000000000E+00  0.86647099264E+03  0.86647099266E+03  0.50400001928E-02 0.  1.
       -1   -1    0    0    0  501  0.00000000000E+00  0.00000000000E+00 -0.48773054391E+03  0.48773054393E+03  0.50400001928E-02 0. -1.
    10030    2    1    2    0    0  0.00000000000E+00  0.00000000000E+00  0.37874044874E+03  0.13542015366E+04  0.13001605571E+04 0.  0.
        2    1    3    3  502    0  0.28039350246E+03  0.50498477278E+03  0.50005390280E+03  0.76399217449E+03  0.25500000920E-02 0.  1.
       -2    1    3    3    0  502 -0.28039350246E+03 -0.50498477278E+03 -0.12131345407E+03  0.59020936210E+03  0.25500000920E-02 0. -1.
</event>
<event>
 5   0  0.6671239E-05  0.1300126E+04  0.7818609E-02  0.9029465E-01
       -2   -1    0    0    0  501  0.00000000000E+00  0.00000000000E+00  0.27154553644E+03  0.27154553645E+03  0.25500000920E-02 0.  1.
        2   -1    0    0  501    0  0.00000000000E+00  0.00000000000E+00 -0.15562108640E+04  0.15562108640E+04  0.25500000920E-02 0. -1.
    10030    2    1    2    0    0  0.00000000000E+00  0.00000000000E+00 -0.12846653275E+04  0.18277564004E+04  0.13001263229E+04 0.  0.
        1    1    3    3  502    0 -0.33393773319E+03  0.55770574659E+03 -0.65028578893E+03  0.91946817059E+03  0.50400001928E-02 0.  1.
       -1    1    3    3    0  502  0.33393773319E+03 -0.55770574659E+03 -0.63437953862E+03  0.90828822984E+03  0.50400001928E-02 0. -1.
</event>
<event>
 5   0  0.2512000E-05  0.1299054E+04  0.7818609E-02  0.9030315E-01
        4   -1    0    0  501    0  0.00000000000E+00  0.00000000000E+00  0.10904817218E+04  0.10904824613E+04  0.12699999809E+01 0. -1.
       -4   -1    0    0    0  501  0.00000000000E+00  0.00000000000E+00 -0.38687809234E+03  0.38688017685E+03  0.12699999809E+01 0.  1.
    10030    2    1    2    0    0  0.00000000000E+00  0.00000000000E+00  0.70360362943E+03  0.14773626382E+04  0.12990543858E+04 0.  0.
        4    1    3    3  502    0  0.16747847672E+03 -0.29871442437E+03  0.97946696623E+03  0.10376109571E+04  0.12699999809E+01 0. -1.
       -4    1    3    3    0  502 -0.16747847672E+03  0.29871442437E+03 -0.27586333680E+03  0.43975168104E+03  0.12699999809E+01 0.  1.
</event>
<event>
 5   0  0.6688086E-05  0.1299638E+04  0.7818609E-02  0.9029852E-01
        2   -1    0    0  501    0  0.00000000000E+00  0.00000000000E+00  0.32289964560E+03  0.32289964561E+03  0.25500000920E-02 0. -1.
       -2   -1    0    0    0  501  0.00000000000E+00  0.00000000000E+00 -0.13077270795E+04  0.13077270795E+04  0.25500000920E-02 0.  1.
    10030    2    1    2    0    0  0.00000000000E+00  0.00000000000E+00 -0.98482743386E+03  0.16306267251E+04  0.12996378119E+04 0.  0.
        5    1    3    3  502    0 -0.15899660844E+03  0.12356773533E+03  0.28274326740E+03  0.34715234691E+03  0.46999998093E+01 0. -1.
       -5    1    3    3    0  502  0.15899660844E+03 -0.12356773533E+03 -0.12675707013E+04  0.12834743782E+04  0.46999998093E+01 0.  1.
</event>
<event>
 5   0  0.3552698E-05  0.1299915E+04  0.7818609E-02  0.9029632E-01
       -1   -1    0    0    0  501  0.00000000000E+00  0.00000000000E+00  0.43757423837E+03  0.43757423840E+03  0.50400001928E-02 0. -1.
        1   -1    0    0  501    0  0.00000000000E+00  0.00000000000E+00 -0.96542457921E+03  0.96542457923E+03  0.50400001928E-02 0.  1.
    10030    2    1    2    0    0  0.00000000000E+00  0.00000000000E+00 -0.52785034084E+03  0.14029988176E+04  0.12999152664E+04 0.  0.
        5    1    3    3  502    0  0.64316645393E+03 -0.81035764904E+02 -0.21338265454E+03  0.68248379462E+03  0.46999998093E+01 0.  1.
       -5    1    3    3    0  502 -0.64316645393E+03  0.81035764904E+02 -0.31446768630E+03  0.72051502301E+03  0.46999998093E+01 0. -1.
</event>
<event>
 5   0  0.2512000E-05  0.1299903E+04  0.7818609E-02  0.9029642E-01
       -3   -1    0    0    0  501  0.00000000000E+00  0.00000000000E+00  0.28685473927E+03  0.28685475705E+03  0.10100000352E+00 0.  1.
        3   -1    0    0  501    0  0.00000000000E+00  0.00000000000E+00 -0.14726514903E+04  0.14726514937E+04  0.10100000352E+00 0. -1.
    10030    2    1    2    0    0  0.00000000000E+00  0.00000000000E+00 -0.11857967510E+04  0.17595062508E+04  0.12999031933E+04 0.  0.
        1    1    3    3  502    0 -0.15768979012E+03 -0.36052966894E+03  0.10728892340E+03  0.40787084378E+03  0.50400001928E-02 0.  1.
       -1    1    3    3    0  502  0.15768979012E+03  0.36052966894E+03 -0.12930856744E+04  0.13516354070E+04  0.50400001928E-02 0. -1.
</event>
<event>
 5   0  0.3689707E-05  0.1299862E+04  0.7818609E-02  0.9029675E-01
        1   -1    0    0  501    0  0.00000000000E+00  0.00000000000E+00  0.16029308431E+04  0.16029308431E+04  0.50400001928E-02 0.  1.
       -1   -1    0    0    0  501  0.00000000000E+00  0.00000000000E+00 -0.26352372707E+03  0.26352372712E+03  0.50400001928E-02 0. -1.
    10030    2    1    2    0    0  0.00000000000E+00  0.00000000000E+00  0.13394071160E+04  0.18664545702E+04  0.12998620082E+04 0.  0.
        1    1    3    3  502    0 -0.31414109039E+03 -0.50510458356E+03  0.10457717012E+04  0.12031017065E+04  0.50400001928E-02 0.  1.
       -1    1    3    3    0  502  0.31414109039E+03  0.50510458356E+03  0.29363541481E+03  0.66335286376E+03  0.50400001928E-02 0. -1.
</event>
<event>
 5   0  0.3631841E-05  0.1300596E+04  0.7818609E-02  0.9029093E-01
        1   -1    0    0  501    0  0.00000000000E+00  0.00000000000E+00  0.97172053667E+03  0.97172053668E+03  0.50400001928E-02 0. -1.
       -1   -1    0    0    0  501  0.00000000000E+00  0.00000000000E+00 -0.43519450120E+03  0.43519450123E+03  0.50400001928E-02 0.  1.
    10030    2    1    2    0    0  0.00000000000E+00  0.00000000000E+00  0.53652603547E+03  0.14069150379E+04  0.13005959162E+04 0.  0.
        3    1    3    3  502    0 -0.11439438626E+03 -0.22906452262E+03 -0.37837421494E+03  0.45686287644E+03  0.10100000352E+00 0.  1.
       -3    1    3    3    0  502  0.11439438626E+03  0.22906452262E+03  0.91490025041E+03  0.95005216148E+03  0.10100000352E+00 0. -1.
</event>
<event>
 5   0  0.3631841E-05  0.1299967E+04  0.7818609E-02  0.9029592E-01
        1   -1    0    0  501    0  0.00000000000E+00  0.00000000000E+00  0.19771026613E+04  0.19771026613E+04  0.50400001928E-02 0. -1.
       -1   -1    0    0    0  501  0.00000000000E+00  0.00000000000E+00 -0.21368552862E+03  0.21368552868E+03  0.50400001928E-02 0.  1.
    10030    2    1    2    0    0  0.00000000000E+00  0.00000000000E+00  0.17634171326E+04  0.21907881900E+04  0.12999665032E+04 0.  0.
        3    1    3    3  502    0 -0.76014873241E+02  0.26597225122E+03  0.18729521033E+04  0.18932694185E+04  0.10100000352E+00 0. -1.
       -3    1    3    3    0  502  0.76014873241E+02 -0.26597225122E+03 -0.10953497068E+03  0.29751877147E+03  0.10100000352E+00 0.  1.
</event>
<event>
 5   0  0.6671239E-05  0.1299876E+04  0.7818609E-02  0.9029664E-01
       -2   -1    0    0    0  501  0.00000000000E+00  0.00000000000E+00  0.47107631018E+03  0.47107631019E+03  0.25500000920E-02 0.  1.
        2   -1    0    0  501    0  0.00000000000E+00  0.00000000000E+00 -0.89671063954E+03  0.89671063954E+03  0.25500000920E-02 0. -1.
    10030    2    1    2    0    0  0.00000000000E+00  0.00000000000E+00 -0.42563432936E+03  0.13677869497E+04  0.12998755931E+04 0.  0.
        1    1    3    3  502    0  0.29502288127E+03 -0.25896307001E+03 -0.75787450333E+03  0.85350696243E+03  0.50400001928E-02 0. -1.
       -1    1    3    3    0  502 -0.29502288127E+03  0.25896307001E+03  0.33224017397E+03  0.51427998729E+03  0.50400001928E-02 0.  1.
</event>
<event>
 5   0  0.3551277E-05  0.1300727E+04  0.7818609E-02  0.9028989E-01
       -1   -1    0    0    0  501  0.00000000000E+00  0.00000000000E+00  0.62667601971E+03  0.62667601973E+03  0.50400001928E-02 0.  1.
        1   -1    0    0  501    0  0.00000000000E+00  0.00000000000E+00 -0.67494657921E+03  0.67494657923E+03  0.50400001928E-02 0. -1.
    10030    2    1    2    0    0  0.00000000000E+00  0.00000000000E+00 -0.48270559499E+02  0.13016225990E+04  0.13007272363E+04 0.  0.
        4    1    3    3  502    0 -0.63745656614E+03 -0.10832207105E+03 -0.94088178007E+02  0.65340549656E+03  0.12699999809E+01 0. -1.
       -4    1    3    3    0  502  0.63745656614E+03  0.10832207105E+03  0.45817618508E+02  0.64821710241E+03  0.12699999809E+01 0.  1.
</event>
<event>
 5   0  0.3689707E-05  0.1299538E+04  0.7818609E-02  0.9029931E-01
       -1   -1    0    0    0  501  0.00000000000E+00  0.00000000000E+00  0.28097193435E+03  0.28097193439E+03  0.50400001928E-02 0. -1.
        1   -1    0    0  501    0  0.00000000000E+00  0.00000000000E+00 -0.15026412332E+04  0.15026412332E+04  0.50400001928E-02 0.  1.
    10030    2    1    2    0    0  0.00000000000E+00  0.00000000000E+00 -0.12216692988E+04  0.17836131676E+04  0.12995384011E+04 0.  0.
        1    1    3    3  502    0 -0.63166147761E+03  0.68125423753E+02 -0.42383863964E+03  0.76372540100E+03  0.50400001928E-02 0. -1.
       -1    1    3    3    0  502  0.63166147761E+03 -0.68125423753E+02 -0.79783065918E+03  0.10198877666E+04  0.50400001928E-02 0.  1.
</event>
<event>
 5   0  0.6618060E-05  0.1300755E+04  0.7818609E-02  0.9028967E-01
       -2   -1    0    0    0  501  0.00000000000E+00  0.00000000000E+00  0.15474004554E+04  0.15474004554E+04  0.25500000920E-02 0. -1.
        2   -1    0    0  501    0  0.00000000000E+00  0.00000000000E+00 -0.27335565463E+03  0.27335565464E+03  0.25500000920E-02 0.  1.
    10030    2    1    2    0    0  0.00000000000E+00  0.00000000000E+00  0.12740448008E+04  0.18207561101E+04  0.13007546494E+04 0.  0.
        2    1    3    3  502    0 -0.31164361517E+03  0.15182288906E+02  0.14357969304E+04  0.14693076840E+04  0.25500000920E-02 0. -1.
       -2    1    3    3    0  502  0.31164361517E+03 -0.15182288906E+02 -0.16175212961E+03  0.35144842611E+03  0.25500000920E-02 0.  1.
</event>
<event>
 5   0  0.3631841E-05  0.1302053E+04  0.7818609E-02  0.9027939E-01
        1   -1    0    0  501    0  0.00000000000E+00  0.00000000000E+00  0.75696327318E+03  0.75696327320E+03  0.50400001928E-02 0. -1.
       -1   -1    0    0    0  501  0.00000000000E+00  0.00000000000E+00 -0.55991528537E+03  0.55991528539E+03  0.50400001928E-02 0.  1.
    10030    2    1    2    0    0  0.00000000000E+00  0.00000000000E+00  0.19704798782E+03  0.13168785586E+04  0.13020526981E+04 0.  0.
        3    1    3    3  502    0 -0.53545296003E+03 -0.37030434659E+03  0.98180377452E+02  0.65838786306E+03  0.10100000352E+00 0.  1.
       -3    1    3    3    0  502  0.53545296003E+03  0.37030434659E+03  0.98867610367E+02  0.65849069553E+03  0.10100000352E+00 0. -1.
</event>
<event>
 5   0  0.2512000E-05  0.1299311E+04  0.7818609E-02  0.9030111E-01
       -3   -1    0    0    0  501  0.00000000000E+00  0.00000000000E+00  0.23718290424E+04  0.23718290446E+04  0.10100000352E+00 0. -1.
        3   -1    0    0  501    0  0.00000000000E+00  0.00000000000E+00 -0.17794386495E+03  0.17794389362E+03  0.10100000352E+00 0.  1.
    10030    2    1    2    0    0  0.00000000000E+00  0.00000000000E+00  0.21938851775E+04  0.25497729382E+04  0.12993113039E+04 0.  0.
        3    1    3    3  502    0 -0.59735422278E+03  0.13573589098E+03  0.15214579228E+04  0.16401495422E+04  0.10100000352E+00 0.  1.
       -3    1    3    3    0  502  0.59735422278E+03 -0.13573589098E+03  0.67242725462E+03  0.90962339599E+03  0.10100000352E+00 0. -1.
</event>
<event>
 5   0  0.6458698E-05  0.1299808E+04  0.7818609E-02  0.9029717E-01
        2   -1    0    0  501    0  0.00000000000E+00  0.00000000000E+00  0.55346557426E+03  0.55346557427E+03  0.25500000920E-02 0. -1.
       -2   -1    0    0    0  501  0.00000000000E+00  0.00000000000E+00 -0.76314626519E+03  0.76314626519E+03  0.25500000920E-02 0.  1.
    10030    2    1    2    0    0  0.00000000000E+00  0.00000000000E+00 -0.20968069093E+03  0.13166118395E+04  0.12998079641E+04 0.  0.
        3    1    3    3  502    0 -0.50738191865E+03  0.50759913339E+02 -0.51299149141E+03  0.72330716894E+03  0.10100000352E+00 0.  1.
       -3    1    3    3    0  502  0.50738191865E+03 -0.50759913339E+02  0.30331080048E+03  0.59330467052E+03  0.10100000352E+00 0. -1.
</event>
<event>
 5   0  0.3689707E-05  0.1300829E+04  0.7818609E-02  0.9028908E-01
        1   -1    0    0  501    0  0.00000000000E+00  0.00000000000E+00  0.22171853211E+04  0.22171853211E+04  0.50400001928E-02 0.  1.
       -1   -1    0    0    0  501  0.00000000000E+00  0.00000000000E+00 -0.19080014654E+03  0.19080014661E+03  0.50400001928E-02 0. -1.
    10030    2    1    2    0    0  0.00000000000E+00  0.00000000000E+00  0.20263851746E+04  0.24079854677E+04  0.13008294035E+04 0.  0.
        1    1    3    3  502    0 -0.39061601178E+03 -0.50811159592E+03  0.12183327830E+04  0.13766237804E+04  0.50400001928E-02 0.  1.
       -1    1    3    3    0  502  0.39061601178E+03  0.50811159592E+03  0.80805239161E+03  0.10313616874E+04  0.50400001928E-02 0. -1.
</event>
<event>
 5   0  0.6618060E-05  0.1299859E+04  0.7818609E-02  0.9029677E-01
       -2   -1    0    0    0  501  0.00000000000E+00  0.00000000000E+00  0.43965652864E+03  0.43965652865E+03  0.25500000920E-02 0. -1.
        2   -1    0    0  501    0  0.00000000000E+00  0.00000000000E+00 -0.96076928101E+03  0.96076928101E+03  0.25500000920E-02 0.  1.
    10030    2    1    2    0    0  0.00000000000E+00  0.00000000000E+00 -0.52111275237E+03  0.14004258097E+04  0.12998592030E+04 0.  0.
        2    1    3    3  502    0 -0.60548282982E+02 -0.12928081163E+03 -0.94366915593E+03  0.95440614975E+03  0.25500000920E-02 0.  1.
       -2    1    3    3    0  502  0.60548282982E+02  0.12928081163E+03  0.42255640356E+03  0.44601965991E+03  0.25500000920E-02 0. -1.
</event>
<event>
 5   0  0.3718559E-05  0.1300019E+04  0.7818609E-02  0.9029550E-01
       -1   -1    0    0    0  501  0.00000000000E+00  0.00000000000E+00  0.50655650113E+03  0.50655650116E+03  0.50400001928E-02 0.  1.
        1   -1    0    0  501    0  0.00000000000E+00  0.00000000000E+00 -0.83408791129E+03  0.83408791131E+03  0.50400001928E-02 0. -1.
    10030    2    1    2    0    0  0.00000000000E+00  0.00000000000E+00 -0.32753141016E+03  0.13406444125E+04  0.13000194676E+04 0.  0.
        2    1    3    3  502    0  0.37466142314E+03 -0.52648727732E+03 -0.23633972824E+03  0.68805268862E+03  0.25500000920E-02 0. -1.
       -2    1    3    3    0  502 -0.37466142314E+03  0.52648727732E+03 -0.91191681920E+02  0.65259172384E+03  0.25500000920E-02 0.  1.
</event>
<event>
 5   0  0.6458698E-05  0.1301562E+04  0.7818609E-02  0.9028327E-01
        2   -1    0    0  501    0  0.00000000000E+00  0.00000000000E+00  0.11552392398E+04  0.11552392398E+04  0.25500000920E-02 0. -1.
       -2   -1    0    0    0  501  0.00000000000E+00  0.00000000000E+00 -0.36660457898E+03  0.36660457899E+03  0.25500000920E-02 0.  1.
    10030    2    1    2    0    0  0.00000000000E+00  0.00000000000E+00  0.78863466085E+03  0.15218438188E+04  0.13015621309E+04 0.  0.
        3    1    3    3  502    0  0.54716147276E+03 -0.17781105739E+03  0.74995505237E+03  0.94521692757E+03  0.10100000352E+00 0. -1.
       -3    1    3    3    0  502 -0.54716147276E+03  0.17781105739E+03  0.38679608483E+02  0.57662689125E+03  0.10100000352E+00 0.  1.
</event>
<event>
 5   0  0.6688086E-05  0.1300805E+04  0.7818609E-02  0.9028927E-01
        2   -1    0    0  501    0  0.00000000000E+00  0.00000000000E+00  0.30340765526E+03  0.30340765527E+03  0.25500000920E-02 0.  1.
       -2   -1    0    0    0  501  0.00000000000E+00  0.00000000000E+00 -0.13942413937E+04  0.13942413937E+04  0.25500000920E-02 0. -1.
    10030    2    1    2    0    0  0.00000000000E+00  0.00000000000E+00 -0.10908337384E+04  0.16976490490E+04  0.13008051540E+04 0.  0.
        5    1    3    3  502    0 -0.30527986896E+03 -0.80616922261E+01 -0.12948310368E+04  0.13303647218E+04  0.46999998093E+01 0. -1.
       -5    1    3    3    0  502  0.30527986896E+03  0.80616922261E+01  0.20399729832E+03  0.36728432718E+03  0.46999998093E+01 0.  1.
</event>
<event>
 5   0  0.3718559E-05  0.1300295E+04  0.7818609E-02  0.9029331E-01
       -1   -1    0    0    0  501  0.00000000000E+00  0.00000000000E+00  0.10328568611E+04  0.10328568611E+04  0.50400001928E-02 0.  1.
        1   -1    0    0  501    0  0.00000000000E+00  0.00000000000E+00 -0.40924537277E+03  0.40924537280E+03  0.50400001928E-02 0. -1.
    10030    2    1    2    0    0  0.00000000000E+00  0.00000000000E+00  0.62361148831E+03  0.14421022339E+04  0.13002951837E+04 0.  0.
        2    1    3    3  502    0 -0.39754252932E+03  0.54928034172E+02 -0.25547990870E+03  0.47573851570E+03  0.25500000920E-02 0. -1.
       -2    1    3    3    0  502  0.39754252932E+03 -0.54928034172E+02  0.87909139701E+03  0.96636371821E+03  0.25500000920E-02 0.  1.
</event>
<event>
 5   0  0.6458698E-05  0.1299278E+04  0.7818609E-02  0.9030138E-01
       -2   -1    0    0    0  501  0.00000000000E+00  0.00000000000E+00  0.50616006350E+03  0.50616006351E+03  0.25500000920E-02 0.  1.
        2   -1    0    0  501    0  0.00000000000E+00  0.00000000000E+00 -0.83378869094E+03  0.83378869095E+03  0.25500000920E-02 0. -1.
    10030    2    1    2    0    0  0.00000000000E+00  0.00000000000E+00 -0.32762862744E+03  0.13399487545E+04  0.12992775481E+04 0.  0.
        3    1    3    3  502    0  0.19185430059E+03  0.21574626757E+03 -0.76399009670E+03  0.81672235348E+03  0.10100000352E+00 0. -1.
       -3    1    3    3    0  502 -0.19185430059E+03 -0.21574626757E+03  0.43636146926E+03  0.52322640097E+03  0.10100000352E+00 0.  1.
</event>
<event>
 5   0  0.6671239E-05  0.1299925E+04  0.7818609E-02  0.9029625E-01
       -2   -1    0    0    0  501  0.00000000000E+00  0.00000000000E+00  0.17528872043E+04  0.17528872043E+04  0.25500000920E-02 0. -1.
        2   -1    0    0  501    0  0.00000000000E+00  0.00000000000E+00 -0.24100301818E+03  0.24100301819E+03  0.25500000920E-02 0.  1.
    10030    2    1    2    0    0  0.00000000000E+00  0.00000000000E+00  0.15118841861E+04  0.19938902225E+04  0.12999247775E+04 0.  0.
        1    1    3    3  502    0  0.10024188115E+03  0.63792139454E+03  0.86927035610E+03  0.10828772287E+04  0.50400001928E-02 0. -1.
       -1    1    3    3    0  502 -0.10024188115E+03 -0.63792139454E+03  0.64261383001E+03  0.91101299381E+03  0.50400001928E-02 0.  1.
</event>
<event>
 5   0  0.3631841E-05  0.1300029E+04  0.7818609E-02  0.9029542E-01
       -1   -1    0    0    0  501  0.00000000000E+00  0.00000000000E+00  0.31843227369E+03  0.31843227373E+03  0.50400001928E-02 0. -1.
        1   -1    0    0  501    0  0.00000000000E+00  0.00000000000E+00 -0.13268719027E+04  0.13268719027E+04  0.50400001928E-02 0.  1.
    10030    2    1    2    0    0  0.00000000000E+00  0.00000000000E+00 -0.10084396290E+04  0.16453041765E+04  0.13000289796E+04 0.  0.
        3    1    3    3  502    0 -0.36855051841E+03 -0.36160581747E+02 -0.11803125483E+04  0.12370427616E+04  0.10100000352E+00 0.  1.
       -3    1    3    3    0  502  0.36855051841E+03  0.36160581747E+02  0.17187291923E+03  0.40826141485E+03  0.10100000352E+00 0. -1.
</event>
<event>
 5   0  0.6458698E-05  0.1299763E+04  0.7818609E-02  0.9029753E-01
        2   -1    0    0  501    0  0.00000000000E+00  0.00000000000E+00  0.43471269381E+03  0.43471269382E+03  0.25500000920E-02 0.  1.
       -2   -1    0    0    0  501  0.00000000000E+00  0.00000000000E+00 -0.97155205206E+03  0.97155205206E+03  0.25500000920E-02 0. -1.
    10030    2    1    2    0    0  0.00000000000E+00  0.00000000000E+00 -0.53683935824E+03  0.14062647459E+04  0.12997630703E+04 0.  0.
        3    1    3    3  502    0  0.51375433164E+03 -0.39418845649E+03 -0.32785692846E+03  0.72582244953E+03  0.10100000352E+00 0. -1.
       -3    1    3    3    0  502 -0.51375433164E+03  0.39418845649E+03 -0.20898242978E+03  0.68044229635E+03  0.10100000352E+00 0.  1.
</event>
<event>
 5   0  0.3551277E-05  0.1300084E+04  0.7818609E-02  0.9029498E-01
       -1   -1    0    0    0  501  0.00000000000E+00  0.00000000000E+00  0.11923220321E+04  0.11923220321E+04  0.50400001928E-02 0. -1.
        1   -1    0    0  501    0  0.00000000000E+00  0.00000000000E+00 -0.35439642954E+03  0.35439642957E+03  0.50400001928E-02 0.  1.
    10030    2    1    2    0    0  0.00000000000E+00  0.00000000000E+00  0.83792560256E+03  0.15467184617E+04  0.13000841066E+04 0.  0.
        4    1    3    3  502    0 -0.54932199963E+02 -0.87509916468E+00  0.11895535443E+04  0.11908222202E+04  0.12699999809E+01 0. -1.
       -4    1    3    3    0  502  0.54932199963E+02  0.87509916468E+00 -0.35162794175E+03  0.35589624150E+03  0.12699999809E+01 0.  1.
</event>
<event>
 5   0  0.3689707E-05  0.1299871E+04  0.7818609E-02  0.9029667E-01
       -1   -1    0    0    0  501  0.00000000000E+00  0.00000000000E+00  0.23479179287E+03  0.23479179292E+03  0.50400001928E-02 0.  1.
        1   -1    0    0  501    0  0.00000000000E+00  0.00000000000E+00 -0.17991104277E+04  0.17991104277E+04  0.50400001928E-02 0. -1.
    10030    2    1    2    0    0  0.00000000000E+00  0.00000000000E+00 -0.15643186348E+04  0.20339022206E+04  0.12998713212E+04 0.  0.
        1    1    3    3  502    0  0.38807469545E+03 -0.25829791040E+03 -0.73546634828E+02  0.47194161428E+03  0.50400001928E-02 0.  1.
       -1    1    3    3    0  502 -0.38807469545E+03  0.25829791040E+03 -0.14907720000E+04  0.15619606063E+04  0.50400001928E-02 0. -1.
</event>
<event>
 5   0  0.3631841E-05  0.1300555E+04  0.7818609E-02  0.9029125E-01
       -1   -1    0    0    0  501  0.00000000000E+00  0.00000000000E+00  0.73177185259E+03  0.73177185261E+03  0.50400001928E-02 0. -1.
        1   -1    0    0  501    0  0.00000000000E+00  0.00000000000E+00 -0.57785888697E+03  0.57785888699E+03  0.50400001928E-02 0.  1.
    10030    2    1    2    0    0  0.00000000000E+00  0.00000000000E+00  0.15391296562E+03  0.13096307396E+04  0.13005550635E+04 0.  0.
        3    1    3    3  502    0 -0.21490540175E+03  0.52113495296E+03  0.40340215107E+03  0.69318055122E+03  0.10100000352E+00 0.  1.
       -3    1    3    3    0  502  0.21490540175E+03 -0.52113495296E+03 -0.24948918545E+03  0.61645018838E+03  0.10100000352E+00 0. -1.
</event>
<event>
 5   0  0.6742824E-05  0.1299650E+04  0.7818609E-02  0.9029842E-01
        2   -1    0    0  501    0  0.00000000000E+00  0.00000000000E+00  0.14152074584E+04  0.14152074584E+04  0.25500000920E-02 0. -1.
       -2   -1    0    0    0  501  0.00000000000E+00  0.00000000000E+00 -0.29838229297E+03  0.29838229298E+03  0.25500000920E-02 0.  1.
    10030    2    1    2    0    0  0.00000000000E+00  0.00000000000E+00  0.11168251654E+04  0.17135897514E+04  0.12996504861E+04 0.  0.
        4    1    3    3  502    0  0.71930830738E+01  0.53523722069E+03  0.72637558674E+02  0.54019297541E+03  0.12699999809E+01 0.  1.
       -4    1    3    3    0  502 -0.71930830738E+01 -0.53523722069E+03  0.10441876068E+04  0.11733967760E+04  0.12699999809E+01 0. -1.
</event>
<event>
 5   0  0.6742824E-05  0.1299828E+04  0.7818609E-02  0.9029701E-01
        2   -1    0    0  501    0  0.00000000000E+00  0.00000000000E+00  0.73354144968E+03  0.73354144969E+03  0.25500000920E-02 0.  1.
       -2   -1    0    0    0  501  0.00000000000E+00  0.00000000000E+00 -0.57582059890E+03  0.57582059890E+03  0.25500000920E-02 0. -1.
    10030    2    1    2    0    0  0.00000000000E+00  0.00000000000E+00  0.15772085079E+03  0.13093620486E+04  0.12998281069E+04 0.  0.
        4    1    3    3  502    0 -0.39926475537E+03  0.43631973946E+03  0.35027949225E+03  0.68737514903E+03  0.12699999809E+01 0.  1.
       -4    1    3    3    0  502  0.39926475537E+03 -0.43631973946E+03 -0.19255864146E+03  0.62198689956E+03  0.12699999809E+01 0. -1.
</event>
<event>
 5   0  0.2512000E-05  0.1300252E+04  0.7818609E-02  0.9029365E-01
        4   -1    0    0  501    0  0.00000000000E+00  0.00000000000E+00  0.97714843486E+03  0.97714926017E+03  0.12699999809E+01 0.  1.
       -4   -1    0    0    0  501  0.00000000000E+00  0.00000000000E+00 -0.43254642563E+03  0.43254829005E+03  0.12699999809E+01 0. -1.
    10030    2    1    2    0    0  0.00000000000E+00  0.00000000000E+00  0.54460200923E+03  0.14096975502E+04  0.13002522196E+04 0.  0.
        5    1    3    3  502    0  0.37056165040E+03  0.53225985235E+03  0.32109335743E+03  0.72369850169E+03  0.46999998093E+01 0.  1.
       -5    1    3    3    0  502 -0.37056165040E+03 -0.53225985235E+03  0.22350865180E+03  0.68599904854E+03  0.46999998093E+01 0. -1.
</event>
<event>
 5   0  0.3631841E-05  0.1299722E+04  0.7818609E-02  0.9029786E-01
        1   -1    0    0  501    0  0.00000000000E+00  0.00000000000E+00  0.70873114625E+03  0.70873114627E+03  0.50400001928E-02 0. -1.
       -1   -1    0    0    0  501  0.00000000000E+00  0.00000000000E+00 -0.59588076293E+03  0.59588076295E+03  0.50400001928E-02 0.  1.
    10030    2    1    2    0    0  0.00000000000E+00  0.00000000000E+00  0.11285038332E+03  0.13046119092E+04  0.12997219028E+04 0.  0.
        3    1    3    3  502    0 -0.23833686709E+03  0.46830049027E+03 -0.32738685323E+03  0.61910578521E+03  0.10100000352E+00 0.  1.
       -3    1    3    3    0  502  0.23833686709E+03 -0.46830049027E+03  0.44023723656E+03  0.68550612401E+03  0.10100000352E+00 0. -1.
</event>
<event>
 5   0  0.3552698E-05  0.1299906E+04  0.7818609E-02  0.9029640E-01
        1   -1    0    0  501    0  0.00000000000E+00  0.00000000000E+00  0.19227133976E+04  0.19227133976E+04  0.50400001928E-02 0. -1.
       -1   -1    0    0    0  501  0.00000000000E+00  0.00000000000E+00 -0.21970984710E+03  0.21970984716E+03  0.50400001928E-02 0.  1.
    10030    2    1    2    0    0  0.00000000000E+00  0.00000000000E+00  0.17030035505E+04  0.21424232447E+04  0.12999062530E+04 0.  0.
        5    1    3    3  502    0 -0.41951936142E+03 -0.38263307348E+02  0.35788302459E+02  0.42280429029E+03  0.46999998093E+01 0.  1.
       -5    1    3    3    0  502  0.41951936142E+03  0.38263307348E+02  0.16672152480E+04  0.17196189544E+04  0.46999998093E+01 0. -1.
</event>
<event>
 5   0  0.6618060E-05  0.1299586E+04  0.7818609E-02  0.9029894E-01
       -2   -1    0    0    0  501  0.00000000000E+00  0.00000000000E+00  0.27747548584E+03  0.27747548585E+03  0.25500000920E-02 0. -1.
        2   -1    0    0  501    0  0.00000000000E+00  0.00000000000E+00 -0.15216873166E+04  0.15216873166E+04  0.25500000920E-02 0.  1.
    10030    2    1    2    0    0  0.00000000000E+00  0.00000000000E+00 -0.12442118307E+04  0.17991628024E+04  0.12995859763E+04 0.  0.
        2    1    3    3  502    0  0.45155786792E+03 -0.33617964952E+03 -0.10713677828E+04  0.12102686441E+04  0.25500000920E-02 0.  1.
       -2    1    3    3    0  502 -0.45155786792E+03  0.33617964952E+03 -0.17284404795E+03  0.58889415836E+03  0.25500000920E-02 0. -1.
</event>
<event>
 5   0  0.6458698E-05  0.1299204E+04  0.7818609E-02  0.9030197E-01
        2   -1    0    0  501    0  0.00000000000E+00  0.00000000000E+00  0.51867723627E+03  0.51867723628E+03  0.25500000920E-02 0.  1.
       -2   -1    0    0    0  501  0.00000000000E+00  0.00000000000E+00 -0.81357429159E+03  0.81357429159E+03  0.25500000920E-02 0. -1.
    10030    2    1    2    0    0  0.00000000000E+00  0.00000000000E+00 -0.29489705532E+03  0.13322515279E+04  0.12992035484E+04 0.  0.
        3    1    3    3  502    0 -0.12543128520E+03 -0.63688875849E+03 -0.17302607988E+03  0.67178741616E+03  0.10100000352E+00 0.  1.
       -3    1    3    3    0  502  0.12543128520E+03  0.63688875849E+03 -0.12187097544E+03  0.66046411171E+03  0.10100000352E+00 0. -1.
</event>
<event>
 5   0  0.6671239E-05  0.1298739E+04  0.7818609E-02  0.9030566E-01
       -2   -1    0    0    0  501  0.00000000000E+00  0.00000000000E+00  0.24217638586E+03  0.24217638587E+03  0.25500000920E-02 0. -1.
        2   -1    0    0  501    0  0.00000000000E+00  0.00000000000E+00 -0.17412134772E+04  0.17412134772E+04  0.25500000920E-02 0.  1.
    10030    2    1    2    0    0  0.00000000000E+00  0.00000000000E+00 -0.14990370914E+04  0.19833898631E+04  0.12987390607E+04 0.  0.
        1    1    3    3  502    0  0.32108591772E+03  0.90268897770E+02  0.10136931669E+03  0.34859773214E+03  0.50400001928E-02 0. -1.
       -1    1    3    3    0  502 -0.32108591772E+03 -0.90268897770E+02 -0.16004064080E+04  0.16347921309E+04  0.50400001928E-02 0.  1.
</event>
<event>
 5   0  0.6618060E-05  0.1299953E+04  0.7818609E-02  0.9029602E-01
       -2   -1    0    0    0  501  0.00000000000E+00  0.00000000000E+00  0.38677078549E+03  0.38677078549E+03  0.25500000920E-02 0.  1.
        2   -1    0    0  501    0  0.00000000000E+00  0.00000000000E+00 -0.10923000643E+04  0.10923000643E+04  0.25500000920E-02 0. -1.
    10030    2    1    2    0    0  0.00000000000E+00  0.00000000000E+00 -0.70552927882E+03  0.14790708498E+04  0.12999534666E+04 0.  0.
        2    1    3    3  502    0  0.59483025165E+03  0.41065468898E+02 -0.58342788824E+02  0.59909371723E+03  0.25500000920E-02 0.  1.
       -2    1    3    3    0  502 -0.59483025165E+03 -0.41065468898E+02 -0.64718648999E+03  0.87997713257E+03  0.25500000920E-02 0. -1.
</event>
<event>
 5   0  0.6458698E-05  0.1299775E+04  0.7818609E-02  0.9029743E-01
        2   -1    0    0  501    0  0.00000000000E+00  0.00000000000E+00  0.11406643297E+04  0.11406643297E+04  0.25500000920E-02 0. -1.
       -2   -1    0    0    0  501  0.00000000000E+00  0.00000000000E+00 -0.37027025911E+03  0.37027025912E+03  0.25500000920E-02 0.  1.
    10030    2    1    2    0    0  0.00000000000E+00  0.00000000000E+00  0.77039407057E+03  0.15109345888E+04  0.12997754836E+04 0.  0.
        3    1    3    3  502    0 -0.10386774948E+03 -0.57739637801E+03  0.71022619288E+03  0.92119289075E+03  0.10100000352E+00 0. -1.
       -3    1    3    3    0  502  0.10386774948E+03  0.57739637801E+03  0.60167877695E+02  0.58974169806E+03  0.10100000352E+00 0.  1.
</event>
<event>
 5   0  0.3631841E-05  0.1300205E+04  0.7818609E-02  0.9029403E-01
        1   -1    0    0  501    0  0.00000000000E+00  0.00000000000E+00  0.14995187916E+04  0.14995187916E+04  0.50400001928E-02 0.  1.
       -1   -1    0    0    0  501  0.00000000000E+00  0.00000000000E+00 -0.28184580520E+03  0.28184580524E+03  0.50400001928E-02 0. -1.
    10030    2    1    2    0    0  0.00000000000E+00  0.00000000000E+00  0.12176729864E+04  0.17813645969E+04  0.13002047243E+04 0.  0.
        3    1    3    3  502    0  0.63258339063E+03  0.37024606073E+02  0.80785226114E+03  0.10267218969E+04  0.10100000352E+00 0.  1.
       -3    1    3    3    0  502 -0.63258339063E+03 -0.37024606073E+02  0.40982072529E+03  0.75464269998E+03  0.10100000352E+00 0. -1.
</event>
<event>
 5   0  0.6688086E-05  0.1300727E+04  0.7818609E-02  0.9028989E-01
        2   -1    0    0  501    0  0.00000000000E+00  0.00000000000E+00  0.74079192323E+03  0.74079192324E+03  0.25500000920E-02 0. -1.
       -2   -1    0    0    0  501  0.00000000000E+00  0.00000000000E+00 -0.57097364131E+03  0.57097364132E+03  0.25500000920E-02 0.  1.
    10030    2    1    2    0    0  0.00000000000E+00  0.00000000000E+00  0.16981828192E+03  0.13117655646E+04  0.13007269688E+04 0.  0.
        5    1    3    3  502    0 -0.19934470546E+03 -0.69734241738E+02  0.70523031195E+03  0.73618819533E+03  0.46999998093E+01 0. -1.
       -5    1    3    3    0  502  0.19934470546E+03  0.69734241738E+02 -0.53541203002E+03  0.57557736922E+03  0.46999998093E+01 0.  1.
</event>
<event>
 5   0  0.3552698E-05  0.1300265E+04  0.7818609E-02  0.9029355E-01
       -1   -1    0    0    0  501  0.00000000000E+00  0.00000000000E+00  0.40592107403E+03  0.40592107407E+03  0.50400001928E-02 0. -1.
        1   -1    0    0  501    0  0.00000000000E+00  0.00000000000E+00 -0.10412669156E+04  0.10412669156E+04  0.50400001928E-02 0.  1.
    10030    2    1    2    0    0  0.00000000000E+00  0.00000000000E+00 -0.63534584153E+03  0.14471879896E+04  0.13002648726E+04 0.  0.
        5    1    3    3  502    0 -0.29496784742E+03 -0.16745643606E+03 -0.93496113264E+03  0.99459645010E+03  0.46999998093E+01 0.  1.
       -5    1    3    3    0  502  0.29496784742E+03  0.16745643606E+03  0.29961529112E+03  0.45259153954E+03  0.46999998093E+01 0. -1.
</event>
<event>
 5   0  0.3631841E-05  0.1299476E+04  0.7818609E-02  0.9029981E-01
        1   -1    0    0  501    0  0.00000000000E+00  0.00000000000E+00  0.11883155380E+04  0.11883155380E+04  0.50400001928E-02 0.  1.
       -1   -1    0    0    0  501  0.00000000000E+00  0.00000000000E+00 -0.35525857480E+03  0.35525857484E+03  0.50400001928E-02 0. -1.
    10030    2    1    2    0    0  0.00000000000E+00  0.00000000000E+00  0.83305696321E+03  0.15435741129E+04  0.12994757166E+04 0.  0.
        3    1    3    3  502    0 -0.24252028300E+03 -0.54976868349E+03  0.71013880888E+03  0.93024665068E+03  0.10100000352E+00 0.  1.
       -3    1    3    3    0  502  0.24252028300E+03  0.54976868349E+03  0.12291815433E+03  0.61332746219E+03  0.10100000352E+00 0. -1.
</event>
<event>
 5   0  0.6458698E-05  0.1300114E+04  0.7818609E-02  0.9029475E-01
       -2   -1    0    0    0  501  0.00000000000E+00  0.00000000000E+00  0.31228209646E+03  0.31228209647E+03  0.25500000920E-02 0.  1.
        2   -1    0    0  501    0  0.00000000000E+00  0.00000000000E+00 -0.13531803769E+04  0.13531803769E+04  0.25500000920E-02 0. -1.
    10030    2    1    2    0    0  0.00000000000E+00  0.00000000000E+00 -0.10408982805E+04  0.16654624734E+04  0.13001138489E+04 0.  0.
        3    1    3    3  502    0 -0.86699990497E+02 -0.49917964120E+03  0.12814261257E+01  0.50665457147E+03  0.10100000352E+00 0.  1.
       -3    1    3    3    0  502  0.86699990497E+02  0.49917964120E+03 -0.10421797066E+04  0.11588079019E+04  0.10100000352E+00 0. -1.
</event>
<event>
 5   0  0.3689707E-05  0.1301009E+04  0.7818609E-02  0.9028765E-01
        1   -1    0    0  501    0  0.00000000000E+00  0.00000000000E+00  0.16054247246E+04  0.16054247247E+04  0.50400001928E-02 0.  1.
       -1   -1    0    0    0  501  0.00000000000E+00  0.00000000000E+00 -0.26357898093E+03  0.26357898098E+03  0.50400001928E-02 0. -1.
    10030    2    1    2    0    0  0.00000000000E+00  0.00000000000E+00  0.13418457437E+04  0.18690037056E+04  0.13010091667E+04 0.  0.
        1    1    3    3  502    0  0.64323746173E+03 -0.18039312330E+02  0.53405996591E+03  0.83624152981E+03  0.50400001928E-02 0. -1.
       -1    1    3    3    0  502 -0.64323746173E+03  0.18039312330E+02  0.80778577780E+03  0.10327621758E+04  0.50400001928E-02 0.  1.
</event>
<event>
 5   0  0.3631841E-05  0.1296108E+04  0.7818609E-02  0.9032657E-01
        1   -1    0    0  501    0  0.00000000000E+00  0.00000000000E+00  0.71777560198E+03  0.71777560200E+03  0.50400001928E-02 0.  1.
       -1   -1    0    0    0  501  0.00000000000E+00  0.00000000000E+00 -0.58510491638E+03  0.58510491641E+03  0.50400001928E-02 0. -1.
    10030    2    1    2    0    0  0.00000000000E+00  0.00000000000E+00  0.13267068559E+03  0.13028805184E+04  0.12961080720E+04 0.  0.
        3    1    3    3  502    0  0.10396186439E+03 -0.47328361673E+02  0.70757604952E+03  0.71673699439E+03  0.10100000352E+00 0.  1.
       -3    1    3    3    0  502 -0.10396186439E+03  0.47328361673E+02 -0.57490536393E+03  0.58614352401E+03  0.10100000352E+00 0. -1.
</event>
<event>
 5   0  0.3718559E-05  0.1300124E+04  0.7818609E-02  0.9029467E-01
        1   -1    0    0  501    0  0.00000000000E+00  0.00000000000E+00  0.50116139740E+03  0.50116139742E+03  0.50400001928E-02 0. -1.
       -1   -1    0    0    0  501  0.00000000000E+00  0.00000000000E+00 -0.84320295834E+03  0.84320295836E+03  0.50400001928E-02 0.  1.
    10030    2    1    2    0    0  0.00000000000E+00  0.00000000000E+00 -0.34204156094E+03  0.13443643558E+04  0.13001242601E+04 0.  0.
        2    1    3    3  502    0  0.47933337025E+03  0.20551727234E+03 -0.57227537521E+03  0.77427187354E+03  0.25500000920E-02 0.  1.
       -2    1    3    3    0  502 -0.47933337025E+03 -0.20551727234E+03  0.23023381427E+03  0.57009248224E+03  0.25500000920E-02 0. -1.
</event>
<event>
 5   0  0.3552698E-05  0.1299870E+04  0.7818609E-02  0.9029669E-01
        1   -1    0    0  501    0  0.00000000000E+00  0.00000000000E+00  0.29290845470E+03  0.29290845475E+03  0.50400001928E-02 0.  1.
       -1   -1    0    0    0  501  0.00000000000E+00  0.00000000000E+00 -0.14421408825E+04  0.14421408825E+04  0.50400001928E-02 0. -1.
    10030    2    1    2    0    0  0.00000000000E+00  0.00000000000E+00 -0.11492324278E+04  0.17350493372E+04  0.12998696202E+04 0.  0.
        5    1    3    3  502    0  0.56761965033E+03  0.16657154691E+03 -0.21532526693E+03  0.62954365080E+03  0.46999998093E+01 0.  1.
       -5    1    3    3    0  502 -0.56761965033E+03 -0.16657154691E+03 -0.93390716085E+03  0.11055056864E+04  0.46999998093E+01 0. -1.
</event>
<event>
 5   0  0.6742824E-05  0.1301292E+04  0.7818609E-02  0.9028541E-01
        2   -1    0    0  501    0  0.00000000000E+00  0.00000000000E+00  0.21694676585E+04  0.21694676585E+04  0.25500000920E-02 0. -1.
       -2   -1    0    0    0  501  0.00000000000E+00  0.00000000000E+00 -0.19513558463E+03  0.19513558464E+03  0.25500000920E-02 0.  1.
    10030    2    1    2    0    0  0.00000000000E+00  0.00000000000E+00  0.19743320739E+04  0.23646032432E+04  0.13012921884E+04 0.  0.
        4    1    3    3  502    0  0.56208206114E+02  0.11962773257E+02 -0.19051273779E+03  0.19899544351E+03  0.12699999809E+01 0.  1.
       -4    1    3    3    0  502 -0.56208206114E+02 -0.11962773257E+02  0.21648448117E+04  0.21656077997E+04  0.12699999809E+01 0. -1.
</event>
<event>
 5   0  0.6671239E-05  0.1300951E+04  0.7818609E-02  0.9028812E-01
       -2   -1    0    0    0  501  0.00000000000E+00  0.00000000000E+00  0.54973002011E+03  0.54973002011E+03  0.25500000920E-02 0. -1.
        2   -1    0    0  501    0  0.00000000000E+00  0.00000000000E+00 -0.76968369514E+03  0.76968369515E+03  0.25500000920E-02 0.  1.
    10030    2    1    2    0    0  0.00000000000E+00  0.00000000000E+00 -0.21995367504E+03  0.13194137153E+04  0.13009507803E+04 0.  0.
        1    1    3    3  502    0 -0.48917128780E+03 -0.27530333684E+03  0.22337887983E+03  0.60413458771E+03  0.50400001928E-02 0. -1.
       -1    1    3    3    0  502  0.48917128780E+03  0.27530333684E+03 -0.44333255487E+03  0.71527912756E+03  0.50400001928E-02 0.  1.
</event>
<event>
 5   0  0.3551277E-05  0.1300239E+04  0.7818609E-02  0.9029376E-01
        1   -1    0    0  501    0  0.00000000000E+00  0.00000000000E+00  0.87476305794E+03  0.87476305796E+03  0.50400001928E-02 0. -1.
       -1   -1    0    0    0  501  0.00000000000E+00  0.00000000000E+00 -0.48316525811E+03  0.48316525814E+03  0.50400001928E-02 0.  1.
    10030    2    1    2    0    0  0.00000000000E+00  0.00000000000E+00  0.39159779983E+03  0.13579283161E+04  0.13002386223E+04 0.  0.
        4    1    3    3  502    0  0.17448775869E+03  0.56538638965E+03  0.47709246324E+03  0.76008327104E+03  0.12699999809E+01 0. -1.
       -4    1    3    3    0  502 -0.17448775869E+03 -0.56538638965E+03 -0.85494663407E+02  0.59784504506E+03  0.12699999809E+01 0.  1.
</event>
<event>
 5   0  0.6618060E-05  0.1299879E+04  0.7818609E-02  0.9029661E-01
       -2   -1    0    0    0  501  0.00000000000E+00  0.00000000000E+00  0.33238437011E+03  0.33238437012E+03  0.25500000920E-02 0.  1.
        2   -1    0    0  501    0  0.00000000000E+00  0.00000000000E+00 -0.12708828063E+04  0.12708828063E+04  0.25500000920E-02 0. -1.
    10030    2    1    2    0    0  0.00000000000E+00  0.00000000000E+00 -0.93849843624E+03  0.16032671765E+04  0.12998793499E+04 0.  0.
        2    1    3    3  502    0 -0.34365175370E+03 -0.45793065414E+02  0.20881408391E+03  0.40471824064E+03  0.25500000920E-02 0.  1.
       -2    1    3    3    0  502  0.34365175370E+03  0.45793065414E+02 -0.11473125202E+04  0.11985489358E+04  0.25500000920E-02 0. -1.
</event>
<event>
 5   0  0.3552698E-05  0.1299946E+04  0.7818609E-02  0.9029608E-01
        1   -1    0    0  501    0  0.00000000000E+00  0.00000000000E+00  0.22552643048E+04  0.22552643048E+04  0.50400001928E-02 0.  1.
       -1   -1    0    0    0  501  0.00000000000E+00  0.00000000000E+00 -0.18732378426E+03  0.18732378433E+03  0.50400001928E-02 0. -1.
    10030    2    1    2    0    0  0.00000000000E+00  0.00000000000E+00  0.20679405205E+04  0.24425880891E+04  0.12999456053E+04 0.  0.
        5    1    3    3  502    0  0.45853458917E+03 -0.36933122492E+03  0.51670770545E+03  0.78336994201E+03  0.46999998093E+01 0. -1.
       -5    1    3    3    0  502 -0.45853458917E+03  0.36933122492E+03  0.15512328151E+04  0.16592181471E+04  0.46999998093E+01 0.  1.
</event>
<event>
 5   0  0.6618060E-05  0.1299469E+04  0.7818609E-02  0.9029987E-01
        2   -1    0    0  501    0  0.00000000000E+00  0.00000000000E+00  0.89700726512E+03  0.89700726512E+03  0.25500000920E-02 0.  1.
       -2   -1    0    0    0  501  0.00000000000E+00  0.00000000000E+00 -0.47062567284E+03  0.47062567285E+03  0.25500000920E-02 0. -1.
    10030    2    1    2    0    0  0.00000000000E+00  0.00000000000E+00  0.42638159228E+03  0.13676329380E+04  0.12994685801E+04 0.  0.
        2    1    3    3  502    0  0.17566193835E+03  0.57815937553E+03 -0.38144027115E+02  0.60545879043E+03  0.25500000920E-02 0. -1.
       -2    1    3    3    0  502 -0.17566193835E+03 -0.57815937553E+03  0.46452561939E+03  0.76217414754E+03  0.25500000920E-02 0.  1.
</event>
<event>
 5   0  0.3551277E-05  0.1300083E+04  0.7818609E-02  0.9029499E-01
        1   -1    0    0  501    0  0.00000000000E+00  0.00000000000E+00  0.10622227114E+04  0.10622227114E+04  0.50400001928E-02 0.  1.
       -1   -1    0    0    0  501  0.00000000000E+00  0.00000000000E+00 -0.39780186478E+03  0.39780186481E+03  0.50400001928E-02 0. -1.
    10030    2    1    2    0    0  0.00000000000E+00  0.00000000000E+00  0.66442084666E+03  0.14600245763E+04  0.13000833442E+04 0.  0.
        4    1    3    3  502    0 -0.45816967541E+03 -0.42077047205E+03  0.54405844623E+03  0.82641905075E+03  0.12699999809E+01 0.  1.
       -4    1    3    3    0  502  0.45816967541E+03  0.42077047205E+03  0.12036240042E+03  0.63360552551E+03  0.12699999809E+01 0. -1.
</event>
<event>
 5   0  0.3718559E-05  0.1300546E+04  0.7818609E-02  0.9029133E-01
        1   -1    0    0  501    0  0.00000000000E+00  0.00000000000E+00  0.17744814045E+04  0.17744814045E+04  0.50400001928E-02 0. -1.
       -1   -1    0    0    0  501  0.00000000000E+00  0.00000000000E+00 -0.23829767741E+03  0.23829767746E+03  0.50400001928E-02 0.  1.
    10030    2    1    2    0    0  0.00000000000E+00  0.00000000000E+00  0.15361837271E+04  0.20127790820E+04  0.13005457275E+04 0.  0.
        2    1    3    3  502    0 -0.56374402579E+03  0.10150170267E+03  0.29171753745E+03  0.64281338188E+03  0.25500000920E-02 0.  1.
       -2    1    3    3    0  502  0.56374402579E+03 -0.10150170267E+03  0.12444661897E+04  0.13699657001E+04  0.25500000920E-02 0. -1.
</event>
<event>
 5   0  0.3718559E-05  0.1300156E+04  0.7818609E-02  0.9029442E-01
        1   -1    0    0  501    0  0.00000000000E+00  0.00000000000E+00  0.92353428662E+03  0.92353428663E+03  0.50400001928E-02 0.  1.
       -1   -1    0    0    0  501  0.00000000000E+00  0.00000000000E+00 -0.45759139558E+03  0.45759139561E+03  0.50400001928E-02 0. -1.
    10030    2    1    2    0    0  0.00000000000E+00  0.00000000000E+00  0.46594289104E+03  0.13811256822E+04  0.13001559031E+04 0.  0.
        2    1    3    3  502    0  0.50188971624E+03  0.27455745078E+03 -0.95006054245E+02  0.57991484840E+03  0.25500000920E-02 0. -1.
       -2    1    3    3    0  502 -0.50188971624E+03 -0.27455745078E+03  0.56094894529E+03  0.80121083384E+03  0.25500000920E-02 0.  1.
</event>
<event>
 5   0  0.6618060E-05  0.1299724E+04  0.7818609E-02  0.9029784E-01
        2   -1    0    0  501    0  0.00000000000E+00  0.00000000000E+00  0.13627037456E+04  0.13627037456E+04  0.25500000920E-02 0.  1.
       -2   -1    0    0    0  501  0.00000000000E+00  0.00000000000E+00 -0.30991384435E+03  0.30991384436E+03  0.25500000920E-02 0. -1.
    10030    2    1    2    0    0  0.00000000000E+00  0.00000000000E+00  0.10527899012E+04  0.16726175899E+04  0.12997242115E+04 0.  0.
        2    1    3    3  502    0 -0.25173106109E+03  0.23035947766E+03  0.12381421654E+04  0.12843013812E+04  0.25500000920E-02 0.  1.
       -2    1    3    3    0  502  0.25173106109E+03 -0.23035947766E+03 -0.18535226421E+03  0.38831620867E+03  0.25500000920E-02 0. -1.
</event>
<event>
 5   0  0.3552698E-05  0.1299683E+04  0.7818609E-02  0.9029816E-01
        1   -1    0    0  501    0  0.00000000000E+00  0.00000000000E+00  0.10243715546E+04  0.10243715546E+04  0.50400001928E-02 0. -1.
       -1   -1    0    0    0  501  0.00000000000E+00  0.00000000000E+00 -0.41224699289E+03  0.41224699292E+03  0.50400001928E-02 0.  1.
    10030    2    1    2    0    0  0.00000000000E+00  0.00000000000E+00  0.61212456167E+03  0.14366185475E+04  0.12996831814E+04 0.  0.
        5    1    3    3  502    0 -0.43153761762E+03  0.15487418645E+03  0.81508205411E+03  0.93519600832E+03  0.46999998093E+01 0. -1.
       -5    1    3    3    0  502  0.43153761762E+03 -0.15487418645E+03 -0.20295749245E+03  0.50142253917E+03  0.46999998093E+01 0.  1.
</event>
<event>
 5   0  0.6688086E-05  0.1299596E+04  0.7818609E-02  0.9029886E-01
        2   -1    0    0  501    0  0.00000000000E+00  0.00000000000E+00  0.61621995027E+03  0.61621995027E+03  0.25500000920E-02 0.  1.
       -2   -1    0    0    0  501  0.00000000000E+00  0.00000000000E+00 -0.68520538512E+03  0.68520538512E+03  0.25500000920E-02 0. -1.
    10030    2    1    2    0    0  0.00000000000E+00  0.00000000000E+00 -0.68985434850E+02  0.13014253354E+04  0.12995956730E+04 0.  0.
        5    1    3    3  502    0 -0.59546081181E+03  0.21567879721E+03 -0.18003906252E+03  0.65842773028E+03  0.46999998093E+01 0. -1.
       -5    1    3    3    0  502  0.59546081181E+03 -0.21567879721E+03  0.11105362767E+03  0.64299760511E+03  0.46999998093E+01 0.  1.
</event>
<event>
 5   0  0.6688086E-05  0.1299550E+04  0.7818609E-02  0.9029922E-01
        2   -1    0    0  501    0  0.00000000000E+00  0.00000000000E+00  0.19534508512E+04  0.19534508512E+04  0.25500000920E-02 0. -1.
       -2   -1    0    0    0  501  0.00000000000E+00  0.00000000000E+00 -0.21613417095E+03  0.21613417096E+03  0.25500000920E-02 0.  1.
    10030    2    1    2    0    0  0.00000000000E+00  0.00000000000E+00  0.17373166803E+04  0.21695850222E+04  0.12995498917E+04 0.  0.
        5    1    3    3  502    0  0.47723309343E+03  0.27474210100E+03  0.29286412715E+03  0.62371959605E+03  0.46999998093E+01 0.  1.
       -5    1    3    3    0  502 -0.47723309343E+03 -0.27474210100E+03  0.14444525531E+04  0.15458654261E+04  0.46999998093E+01 0. -1.
</event>
<event>
 5   0  0.6742824E-05  0.1299875E+04  0.7818609E-02  0.9029664E-01
       -2   -1    0    0    0  501  0.00000000000E+00  0.00000000000E+00  0.30220374005E+03  0.30220374006E+03  0.25500000920E-02 0.  1.
        2   -1    0    0  501    0  0.00000000000E+00  0.00000000000E+00 -0.13977943346E+04  0.13977943346E+04  0.25500000920E-02 0. -1.
    10030    2    1    2    0    0  0.00000000000E+00  0.00000000000E+00 -0.10955905946E+04  0.16999980747E+04  0.12998748797E+04 0.  0.
        4    1    3    3  502    0  0.44774737001E+02  0.14846302635E+03  0.27765465142E+03  0.31802478774E+03  0.12699999809E+01 0.  1.
       -4    1    3    3    0  502 -0.44774737001E+02 -0.14846302635E+03 -0.13732452460E+04  0.13819732869E+04  0.12699999809E+01 0. -1.
</event>
<event>
 5   0  0.3551277E-05  0.1300747E+04  0.7818609E-02  0.9028973E-01
       -1   -1    0    0    0  501  0.00000000000E+00  0.00000000000E+00  0.38384333388E+03  0.38384333391E+03  0.50400001928E-02 0. -1.
        1   -1    0    0  501    0  0.00000000000E+00  0.00000000000E+00 -0.11019749562E+04  0.11019749562E+04  0.50400001928E-02 0.  1.
    10030    2    1    2    0    0  0.00000000000E+00  0.00000000000E+00 -0.71813162232E+03  0.14858182901E+04  0.13007470793E+04 0.  0.
        4    1    3    3  502    0  0.20637596914E+02  0.53953032414E+03  0.55103887233E+02  0.54273099447E+03  0.12699999809E+01 0. -1.
       -4    1    3    3    0  502 -0.20637596914E+02 -0.53953032414E+03 -0.77323550956E+03  0.94308729565E+03  0.12699999809E+01 0.  1.
</event>
<event>
 5   0  0.3718559E-05  0.1300773E+04  0.7818609E-02  0.9028952E-01
       -1   -1    0    0    0  501  0.00000000000E+00  0.00000000000E+00  0.19817097166E+03  0.19817097173E+03  0.50400001928E-02 0.  1.
        1   -1    0    0  501    0  0.00000000000E+00  0.00000000000E+00 -0.21345349750E+04  0.21345349750E+04  0.50400001928E-02 0. -1.
    10030    2    1    2    0    0  0.00000000000E+00  0.00000000000E+00 -0.19363640034E+04  0.23327059467E+04  0.13007734163E+04 0.  0.
        2    1    3    3  502    0 -0.43129815971E+03  0.48591323935E+03 -0.91519270027E+03  0.11223668996E+04  0.25500000920E-02 0.  1.
       -2    1    3    3    0  502  0.43129815971E+03 -0.48591323935E+03 -0.10211713031E+04  0.12103390471E+04  0.25500000920E-02 0. -1.
</event>
<event>
 5   0  0.2512000E-05  0.1299946E+04  0.7818609E-02  0.9029608E-01
       -3   -1    0    0    0  501  0.00000000000E+00  0.00000000000E+00  0.89923224966E+03  0.89923225533E+03  0.10100000352E+00 0. -1.
        3   -1    0    0  501    0  0.00000000000E+00  0.00000000000E+00 -0.46980604170E+03  0.46980605256E+03  0.10100000352E+00 0.  1.
    10030    2    1    2    0    0  0.00000000000E+00  0.00000000000E+00  0.42942620796E+03  0.13690383079E+04  0.12999457759E+04 0.  0.
        5    1    3    3  502    0 -0.59977494050E+03  0.16752740789E+03  0.41074411055E+03  0.74600819432E+03  0.46999998093E+01 0.  1.
       -5    1    3    3    0  502  0.59977494050E+03 -0.16752740789E+03  0.18682097408E+02  0.62303011356E+03  0.46999998093E+01 0. -1.
</event>
<event>
 5   0  0.6618060E-05  0.1300040E+04  0.7818609E-02  0.9029534E-01
       -2   -1    0    0    0  501  0.00000000000E+00  0.00000000000E+00  0.43784843384E+03  0.43784843385E+03  0.25500000920E-02 0.  1.
        2   -1    0    0  501    0  0.00000000000E+00  0.00000000000E+00 -0.96500476571E+03  0.96500476572E+03  0.25500000920E-02 0. -1.
    10030    2    1    2    0    0  0.00000000000E+00  0.00000000000E+00 -0.52715633187E+03  0.14028531996E+04  0.13000397307E+04 0.  0.
        2    1    3    3  502    0  0.35196785832E+02  0.50356501721E+03 -0.70548849803E+03  0.86748519362E+03  0.25500000920E-02 0.  1.
       -2    1    3    3    0  502 -0.35196785832E+02 -0.50356501721E+03  0.17833216616E+03  0.53536800594E+03  0.25500000920E-02 0. -1.
</event>
<event>
 5   0  0.3718559E-05  0.1299977E+04  0.7818609E-02  0.9029583E-01
        1   -1    0    0  501    0  0.00000000000E+00  0.00000000000E+00  0.71228433516E+03  0.71228433518E+03  0.50400001928E-02 0. -1.
       -1   -1    0    0    0  501  0.00000000000E+00  0.00000000000E+00 -0.59314111708E+03  0.59314111711E+03  0.50400001928E-02 0.  1.
    10030    2    1    2    0    0  0.00000000000E+00  0.00000000000E+00  0.11914321808E+03  0.13054254523E+04  0.12999771171E+04 0.  0.
        2    1    3    3  502    0  0.23832372833E+03 -0.41778246633E+03 -0.37946177107E+03  0.61264314602E+03  0.25500000920E-02 0.  1.
       -2    1    3    3    0  502 -0.23832372833E+03  0.41778246633E+03  0.49860498915E+03  0.69278230626E+03  0.25500000920E-02 0. -1.
</event>
<event>
 5   0  0.6458698E-05  0.1300167E+04  0.7818609E-02  0.9029433E-01
        2   -1    0    0  501    0  0.00000000000E+00  0.00000000000E+00  0.39517592355E+03  0.39517592356E+03  0.25500000920E-02 0. -1.
       -2   -1    0    0    0  501  0.00000000000E+00  0.00000000000E+00 -0.10694184085E+04  0.10694184085E+04  0.25500000920E-02 0.  1.
    10030    2    1    2    0    0  0.00000000000E+00  0.00000000000E+00 -0.67424248492E+03  0.14645943320E+04  0.13001667697E+04 0.  0.
        3    1    3    3  502    0  0.96608471108E+02 -0.59796332474E+03 -0.71229653952E+02  0.60989098061E+03  0.10100000352E+00 0. -1.
       -3    1    3    3    0  502 -0.96608471108E+02  0.59796332474E+03 -0.60301283096E+03  0.85470335142E+03  0.10100000352E+00 0.  1.
</event>
<event>
 5   0  0.6688086E-05  0.1300008E+04  0.7818609E-02  0.9029559E-01
       -2   -1    0    0    0  501  0.00000000000E+00  0.00000000000E+00  0.20873605676E+03  0.20873605677E+03  0.25500000920E-02 0. -1.
        2   -1    0    0  501    0  0.00000000000E+00  0.00000000000E+00 -0.20241134246E+04  0.20241134246E+04  0.25500000920E-02 0.  1.
    10030    2    1    2    0    0  0.00000000000E+00  0.00000000000E+00 -0.18153773679E+04  0.22328494814E+04  0.13000083918E+04 0.  0.
        5    1    3    3  502    0 -0.55229503530E+03 -0.21103561801E+03 -0.44389027283E+03  0.73934193876E+03  0.46999998093E+01 0. -1.
       -5    1    3    3    0  502  0.55229503530E+03  0.21103561801E+03 -0.13714870950E+04  0.14935075426E+04  0.46999998093E+01 0.  1.
</event>
<event>
 5   0  0.3552698E-05  0.1295851E+04  0.7818609E-02  0.9032861E-01
       -1   -1    0    0    0  501  0.00000000000E+00  0.00000000000E+00  0.48675423450E+03  0.48675423452E+03  0.50400001928E-02 0. -1.
        1   -1    0    0  501    0  0.00000000000E+00  0.00000000000E+00 -0.86246353305E+03  0.86246353306E+03  0.50400001928E-02 0.  1.
    10030    2    1    2    0    0  0.00000000000E+00  0.00000000000E+00 -0.37570929855E+03  0.13492177676E+04  0.12958514990E+04 0.  0.
        5    1    3    3  502    0  0.30080775753E+02 -0.70504410774E+02 -0.85770803335E+03  0.86113929505E+03  0.46999998093E+01 0.  1.
       -5    1    3    3    0  502 -0.30080775753E+02  0.70504410774E+02  0.48199873480E+03  0.48807847254E+03  0.46999998093E+01 0. -1.
</event>
<event>
 5   0  0.3631841E-05  0.1299674E+04  0.7818609E-02  0.9029823E-01
       -1   -1    0    0    0  501  0.00000000000E+00  0.00000000000E+00  0.28155472711E+03  0.28155472716E+03  0.50400001928E-02 0.  1.
        1   -1    0    0  501    0  0.00000000000E+00  0.00000000000E+00 -0.14998449993E+04  0.14998449993E+04  0.50400001928E-02 0. -1.
    10030    2    1    2    0    0  0.00000000000E+00  0.00000000000E+00 -0.12182902722E+04  0.17813997264E+04  0.12996744970E+04 0.  0.
        3    1    3    3  502    0 -0.57313217048E+03 -0.28334310750E+03 -0.76854560981E+03  0.99971304181E+03  0.10100000352E+00 0. -1.
       -3    1    3    3    0  502  0.57313217048E+03  0.28334310750E+03 -0.44974466235E+03  0.78168668462E+03  0.10100000352E+00 0.  1.
</event>
<event>
 5   0  0.6458698E-05  0.1297026E+04  0.7818609E-02  0.9031927E-01
        2   -1    0    0  501    0  0.00000000000E+00  0.00000000000E+00  0.92817819616E+03  0.92817819616E+03  0.25500000920E-02 0.  1.
       -2   -1    0    0    0  501  0.00000000000E+00  0.00000000000E+00 -0.45311260448E+03  0.45311260449E+03  0.25500000920E-02 0. -1.
    10030    2    1    2    0    0  0.00000000000E+00  0.00000000000E+00  0.47506559167E+03  0.13812908007E+04  0.12970261985E+04 0.  0.
        3    1    3    3  502    0  0.23078068191E+03  0.10796473610E+03  0.87264386775E+03  0.90907834509E+03  0.10100000352E+00 0.  1.
       -3    1    3    3    0  502 -0.23078068191E+03 -0.10796473610E+03 -0.39757827608E+03  0.47221245556E+03  0.10100000352E+00 0. -1.
</event>
<event>
 5   0  0.6671239E-05  0.1300509E+04  0.7818609E-02  0.9029162E-01
        2   -1    0    0  501    0  0.00000000000E+00  0.00000000000E+00  0.13079035005E+04  0.13079035005E+04  0.25500000920E-02 0.  1.
       -2   -1    0    0    0  501  0.00000000000E+00  0.00000000000E+00 -0.32328892578E+03  0.32328892579E+03  0.25500000920E-02 0. -1.
    10030    2    1    2    0    0  0.00000000000E+00  0.00000000000E+00  0.98461457476E+03  0.16311924263E+04  0.13005086970E+04 0.  0.
        1    1    3    3  502    0  0.53993437660E+02 -0.61123184266E+03  0.76222681211E+03  0.97852407733E+03  0.50400001928E-02 0.  1.
       -1    1    3    3    0  502 -0.53993437660E+02  0.61123184266E+03  0.22238776265E+03  0.65266834900E+03  0.50400001928E-02 0. -1.
</event>
<event>
 5   0  0.6671239E-05  0.1299712E+04  0.7818609E-02  0.9029794E-01
       -2   -1    0    0    0  501  0.00000000000E+00  0.00000000000E+00  0.27107652913E+03  0.27107652914E+03  0.25500000920E-02 0. -1.
        2   -1    0    0  501    0  0.00000000000E+00  0.00000000000E+00 -0.15579094560E+04  0.15579094561E+04  0.25500000920E-02 0.  1.
    10030    2    1    2    0    0  0.00000000000E+00  0.00000000000E+00 -0.12868329269E+04  0.18289859852E+04  0.12997117958E+04 0.  0.
        1    1    3    3  502    0  0.55420392599E+02 -0.40906729473E+03  0.62871650594E+02  0.41756474469E+03  0.50400001928E-02 0. -1.
       -1    1    3    3    0  502 -0.55420392599E+02  0.40906729473E+03 -0.13497045775E+04  0.14114212405E+04  0.50400001928E-02 0.  1.
</event>
<event>
 5   0  0.6618060E-05  0.1299345E+04  0.7818609E-02  0.9030085E-01
        2   -1    0    0  501    0  0.00000000000E+00  0.00000000000E+00  0.71457070877E+03  0.71457070877E+03  0.25500000920E-02 0. -1.
       -2   -1    0    0    0  501  0.00000000000E+00  0.00000000000E+00 -0.59066822633E+03  0.59066822633E+03  0.25500000920E-02 0.  1.
    10030    2    1    2    0    0  0.00000000000E+00  0.00000000000E+00  0.12390248244E+03  0.13052389351E+04  0.12993447782E+04 0.  0.
        2    1    3    3  502    0  0.50962285572E+03  0.15358561536E+02  0.46642258700E+03  0.69101473946E+03  0.25500000920E-02 0.  1.
       -2    1    3    3    0  502 -0.50962285572E+03 -0.15358561536E+02 -0.34252010456E+03  0.61422419564E+03  0.25500000920E-02 0. -1.
</event>
<event>
 5   0  0.3689707E-05  0.1299350E+04  0.7818609E-02  0.9030081E-01
       -1   -1    0    0    0  501  0.00000000000E+00  0.00000000000E+00  0.30479285616E+03  0.30479285620E+03  0.50400001928E-02 0.  1.
        1   -1    0    0  501    0  0.00000000000E+00  0.00000000000E+00 -0.13848007060E+04  0.13848007061E+04  0.50400001928E-02 0. -1.
    10030    2    1    2    0    0  0.00000000000E+00  0.00000000000E+00 -0.10800078499E+04  0.16895935623E+04  0.12993496257E+04 0.  0.
        1    1    3    3  502    0 -0.56061672899E+03 -0.17973059977E+03 -0.89726133757E+03  0.10731598731E+04  0.50400001928E-02 0. -1.
       -1    1    3    3    0  502  0.56061672899E+03  0.17973059977E+03 -0.18274651232E+03  0.61643368914E+03  0.50400001928E-02 0.  1.
</event>
<event>
 5   0  0.6671239E-05  0.1299969E+04  0.7818609E-02  0.9029590E-01
       -2   -1    0    0    0  501  0.00000000000E+00  0.00000000000E+00  0.53759899208E+03  0.53759899209E+03  0.25500000920E-02 0. -1.
        2   -1    0    0  501    0  0.00000000000E+00  0.00000000000E+00 -0.78586398579E+03  0.78586398579E+03  0.25500000920E-02 0.  1.
    10030    2    1    2    0    0  0.00000000000E+00  0.00000000000E+00 -0.24826499371E+03  0.13234629779E+04  0.12999687484E+04 0.  0.
        1    1    3    3  502    0 -0.53914832009E+03 -0.22466079890E+03  0.16619916166E+03  0.60726892476E+03  0.50400001928E-02 0.  1.
       -1    1    3    3    0  502  0.53914832009E+03  0.22466079890E+03 -0.41446415537E+03  0.71619405312E+03  0.50400001928E-02 0. -1.
</event>
<event>
 5   0  0.6742824E-05  0.1299546E+04  0.7818609E-02  0.9029925E-01
        2   -1    0    0  501    0  0.00000000000E+00  0.00000000000E+00  0.21884361296E+04  0.21884361296E+04  0.25500000920E-02 0.  1.
       -2   -1    0    0    0  501  0.00000000000E+00  0.00000000000E+00 -0.19292547198E+03  0.19292547200E+03  0.25500000920E-02 0. -1.
    10030    2    1    2    0    0  0.00000000000E+00  0.00000000000E+00  0.19955106577E+04  0.23813616016E+04  0.12995461873E+04 0.  0.
        4    1    3    3  502    0 -0.14985893207E+03 -0.49010609376E+03  0.17296875069E+04  0.18040183389E+04  0.12699999809E+01 0.  1.
       -4    1    3    3    0  502  0.14985893207E+03  0.49010609376E+03  0.26582315077E+03  0.57734326275E+03  0.12699999809E+01 0. -1.
</event>
<event>
 5   0  0.6458698E-05  0.1299603E+04  0.7818609E-02  0.9029880E-01
       -2   -1    0    0    0  501  0.00000000000E+00  0.00000000000E+00  0.35514764030E+03  0.35514764031E+03  0.25500000920E-02 0.  1.
        2   -1    0    0  501    0  0.00000000000E+00  0.00000000000E+00 -0.11889193864E+04  0.11889193864E+04  0.25500000920E-02 0. -1.
    10030    2    1    2    0    0  0.00000000000E+00  0.00000000000E+00 -0.83377174605E+03  0.15440670267E+04  0.12996028849E+04 0.  0.
        3    1    3    3  502    0 -0.94860404259E+02  0.64283785456E+03 -0.41890943423E+03  0.77312620434E+03  0.10100000352E+00 0. -1.
       -3    1    3    3    0  502  0.94860404259E+02 -0.64283785456E+03 -0.41486231182E+03  0.77094082232E+03  0.10100000352E+00 0.  1.
</event>
<event>
 5   0  0.3631841E-05  0.1307071E+04  0.7818609E-02  0.9023977E-01
        1   -1    0    0  501    0  0.00000000000E+00  0.00000000000E+00  0.20826926578E+04  0.20826926578E+04  0.50400001928E-02 0. -1.
       -1   -1    0    0    0  501  0.00000000000E+00  0.00000000000E+00 -0.20507516333E+03  0.20507516339E+03  0.50400001928E-02 0.  1.
    10030    2    1    2    0    0  0.00000000000E+00  0.00000000000E+00  0.18776174945E+04  0.22877678212E+04  0.13070708275E+04 0.  0.
        3    1    3    3  502    0  0.13366187182E+03  0.26926229280E+03  0.19544976941E+04  0.19774804486E+04  0.10100000352E+00 0. -1.
       -3    1    3    3    0  502 -0.13366187182E+03 -0.26926229280E+03 -0.76880199587E+02  0.31028737260E+03  0.10100000352E+00 0.  1.
</event>
<event>
 5   0  0.2512000E-05  0.1299952E+04  0.7818609E-02  0.9029604E-01
        4   -1    0    0  501    0  0.00000000000E+00  0.00000000000E+00  0.71125709961E+03  0.71125823344E+03  0.12699999809E+01 0. -1.
       -4   -1    0    0    0  501  0.00000000000E+00  0.00000000000E+00 -0.59397209140E+03  0.59397344912E+03  0.12699999809E+01 0.  1.
    10030    2    1    2    0    0  0.00000000000E+00  0.00000000000E+00  0.11728500821E+03  0.13052316826E+04  0.12999515268E+04 0.  0.
        5    1    3    3  502    0 -0.39458810212E+02 -0.40446356331E+03  0.56794896629E+03  0.69838090613E+03  0.46999998093E+01 0. -1.
       -5    1    3    3    0  502  0.39458810212E+02  0.40446356331E+03 -0.45066395808E+03  0.60685077643E+03  0.46999998093E+01 0.  1.
</event>
<event>
 5   0  0.6671239E-05  0.1301312E+04  0.7818609E-02  0.9028526E-01
       -2   -1    0    0    0  501  0.00000000000E+00  0.00000000000E+00  0.47745645391E+03  0.47745645392E+03  0.25500000920E-02 0.  1.
        2   -1    0    0  501    0  0.00000000000E+00  0.00000000000E+00 -0.88668402745E+03  0.88668402745E+03  0.25500000920E-02 0. -1.
    10030    2    1    2    0    0  0.00000000000E+00  0.00000000000E+00 -0.40922757354E+03  0.13641404814E+04  0.13013116637E+04 0.  0.
        1    1    3    3  502    0  0.27378598082E+03  0.11975973022E+03  0.40126356512E+03  0.50031350671E+03  0.50400001928E-02 0.  1.
       -1    1    3    3    0  502 -0.27378598082E+03 -0.11975973022E+03 -0.81049113866E+03  0.86382697466E+03  0.50400001928E-02 0. -1.
</event>
<event>
 5   0  0.6742824E-05  0.1300308E+04  0.7818609E-02  0.9029321E-01
        2   -1    0    0  501    0  0.00000000000E+00  0.00000000000E+00  0.37430571901E+03  0.37430571902E+03  0.25500000920E-02 0.  1.
       -2   -1    0    0    0  501  0.00000000000E+00  0.00000000000E+00 -0.11292908141E+04  0.11292908141E+04  0.25500000920E-02 0. -1.
    10030    2    1    2    0    0  0.00000000000E+00  0.00000000000E+00 -0.75498509504E+03  0.15035965331E+04  0.13003076715E+04 0.  0.
        4    1    3    3  502    0 -0.57444713022E+02 -0.49462856206E+03  0.10588080884E+03  0.50908709278E+03  0.12699999809E+01 0.  1.
       -4    1    3    3    0  502  0.57444713022E+02  0.49462856206E+03 -0.86086590388E+03  0.99450944029E+03  0.12699999809E+01 0. -1.
</event>
<event>
 5   0  0.6458698E-05  0.1299514E+04  0.7818609E-02  0.9029950E-01
        2   -1    0    0  501    0  0.00000000000E+00  0.00000000000E+00  0.27341704158E+04  0.27341704158E+04  0.25500000920E-02 0.  1.
       -2   -1    0    0    0  501  0.00000000000E+00  0.00000000000E+00 -0.15441042839E+03  0.15441042841E+03  0.25500000920E-02 0. -1.
    10030    2    1    2    0    0  0.00000000000E+00  0.00000000000E+00  0.25797599874E+04  0.28885808442E+04  0.12995144096E+04 0.  0.
        3    1    3    3  502    0  0.37610059849E+03 -0.52544954333E+02  0.11794429558E+03  0.39764745626E+03  0.10100000352E+00 0. -1.
       -3    1    3    3    0  502 -0.37610059849E+03  0.52544954333E+02  0.24618156918E+04  0.24909333879E+04  0.10100000352E+00 0.  1.
</event>
<event>
 5   0  0.3689707E-05  0.1306002E+04  0.7818609E-02  0.9024819E-01
       -1   -1    0    0    0  501  0.00000000000E+00  0.00000000000E+00  0.49725604336E+03  0.49725604338E+03  0.50400001928E-02 0.  1.
        1   -1    0    0  501    0  0.00000000000E+00  0.00000000000E+00 -0.85752667708E+03  0.85752667710E+03  0.50400001928E-02 0. -1.
    10030    2    1    2    0    0  0.00000000000E+00  0.00000000000E+00 -0.36027063373E+03  0.13547827205E+04  0.13060020253E+04 0.  0.
        1    1    3    3  502    0  0.36778112538E+03 -0.44121421598E+03 -0.50234497437E+03  0.76307497264E+03  0.50400001928E-02 0. -1.
       -1    1    3    3    0  502 -0.36778112538E+03  0.44121421598E+03  0.14207434064E+03  0.59170774784E+03  0.50400001928E-02 0.  1.
</event>
<event>
 5   0  0.6618060E-05  0.1300193E+04  0.7818609E-02  0.9029412E-01
        2   -1    0    0  501    0  0.00000000000E+00  0.00000000000E+00  0.15564409933E+04  0.15564409933E+04  0.25500000920E-02 0. -1.
       -2   -1    0    0    0  501  0.00000000000E+00  0.00000000000E+00 -0.27153306796E+03  0.27153306797E+03  0.25500000920E-02 0.  1.
    10030    2    1    2    0    0  0.00000000000E+00  0.00000000000E+00  0.12849079253E+04  0.18279740613E+04  0.13001925981E+04 0.  0.
        2    1    3    3  502    0 -0.14547997482E+03 -0.49944478849E+03  0.11906129390E+04  0.12992954592E+04  0.25500000920E-02 0. -1.
       -2    1    3    3    0  502  0.14547997482E+03  0.49944478849E+03  0.94294986364E+02  0.52867860207E+03  0.25500000920E-02 0.  1.
</event>
<event>
 5   0  0.3689707E-05  0.1291497E+04  0.7818609E-02  0.9036335E-01
       -1   -1    0    0    0  501  0.00000000000E+00  0.00000000000E+00  0.32060754013E+03  0.32060754017E+03  0.50400001928E-02 0.  1.
        1   -1    0    0  501    0  0.00000000000E+00  0.00000000000E+00 -0.13006281584E+04  0.13006281584E+04  0.50400001928E-02 0. -1.
    10030    2    1    2    0    0  0.00000000000E+00  0.00000000000E+00 -0.98002061827E+03  0.16212356986E+04  0.12914971073E+04 0.  0.
        1    1    3    3  502    0 -0.66990404374E+02 -0.58654538682E+03 -0.81848091214E+03  0.10091750139E+04  0.50400001928E-02 0. -1.
       -1    1    3    3    0  502  0.66990404374E+02  0.58654538682E+03 -0.16153970613E+03  0.61206068470E+03  0.50400001928E-02 0.  1.
</event>
<event>
 5   0  0.3718559E-05  0.1299960E+04  0.7818609E-02  0.9029597E-01
        1   -1    0    0  501    0  0.00000000000E+00  0.00000000000E+00  0.63552908081E+03  0.63552908083E+03  0.50400001928E-02 0.  1.
       -1   -1    0    0    0  501  0.00000000000E+00  0.00000000000E+00 -0.66475914623E+03  0.66475914625E+03  0.50400001928E-02 0. -1.
    10030    2    1    2    0    0  0.00000000000E+00  0.00000000000E+00 -0.29230065418E+02  0.13002882271E+04  0.12999596443E+04 0.  0.
        2    1    3    3  502    0  0.46258945105E+02  0.24960959813E+03 -0.61312146050E+03  0.66359834751E+03  0.25500000920E-02 0. -1.
       -2    1    3    3    0  502 -0.46258945105E+02 -0.24960959813E+03  0.58389139509E+03  0.63668987957E+03  0.25500000920E-02 0.  1.
</event>
<event>
 5   0  0.6688086E-05  0.1300559E+04  0.7818609E-02  0.9029122E-01
       -2   -1    0    0    0  501  0.00000000000E+00  0.00000000000E+00  0.43833929072E+03  0.43833929073E+03  0.25500000920E-02 0.  1.
        2   -1    0    0  501    0  0.00000000000E+00  0.00000000000E+00 -0.96469461093E+03  0.96469461093E+03  0.25500000920E-02 0. -1.
    10030    2    1    2    0    0  0.00000000000E+00  0.00000000000E+00 -0.52635532021E+03  0.14030339017E+04  0.13005591898E+04 0.  0.
        5    1    3    3  502    0  0.43879531000E+03 -0.21331842473E+03 -0.72692732196E+03  0.87549500045E+03  0.46999998093E+01 0. -1.
       -5    1    3    3    0  502 -0.43879531000E+03  0.21331842473E+03  0.20057200174E+03  0.52753890121E+03  0.46999998093E+01 0.  1.
</event>
<event>
 5   0  0.3689707E-05  0.1300193E+04  0.7818609E-02  0.9029412E-01
       -1   -1    0    0    0  501  0.00000000000E+00  0.00000000000E+00  0.23951723780E+03  0.23951723786E+03  0.50400001928E-02 0. -1.
        1   -1    0    0  501    0  0.00000000000E+00  0.00000000000E+00 -0.17644884134E+04  0.17644884134E+04  0.50400001928E-02 0.  1.
    10030    2    1    2    0    0  0.00000000000E+00  0.00000000000E+00 -0.15249711756E+04  0.20040056513E+04  0.13001928949E+04 0.  0.
        1    1    3    3  502    0 -0.57404621067E+03  0.22774776932E+03 -0.10754417886E+04  0.12401504502E+04  0.50400001928E-02 0.  1.
       -1    1    3    3    0  502  0.57404621067E+03 -0.22774776932E+03 -0.44952938701E+03  0.76385520109E+03  0.50400001928E-02 0. -1.
</event>
<event>
 5   0  0.6742824E-05  0.1299165E+04  0.7818609E-02  0.9030227E-01
       -2   -1    0    0    0  501  0.00000000000E+00  0.00000000000E+00  0.75948616223E+03  0.75948616224E+03  0.25500000920E-02 0.  1.
        2   -1    0    0  501    0  0.00000000000E+00  0.00000000000E+00 -0.55558318948E+03  0.55558318949E+03  0.25500000920E-02 0. -1.
    10030    2    1    2    0    0  0.00000000000E+00  0.00000000000E+00  0.20390297275E+03  0.13150693517E+04  0.12991654928E+04 0.  0.
        4    1    3    3  502    0 -0.18854863311E+03  0.65629911788E+02  0.72765948861E+03  0.75455140092E+03  0.12699999809E+01 0.  1.
       -4    1    3    3    0  502  0.18854863311E+03 -0.65629911788E+02 -0.52375651586E+03  0.56051795081E+03  0.12699999809E+01 0. -1.
</event>
<event>
 5   0  0.3552698E-05  0.1299244E+04  0.7818609E-02  0.9030165E-01
        1   -1    0    0  501    0  0.00000000000E+00  0.00000000000E+00  0.12646450345E+04  0.12646450345E+04  0.50400001928E-02 0. -1.
       -1   -1    0    0    0  501  0.00000000000E+00  0.00000000000E+00 -0.33369742178E+03  0.33369742181E+03  0.50400001928E-02 0.  1.
    10030    2    1    2    0    0  0.00000000000E+00  0.00000000000E+00  0.93094761271E+03  0.15983424563E+04  0.12992440687E+04 0.  0.
        5    1    3    3  502    0  0.90739819328E+02 -0.24905906155E+03  0.11950643722E+04  0.12241180803E+04  0.46999998093E+01 0. -1.
       -5    1    3    3    0  502 -0.90739819328E+02  0.24905906155E+03 -0.26411675946E+03  0.37422437598E+03  0.46999998093E+01 0.  1.
</event>
<event>
 5   0  0.6458698E-05  0.1300062E+04  0.7818609E-02  0.9029516E-01
        2   -1    0    0  501    0  0.00000000000E+00  0.00000000000E+00  0.64581188026E+03  0.64581188027E+03  0.25500000920E-02 0. -1.
       -2   -1    0    0    0  501  0.00000000000E+00  0.00000000000E+00 -0.65427729845E+03  0.65427729846E+03  0.25500000920E-02 0.  1.
    10030    2    1    2    0    0  0.00000000000E+00  0.00000000000E+00 -0.84654181927E+01  0.13000891787E+04  0.13000616175E+04 0.  0.
        3    1    3    3  502    0 -0.10519623162E+03  0.26578605120E+03  0.57958748697E+03  0.64624309467E+03  0.10100000352E+00 0. -1.
       -3    1    3    3    0  502  0.10519623162E+03 -0.26578605120E+03 -0.58805290516E+03  0.65384608405E+03  0.10100000352E+00 0.  1.
</event>
<event>
 5   0  0.6458698E-05  0.1299453E+04  0.7818609E-02  0.9029999E-01
       -2   -1    0    0    0  501  0.00000000000E+00  0.00000000000E+00  0.29544866351E+03  0.29544866352E+03  0.25500000920E-02 0. -1.
        2   -1    0    0  501    0  0.00000000000E+00  0.00000000000E+00 -0.14288242829E+04  0.14288242829E+04  0.25500000920E-02 0.  1.
    10030    2    1    2    0    0  0.00000000000E+00  0.00000000000E+00 -0.11333756194E+04  0.17242729464E+04  0.12994525382E+04 0.  0.
        3    1    3    3  502    0 -0.22888549372E+03 -0.73931387586E+02 -0.13675708468E+04  0.13885620082E+04  0.10100000352E+00 0.  1.
       -3    1    3    3    0  502  0.22888549372E+03  0.73931387586E+02  0.23419522742E+03  0.33571093824E+03  0.10100000352E+00 0. -1.
</event>
<event>
 5   0  0.3631841E-05  0.1300185E+04  0.7818609E-02  0.9029418E-01
        1   -1    0    0  501    0  0.00000000000E+00  0.00000000000E+00  0.10426861930E+04  0.10426861930E+04  0.50400001928E-02 0.  1.
       -1   -1    0    0    0  501  0.00000000000E+00  0.00000000000E+00 -0.40531903726E+03  0.40531903729E+03  0.50400001928E-02 0. -1.
    10030    2    1    2    0    0  0.00000000000E+00  0.00000000000E+00  0.63736715569E+03  0.14480052303E+04  0.13001854697E+04 0.  0.
        3    1    3    3  502    0  0.32260504189E+02 -0.39883819817E+03  0.88928915941E+03  0.97516555911E+03  0.10100000352E+00 0.  1.
       -3    1    3    3    0  502 -0.32260504189E+02  0.39883819817E+03 -0.25192200371E+03  0.47283967114E+03  0.10100000352E+00 0. -1.
</event>
<event>
 5   0  0.6618060E-05  0.1300229E+04  0.7818609E-02  0.9029384E-01
        2   -1    0    0  501    0  0.00000000000E+00  0.00000000000E+00  0.57936537743E+03  0.57936537743E+03  0.25500000920E-02 0.  1.
       -2   -1    0    0    0  501  0.00000000000E+00  0.00000000000E+00 -0.72950294666E+03  0.72950294666E+03  0.25500000920E-02 0. -1.
    10030    2    1    2    0    0  0.00000000000E+00  0.00000000000E+00 -0.15013756923E+03  0.13088683241E+04  0.13002288261E+04 0.  0.
        2    1    3    3  502    0 -0.42160398145E+03  0.48528707160E+03 -0.17264215016E+03  0.66562660032E+03  0.25500000920E-02 0. -1.
       -2    1    3    3    0  502  0.42160398145E+03 -0.48528707160E+03  0.22504580929E+02  0.64324172377E+03  0.25500000920E-02 0.  1.
</event>
<event>
 5   0  0.6742824E-05  0.1300910E+04  0.7818609E-02  0.9028844E-01
        2   -1    0    0  501    0  0.00000000000E+00  0.00000000000E+00  0.51673640041E+03  0.51673640041E+03  0.25500000920E-02 0. -1.
       -2   -1    0    0    0  501  0.00000000000E+00  0.00000000000E+00 -0.81877683937E+03  0.81877683938E+03  0.25500000920E-02 0.  1.
    10030    2    1    2    0    0  0.00000000000E+00  0.00000000000E+00 -0.30204043897E+03  0.13355132398E+04  0.13009101379E+04 0.  0.
        4    1    3    3  502    0 -0.25164280203E+03  0.16528612780E+03 -0.74293861139E+03  0.80162522232E+03  0.12699999809E+01 0.  1.
       -4    1    3    3    0  502  0.25164280203E+03 -0.16528612780E+03  0.44089817242E+03  0.53388801748E+03  0.12699999809E+01 0. -1.
</event>
<event>
 5   0  0.6742824E-05  0.1300012E+04  0.7818609E-02  0.9029556E-01
        2   -1    0    0  501    0  0.00000000000E+00  0.00000000000E+00  0.86881423513E+03  0.86881423514E+03  0.25500000920E-02 0.  1.
       -2   -1    0    0    0  501  0.00000000000E+00  0.00000000000E+00 -0.48630362922E+03  0.48630362923E+03  0.25500000920E-02 0. -1.
    10030    2    1    2    0    0  0.00000000000E+00  0.00000000000E+00  0.38251060591E+03  0.13551178644E+04  0.13000115625E+04 0.  0.
        4    1    3    3  502    0 -0.21645282456E+03  0.44622175149E+03  0.62923269645E+03  0.80118729143E+03  0.12699999809E+01 0.  1.
       -4    1    3    3    0  502  0.21645282456E+03 -0.44622175149E+03 -0.24672209054E+03  0.55393057293E+03  0.12699999809E+01 0. -1.
</event>
<event>
 5   0  0.3551277E-05  0.1300022E+04  0.7818609E-02  0.9029548E-01
        1   -1    0    0  501    0  0.00000000000E+00  0.00000000000E+00  0.12366212846E+04  0.12366212846E+04  0.50400001928E-02 0.  1.
       -1   -1    0    0    0  501  0.00000000000E+00  0.00000000000E+00 -0.34166844778E+03  0.34166844781E+03  0.50400001928E-02 0. -1.
    10030    2    1    2    0    0  0.00000000000E+00  0.00000000000E+00  0.89495283680E+03  0.15782897324E+04  0.13000222688E+04 0.  0.
        4    1    3    3  502    0 -0.25033992889E+03  0.23885482637E+03 -0.22057137073E+03  0.41033529042E+03  0.12699999809E+01 0. -1.
       -4    1    3    3    0  502  0.25033992889E+03 -0.23885482637E+03  0.11155242075E+04  0.11679544420E+04  0.12699999809E+01 0.  1.
</event>
<event>
 5   0  0.3631841E-05  0.1300618E+04  0.7818609E-02  0.9029075E-01
       -1   -1    0    0    0  501  0.00000000000E+00  0.00000000000E+00  0.63182444588E+03  0.63182444590E+03  0.50400001928E-02 0.  1.
        1   -1    0    0  501    0  0.00000000000E+00  0.00000000000E+00 -0.66933422775E+03  0.66933422777E+03  0.50400001928E-02 0. -1.
    10030    2    1    2    0    0  0.00000000000E+00  0.00000000000E+00 -0.37509781867E+02  0.13011586737E+04  0.13006178956E+04 0.  0.
        3    1    3    3  502    0  0.73819390981E+02  0.29575303285E+03 -0.59343481876E+03  0.66714620080E+03  0.10100000352E+00 0. -1.
       -3    1    3    3    0  502 -0.73819390981E+02 -0.29575303285E+03  0.55592503689E+03  0.63401247288E+03  0.10100000352E+00 0.  1.
</event>
<event>
 5   0  0.3689707E-05  0.1301379E+04  0.7818609E-02  0.9028473E-01
        1   -1    0    0  501    0  0.00000000000E+00  0.00000000000E+00  0.11803258714E+04  0.11803258714E+04  0.50400001928E-02 0.  1.
       -1   -1    0    0    0  501  0.00000000000E+00  0.00000000000E+00 -0.35871153231E+03  0.35871153235E+03  0.50400001928E-02 0. -1.
    10030    2    1    2    0    0  0.00000000000E+00  0.00000000000E+00  0.82161433910E+03  0.15390374038E+04  0.13013785030E+04 0.  0.
        1    1    3    3  502    0  0.14238199427E+03  0.52484256954E+03 -0.11744692616E+02  0.54393960412E+03  0.50400001928E-02 0.  1.
       -1    1    3    3    0  502 -0.14238199427E+03 -0.52484256954E+03  0.83335903172E+03  0.99509779965E+03  0.50400001928E-02 0. -1.
</event>
<event>
 5   0  0.3551277E-05  0.1300272E+04  0.7818609E-02  0.9029349E-01
       -1   -1    0    0    0  501  0.00000000000E+00  0.00000000000E+00  0.50461845864E+03  0.50461845866E+03  0.50400001928E-02 0.  1.
        1   -1    0    0  501    0  0.00000000000E+00  0.00000000000E+00 -0.83761674794E+03  0.83761674796E+03  0.50400001928E-02 0. -1.
    10030    2    1    2    0    0  0.00000000000E+00  0.00000000000E+00 -0.33299828930E+03  0.13422352066E+04  0.13002720828E+04 0.  0.
        4    1    3    3  502    0  0.15784155717E+03  0.49194321497E+03 -0.57389146951E+03  0.77218852336E+03  0.12699999809E+01 0. -1.
       -4    1    3    3    0  502 -0.15784155717E+03 -0.49194321497E+03  0.24089318021E+03  0.57004668326E+03  0.12699999809E+01 0.  1.
</event>
<event>
 5   0  0.3689707E-05  0.1301158E+04  0.7818609E-02  0.9028647E-01
        1   -1    0    0  501    0  0.00000000000E+00  0.00000000000E+00  0.74467603013E+03  0.74467603014E+03  0.50400001928E-02 0.  1.
       -1   -1    0    0    0  501  0.00000000000E+00  0.00000000000E+00 -0.56837199669E+03  0.56837199671E+03  0.50400001928E-02 0. -1.
    10030    2    1    2    0    0  0.00000000000E+00  0.00000000000E+00  0.17630403344E+03  0.13130480269E+04  0.13011579491E+04 0.  0.
        1    1    3    3  502    0  0.27639347567E+03 -0.27883218234E+03  0.61165280035E+03  0.72681489219E+03  0.50400001928E-02 0.  1.
       -1    1    3    3    0  502 -0.27639347567E+03  0.27883218234E+03 -0.43534876691E+03  0.58623313466E+03  0.50400001928E-02 0. -1.
</event>
<event>
 5   0  0.6618060E-05  0.1299165E+04  0.7818609E-02  0.9030228E-01
       -2   -1    0    0    0  501  0.00000000000E+00  0.00000000000E+00  0.61968023037E+03  0.61968023038E+03  0.25500000920E-02 0.  1.
        2   -1    0    0  501    0  0.00000000000E+00  0.00000000000E+00 -0.68092757707E+03  0.68092757707E+03  0.25500000920E-02 0. -1.
    10030    2    1    2    0    0  0.00000000000E+00  0.00000000000E+00 -0.61247346691E+02  0.13006078075E+04  0.12991648977E+04 0.  0.
        2    1    3    3  502    0  0.14041406683E+03  0.12004792590E+03 -0.65407511745E+03  0.67966305913E+03  0.25500000920E-02 0. -1.
       -2    1    3    3    0  502 -0.14041406683E+03 -0.12004792590E+03  0.59282777076E+03  0.62094474832E+03  0.25500000920E-02 0.  1.
</event>
<event>
 5   0  0.3551277E-05  0.1299735E+04  0.7818609E-02  0.9029775E-01
       -1   -1    0    0    0  501  0.00000000000E+00  0.00000000000E+00  0.45469198023E+03  0.45469198026E+03  0.50400001928E-02 0. -1.
        1   -1    0    0  501    0  0.00000000000E+00  0.00000000000E+00 -0.92882203309E+03  0.92882203310E+03  0.50400001928E-02 0.  1.
    10030    2    1    2    0    0  0.00000000000E+00  0.00000000000E+00 -0.47413005286E+03  0.13835140134E+04  0.12997352492E+04 0.  0.
        4    1    3    3  502    0  0.30750397675E+03  0.55925931943E+03 -0.10671066415E+03  0.64708458552E+03  0.12699999809E+01 0. -1.
       -4    1    3    3    0  502 -0.30750397675E+03 -0.55925931943E+03 -0.36741938871E+03  0.73642942783E+03  0.12699999809E+01 0.  1.
</event>
<event>
 5   0  0.6618060E-05  0.1299180E+04  0.7818609E-02  0.9030216E-01
       -2   -1    0    0    0  501  0.00000000000E+00  0.00000000000E+00  0.30768133730E+03  0.30768133731E+03  0.25500000920E-02 0.  1.
        2   -1    0    0  501    0  0.00000000000E+00  0.00000000000E+00 -0.13714424040E+04  0.13714424040E+04  0.25500000920E-02 0. -1.
    10030    2    1    2    0    0  0.00000000000E+00  0.00000000000E+00 -0.10637610667E+04  0.16791237413E+04  0.12991800997E+04 0.  0.
        2    1    3    3  502    0 -0.43842601434E+03 -0.19346333770E+03  0.34916541021E+02  0.48048371244E+03  0.25500000920E-02 0.  1.
       -2    1    3    3    0  502  0.43842601434E+03  0.19346333770E+03 -0.10986776077E+04  0.11986400288E+04  0.25500000920E-02 0. -1.
</event>
<event>
 5   0  0.3689707E-05  0.1299755E+04  0.7818609E-02  0.9029759E-01
        1   -1    0    0  501    0  0.00000000000E+00  0.00000000000E+00  0.85573581825E+03  0.85573581827E+03  0.50400001928E-02 0. -1.
       -1   -1    0    0    0  501  0.00000000000E+00  0.00000000000E+00 -0.49354142463E+03  0.49354142466E+03  0.50400001928E-02 0.  1.
    10030    2    1    2    0    0  0.00000000000E+00  0.00000000000E+00  0.36219439362E+03  0.13492772429E+04  0.12997554768E+04 0.  0.
        1    1    3    3  502    0  0.53448631725E+03  0.47703749158E+01  0.56483337777E+03  0.77764717222E+03  0.50400001928E-02 0. -1.
       -1    1    3    3    0  502 -0.53448631725E+03 -0.47703749158E+01 -0.20263898414E+03  0.57163007070E+03  0.50400001928E-02 0.  1.
</event>
<event>
 5   0  0.3631841E-05  0.1299890E+04  0.7818609E-02  0.9029652E-01
       -1   -1    0    0    0  501  0.00000000000E+00  0.00000000000E+00  0.49702267108E+03  0.49702267110E+03  0.50400001928E-02 0. -1.
        1   -1    0    0  501    0  0.00000000000E+00  0.00000000000E+00 -0.84991859149E+03  0.84991859150E+03  0.50400001928E-02 0.  1.
    10030    2    1    2    0    0  0.00000000000E+00  0.00000000000E+00 -0.35289592041E+03  0.13469412626E+04  0.12998904701E+04 0.  0.
        3    1    3    3  502    0 -0.13239852270E+03 -0.37236734853E+03 -0.71111100930E+03  0.81355128222E+03  0.10100000352E+00 0.  1.
       -3    1    3    3    0  502  0.13239852270E+03  0.37236734853E+03  0.35821508888E+03  0.53338998038E+03  0.10100000352E+00 0. -1.
</event>
<event>
 5   0  0.6618060E-05  0.1300334E+04  0.7818609E-02  0.9029301E-01
       -2   -1    0    0    0  501  0.00000000000E+00  0.00000000000E+00  0.25984277399E+03  0.25984277401E+03  0.25500000920E-02 0. -1.
        2   -1    0    0  501    0  0.00000000000E+00  0.00000000000E+00 -0.16268182936E+04  0.16268182936E+04  0.25500000920E-02 0.  1.
    10030    2    1    2    0    0  0.00000000000E+00  0.00000000000E+00 -0.13669755196E+04  0.18866610676E+04  0.13003337698E+04 0.  0.
        2    1    3    3  502    0 -0.16420884445E+03 -0.25332981103E+03 -0.15189577961E+04  0.15486682421E+04  0.25500000920E-02 0.  1.
       -2    1    3    3    0  502  0.16420884445E+03  0.25332981103E+03  0.15198227646E+03  0.33799282554E+03  0.25500000920E-02 0. -1.
</event>
<event>
 5   0  0.6458698E-05  0.1300439E+04  0.7818609E-02  0.9029217E-01
        2   -1    0    0  501    0  0.00000000000E+00  0.00000000000E+00  0.13165802490E+04  0.13165802490E+04  0.25500000920E-02 0.  1.
       -2   -1    0    0    0  501  0.00000000000E+00  0.00000000000E+00 -0.32112378388E+03  0.32112378389E+03  0.25500000920E-02 0. -1.
    10030    2    1    2    0    0  0.00000000000E+00  0.00000000000E+00  0.99545646511E+03  0.16377040329E+04  0.13004387434E+04 0.  0.
        3    1    3    3  502    0  0.33042312858E+03 -0.46000922758E+03  0.89992616202E+03  0.10633226418E+04  0.10100000352E+00 0.  1.
       -3    1    3    3    0  502 -0.33042312858E+03  0.46000922758E+03  0.95530303091E+02  0.57438139104E+03  0.10100000352E+00 0. -1.
</event>
<event>
 5   0  0.6688086E-05  0.1300475E+04  0.7818609E-02  0.9029189E-01
        2   -1    0    0  501    0  0.00000000000E+00  0.00000000000E+00  0.61216999265E+03  0.61216999265E+03  0.25500000920E-02 0.  1.
       -2   -1    0    0    0  501  0.00000000000E+00  0.00000000000E+00 -0.69067181403E+03  0.69067181404E+03  0.25500000920E-02 0. -1.
    10030    2    1    2    0    0  0.00000000000E+00  0.00000000000E+00 -0.78501821388E+02  0.13028418067E+04  0.13004746200E+04 0.  0.
        5    1    3    3  502    0  0.22813853150E+03  0.37290260517E+03  0.44295976459E+03  0.62236563654E+03  0.46999998093E+01 0.  1.
       -5    1    3    3    0  502 -0.22813853150E+03 -0.37290260517E+03 -0.52146158598E+03  0.68047617015E+03  0.46999998093E+01 0. -1.
</event>
<event>
 5   0  0.3551277E-05  0.1299973E+04  0.7818609E-02  0.9029587E-01
        1   -1    0    0  501    0  0.00000000000E+00  0.00000000000E+00  0.36925064107E+03  0.36925064110E+03  0.50400001928E-02 0. -1.
       -1   -1    0    0    0  501  0.00000000000E+00  0.00000000000E+00 -0.11441615864E+04  0.11441615864E+04  0.50400001928E-02 0.  1.
    10030    2    1    2    0    0  0.00000000000E+00  0.00000000000E+00 -0.77491094536E+03  0.15134122275E+04  0.12999729217E+04 0.  0.
        4    1    3    3  502    0  0.32834659479E+03 -0.26016854591E+03 -0.96602460125E+03  0.10529502845E+04  0.12699999809E+01 0.  1.
       -4    1    3    3    0  502 -0.32834659479E+03  0.26016854591E+03  0.19111365589E+03  0.46046194301E+03  0.12699999809E+01 0. -1.
</event>
<event>
 5   0  0.3689707E-05  0.1299794E+04  0.7818609E-02  0.9029728E-01
        1   -1    0    0  501    0  0.00000000000E+00  0.00000000000E+00  0.59394859578E+03  0.59394859581E+03  0.50400001928E-02 0.  1.
       -1   -1    0    0    0  501  0.00000000000E+00  0.00000000000E+00 -0.71111589741E+03  0.71111589743E+03  0.50400001928E-02 0. -1.
    10030    2    1    2    0    0  0.00000000000E+00  0.00000000000E+00 -0.11716730163E+03  0.13050644932E+04  0.12997942741E+04 0.  0.
        1    1    3    3  502    0 -0.20608101721E+03  0.60104220377E+03  0.78517328059E+02  0.64022346661E+03  0.50400001928E-02 0.  1.
       -1    1    3    3    0  502  0.20608101721E+03 -0.60104220377E+03 -0.19568462968E+03  0.66484102663E+03  0.50400001928E-02 0. -1.
</event>
<event>
 5   0  0.3631841E-05  0.1299636E+04  0.7818609E-02  0.9029854E-01
        1   -1    0    0  501    0  0.00000000000E+00  0.00000000000E+00  0.81757908944E+03  0.81757908946E+03  0.50400001928E-02 0.  1.
       -1   -1    0    0    0  501  0.00000000000E+00  0.00000000000E+00 -0.51648045282E+03  0.51648045284E+03  0.50400001928E-02 0. -1.
    10030    2    1    2    0    0  0.00000000000E+00  0.00000000000E+00  0.30109863662E+03  0.13340595423E+04  0.12996362851E+04 0.  0.
        3    1    3    3  502    0  0.29146794067E+02  0.62736031386E+03  0.32180076416E+03  0.70568140193E+03  0.10100000352E+00 0.  1.
       -3    1    3    3    0  502 -0.29146794067E+02 -0.62736031386E+03 -0.20702127539E+02  0.62837814037E+03  0.10100000352E+00 0. -1.
</event>
<event>
 5   0  0.6458698E-05  0.1300278E+04  0.7818609E-02  0.9029345E-01
       -2   -1    0    0    0  501  0.00000000000E+00  0.00000000000E+00  0.24320012192E+03  0.24320012193E+03  0.25500000920E-02 0.  1.
        2   -1    0    0  501    0  0.00000000000E+00  0.00000000000E+00 -0.17379957231E+04  0.17379957231E+04  0.25500000920E-02 0. -1.
    10030    2    1    2    0    0  0.00000000000E+00  0.00000000000E+00 -0.14947956012E+04  0.19811958450E+04  0.13002780807E+04 0.  0.
        3    1    3    3  502    0  0.32657858511E+03  0.30360312430E+03 -0.26502858061E+02  0.44668875184E+03  0.10100000352E+00 0.  1.
       -3    1    3    3    0  502 -0.32657858511E+03 -0.30360312430E+03 -0.14682927431E+04  0.15345070932E+04  0.10100000352E+00 0. -1.
</event>
<event>
 5   0  0.6618060E-05  0.1300143E+04  0.7818609E-02  0.9029452E-01
       -2   -1    0    0    0  501  0.00000000000E+00  0.00000000000E+00  0.34115222851E+03  0.34115222852E+03  0.25500000920E-02 0. -1.
        2   -1    0    0  501    0  0.00000000000E+00  0.00000000000E+00 -0.12387227620E+04  0.12387227620E+04  0.25500000920E-02 0.  1.
    10030    2    1    2    0    0  0.00000000000E+00  0.00000000000E+00 -0.89757053345E+03  0.15798749905E+04  0.13001431164E+04 0.  0.
        2    1    3    3  502    0  0.13869371164E+03  0.91541269605E+01 -0.12204546879E+04  0.12283441655E+04  0.25500000920E-02 0.  1.
       -2    1    3    3    0  502 -0.13869371164E+03 -0.91541269605E+01  0.32288415447E+03  0.35153082497E+03  0.25500000920E-02 0. -1.
</event>
<event>
 5   0  0.2512000E-05  0.1299823E+04  0.7818609E-02  0.9029705E-01
        4   -1    0    0  501    0  0.00000000000E+00  0.00000000000E+00  0.46904859087E+03  0.46905031020E+03  0.12699999809E+01 0.  1.
       -4   -1    0    0    0  501  0.00000000000E+00  0.00000000000E+00 -0.90051077113E+03  0.90051166667E+03  0.12699999809E+01 0. -1.
    10030    2    1    2    0    0  0.00000000000E+00  0.00000000000E+00 -0.43146218025E+03  0.13695619769E+04  0.12998232170E+04 0.  0.
        5    1    3    3  502    0  0.19563836101E+02  0.26610296345E+03  0.40865868323E+03  0.48807534277E+03  0.46999998093E+01 0.  1.
       -5    1    3    3    0  502 -0.19563836101E+02 -0.26610296345E+03 -0.84012086349E+03  0.88148663410E+03  0.46999998093E+01 0. -1.
</event>
<event>
 5   0  0.3718559E-05  0.1300180E+04  0.7818609E-02  0.9029423E-01
        1   -1    0    0  501    0  0.00000000000E+00  0.00000000000E+00  0.83695850622E+03  0.83695850623E+03  0.50400001928E-02 0. -1.
       -1   -1    0    0    0  501  0.00000000000E+00  0.00000000000E+00 -0.50494357947E+03  0.50494357949E+03  0.50400001928E-02 0.  1.
    10030    2    1    2    0    0  0.00000000000E+00  0.00000000000E+00  0.33201492675E+03  0.13419020857E+04  0.13001797168E+04 0.  0.
        2    1    3    3  502    0  0.57995614484E+03  0.27597355017E+03  0.62251420847E+02  0.64527960586E+03  0.25500000920E-02 0. -1.
       -2    1    3    3    0  502 -0.57995614484E+03 -0.27597355017E+03  0.26976350590E+03  0.69662247987E+03  0.25500000920E-02 0.  1.
</event>
<event>
 5   0  0.6671239E-05  0.1299839E+04  0.7818609E-02  0.9029693E-01
       -2   -1    0    0    0  501  0.00000000000E+00  0.00000000000E+00  0.23247544721E+03  0.23247544723E+03  0.25500000920E-02 0.  1.
        2   -1    0    0  501    0  0.00000000000E+00  0.00000000000E+00 -0.18169457694E+04  0.18169457694E+04  0.25500000920E-02 0. -1.
    10030    2    1    2    0    0  0.00000000000E+00  0.00000000000E+00 -0.15844703222E+04  0.20494212166E+04  0.12998388828E+04 0.  0.
        1    1    3    3  502    0 -0.33899417942E+03  0.36026017489E+03 -0.12761392249E+03  0.51087156951E+03  0.50400001928E-02 0.  1.
       -1    1    3    3    0  502  0.33899417942E+03 -0.36026017489E+03 -0.14568563997E+04  0.15385496471E+04  0.50400001928E-02 0. -1.
</event>
<event>
 5   0  0.3631841E-05  0.1300656E+04  0.7818609E-02  0.9029045E-01
        1   -1    0    0  501    0  0.00000000000E+00  0.00000000000E+00  0.91019212468E+03  0.91019212469E+03  0.50400001928E-02 0.  1.
       -1   -1    0    0    0  501  0.00000000000E+00  0.00000000000E+00 -0.46465622867E+03  0.46465622870E+03  0.50400001928E-02 0. -1.
    10030    2    1    2    0    0  0.00000000000E+00  0.00000000000E+00  0.44553589601E+03  0.13748483534E+04  0.13006558962E+04 0.  0.
        3    1    3    3  502    0  0.16088311504E+03  0.44873289180E+03 -0.24482467516E+03  0.53589524784E+03  0.10100000352E+00 0. -1.
       -3    1    3    3    0  502 -0.16088311504E+03 -0.44873289180E+03  0.69036057117E+03  0.83895310555E+03  0.10100000352E+00 0.  1.
</event>
<event>
 5   0  0.6671239E-05  0.1300936E+04  0.7818609E-02  0.9028823E-01
       -2   -1    0    0    0  501  0.00000000000E+00  0.00000000000E+00  0.42606878277E+03  0.42606878278E+03  0.25500000920E-02 0. -1.
        2   -1    0    0  501    0  0.00000000000E+00  0.00000000000E+00 -0.99305271668E+03  0.99305271669E+03  0.25500000920E-02 0.  1.
    10030    2    1    2    0    0  0.00000000000E+00  0.00000000000E+00 -0.56698393391E+03  0.14191214995E+04  0.13009362202E+04 0.  0.
        1    1    3    3  502    0  0.12717476852E+02  0.44830854544E+03 -0.79742586984E+03  0.91489360258E+03  0.50400001928E-02 0. -1.
       -1    1    3    3    0  502 -0.12717476852E+02 -0.44830854544E+03  0.23044193593E+03  0.50422789688E+03  0.50400001928E-02 0.  1.
</event>
<event>
 5   0  0.3718559E-05  0.1304833E+04  0.7818609E-02  0.9025742E-01
        1   -1    0    0  501    0  0.00000000000E+00  0.00000000000E+00  0.15419281489E+04  0.15419281489E+04  0.50400001928E-02 0. -1.
       -1   -1    0    0    0  501  0.00000000000E+00  0.00000000000E+00 -0.27604858482E+03  0.27604858486E+03  0.50400001928E-02 0.  1.
    10030    2    1    2    0    0  0.00000000000E+00  0.00000000000E+00  0.12658795641E+04  0.18179767338E+04  0.13048326842E+04 0.  0.
        2    1    3    3  502    0  0.43505680520E+03 -0.44243110672E+03  0.35211018405E+03  0.71344326310E+03  0.25500000920E-02 0.  1.
       -2    1    3    3    0  502 -0.43505680520E+03  0.44243110672E+03  0.91376938003E+03  0.11045334707E+04  0.25500000920E-02 0. -1.
</event>
<event>
 5   0  0.3551277E-05  0.1300006E+04  0.7818609E-02  0.9029560E-01
       -1   -1    0    0    0  501  0.00000000000E+00  0.00000000000E+00  0.95555354529E+03  0.95555354531E+03  0.50400001928E-02 0. -1.
        1   -1    0    0  501    0  0.00000000000E+00  0.00000000000E+00 -0.44215610222E+03  0.44215610225E+03  0.50400001928E-02 0.  1.
    10030    2    1    2    0    0  0.00000000000E+00  0.00000000000E+00  0.51339744307E+03  0.13977096476E+04  0.13000058939E+04 0.  0.
        4    1    3    3  502    0 -0.16912214404E+03  0.55612509965E+03  0.56946537909E+03  0.81373819927E+03  0.12699999809E+01 0. -1.
       -4    1    3    3    0  502  0.16912214404E+03 -0.55612509965E+03 -0.56067936014E+02  0.58397144829E+03  0.12699999809E+01 0.  1.
</event>
<event>
 5   0  0.6742824E-05  0.1299793E+04  0.7818609E-02  0.9029729E-01
        2   -1    0    0  501    0  0.00000000000E+00  0.00000000000E+00  0.15303189816E+04  0.15303189816E+04  0.25500000920E-02 0.  1.
       -2   -1    0    0    0  501  0.00000000000E+00  0.00000000000E+00 -0.27599832621E+03  0.27599832622E+03  0.25500000920E-02 0. -1.
    10030    2    1    2    0    0  0.00000000000E+00  0.00000000000E+00  0.12543206554E+04  0.18063173078E+04  0.12997930258E+04 0.  0.
        4    1    3    3  502    0  0.52600807436E+03 -0.11699940560E+03  0.11320438458E+04  0.12537536588E+04  0.12699999809E+01 0.  1.
       -4    1    3    3    0  502 -0.52600807436E+03  0.11699940560E+03  0.12227680964E+03  0.55256364908E+03  0.12699999809E+01 0. -1.
</event>
<event>
 5   0  0.6618060E-05  0.1298852E+04  0.7818609E-02  0.9030476E-01
       -2   -1    0    0    0  501  0.00000000000E+00  0.00000000000E+00  0.34413243633E+03  0.34413243634E+03  0.25500000920E-02 0. -1.
        2   -1    0    0  501    0  0.00000000000E+00  0.00000000000E+00 -0.12255580088E+04  0.12255580088E+04  0.25500000920E-02 0.  1.
    10030    2    1    2    0    0  0.00000000000E+00  0.00000000000E+00 -0.88142557249E+03  0.15696904452E+04  0.12988522063E+04 0.  0.
        2    1    3    3  502    0 -0.64793618242E+03  0.12000595013E+02 -0.49182841455E+03  0.81354809332E+03  0.25500000920E-02 0. -1.
       -2    1    3    3    0  502  0.64793618242E+03 -0.12000595013E+02 -0.38959715794E+03  0.75614235185E+03  0.25500000920E-02 0.  1.
</event>
<event>
 5   0  0.3552698E-05  0.1299472E+04  0.7818609E-02  0.9029984E-01
        1   -1    0    0  501    0  0.00000000000E+00  0.00000000000E+00  0.23290659467E+03  0.23290659473E+03  0.50400001928E-02 0. -1.
       -1   -1    0    0    0  501  0.00000000000E+00  0.00000000000E+00 -0.18125599354E+04  0.18125599354E+04  0.50400001928E-02 0.  1.
    10030    2    1    2    0    0  0.00000000000E+00  0.00000000000E+00 -0.15796533408E+04  0.20454665302E+04  0.12994724503E+04 0.  0.
        5    1    3    3  502    0  0.27897824846E+03  0.12259005802E+03 -0.16930737872E+04  0.17202843149E+04  0.46999998093E+01 0.  1.
       -5    1    3    3    0  502 -0.27897824846E+03 -0.12259005802E+03  0.11342044640E+03  0.32518221523E+03  0.46999998093E+01 0. -1.
</event>
<event>
 5   0  0.6688086E-05  0.1299531E+04  0.7818609E-02  0.9029938E-01
       -2   -1    0    0    0  501  0.00000000000E+00  0.00000000000E+00  0.46573854858E+03  0.46573854859E+03  0.25500000920E-02 0. -1.
        2   -1    0    0  501    0  0.00000000000E+00  0.00000000000E+00 -0.90650628319E+03  0.90650628320E+03  0.25500000920E-02 0.  1.
    10030    2    1    2    0    0  0.00000000000E+00  0.00000000000E+00 -0.44076773461E+03  0.13722448318E+04  0.12995305624E+04 0.  0.
        5    1    3    3  502    0 -0.62932906925E+03 -0.16159687697E+03 -0.21821914143E+03  0.68542710169E+03  0.46999998093E+01 0. -1.
       -5    1    3    3    0  502  0.62932906925E+03  0.16159687697E+03 -0.22254859318E+03  0.68681773010E+03  0.46999998093E+01 0.  1.
</event>
<event>
 5   0  0.6618060E-05  0.1299579E+04  0.7818609E-02  0.9029899E-01
       -2   -1    0    0    0  501  0.00000000000E+00  0.00000000000E+00  0.11099386826E+04  0.11099386826E+04  0.25500000920E-02 0.  1.
        2   -1    0    0  501    0  0.00000000000E+00  0.00000000000E+00 -0.38040517446E+03  0.38040517447E+03  0.25500000920E-02 0. -1.
    10030    2    1    2    0    0  0.00000000000E+00  0.00000000000E+00  0.72953350818E+03  0.14903438571E+04  0.12995790368E+04 0.  0.
        2    1    3    3  502    0  0.36068881673E+03  0.53240588234E+03  0.25796145608E+03  0.69289000490E+03  0.25500000920E-02 0. -1.
       -2    1    3    3    0  502 -0.36068881673E+03 -0.53240588234E+03  0.47157205210E+03  0.79745385220E+03  0.25500000920E-02 0.  1.
</event>
<event>
 5   0  0.2512000E-05  0.1301616E+04  0.7818609E-02  0.9028284E-01
       -4   -1    0    0    0  501  0.00000000000E+00  0.00000000000E+00  0.10893138695E+04  0.10893146098E+04  0.12699999809E+01 0.  1.
        4   -1    0    0  501    0  0.00000000000E+00  0.00000000000E+00 -0.38882199166E+03  0.38882406574E+03  0.12699999809E+01 0. -1.
    10030    2    1    2    0    0  0.00000000000E+00  0.00000000000E+00  0.70049187782E+03  0.14781386755E+04  0.13016163311E+04 0.  0.
        4    1    3    3  502    0  0.21724758284E+03  0.61115964631E+03  0.28975864619E+03  0.71040432957E+03  0.12699999809E+01 0. -1.
       -4    1    3    3    0  502 -0.21724758284E+03 -0.61115964631E+03  0.41073323164E+03  0.76773434598E+03  0.12699999809E+01 0.  1.
</event>
<event>
 5   0  0.3631841E-05  0.1299889E+04  0.7818609E-02  0.9029653E-01
       -1   -1    0    0    0  501  0.00000000000E+00  0.00000000000E+00  0.26616027957E+03  0.26616027962E+03  0.50400001928E-02 0.  1.
        1   -1    0    0  501    0  0.00000000000E+00  0.00000000000E+00 -0.15871175211E+04  0.15871175211E+04  0.50400001928E-02 0. -1.
    10030    2    1    2    0    0  0.00000000000E+00  0.00000000000E+00 -0.13209572415E+04  0.18532778007E+04  0.12998886770E+04 0.  0.
        3    1    3    3  502    0 -0.50847290276E+03  0.22384429075E+03 -0.17957175305E+03  0.58386384033E+03  0.10100000352E+00 0.  1.
       -3    1    3    3    0  502  0.50847290276E+03 -0.22384429075E+03 -0.11413854884E+04  0.12694139604E+04  0.10100000352E+00 0. -1.
</event>
<event>
 5   0  0.6671239E-05  0.1300082E+04  0.7818609E-02  0.9029500E-01
       -2   -1    0    0    0  501  0.00000000000E+00  0.00000000000E+00  0.42564460998E+03  0.42564460999E+03  0.25500000920E-02 0.  1.
        2   -1    0    0  501    0  0.00000000000E+00  0.00000000000E+00 -0.99273676395E+03  0.99273676395E+03  0.25500000920E-02 0. -1.
    10030    2    1    2    0    0  0.00000000000E+00  0.00000000000E+00 -0.56709215397E+03  0.14183813739E+04  0.13000816170E+04 0.  0.
        1    1    3    3  502    0 -0.32326279342E+03  0.47381630098E+03 -0.61724108588E+03  0.84260742864E+03  0.50400001928E-02 0.  1.
       -1    1    3    3    0  502  0.32326279342E+03 -0.47381630098E+03  0.50148931910E+02  0.57577394530E+03  0.50400001928E-02 0. -1.
</event>
<event>
 5   0  0.3631841E-05  0.1298902E+04  0.7818609E-02  0.9030436E-01
       -1   -1    0    0    0  501  0.00000000000E+00  0.00000000000E+00  0.52426404908E+03  0.52426404910E+03  0.50400001928E-02 0.  1.
        1   -1    0    0  501    0  0.00000000000E+00  0.00000000000E+00 -0.80453116855E+03  0.80453116857E+03  0.50400001928E-02 0. -1.
    10030    2    1    2    0    0  0.00000000000E+00  0.00000000000E+00 -0.28026711947E+03  0.13287952177E+04  0.12989022566E+04 0.  0.
        3    1    3    3  502    0 -0.44851939146E+03  0.33193017321E+03 -0.48010602839E+03  0.73610399611E+03  0.10100000352E+00 0. -1.
       -3    1    3    3    0  502  0.44851939146E+03 -0.33193017321E+03  0.19983890892E+03  0.59269122156E+03  0.10100000352E+00 0.  1.
</event>
<event>
 5   0  0.6618060E-05  0.1299766E+04  0.7818609E-02  0.9029751E-01
       -2   -1    0    0    0  501  0.00000000000E+00  0.00000000000E+00  0.24939818588E+03  0.24939818589E+03  0.25500000920E-02 0.  1.
        2   -1    0    0  501    0  0.00000000000E+00  0.00000000000E+00 -0.16934671475E+04  0.16934671475E+04  0.25500000920E-02 0. -1.
    10030    2    1    2    0    0  0.00000000000E+00  0.00000000000E+00 -0.14440689616E+04  0.19428653334E+04  0.12997655703E+04 0.  0.
        2    1    3    3  502    0  0.43808885729E+03 -0.25649158273E+03 -0.13285508421E+04  0.14222366607E+04  0.25500000920E-02 0. -1.
       -2    1    3    3    0  502 -0.43808885729E+03  0.25649158273E+03 -0.11551811948E+03  0.52062867269E+03  0.25500000920E-02 0.  1.
</event>
<event>
 5   0  0.6458698E-05  0.1299955E+04  0.7818609E-02  0.9029601E-01
        2   -1    0    0  501    0  0.00000000000E+00  0.00000000000E+00  0.11724964194E+04  0.11724964194E+04  0.25500000920E-02 0. -1.
       -2   -1    0    0    0  501  0.00000000000E+00  0.00000000000E+00 -0.36031733560E+03  0.36031733560E+03  0.25500000920E-02 0.  1.
    10030    2    1    2    0    0  0.00000000000E+00  0.00000000000E+00  0.81217908379E+03  0.15328137550E+04  0.12999550544E+04 0.  0.
        3    1    3    3  502    0  0.52989166081E+03 -0.37159693319E+02 -0.35579801528E+02  0.53238327123E+03  0.10100000352E+00 0.  1.
       -3    1    3    3    0  502 -0.52989166081E+03  0.37159693319E+02  0.84775888532E+03  0.10004304838E+04  0.10100000352E+00 0. -1.
</event>
<event>
 5   0  0.6671239E-05  0.1300009E+04  0.7818609E-02  0.9029558E-01
       -2   -1    0    0    0  501  0.00000000000E+00  0.00000000000E+00  0.58909739153E+03  0.58909739153E+03  0.25500000920E-02 0.  1.
        2   -1    0    0  501    0  0.00000000000E+00  0.00000000000E+00 -0.71720936639E+03  0.71720936640E+03  0.25500000920E-02 0. -1.
    10030    2    1    2    0    0  0.00000000000E+00  0.00000000000E+00 -0.12811197487E+03  0.13063067579E+04  0.13000094875E+04 0.  0.
        1    1    3    3  502    0 -0.37117151475E+02  0.16555068197E+03  0.56645577488E+03  0.59131789771E+03  0.50400001928E-02 0.  1.
       -1    1    3    3    0  502  0.37117151475E+02 -0.16555068197E+03 -0.69456774974E+03  0.71498886022E+03  0.50400001928E-02 0. -1.
</event>
<event>
 5   0  0.6688086E-05  0.1301695E+04  0.7818609E-02  0.9028222E-01
        2   -1    0    0  501    0  0.00000000000E+00  0.00000000000E+00  0.18885180521E+04  0.18885180521E+04  0.25500000920E-02 0.  1.
       -2   -1    0    0    0  501  0.00000000000E+00  0.00000000000E+00 -0.22430406002E+03  0.22430406004E+03  0.25500000920E-02 0. -1.
    10030    2    1    2    0    0  0.00000000000E+00  0.00000000000E+00  0.16642139921E+04  0.21128221122E+04  0.13016946901E+04 0.  0.
        5    1    3    3  502    0  0.77068406369E+02 -0.48916342336E+03  0.15175988011E+04  0.15963547867E+04  0.46999998093E+01 0.  1.
       -5    1    3    3    0  502 -0.77068406369E+02  0.48916342336E+03  0.14661519101E+03  0.51646732544E+03  0.46999998093E+01 0. -1.
</event>
<event>
 5   0  0.3551277E-05  0.1300481E+04  0.7818609E-02  0.9029184E-01
        1   -1    0    0  501    0  0.00000000000E+00  0.00000000000E+00  0.23611155933E+04  0.23611155933E+04  0.50400001928E-02 0. -1.
       -1   -1    0    0    0  501  0.00000000000E+00  0.00000000000E+00 -0.17907325449E+03  0.17907325456E+03  0.50400001928E-02 0.  1.
    10030    2    1    2    0    0  0.00000000000E+00  0.00000000000E+00  0.21820423388E+04  0.25401888479E+04  0.13004809166E+04 0.  0.
        4    1    3    3  502    0 -0.39064468881E+03 -0.19254258154E+03  0.14790351610E+03  0.45994889017E+03  0.12699999809E+01 0.  1.
       -4    1    3    3    0  502  0.39064468881E+03  0.19254258154E+03  0.20341388227E+04  0.20802399577E+04  0.12699999809E+01 0. -1.
</event>
<event>
 5   0  0.3552698E-05  0.1299695E+04  0.7818609E-02  0.9029807E-01
       -1   -1    0    0    0  501  0.00000000000E+00  0.00000000000E+00  0.31110425608E+03  0.31110425612E+03  0.50400001928E-02 0.  1.
        1   -1    0    0  501    0  0.00000000000E+00  0.00000000000E+00 -0.13574290140E+04  0.13574290140E+04  0.50400001928E-02 0. -1.
    10030    2    1    2    0    0  0.00000000000E+00  0.00000000000E+00 -0.10463247579E+04  0.16685332702E+04  0.12996952622E+04 0.  0.
        5    1    3    3  502    0  0.61427258994E+03 -0.98307207477E+02 -0.76431208989E+03  0.98548981859E+03  0.46999998093E+01 0. -1.
       -5    1    3    3    0  502 -0.61427258994E+03  0.98307207477E+02 -0.28201266805E+03  0.68304345157E+03  0.46999998093E+01 0.  1.
</event>
<event>
 5   0  0.2512000E-05  0.1298717E+04  0.7818609E-02  0.9030583E-01
       -3   -1    0    0    0  501  0.00000000000E+00  0.00000000000E+00  0.67358162166E+03  0.67358162923E+03  0.10100000352E+00 0.  1.
        3   -1    0    0  501    0  0.00000000000E+00  0.00000000000E+00 -0.62600637159E+03  0.62600637974E+03  0.10100000352E+00 0. -1.
    10030    2    1    2    0    0  0.00000000000E+00  0.00000000000E+00  0.47575250064E+02  0.12995880090E+04  0.12987169009E+04 0.  0.
        3    1    3    3  502    0 -0.45042543700E+03  0.33583904752E+03  0.34957541851E+03  0.66172042704E+03  0.10100000352E+00 0.  1.
       -3    1    3    3    0  502  0.45042543700E+03 -0.33583904752E+03 -0.30200016845E+03  0.63786758193E+03  0.10100000352E+00 0. -1.
</event>
<event>
 5   0  0.6742824E-05  0.1300062E+04  0.7818609E-02  0.9029516E-01
        2   -1    0    0  501    0  0.00000000000E+00  0.00000000000E+00  0.38612120388E+03  0.38612120389E+03  0.25500000920E-02 0. -1.
       -2   -1    0    0    0  501  0.00000000000E+00  0.00000000000E+00 -0.10943207917E+04  0.10943207917E+04  0.25500000920E-02 0.  1.
    10030    2    1    2    0    0  0.00000000000E+00  0.00000000000E+00 -0.70819958778E+03  0.14804419955E+04  0.13000622470E+04 0.  0.
        4    1    3    3  502    0 -0.12952764800E+02 -0.64265331778E+03 -0.24388350903E+03  0.68749679261E+03  0.12699999809E+01 0. -1.
       -4    1    3    3    0  502  0.12952764800E+02  0.64265331778E+03 -0.46431607875E+03  0.79294520293E+03  0.12699999809E+01 0.  1.
</event>
<event>
 5   0  0.3551277E-05  0.1300527E+04  0.7818609E-02  0.9029147E-01
        1   -1    0    0  501    0  0.00000000000E+00  0.00000000000E+00  0.46256289472E+03  0.46256289475E+03  0.50400001928E-02 0. -1.
       -1   -1    0    0    0  501  0.00000000000E+00  0.00000000000E+00 -0.91413058910E+03  0.91413058912E+03  0.50400001928E-02 0.  1.
    10030    2    1    2    0    0  0.00000000000E+00  0.00000000000E+00 -0.45156769439E+03  0.13766934839E+04  0.13005274184E+04 0.  0.
        4    1    3    3  502    0 -0.88896084690E+02 -0.17783603329E+03 -0.88116595493E+03  0.90331789623E+03  0.12699999809E+01 0.  1.
       -4    1    3    3    0  502  0.88896084690E+02  0.17783603329E+03  0.42959826055E+03  0.47337558764E+03  0.12699999809E+01 0. -1.
</event>
<event>
 5   0  0.2512000E-05  0.1299600E+04  0.7818609E-02  0.9029882E-01
        3   -1    0    0  501    0  0.00000000000E+00  0.00000000000E+00  0.10135229873E+04  0.10135229924E+04  0.10100000352E+00 0. -1.
       -3   -1    0    0    0  501  0.00000000000E+00  0.00000000000E+00 -0.41660627575E+03  0.41660628799E+03  0.10100000352E+00 0.  1.
    10030    2    1    2    0    0  0.00000000000E+00  0.00000000000E+00  0.59691671158E+03  0.14301292804E+04  0.12996000146E+04 0.  0.
        5    1    3    3  502    0 -0.30355694792E+03  0.42179202566E+03 -0.13080082078E+03  0.53589763786E+03  0.46999998093E+01 0. -1.
       -5    1    3    3    0  502  0.30355694792E+03 -0.42179202566E+03  0.72771753236E+03  0.89423164250E+03  0.46999998093E+01 0.  1.
</event>
<event>
 5   0  0.3689707E-05  0.1300574E+04  0.7818609E-02  0.9029110E-01
       -1   -1    0    0    0  501  0.00000000000E+00  0.00000000000E+00  0.44322022320E+03  0.44322022323E+03  0.50400001928E-02 0.  1.
        1   -1    0    0  501    0  0.00000000000E+00  0.00000000000E+00 -0.95409330530E+03  0.95409330531E+03  0.50400001928E-02 0. -1.
    10030    2    1    2    0    0  0.00000000000E+00  0.00000000000E+00 -0.51087308209E+03  0.13973135285E+04  0.13005744081E+04 0.  0.
        1    1    3    3  502    0  0.12017058433E+03 -0.10967978508E+03 -0.93187303405E+03  0.94596933154E+03  0.50400001928E-02 0. -1.
       -1    1    3    3    0  502 -0.12017058433E+03  0.10967978508E+03  0.42099995196E+03  0.45134419700E+03  0.50400001928E-02 0.  1.
</event>
<event>
 5   0  0.6671239E-05  0.1299959E+04  0.7818609E-02  0.9029598E-01
       -2   -1    0    0    0  501  0.00000000000E+00  0.00000000000E+00  0.72833137326E+03  0.72833137327E+03  0.25500000920E-02 0. -1.
        2   -1    0    0  501    0  0.00000000000E+00  0.00000000000E+00 -0.58005644455E+03  0.58005644455E+03  0.25500000920E-02 0.  1.
    10030    2    1    2    0    0  0.00000000000E+00  0.00000000000E+00  0.14827492872E+03  0.13083878178E+04  0.12999589329E+04 0.  0.
        1    1    3    3  502    0 -0.25784932572E+03 -0.58388717221E+03 -0.49388924405E+02  0.64019510348E+03  0.50400001928E-02 0.  1.
       -1    1    3    3    0  502  0.25784932572E+03  0.58388717221E+03  0.19766385312E+03  0.66819271434E+03  0.50400001928E-02 0. -1.
</event>
<event>
 5   0  0.3552698E-05  0.1300065E+04  0.7818609E-02  0.9029514E-01
       -1   -1    0    0    0  501  0.00000000000E+00  0.00000000000E+00  0.28576898576E+03  0.28576898580E+03  0.50400001928E-02 0. -1.
        1   -1    0    0  501    0  0.00000000000E+00  0.00000000000E+00 -0.14786151050E+04  0.14786151050E+04  0.50400001928E-02 0.  1.
    10030    2    1    2    0    0  0.00000000000E+00  0.00000000000E+00 -0.11928461193E+04  0.17643840908E+04  0.13000651352E+04 0.  0.
        5    1    3    3  502    0 -0.45853376576E+03 -0.43277997866E+03 -0.81087227538E+03  0.10271746012E+04  0.46999998093E+01 0.  1.
       -5    1    3    3    0  502  0.45853376576E+03  0.43277997866E+03 -0.38197384389E+03  0.73720948969E+03  0.46999998093E+01 0. -1.
</event>
<event>
 5   0  0.6742824E-05  0.1299937E+04  0.7818609E-02  0.9029616E-01
       -2   -1    0    0    0  501  0.00000000000E+00  0.00000000000E+00  0.18032279203E+03  0.18032279204E+03  0.25500000920E-02 0. -1.
        2   -1    0    0  501    0  0.00000000000E+00  0.00000000000E+00 -0.23427916579E+04  0.23427916579E+04  0.25500000920E-02 0.  1.
    10030    2    1    2    0    0  0.00000000000E+00  0.00000000000E+00 -0.21624688659E+04  0.25231144499E+04  0.12999365106E+04 0.  0.
        4    1    3    3  502    0 -0.15494276013E+03  0.17726539951E+03  0.94647508952E+02  0.25375193523E+03  0.12699999809E+01 0. -1.
       -4    1    3    3    0  502  0.15494276013E+03 -0.17726539951E+03 -0.22571163748E+04  0.22693625147E+04  0.12699999809E+01 0.  1.
</event>
<event>
 5   0  0.6671239E-05  0.1299980E+04  0.7818609E-02  0.9029581E-01
        2   -1    0    0  501    0  0.00000000000E+00  0.00000000000E+00  0.17734172068E+04  0.17734172068E+04  0.25500000920E-02 0.  1.
       -2   -1    0    0    0  501  0.00000000000E+00  0.00000000000E+00 -0.23823340286E+03  0.23823340288E+03  0.25500000920E-02 0. -1.
    10030    2    1    2    0    0  0.00000000000E+00  0.00000000000E+00  0.15351838039E+04  0.20116506097E+04  0.12999803320E+04 0.  0.
        1    1    3    3  502    0  0.11933647114E+02  0.57174745514E+03  0.12456745099E+04  0.13706722982E+04  0.50400001928E-02 0.  1.
       -1    1    3    3    0  502 -0.11933647114E+02 -0.57174745514E+03  0.28950929397E+03  0.64097831142E+03  0.50400001928E-02 0. -1.
</event>
<event>
 5   0  0.6458698E-05  0.1299905E+04  0.7818609E-02  0.9029641E-01
       -2   -1    0    0    0  501  0.00000000000E+00  0.00000000000E+00  0.17205756741E+04  0.17205756742E+04  0.25500000920E-02 0. -1.
        2   -1    0    0  501    0  0.00000000000E+00  0.00000000000E+00 -0.24552130155E+03  0.24552130156E+03  0.25500000920E-02 0.  1.
    10030    2    1    2    0    0  0.00000000000E+00  0.00000000000E+00  0.14750543726E+04  0.19660969757E+04  0.12999045795E+04 0.  0.
        3    1    3    3  502    0 -0.49482291572E+03  0.19253410985E+03  0.17055626993E+03  0.55768140797E+03  0.10100000352E+00 0.  1.
       -3    1    3    3    0  502  0.49482291572E+03 -0.19253410985E+03  0.13044981027E+04  0.14084155677E+04  0.10100000352E+00 0. -1.
</event>
<event>
 5   0  0.6618060E-05  0.1299536E+04  0.7818609E-02  0.9029933E-01
       -2   -1    0    0    0  501  0.00000000000E+00  0.00000000000E+00  0.26081495658E+03  0.26081495660E+03  0.25500000920E-02 0. -1.
        2   -1    0    0  501    0  0.00000000000E+00  0.00000000000E+00 -0.16187659564E+04  0.16187659564E+04  0.25500000920E-02 0.  1.
    10030    2    1    2    0    0  0.00000000000E+00  0.00000000000E+00 -0.13579509999E+04  0.18795809130E+04  0.12995358751E+04 0.  0.
        2    1    3    3  502    0  0.45585379811E+03 -0.43411714524E+03 -0.91191381285E+03  0.11080826608E+04  0.25500000920E-02 0.  1.
       -2    1    3    3    0  502 -0.45585379811E+03  0.43411714524E+03 -0.44603718701E+03  0.77149825226E+03  0.25500000920E-02 0. -1.
</event>
<event>
 5   0  0.6671239E-05  0.1299815E+04  0.7818609E-02  0.9029712E-01
       -2   -1    0    0    0  501  0.00000000000E+00  0.00000000000E+00  0.18979167086E+03  0.18979167087E+03  0.25500000920E-02 0. -1.
        2   -1    0    0  501    0  0.00000000000E+00  0.00000000000E+00 -0.22254912570E+04  0.22254912571E+04  0.25500000920E-02 0.  1.
    10030    2    1    2    0    0  0.00000000000E+00  0.00000000000E+00 -0.20356995862E+04  0.24152829279E+04  0.12998149163E+04 0.  0.
        1    1    3    3  502    0 -0.51890220289E+03 -0.30876424071E+02 -0.17426970949E+04  0.18185725211E+04  0.50400001928E-02 0.  1.
       -1    1    3    3    0  502  0.51890220289E+03  0.30876424071E+02 -0.29300249128E+03  0.59671040686E+03  0.50400001928E-02 0. -1.
</event>
<event>
 5   0  0.6688086E-05  0.1298570E+04  0.7818609E-02  0.9030700E-01
       -2   -1    0    0    0  501  0.00000000000E+00  0.00000000000E+00  0.31589210841E+03  0.31589210842E+03  0.25500000920E-02 0.  1.
        2   -1    0    0  501    0  0.00000000000E+00  0.00000000000E+00 -0.13345407521E+04  0.13345407521E+04  0.25500000920E-02 0. -1.
    10030    2    1    2    0    0  0.00000000000E+00  0.00000000000E+00 -0.10186486437E+04  0.16504328605E+04  0.12985698163E+04 0.  0.
        5    1    3    3  502    0 -0.18541914200E+02  0.73557878936E+02  0.31021876498E+03  0.31939370107E+03  0.46999998093E+01 0.  1.
       -5    1    3    3    0  502  0.18541914200E+02 -0.73557878936E+02 -0.13288674087E+04  0.13310391595E+04  0.46999998093E+01 0. -1.
</event>
<event>
 5   0  0.6618060E-05  0.1300099E+04  0.7818609E-02  0.9029486E-01
       -2   -1    0    0    0  501  0.00000000000E+00  0.00000000000E+00  0.44030800805E+03  0.44030800806E+03  0.25500000920E-02 0. -1.
        2   -1    0    0  501    0  0.00000000000E+00  0.00000000000E+00 -0.95970238682E+03  0.95970238683E+03  0.25500000920E-02 0.  1.
    10030    2    1    2    0    0  0.00000000000E+00  0.00000000000E+00 -0.51939437877E+03  0.14000103949E+04  0.13000994520E+04 0.  0.
        2    1    3    3  502    0 -0.52935491278E+03 -0.45046555032E+02  0.14368123304E+03  0.55035453350E+03  0.25500000920E-02 0. -1.
       -2    1    3    3    0  502  0.52935491278E+03  0.45046555032E+02 -0.66307561181E+03  0.84965586139E+03  0.25500000920E-02 0.  1.
</event>
<event>
 5   0  0.3631841E-05  0.1299852E+04  0.7818609E-02  0.9029683E-01
       -1   -1    0    0    0  501  0.00000000000E+00  0.00000000000E+00  0.45474750193E+03  0.45474750196E+03  0.50400001928E-02 0.  1.
        1   -1    0    0  501    0  0.00000000000E+00  0.00000000000E+00 -0.92887477073E+03  0.92887477074E+03  0.50400001928E-02 0. -1.
    10030    2    1    2    0    0  0.00000000000E+00  0.00000000000E+00 -0.47412726879E+03  0.13836222727E+04  0.12998515017E+04 0.  0.
        3    1    3    3  502    0  0.13302214656E+03 -0.56974537555E+03  0.64193106725E+02  0.58857917869E+03  0.10100000352E+00 0.  1.
       -3    1    3    3    0  502 -0.13302214656E+03  0.56974537555E+03 -0.53832037552E+03  0.79504309401E+03  0.10100000352E+00 0. -1.
</event>
<event>
 5   0  0.3689707E-05  0.1300512E+04  0.7818609E-02  0.9029159E-01
       -1   -1    0    0    0  501  0.00000000000E+00  0.00000000000E+00  0.34484392061E+03  0.34484392064E+03  0.50400001928E-02 0.  1.
        1   -1    0    0  501    0  0.00000000000E+00  0.00000000000E+00 -0.12261573964E+04  0.12261573964E+04  0.50400001928E-02 0. -1.
    10030    2    1    2    0    0  0.00000000000E+00  0.00000000000E+00 -0.88131347578E+03  0.15710013170E+04  0.13005120897E+04 0.  0.
        1    1    3    3  502    0 -0.61176532057E+03  0.42025458787E+02 -0.17930140259E+03  0.63888335370E+03  0.50400001928E-02 0. -1.
       -1    1    3    3    0  502  0.61176532057E+03 -0.42025458787E+02 -0.70201207319E+03  0.93211796334E+03  0.50400001928E-02 0.  1.
</event>
<event>
 5   0  0.6618060E-05  0.1299911E+04  0.7818609E-02  0.9029636E-01
       -2   -1    0    0    0  501  0.00000000000E+00  0.00000000000E+00  0.66145454038E+03  0.66145454038E+03  0.25500000920E-02 0.  1.
        2   -1    0    0  501    0  0.00000000000E+00  0.00000000000E+00 -0.63865641173E+03  0.63865641173E+03  0.25500000920E-02 0. -1.
    10030    2    1    2    0    0  0.00000000000E+00  0.00000000000E+00  0.22798128649E+02  0.13001109521E+04  0.12999110482E+04 0.  0.
        2    1    3    3  502    0 -0.34043473942E+03 -0.33273833527E+03  0.45399572880E+03  0.65781664112E+03  0.25500000920E-02 0.  1.
       -2    1    3    3    0  502  0.34043473942E+03  0.33273833527E+03 -0.43119760015E+03  0.64229431100E+03  0.25500000920E-02 0. -1.
</event>
<event>
 5   0  0.6688086E-05  0.1300149E+04  0.7818609E-02  0.9029447E-01
       -2   -1    0    0    0  501  0.00000000000E+00  0.00000000000E+00  0.40742989770E+03  0.40742989771E+03  0.25500000920E-02 0.  1.
        2   -1    0    0  501    0  0.00000000000E+00  0.00000000000E+00 -0.10372251540E+04  0.10372251540E+04  0.25500000920E-02 0. -1.
    10030    2    1    2    0    0  0.00000000000E+00  0.00000000000E+00 -0.62979525632E+03  0.14446550517E+04  0.13001485121E+04 0.  0.
        5    1    3    3  502    0  0.54037443220E+03  0.95581671377E+02  0.72307824832E+02  0.55352587511E+03  0.46999998093E+01 0.  1.
       -5    1    3    3    0  502 -0.54037443220E+03 -0.95581671377E+02 -0.70210308115E+03  0.89112917663E+03  0.46999998093E+01 0. -1.
</event>
<event>
 5   0  0.6688086E-05  0.1298953E+04  0.7818609E-02  0.9030395E-01
       -2   -1    0    0    0  501  0.00000000000E+00  0.00000000000E+00  0.34046082285E+03  0.34046082286E+03  0.25500000920E-02 0. -1.
        2   -1    0    0  501    0  0.00000000000E+00  0.00000000000E+00 -0.12389678524E+04  0.12389678524E+04  0.25500000920E-02 0.  1.
    10030    2    1    2    0    0  0.00000000000E+00  0.00000000000E+00 -0.89850702955E+03  0.15794286753E+04  0.12989534472E+04 0.  0.
        5    1    3    3  502    0  0.58073484565E+03 -0.22986617579E+03 -0.66576483919E+03  0.91288352534E+03  0.46999998093E+01 0.  1.
       -5    1    3    3    0  502 -0.58073484565E+03  0.22986617579E+03 -0.23274219036E+03  0.66654514993E+03  0.46999998093E+01 0. -1.
</event>
<event>
 5   0  0.3551277E-05  0.1300016E+04  0.7818609E-02  0.9029553E-01
        1   -1    0    0  501    0  0.00000000000E+00  0.00000000000E+00  0.67506544520E+03  0.67506544521E+03  0.50400001928E-02 0.  1.
       -1   -1    0    0    0  501  0.00000000000E+00  0.00000000000E+00 -0.62588043847E+03  0.62588043849E+03  0.50400001928E-02 0. -1.
    10030    2    1    2    0    0  0.00000000000E+00  0.00000000000E+00  0.49185006726E+02  0.13009458837E+04  0.13000157797E+04 0.  0.
        4    1    3    3  502    0  0.34011479625E+03 -0.16787258031E+03  0.55284266326E+03  0.67044455481E+03  0.12699999809E+01 0.  1.
       -4    1    3    3    0  502 -0.34011479625E+03  0.16787258031E+03 -0.50365765654E+03  0.63050132889E+03  0.12699999809E+01 0. -1.
</event>
<event>
 5   0  0.3552698E-05  0.1301267E+04  0.7818609E-02  0.9028561E-01
        1   -1    0    0  501    0  0.00000000000E+00  0.00000000000E+00  0.10746127507E+04  0.10746127507E+04  0.50400001928E-02 0.  1.
       -1   -1    0    0    0  501  0.00000000000E+00  0.00000000000E+00 -0.39393186178E+03  0.39393186181E+03  0.50400001928E-02 0. -1.
    10030    2    1    2    0    0  0.00000000000E+00  0.00000000000E+00  0.68068088888E+03  0.14685446125E+04  0.13012673847E+04 0.  0.
        5    1    3    3  502    0 -0.32492564067E+03 -0.55554473934E+03  0.44797047519E+03  0.78415959218E+03  0.46999998093E+01 0.  1.
       -5    1    3    3    0  502  0.32492564067E+03  0.55554473934E+03  0.23271041370E+03  0.68438502030E+03  0.46999998093E+01 0. -1.
</event>
<event>
 5   0  0.6671239E-05  0.1299622E+04  0.7818609E-02  0.9029865E-01
        2   -1    0    0  501    0  0.00000000000E+00  0.00000000000E+00  0.17398057485E+04  0.17398057485E+04  0.25500000920E-02 0. -1.
       -2   -1    0    0    0  501  0.00000000000E+00  0.00000000000E+00 -0.24270192240E+03  0.24270192242E+03  0.25500000920E-02 0.  1.
    10030    2    1    2    0    0  0.00000000000E+00  0.00000000000E+00  0.14971038261E+04  0.19825076709E+04  0.12996217908E+04 0.  0.
        1    1    3    3  502    0  0.29628650569E+03  0.45368626910E+03  0.12956702978E+04  0.14044139150E+04  0.50400001928E-02 0. -1.
       -1    1    3    3    0  502 -0.29628650569E+03 -0.45368626910E+03  0.20143352832E+03  0.57809375587E+03  0.50400001928E-02 0.  1.
</event>
<event>
 5   0  0.6742824E-05  0.1299776E+04  0.7818609E-02  0.9029743E-01
        2   -1    0    0  501    0  0.00000000000E+00  0.00000000000E+00  0.58452273217E+03  0.58452273217E+03  0.25500000920E-02 0.  1.
       -2   -1    0    0    0  501  0.00000000000E+00  0.00000000000E+00 -0.72256310577E+03  0.72256310577E+03  0.25500000920E-02 0. -1.
    10030    2    1    2    0    0  0.00000000000E+00  0.00000000000E+00 -0.13804037360E+03  0.13070858379E+04  0.12997762281E+04 0.  0.
        4    1    3    3  502    0 -0.55816841021E+01 -0.60994129948E+03  0.15650291400E+03  0.62972559023E+03  0.12699999809E+01 0.  1.
       -4    1    3    3    0  502  0.55816841021E+01  0.60994129948E+03 -0.29454328760E+03  0.67736024771E+03  0.12699999809E+01 0. -1.
</event>
<event>
 5   0  0.6618060E-05  0.1300193E+04  0.7818609E-02  0.9029412E-01
        2   -1    0    0  501    0  0.00000000000E+00  0.00000000000E+00  0.17450166467E+04  0.17450166467E+04  0.25500000920E-02 0.  1.
       -2   -1    0    0    0  501  0.00000000000E+00  0.00000000000E+00 -0.24218992631E+03  0.24218992633E+03  0.25500000920E-02 0. -1.
    10030    2    1    2    0    0  0.00000000000E+00  0.00000000000E+00  0.15028267204E+04  0.19872065730E+04  0.13001929904E+04 0.  0.
        2    1    3    3  502    0 -0.61380273705E+03 -0.92863452086E+02  0.45643723765E+03  0.77052733414E+03  0.25500000920E-02 0. -1.
       -2    1    3    3    0  502  0.61380273705E+03  0.92863452086E+02  0.10463894827E+04  0.12166792389E+04  0.25500000920E-02 0.  1.
</event>
<event>
 5   0  0.6618060E-05  0.1306559E+04  0.7818609E-02  0.9024380E-01
        2   -1    0    0  501    0  0.00000000000E+00  0.00000000000E+00  0.90573959223E+03  0.90573959223E+03  0.25500000920E-02 0. -1.
       -2   -1    0    0    0  501  0.00000000000E+00  0.00000000000E+00 -0.47118871385E+03  0.47118871386E+03  0.25500000920E-02 0.  1.
    10030    2    1    2    0    0  0.00000000000E+00  0.00000000000E+00  0.43455087837E+03  0.13769283061E+04  0.13065592578E+04 0.  0.
        2    1    3    3  502    0 -0.48862012828E+03  0.41867915429E+03  0.98360199321E+02  0.65093516791E+03  0.25500000920E-02 0.  1.
       -2    1    3    3    0  502  0.48862012828E+03 -0.41867915429E+03  0.33619067905E+03  0.72599313818E+03  0.25500000920E-02 0. -1.
</event>
<event>
 5   0  0.2512000E-05  0.1299714E+04  0.7818609E-02  0.9029792E-01
       -4   -1    0    0    0  501  0.00000000000E+00  0.00000000000E+00  0.12217488413E+04  0.12217495014E+04  0.12699999809E+01 0.  1.
        4   -1    0    0  501    0  0.00000000000E+00  0.00000000000E+00 -0.34566175580E+03  0.34566408885E+03  0.12699999809E+01 0. -1.
    10030    2    1    2    0    0  0.00000000000E+00  0.00000000000E+00  0.87608708548E+03  0.15674135902E+04  0.12997141153E+04 0.  0.
        5    1    3    3  502    0 -0.38925499399E+03 -0.13220303635E+03 -0.16890111253E+03  0.44446233697E+03  0.46999998093E+01 0. -1.
       -5    1    3    3    0  502  0.38925499399E+03  0.13220303635E+03  0.10449881980E+04  0.11229512532E+04  0.46999998093E+01 0.  1.
</event>
<event>
 5   0  0.3631841E-05  0.1297611E+04  0.7818609E-02  0.9031462E-01
       -1   -1    0    0    0  501  0.00000000000E+00  0.00000000000E+00  0.26324029974E+03  0.26324029979E+03  0.50400001928E-02 0. -1.
        1   -1    0    0  501    0  0.00000000000E+00  0.00000000000E+00 -0.15991029210E+04  0.15991029210E+04  0.50400001928E-02 0.  1.
    10030    2    1    2    0    0  0.00000000000E+00  0.00000000000E+00 -0.13358626213E+04  0.18623432208E+04  0.12976106231E+04 0.  0.
        3    1    3    3  502    0 -0.50591333964E+03  0.20968869600E+03 -0.16862961492E+03  0.57302147751E+03  0.10100000352E+00 0. -1.
       -3    1    3    3    0  502  0.50591333964E+03 -0.20968869600E+03 -0.11672330064E+04  0.12893217433E+04  0.10100000352E+00 0.  1.
</event>
<event>
 5   0  0.6688086E-05  0.1300099E+04  0.7818609E-02  0.9029487E-01
       -2   -1    0    0    0  501  0.00000000000E+00  0.00000000000E+00  0.23069643901E+03  0.23069643902E+03  0.25500000920E-02 0.  1.
        2   -1    0    0  501    0  0.00000000000E+00  0.00000000000E+00 -0.18316900498E+04  0.18316900498E+04  0.25500000920E-02 0. -1.
    10030    2    1    2    0    0  0.00000000000E+00  0.00000000000E+00 -0.16009936108E+04  0.20623864888E+04  0.13000990299E+04 0.  0.
        5    1    3    3  502    0  0.76848272032E+02  0.43247398245E+03 -0.40376584707E+02  0.44112556149E+03  0.46999998093E+01 0.  1.
       -5    1    3    3    0  502 -0.76848272032E+02 -0.43247398245E+03 -0.15606170261E+04  0.16212609273E+04  0.46999998093E+01 0. -1.
</event>
<event>
 5   0  0.6671239E-05  0.1299083E+04  0.7818609E-02  0.9030293E-01
       -2   -1    0    0    0  501  0.00000000000E+00  0.00000000000E+00  0.33395884757E+03  0.33395884758E+03  0.25500000920E-02 0.  1.
        2   -1    0    0  501    0  0.00000000000E+00  0.00000000000E+00 -0.12633413949E+04  0.12633413949E+04  0.25500000920E-02 0. -1.
    10030    2    1    2    0    0  0.00000000000E+00  0.00000000000E+00 -0.92938254735E+03  0.15973002425E+04  0.12990828093E+04 0.  0.
        1    1    3    3  502    0 -0.49662014177E+03 -0.19810865849E+03 -0.91817298448E+03  0.10625065813E+04  0.50400001928E-02 0. -1.
       -1    1    3    3    0  502  0.49662014177E+03  0.19810865849E+03 -0.11209562865E+02  0.53479366124E+03  0.50400001928E-02 0.  1.
</event>
<event>
 5   0  0.3551277E-05  0.1299567E+04  0.7818609E-02  0.9029909E-01
        1   -1    0    0  501    0  0.00000000000E+00  0.00000000000E+00  0.13304739992E+04  0.13304739992E+04  0.50400001928E-02 0. -1.
       -1   -1    0    0    0  501  0.00000000000E+00  0.00000000000E+00 -0.31734427991E+03  0.31734427995E+03  0.50400001928E-02 0.  1.
    10030    2    1    2    0    0  0.00000000000E+00  0.00000000000E+00  0.10131297193E+04  0.16478182792E+04  0.12995665635E+04 0.  0.
        4    1    3    3  502    0  0.58058001733E+03  0.69070073470E+02  0.14709248357E+03  0.60289438810E+03  0.12699999809E+01 0.  1.
       -4    1    3    3    0  502 -0.58058001733E+03 -0.69070073470E+02  0.86603723576E+03  0.10449238911E+04  0.12699999809E+01 0. -1.
</event>
<event>
 5   0  0.3631841E-05  0.1299798E+04  0.7818609E-02  0.9029725E-01
       -1   -1    0    0    0  501  0.00000000000E+00  0.00000000000E+00  0.25076989638E+03  0.25076989643E+03  0.50400001928E-02 0.  1.
        1   -1    0    0  501    0  0.00000000000E+00  0.00000000000E+00 -0.16842879566E+04  0.16842879566E+04  0.50400001928E-02 0. -1.
    10030    2    1    2    0    0  0.00000000000E+00  0.00000000000E+00 -0.14335180602E+04  0.19350578530E+04  0.12997980095E+04 0.  0.
        3    1    3    3  502    0  0.27970208037E+03 -0.40285398268E+03 -0.13516040524E+04  0.14378310436E+04  0.10100000352E+00 0. -1.
       -3    1    3    3    0  502 -0.27970208037E+03  0.40285398268E+03 -0.81914007728E+02  0.49722680941E+03  0.10100000352E+00 0.  1.
</event>
<event>
 5   0  0.6688086E-05  0.1300328E+04  0.7818609E-02  0.9029305E-01
       -2   -1    0    0    0  501  0.00000000000E+00  0.00000000000E+00  0.93645532544E+03  0.93645532545E+03  0.25500000920E-02 0.  1.
        2   -1    0    0  501    0  0.00000000000E+00  0.00000000000E+00 -0.45139725689E+03  0.45139725689E+03  0.25500000920E-02 0. -1.
    10030    2    1    2    0    0  0.00000000000E+00  0.00000000000E+00  0.48505806856E+03  0.13878525823E+04  0.13003282126E+04 0.  0.
        5    1    3    3  502    0 -0.13914361944E+03 -0.34934386051E+03 -0.32353671489E+03  0.49608484716E+03  0.46999998093E+01 0. -1.
       -5    1    3    3    0  502  0.13914361944E+03  0.34934386051E+03  0.80859478344E+03  0.89176773518E+03  0.46999998093E+01 0.  1.
</event>
<event>
 5   0  0.6688086E-05  0.1299571E+04  0.7818609E-02  0.9029906E-01
        2   -1    0    0  501    0  0.00000000000E+00  0.00000000000E+00  0.17963734388E+04  0.17963734388E+04  0.25500000920E-02 0.  1.
       -2   -1    0    0    0  501  0.00000000000E+00  0.00000000000E+00 -0.23504082036E+03  0.23504082037E+03  0.25500000920E-02 0. -1.
    10030    2    1    2    0    0  0.00000000000E+00  0.00000000000E+00  0.15613326184E+04  0.20314142592E+04  0.12995708318E+04 0.  0.
        5    1    3    3  502    0 -0.24120194155E+03  0.44593559523E+03  0.14540311579E+03  0.52744771095E+03  0.46999998093E+01 0. -1.
       -5    1    3    3    0  502  0.24120194155E+03 -0.44593559523E+03  0.14159295026E+04  0.15039665482E+04  0.46999998093E+01 0.  1.
</event>
<event>
 5   0  0.6618060E-05  0.1299595E+04  0.7818609E-02  0.9029886E-01
        2   -1    0    0  501    0  0.00000000000E+00  0.00000000000E+00  0.61175729084E+03  0.61175729085E+03  0.25500000920E-02 0.  1.
       -2   -1    0    0    0  501  0.00000000000E+00  0.00000000000E+00 -0.69020303663E+03  0.69020303664E+03  0.25500000920E-02 0. -1.
    10030    2    1    2    0    0  0.00000000000E+00  0.00000000000E+00 -0.78445745790E+02  0.13019603275E+04  0.12995949212E+04 0.  0.
        2    1    3    3  502    0 -0.21123802419E+03  0.61134057937E+03 -0.10160926851E+03  0.65473907039E+03  0.25500000920E-02 0. -1.
       -2    1    3    3    0  502  0.21123802419E+03 -0.61134057937E+03  0.23163522717E+02  0.64722125710E+03  0.25500000920E-02 0.  1.
</event>
<event>
 5   0  0.6742824E-05  0.1300684E+04  0.7818609E-02  0.9029023E-01
        2   -1    0    0  501    0  0.00000000000E+00  0.00000000000E+00  0.15738308552E+04  0.15738308552E+04  0.25500000920E-02 0.  1.
       -2   -1    0    0    0  501  0.00000000000E+00  0.00000000000E+00 -0.26873592188E+03  0.26873592190E+03  0.25500000920E-02 0. -1.
    10030    2    1    2    0    0  0.00000000000E+00  0.00000000000E+00  0.13050949333E+04  0.18425667771E+04  0.13006842596E+04 0.  0.
        4    1    3    3  502    0  0.37123542316E+03  0.52922152935E+03  0.55185717623E+03  0.84996418889E+03  0.12699999809E+01 0. -1.
       -4    1    3    3    0  502 -0.37123542316E+03 -0.52922152935E+03  0.75323775712E+03  0.99260258824E+03  0.12699999809E+01 0.  1.
</event>
<event>
 5   0  0.3689707E-05  0.1299954E+04  0.7818609E-02  0.9029602E-01
        1   -1    0    0  501    0  0.00000000000E+00  0.00000000000E+00  0.57719258477E+03  0.57719258480E+03  0.50400001928E-02 0.  1.
       -1   -1    0    0    0  501  0.00000000000E+00  0.00000000000E+00 -0.73193903534E+03  0.73193903535E+03  0.50400001928E-02 0. -1.
    10030    2    1    2    0    0  0.00000000000E+00  0.00000000000E+00 -0.15474645056E+03  0.13091316201E+04  0.12999535126E+04 0.  0.
        1    1    3    3  502    0 -0.36663661166E+03  0.20823268211E+03  0.42077721769E+03  0.59568172867E+03  0.50400001928E-02 0.  1.
       -1    1    3    3    0  502  0.36663661166E+03 -0.20823268211E+03 -0.57552366826E+03  0.71344989148E+03  0.50400001928E-02 0. -1.
</event>
<event>
 5   0  0.3689707E-05  0.1300099E+04  0.7818609E-02  0.9029487E-01
        1   -1    0    0  501    0  0.00000000000E+00  0.00000000000E+00  0.69709559672E+03  0.69709559674E+03  0.50400001928E-02 0.  1.
       -1   -1    0    0    0  501  0.00000000000E+00  0.00000000000E+00 -0.60617816797E+03  0.60617816799E+03  0.50400001928E-02 0. -1.
    10030    2    1    2    0    0  0.00000000000E+00  0.00000000000E+00  0.90917428753E+02  0.13032737647E+04  0.13000986605E+04 0.  0.
        1    1    3    3  502    0  0.38747794436E+03  0.46024176788E+03  0.29223565416E+03  0.66885224068E+03  0.50400001928E-02 0.  1.
       -1    1    3    3    0  502 -0.38747794436E+03 -0.46024176788E+03 -0.20131822541E+03  0.63442152405E+03  0.50400001928E-02 0. -1.
</event>
<event>
 5   0  0.3631841E-05  0.1300162E+04  0.7818609E-02  0.9029437E-01
        1   -1    0    0  501    0  0.00000000000E+00  0.00000000000E+00  0.87782125926E+03  0.87782125927E+03  0.50400001928E-02 0.  1.
       -1   -1    0    0    0  501  0.00000000000E+00  0.00000000000E+00 -0.48142489691E+03  0.48142489693E+03  0.50400001928E-02 0. -1.
    10030    2    1    2    0    0  0.00000000000E+00  0.00000000000E+00  0.39639636235E+03  0.13592461562E+04  0.13001615427E+04 0.  0.
        3    1    3    3  502    0  0.24308640410E+03 -0.49099413333E+02  0.82642503168E+03  0.86283259989E+03  0.10100000352E+00 0.  1.
       -3    1    3    3    0  502 -0.24308640410E+03  0.49099413333E+02 -0.43002866933E+03  0.49641355631E+03  0.10100000352E+00 0. -1.
</event>
<event>
 5   0  0.6671239E-05  0.1299249E+04  0.7818609E-02  0.9030161E-01
        2   -1    0    0  501    0  0.00000000000E+00  0.00000000000E+00  0.75998799716E+03  0.75998799716E+03  0.25500000920E-02 0.  1.
       -2   -1    0    0    0  501  0.00000000000E+00  0.00000000000E+00 -0.55528810409E+03  0.55528810409E+03  0.25500000920E-02 0. -1.
    10030    2    1    2    0    0  0.00000000000E+00  0.00000000000E+00  0.20469989307E+03  0.13152761013E+04  0.12992494665E+04 0.  0.
        1    1    3    3  502    0  0.24913170433E+03  0.18305038462E+03 -0.47604554457E+03  0.56762083290E+03  0.50400001928E-02 0. -1.
       -1    1    3    3    0  502 -0.24913170433E+03 -0.18305038462E+03  0.68074543764E+03  0.74765526836E+03  0.50400001928E-02 0.  1.
</event>
<event>
 5   0  0.2512000E-05  0.1301286E+04  0.7818609E-02  0.9028546E-01
       -3   -1    0    0    0  501  0.00000000000E+00  0.00000000000E+00  0.74603970926E+03  0.74603971610E+03  0.10100000352E+00 0.  1.
        3   -1    0    0  501    0  0.00000000000E+00  0.00000000000E+00 -0.56744503385E+03  0.56744504284E+03  0.10100000352E+00 0. -1.
    10030    2    1    2    0    0  0.00000000000E+00  0.00000000000E+00  0.17859467541E+03  0.13134847589E+04  0.13012863458E+04 0.  0.
        4    1    3    3  502    0 -0.33540110064E+03 -0.41259819981E+03 -0.28918936066E+03  0.60527949908E+03  0.12699999809E+01 0. -1.
       -4    1    3    3    0  502  0.33540110064E+03  0.41259819981E+03  0.46778403607E+03  0.70820525986E+03  0.12699999809E+01 0.  1.
</event>
<event>
 5   0  0.6742824E-05  0.1293438E+04  0.7818609E-02  0.9034785E-01
        2   -1    0    0  501    0  0.00000000000E+00  0.00000000000E+00  0.16136612544E+04  0.16136612544E+04  0.25500000920E-02 0. -1.
       -2   -1    0    0    0  501  0.00000000000E+00  0.00000000000E+00 -0.25919035553E+03  0.25919035555E+03  0.25500000920E-02 0.  1.
    10030    2    1    2    0    0  0.00000000000E+00  0.00000000000E+00  0.13544708989E+04  0.18728516100E+04  0.12934379525E+04 0.  0.
        4    1    3    3  502    0  0.19691227565E+03  0.40693243767E+03  0.76004358664E+01  0.45213696227E+03  0.12699999809E+01 0.  1.
       -4    1    3    3    0  502 -0.19691227565E+03 -0.40693243767E+03  0.13468704630E+04  0.14207146477E+04  0.12699999809E+01 0. -1.
</event>
<event>
 5   0  0.3551277E-05  0.1300001E+04  0.7818609E-02  0.9029564E-01
       -1   -1    0    0    0  501  0.00000000000E+00  0.00000000000E+00  0.37894047619E+03  0.37894047623E+03  0.50400001928E-02 0.  1.
        1   -1    0    0  501    0  0.00000000000E+00  0.00000000000E+00 -0.11149532990E+04  0.11149532990E+04  0.50400001928E-02 0. -1.
    10030    2    1    2    0    0  0.00000000000E+00  0.00000000000E+00 -0.73601282283E+03  0.14938937753E+04  0.13000014371E+04 0.  0.
        4    1    3    3  502    0 -0.39899584358E+03 -0.82960935625E+02 -0.94991007163E+03  0.10336396650E+04  0.12699999809E+01 0. -1.
       -4    1    3    3    0  502  0.39899584358E+03  0.82960935625E+02  0.21389724881E+03  0.46025411023E+03  0.12699999809E+01 0.  1.
</event>
<event>
 5   0  0.3552698E-05  0.1299403E+04  0.7818609E-02  0.9030039E-01
        1   -1    0    0  501    0  0.00000000000E+00  0.00000000000E+00  0.10359610486E+04  0.10359610486E+04  0.50400001928E-02 0.  1.
       -1   -1    0    0    0  501  0.00000000000E+00  0.00000000000E+00 -0.40745933543E+03  0.40745933547E+03  0.50400001928E-02 0. -1.
    10030    2    1    2    0    0  0.00000000000E+00  0.00000000000E+00  0.62850171315E+03  0.14434203841E+04  0.12994029405E+04 0.  0.
        5    1    3    3  502    0  0.48226851971E+02 -0.62195272032E+03  0.51585687882E+03  0.80949454908E+03  0.46999998093E+01 0. -1.
       -5    1    3    3    0  502 -0.48226851971E+02  0.62195272032E+03  0.11264483433E+03  0.63392583499E+03  0.46999998093E+01 0.  1.
</event>
<event>
 5   0  0.6671239E-05  0.1298114E+04  0.7818609E-02  0.9031062E-01
       -2   -1    0    0    0  501  0.00000000000E+00  0.00000000000E+00  0.81595462695E+03  0.81595462695E+03  0.25500000920E-02 0.  1.
        2   -1    0    0  501    0  0.00000000000E+00  0.00000000000E+00 -0.51629740181E+03  0.51629740182E+03  0.25500000920E-02 0. -1.
    10030    2    1    2    0    0  0.00000000000E+00  0.00000000000E+00  0.29965722514E+03  0.13322520288E+04  0.12981144077E+04 0.  0.
        1    1    3    3  502    0  0.12115611887E+03  0.14561758022E+03 -0.48729653958E+03  0.52282043028E+03  0.50400001928E-02 0. -1.
       -1    1    3    3    0  502 -0.12115611887E+03 -0.14561758022E+03  0.78695376471E+03  0.80943159849E+03  0.50400001928E-02 0.  1.
</event>
<event>
 5   0  0.3631841E-05  0.1300138E+04  0.7818609E-02  0.9029456E-01
       -1   -1    0    0    0  501  0.00000000000E+00  0.00000000000E+00  0.15708860480E+04  0.15708860480E+04  0.50400001928E-02 0. -1.
        1   -1    0    0  501    0  0.00000000000E+00  0.00000000000E+00 -0.26901355701E+03  0.26901355705E+03  0.50400001928E-02 0.  1.
    10030    2    1    2    0    0  0.00000000000E+00  0.00000000000E+00  0.13018724910E+04  0.18398996051E+04  0.13001379057E+04 0.  0.
        3    1    3    3  502    0 -0.62228996302E+03  0.14123995107E+03  0.82653047049E+03  0.10441964138E+04  0.10100000352E+00 0. -1.
       -3    1    3    3    0  502  0.62228996302E+03 -0.14123995107E+03  0.47534202051E+03  0.79570319122E+03  0.10100000352E+00 0.  1.
</event>
<event>
 5   0  0.6618060E-05  0.1299877E+04  0.7818609E-02  0.9029663E-01
        2   -1    0    0  501    0  0.00000000000E+00  0.00000000000E+00  0.19756052912E+04  0.19756052912E+04  0.25500000920E-02 0.  1.
       -2   -1    0    0    0  501  0.00000000000E+00  0.00000000000E+00 -0.21381791737E+03  0.21381791739E+03  0.25500000920E-02 0. -1.
    10030    2    1    2    0    0  0.00000000000E+00  0.00000000000E+00  0.17617873738E+04  0.21894232086E+04  0.12998766233E+04 0.  0.
        2    1    3    3  502    0  0.13708271584E+03  0.13445622604E+03  0.19267397039E+04  0.19362840790E+04  0.25500000920E-02 0.  1.
       -2    1    3    3    0  502 -0.13708271584E+03 -0.13445622604E+03 -0.16495233015E+03  0.25313912959E+03  0.25500000920E-02 0. -1.
</event>
<event>
 5   0  0.6618060E-05  0.1299877E+04  0.7818609E-02  0.9029662E-01
       -2   -1    0    0    0  501  0.00000000000E+00  0.00000000000E+00  0.99514378028E+03  0.99514378028E+03  0.25500000920E-02 0.  1.
        2   -1    0    0  501    0  0.00000000000E+00  0.00000000000E+00 -0.42448169100E+03  0.42448169101E+03  0.25500000920E-02 0. -1.
    10030    2    1    2    0    0  0.00000000000E+00  0.00000000000E+00  0.57066208928E+03  0.14196254713E+04  0.12998774014E+04 0.  0.
        2    1    3    3  502    0  0.39774478946E+03 -0.46368380573E+03  0.43045364407E+02  0.61241856001E+03  0.25500000920E-02 0. -1.
       -2    1    3    3    0  502 -0.39774478946E+03  0.46368380573E+03  0.52761672487E+03  0.80720691128E+03  0.25500000920E-02 0.  1.
</event>
<event>
 5   0  0.6742824E-05  0.1299287E+04  0.7818609E-02  0.9030130E-01
       -2   -1    0    0    0  501  0.00000000000E+00  0.00000000000E+00  0.40205457897E+03  0.40205457897E+03  0.25500000920E-02 0.  1.
        2   -1    0    0  501    0  0.00000000000E+00  0.00000000000E+00 -0.10497005933E+04  0.10497005933E+04  0.25500000920E-02 0. -1.
    10030    2    1    2    0    0  0.00000000000E+00  0.00000000000E+00 -0.64764601433E+03  0.14517551723E+04  0.12992873894E+04 0.  0.
        4    1    3    3  502    0  0.33665917146E+03  0.30562133852E+03  0.19462071210E+03  0.49459340348E+03  0.12699999809E+01 0.  1.
       -4    1    3    3    0  502 -0.33665917146E+03 -0.30562133852E+03 -0.84226672643E+03  0.95716176879E+03  0.12699999809E+01 0. -1.
</event>
<event>
 5   0  0.6688086E-05  0.1299726E+04  0.7818609E-02  0.9029783E-01
        2   -1    0    0  501    0  0.00000000000E+00  0.00000000000E+00  0.19854848007E+04  0.19854848007E+04  0.25500000920E-02 0. -1.
       -2   -1    0    0    0  501  0.00000000000E+00  0.00000000000E+00 -0.21270455851E+03  0.21270455852E+03  0.25500000920E-02 0.  1.
    10030    2    1    2    0    0  0.00000000000E+00  0.00000000000E+00  0.17727802422E+04  0.21981893592E+04  0.12997256141E+04 0.  0.
        5    1    3    3  502    0  0.31538574518E+03 -0.42398693431E+03  0.15260990072E+04  0.16150025878E+04  0.46999998093E+01 0. -1.
       -5    1    3    3    0  502 -0.31538574518E+03  0.42398693431E+03  0.24668123503E+03  0.58318677150E+03  0.46999998093E+01 0.  1.
</event>
<event>
 5   0  0.6671239E-05  0.1300753E+04  0.7818609E-02  0.9028968E-01
        2   -1    0    0  501    0  0.00000000000E+00  0.00000000000E+00  0.76975341783E+03  0.76975341783E+03  0.25500000920E-02 0.  1.
       -2   -1    0    0    0  501  0.00000000000E+00  0.00000000000E+00 -0.54951296708E+03  0.54951296709E+03  0.25500000920E-02 0. -1.
    10030    2    1    2    0    0  0.00000000000E+00  0.00000000000E+00  0.22024045074E+03  0.13192663849E+04  0.13007528352E+04 0.  0.
        1    1    3    3  502    0  0.43539007475E+03 -0.36007089172E+03 -0.21660436884E+03  0.60508926356E+03  0.50400001928E-02 0. -1.
       -1    1    3    3    0  502 -0.43539007475E+03  0.36007089172E+03  0.43684481959E+03  0.71417712136E+03  0.50400001928E-02 0.  1.
</event>
<event>
 5   0  0.6688086E-05  0.1299786E+04  0.7818609E-02  0.9029735E-01
       -2   -1    0    0    0  501  0.00000000000E+00  0.00000000000E+00  0.29849117827E+03  0.29849117828E+03  0.25500000920E-02 0. -1.
        2   -1    0    0  501    0  0.00000000000E+00  0.00000000000E+00 -0.14149861517E+04  0.14149861517E+04  0.25500000920E-02 0.  1.
    10030    2    1    2    0    0  0.00000000000E+00  0.00000000000E+00 -0.11164949735E+04  0.17134773300E+04  0.12997859573E+04 0.  0.
        5    1    3    3  502    0  0.30802775925E+03  0.32836213392E+03 -0.11760622577E+04  0.12593042982E+04  0.46999998093E+01 0.  1.
       -5    1    3    3    0  502 -0.30802775925E+03 -0.32836213392E+03  0.59567284254E+02  0.45417303180E+03  0.46999998093E+01 0. -1.
</event>
<event>
 5   0  0.3551277E-05  0.1299503E+04  0.7818609E-02  0.9029959E-01
       -1   -1    0    0    0  501  0.00000000000E+00  0.00000000000E+00  0.50321257979E+03  0.50321257981E+03  0.50400001928E-02 0. -1.
        1   -1    0    0  501    0  0.00000000000E+00  0.00000000000E+00 -0.83896361338E+03  0.83896361339E+03  0.50400001928E-02 0.  1.
    10030    2    1    2    0    0  0.00000000000E+00  0.00000000000E+00 -0.33575103359E+03  0.13421761932E+04  0.12995030500E+04 0.  0.
        4    1    3    3  502    0 -0.91731046811E+02 -0.29426640180E+03  0.42289351948E+03  0.52330473139E+03  0.12699999809E+01 0. -1.
       -4    1    3    3    0  502  0.91731046811E+02  0.29426640180E+03 -0.75864455307E+03  0.81887146182E+03  0.12699999809E+01 0.  1.
</event>
<event>
 5   0  0.3552698E-05  0.1300059E+04  0.7818609E-02  0.9029519E-01
        1   -1    0    0  501    0  0.00000000000E+00  0.00000000000E+00  0.45688476407E+03  0.45688476410E+03  0.50400001928E-02 0.  1.
       -1   -1    0    0    0  501  0.00000000000E+00  0.00000000000E+00 -0.92482412290E+03  0.92482412292E+03  0.50400001928E-02 0. -1.
    10030    2    1    2    0    0  0.00000000000E+00  0.00000000000E+00 -0.46793935883E+03  0.13817088870E+04  0.13000585390E+04 0.  0.
        5    1    3    3  502    0 -0.27932193675E+03  0.62736659282E+02 -0.85419577251E+03  0.90090462344E+03  0.46999998093E+01 0. -1.
       -5    1    3    3    0  502  0.27932193675E+03 -0.62736659282E+02  0.38625641368E+03  0.48080426357E+03  0.46999998093E+01 0.  1.
</event>
<event>
 5   0  0.6742824E-05  0.1290134E+04  0.7818609E-02  0.9037425E-01
       -2   -1    0    0    0  501  0.00000000000E+00  0.00000000000E+00  0.12601458277E+04  0.12601458277E+04  0.25500000920E-02 0.  1.
        2   -1    0    0  501    0  0.00000000000E+00  0.00000000000E+00 -0.33020920845E+03  0.33020920846E+03  0.25500000920E-02 0. -1.
    10030    2    1    2    0    0  0.00000000000E+00  0.00000000000E+00  0.92993661929E+03  0.15903550362E+04  0.12901344989E+04 0.  0.
        4    1    3    3  502    0  0.44295848859E+03  0.30743296908E+03  0.90146226945E+03  0.10504109145E+04  0.12699999809E+01 0.  1.
       -4    1    3    3    0  502 -0.44295848859E+03 -0.30743296908E+03  0.28474349843E+02  0.53994412173E+03  0.12699999809E+01 0. -1.
</event>
<event>
 5   0  0.6618060E-05  0.1300448E+04  0.7818609E-02  0.9029210E-01
        2   -1    0    0  501    0  0.00000000000E+00  0.00000000000E+00  0.19815531143E+04  0.19815531143E+04  0.25500000920E-02 0. -1.
       -2   -1    0    0    0  501  0.00000000000E+00  0.00000000000E+00 -0.21336343023E+03  0.21336343025E+03  0.25500000920E-02 0.  1.
    10030    2    1    2    0    0  0.00000000000E+00  0.00000000000E+00  0.17681896841E+04  0.21949165446E+04  0.13004475686E+04 0.  0.
        2    1    3    3  502    0  0.63351893323E+03  0.10104145994E+03  0.70519145990E+03  0.95333656728E+03  0.25500000920E-02 0.  1.
       -2    1    3    3    0  502 -0.63351893323E+03 -0.10104145994E+03  0.10629982242E+04  0.12415799773E+04  0.25500000920E-02 0. -1.
</event>
<event>
 5   0  0.3552698E-05  0.1299544E+04  0.7818609E-02  0.9029926E-01
        1   -1    0    0  501    0  0.00000000000E+00  0.00000000000E+00  0.44495349624E+03  0.44495349627E+03  0.50400001928E-02 0.  1.
       -1   -1    0    0    0  501  0.00000000000E+00  0.00000000000E+00 -0.94887207916E+03  0.94887207917E+03  0.50400001928E-02 0. -1.
    10030    2    1    2    0    0  0.00000000000E+00  0.00000000000E+00 -0.50391858292E+03  0.13938255754E+04  0.12995444573E+04 0.  0.
        5    1    3    3  502    0 -0.45851397648E+03 -0.32295531621E+03  0.99939325513E+02  0.56968865328E+03  0.46999998093E+01 0.  1.
       -5    1    3    3    0  502  0.45851397648E+03  0.32295531621E+03 -0.60385790843E+03  0.82413692216E+03  0.46999998093E+01 0. -1.
</event>
<event>
 5   0  0.3718559E-05  0.1300630E+04  0.7818609E-02  0.9029066E-01
        1   -1    0    0  501    0  0.00000000000E+00  0.00000000000E+00  0.50169662531E+03  0.50169662533E+03  0.50400001928E-02 0. -1.
       -1   -1    0    0    0  501  0.00000000000E+00  0.00000000000E+00 -0.84295906648E+03  0.84295906650E+03  0.50400001928E-02 0.  1.
    10030    2    1    2    0    0  0.00000000000E+00  0.00000000000E+00 -0.34126244117E+03  0.13446556918E+04  0.13006301841E+04 0.  0.
        2    1    3    3  502    0  0.39048356006E+03  0.45527155380E+03 -0.43045490751E+03  0.73826893865E+03  0.25500000920E-02 0.  1.
       -2    1    3    3    0  502 -0.39048356006E+03 -0.45527155380E+03  0.89192466338E+02  0.60638675318E+03  0.25500000920E-02 0. -1.
</event>
<event>
 5   0  0.6688086E-05  0.1305424E+04  0.7818609E-02  0.9025275E-01
        2   -1    0    0  501    0  0.00000000000E+00  0.00000000000E+00  0.68648131875E+03  0.68648131875E+03  0.25500000920E-02 0.  1.
       -2   -1    0    0    0  501  0.00000000000E+00  0.00000000000E+00 -0.62060355875E+03  0.62060355876E+03  0.25500000920E-02 0. -1.
    10030    2    1    2    0    0  0.00000000000E+00  0.00000000000E+00  0.65877759997E+02  0.13070848775E+04  0.13054236852E+04 0.  0.
        5    1    3    3  502    0 -0.58100784206E+03 -0.25682867446E+03  0.18306158719E+03  0.66110870155E+03  0.46999998093E+01 0. -1.
       -5    1    3    3    0  502  0.58100784206E+03  0.25682867446E+03 -0.11718382720E+03  0.64597617596E+03  0.46999998093E+01 0.  1.
</event>
<event>
 5   0  0.3718559E-05  0.1303847E+04  0.7818609E-02  0.9026520E-01
       -1   -1    0    0    0  501  0.00000000000E+00  0.00000000000E+00  0.86088449748E+03  0.86088449749E+03  0.50400001928E-02 0.  1.
        1   -1    0    0  501    0  0.00000000000E+00  0.00000000000E+00 -0.49368345326E+03  0.49368345328E+03  0.50400001928E-02 0. -1.
    10030    2    1    2    0    0  0.00000000000E+00  0.00000000000E+00  0.36720104422E+03  0.13545679508E+04  0.13038472788E+04 0.  0.
        2    1    3    3  502    0  0.25212559260E+03  0.27060723775E+03 -0.37413424771E+03  0.52609127239E+03  0.25500000920E-02 0. -1.
       -2    1    3    3    0  502 -0.25212559260E+03 -0.27060723775E+03  0.74133529193E+03  0.82847667839E+03  0.25500000920E-02 0.  1.
</event>
<event>
 5   0  0.3631841E-05  0.1300955E+04  0.7818609E-02  0.9028808E-01
        1   -1    0    0  501    0  0.00000000000E+00  0.00000000000E+00  0.51247445482E+03  0.51247445484E+03  0.50400001928E-02 0. -1.
       -1   -1    0    0    0  501  0.00000000000E+00  0.00000000000E+00 -0.82564328262E+03  0.82564328264E+03  0.50400001928E-02 0.  1.
    10030    2    1    2    0    0  0.00000000000E+00  0.00000000000E+00 -0.31316882780E+03  0.13381177375E+04  0.13009551740E+04 0.  0.
        3    1    3    3  502    0  0.38113376628E+03  0.23263652393E+03  0.32993731386E+03  0.55519486790E+03  0.10100000352E+00 0. -1.
       -3    1    3    3    0  502 -0.38113376628E+03 -0.23263652393E+03 -0.64310614166E+03  0.78292286958E+03  0.10100000352E+00 0.  1.
</event>
<event>
 5   0  0.3689707E-05  0.1299962E+04  0.7818609E-02  0.9029595E-01
       -1   -1    0    0    0  501  0.00000000000E+00  0.00000000000E+00  0.37622236262E+03  0.37622236265E+03  0.50400001928E-02 0.  1.
        1   -1    0    0  501    0  0.00000000000E+00  0.00000000000E+00 -0.11229400146E+04  0.11229400147E+04  0.50400001928E-02 0. -1.
    10030    2    1    2    0    0  0.00000000000E+00  0.00000000000E+00 -0.74671765203E+03  0.14991623773E+04  0.12999617616E+04 0.  0.
        1    1    3    3  502    0 -0.75869366656E+02  0.56185967577E+03 -0.73992218687E+03  0.93216269969E+03  0.50400001928E-02 0. -1.
       -1    1    3    3    0  502  0.75869366656E+02 -0.56185967577E+03 -0.67954651607E+01  0.56699967762E+03  0.50400001928E-02 0.  1.
</event>
<event>
 5   0  0.6671239E-05  0.1300131E+04  0.7818609E-02  0.9029461E-01
        2   -1    0    0  501    0  0.00000000000E+00  0.00000000000E+00  0.73095979511E+03  0.73095979512E+03  0.25500000920E-02 0. -1.
       -2   -1    0    0    0  501  0.00000000000E+00  0.00000000000E+00 -0.57812355493E+03  0.57812355494E+03  0.25500000920E-02 0.  1.
    10030    2    1    2    0    0  0.00000000000E+00  0.00000000000E+00  0.15283624018E+03  0.13090833501E+04  0.13001308784E+04 0.  0.
        1    1    3    3  502    0  0.33982448364E+03 -0.46340290260E+02 -0.47961352666E+03  0.58962465786E+03  0.50400001928E-02 0.  1.
       -1    1    3    3    0  502 -0.33982448364E+03  0.46340290260E+02  0.63244976684E+03  0.71945869220E+03  0.50400001928E-02 0. -1.
</event>
<event>
 5   0  0.2512000E-05  0.1299818E+04  0.7818609E-02  0.9029710E-01
        3   -1    0    0  501    0  0.00000000000E+00  0.00000000000E+00  0.10353443633E+04  0.10353443682E+04  0.10100000352E+00 0. -1.
       -3   -1    0    0    0  501  0.00000000000E+00  0.00000000000E+00 -0.40796234228E+03  0.40796235479E+03  0.10100000352E+00 0.  1.
    10030    2    1    2    0    0  0.00000000000E+00  0.00000000000E+00  0.62738202102E+03  0.14433067230E+04  0.12998177166E+04 0.  0.
        1    1    3    3  502    0  0.10740598830E+03  0.95330410959E+01 -0.39796053974E+03  0.41230997612E+03  0.50400001928E-02 0.  1.
       -1    1    3    3    0  502 -0.10740598830E+03 -0.95330410959E+01  0.10253425608E+04  0.10309967469E+04  0.50400001928E-02 0. -1.
</event>
<event>
 5   0  0.6458698E-05  0.1299970E+04  0.7818609E-02  0.9029589E-01
       -2   -1    0    0    0  501  0.00000000000E+00  0.00000000000E+00  0.87784840049E+03  0.87784840050E+03  0.25500000920E-02 0.  1.
        2   -1    0    0  501    0  0.00000000000E+00  0.00000000000E+00 -0.48126823597E+03  0.48126823598E+03  0.25500000920E-02 0. -1.
    10030    2    1    2    0    0  0.00000000000E+00  0.00000000000E+00  0.39658016452E+03  0.13591166365E+04  0.12999700784E+04 0.  0.
        3    1    3    3  502    0  0.54315377351E+03 -0.35217794657E+03  0.25956746706E+03  0.69743860511E+03  0.10100000352E+00 0.  1.
       -3    1    3    3    0  502 -0.54315377351E+03  0.35217794657E+03  0.13701269746E+03  0.66167803137E+03  0.10100000352E+00 0. -1.
</event>
<event>
 5   0  0.6688086E-05  0.1298944E+04  0.7818609E-02  0.9030403E-01
       -2   -1    0    0    0  501  0.00000000000E+00  0.00000000000E+00  0.62395407328E+03  0.62395407328E+03  0.25500000920E-02 0.  1.
        2   -1    0    0  501    0  0.00000000000E+00  0.00000000000E+00 -0.67603351274E+03  0.67603351274E+03  0.25500000920E-02 0. -1.
    10030    2    1    2    0    0  0.00000000000E+00  0.00000000000E+00 -0.52079439458E+02  0.12999875860E+04  0.12989439772E+04 0.  0.
        5    1    3    3  502    0  0.37680696830E+03 -0.23151369083E+03  0.44995747174E+03  0.63092463637E+03  0.46999998093E+01 0.  1.
       -5    1    3    3    0  502 -0.37680696830E+03  0.23151369083E+03 -0.50203691120E+03  0.66906294966E+03  0.46999998093E+01 0. -1.
</event>
<event>
 5   0  0.6742824E-05  0.1299418E+04  0.7818609E-02  0.9030027E-01
       -2   -1    0    0    0  501  0.00000000000E+00  0.00000000000E+00  0.40800122226E+03  0.40800122226E+03  0.25500000920E-02 0.  1.
        2   -1    0    0  501    0  0.00000000000E+00  0.00000000000E+00 -0.10346089348E+04  0.10346089348E+04  0.25500000920E-02 0. -1.
    10030    2    1    2    0    0  0.00000000000E+00  0.00000000000E+00 -0.62660771256E+03  0.14426101571E+04  0.12994178850E+04 0.  0.
        4    1    3    3  502    0  0.25043530822E+03  0.45039705493E+03  0.12595385487E+03  0.53051044961E+03  0.12699999809E+01 0.  1.
       -4    1    3    3    0  502 -0.25043530822E+03 -0.45039705493E+03 -0.75256156743E+03  0.91209970747E+03  0.12699999809E+01 0. -1.
</event>
<event>
 5   0  0.6671239E-05  0.1299027E+04  0.7818609E-02  0.9030337E-01
        2   -1    0    0  501    0  0.00000000000E+00  0.00000000000E+00  0.73513660931E+03  0.73513660932E+03  0.25500000920E-02 0. -1.
       -2   -1    0    0    0  501  0.00000000000E+00  0.00000000000E+00 -0.57386324110E+03  0.57386324110E+03  0.25500000920E-02 0.  1.
    10030    2    1    2    0    0  0.00000000000E+00  0.00000000000E+00  0.16127336821E+03  0.13089998504E+04  0.12990271395E+04 0.  0.
        1    1    3    3  502    0  0.20709891566E+03  0.49520881741E+03 -0.28788411701E+03  0.60909687124E+03  0.50400001928E-02 0.  1.
       -1    1    3    3    0  502 -0.20709891566E+03 -0.49520881741E+03  0.44915748522E+03  0.69990297918E+03  0.50400001928E-02 0. -1.
</event>
<event>
 5   0  0.3718559E-05  0.1298905E+04  0.7818609E-02  0.9030434E-01
        1   -1    0    0  501    0  0.00000000000E+00  0.00000000000E+00  0.11973326185E+04  0.11973326185E+04  0.50400001928E-02 0. -1.
       -1   -1    0    0    0  501  0.00000000000E+00  0.00000000000E+00 -0.35227358857E+03  0.35227358861E+03  0.50400001928E-02 0.  1.
    10030    2    1    2    0    0  0.00000000000E+00  0.00000000000E+00  0.84505902995E+03  0.15496062071E+04  0.12989051671E+04 0.  0.
        2    1    3    3  502    0  0.54981689678E+03 -0.10652579003E+03  0.30208391170E+02  0.56085551689E+03  0.25500000920E-02 0.  1.
       -2    1    3    3    0  502 -0.54981689678E+03  0.10652579003E+03  0.81485063878E+03  0.98875069024E+03  0.25500000920E-02 0. -1.
</event>
<event>
 5   0  0.3631841E-05  0.1300344E+04  0.7818609E-02  0.9029293E-01
        1   -1    0    0  501    0  0.00000000000E+00  0.00000000000E+00  0.49038419778E+03  0.49038419780E+03  0.50400001928E-02 0.  1.
       -1   -1    0    0    0  501  0.00000000000E+00  0.00000000000E+00 -0.86202491088E+03  0.86202491090E+03  0.50400001928E-02 0. -1.
    10030    2    1    2    0    0  0.00000000000E+00  0.00000000000E+00 -0.37164071311E+03  0.13524091087E+04  0.13003436383E+04 0.  0.
        3    1    3    3  502    0 -0.13390393749E+03  0.48375734220E+01 -0.84750942026E+03  0.85803606814E+03  0.10100000352E+00 0. -1.
       -3    1    3    3    0  502  0.13390393749E+03 -0.48375734220E+01  0.47586870715E+03  0.49437304057E+03  0.10100000352E+00 0.  1.
</event>
<event>
 5   0  0.2512000E-05  0.1299306E+04  0.7818609E-02  0.9030115E-01
       -3   -1    0    0    0  501  0.00000000000E+00  0.00000000000E+00  0.83604387630E+03  0.83604388240E+03  0.10100000352E+00 0. -1.
        3   -1    0    0  501    0  0.00000000000E+00  0.00000000000E+00 -0.50481720590E+03  0.50481721600E+03  0.10100000352E+00 0.  1.
    10030    2    1    2    0    0  0.00000000000E+00  0.00000000000E+00  0.33122667040E+03  0.13408610984E+04  0.12993064989E+04 0.  0.
        5    1    3    3  502    0  0.40755481998E+03  0.18793537673E+03 -0.31909607149E+03  0.55069504261E+03  0.46999998093E+01 0.  1.
       -5    1    3    3    0  502 -0.40755481998E+03 -0.18793537673E+03  0.65032274188E+03  0.79016605579E+03  0.46999998093E+01 0. -1.
</event>
<event>
 5   0  0.6458698E-05  0.1298884E+04  0.7818609E-02  0.9030451E-01
       -2   -1    0    0    0  501  0.00000000000E+00  0.00000000000E+00  0.47147147789E+03  0.47147147790E+03  0.25500000920E-02 0. -1.
        2   -1    0    0  501    0  0.00000000000E+00  0.00000000000E+00 -0.89459277565E+03  0.89459277566E+03  0.25500000920E-02 0.  1.
    10030    2    1    2    0    0  0.00000000000E+00  0.00000000000E+00 -0.42312129776E+03  0.13660642536E+04  0.12988841027E+04 0.  0.
        3    1    3    3  502    0 -0.19135567823E+03  0.56817584783E+03 -0.47414197953E+03  0.76436340611E+03  0.10100000352E+00 0. -1.
       -3    1    3    3    0  502  0.19135567823E+03 -0.56817584783E+03  0.51020681765E+02  0.60170084745E+03  0.10100000352E+00 0.  1.
</event>
<event>
 5   0  0.6458698E-05  0.1299766E+04  0.7818609E-02  0.9029750E-01
        2   -1    0    0  501    0  0.00000000000E+00  0.00000000000E+00  0.17049862995E+04  0.17049862995E+04  0.25500000920E-02 0. -1.
       -2   -1    0    0    0  501  0.00000000000E+00  0.00000000000E+00 -0.24771356522E+03  0.24771356523E+03  0.25500000920E-02 0.  1.
    10030    2    1    2    0    0  0.00000000000E+00  0.00000000000E+00  0.14572727343E+04  0.19526998648E+04  0.12997664943E+04 0.  0.
        3    1    3    3  502    0 -0.88713942748E+02 -0.43686788806E+02 -0.23634456444E+03  0.25619809229E+03  0.10100000352E+00 0.  1.
       -3    1    3    3    0  502  0.88713942748E+02  0.43686788806E+02  0.16936172987E+04  0.16965017725E+04  0.10100000352E+00 0. -1.
</event>
<event>
 5   0  0.3718559E-05  0.1299239E+04  0.7818609E-02  0.9030169E-01
        1   -1    0    0  501    0  0.00000000000E+00  0.00000000000E+00  0.62585315812E+03  0.62585315814E+03  0.50400001928E-02 0.  1.
       -1   -1    0    0    0  501  0.00000000000E+00  0.00000000000E+00 -0.67428861521E+03  0.67428861523E+03  0.50400001928E-02 0. -1.
    10030    2    1    2    0    0  0.00000000000E+00  0.00000000000E+00 -0.48435457091E+02  0.13001417734E+04  0.12992392533E+04 0.  0.
        2    1    3    3  502    0 -0.40398743584E+03 -0.39765412609E+03 -0.34172508021E+03  0.66189929957E+03  0.25500000920E-02 0. -1.
       -2    1    3    3    0  502  0.40398743584E+03  0.39765412609E+03  0.29328962312E+03  0.63824247380E+03  0.25500000920E-02 0.  1.
</event>
<event>
 5   0  0.3689707E-05  0.1299853E+04  0.7818609E-02  0.9029682E-01
       -1   -1    0    0    0  501  0.00000000000E+00  0.00000000000E+00  0.51681792772E+03  0.51681792775E+03  0.50400001928E-02 0.  1.
        1   -1    0    0  501    0  0.00000000000E+00  0.00000000000E+00 -0.81731789549E+03  0.81731789550E+03  0.50400001928E-02 0. -1.
    10030    2    1    2    0    0  0.00000000000E+00  0.00000000000E+00 -0.30049996777E+03  0.13341358232E+04  0.12998531318E+04 0.  0.
        1    1    3    3  502    0 -0.48727719574E+03 -0.22026943162E+03  0.22887946770E+03  0.58167301704E+03  0.50400001928E-02 0.  1.
       -1    1    3    3    0  502  0.48727719574E+03  0.22026943162E+03 -0.52937943547E+03  0.75246280620E+03  0.50400001928E-02 0. -1.
</event>
<event>
 5   0  0.6688086E-05  0.1300080E+04  0.7818609E-02  0.9029502E-01
        2   -1    0    0  501    0  0.00000000000E+00  0.00000000000E+00  0.51968598422E+03  0.51968598423E+03  0.25500000920E-02 0.  1.
       -2   -1    0    0    0  501  0.00000000000E+00  0.00000000000E+00 -0.81309075941E+03  0.81309075942E+03  0.25500000920E-02 0. -1.
    10030    2    1    2    0    0  0.00000000000E+00  0.00000000000E+00 -0.29340477519E+03  0.13327767436E+04  0.13000798000E+04 0.  0.
        5    1    3    3  502    0  0.73068817952E+02 -0.58919875525E+03 -0.41800044653E+03  0.72611341307E+03  0.46999998093E+01 0. -1.
       -5    1    3    3    0  502 -0.73068817952E+02  0.58919875525E+03  0.12459567134E+03  0.60666333057E+03  0.46999998093E+01 0.  1.
</event>
<event>
 5   0  0.3551277E-05  0.1299000E+04  0.7818609E-02  0.9030359E-01
        1   -1    0    0  501    0  0.00000000000E+00  0.00000000000E+00  0.57507810823E+03  0.57507810826E+03  0.50400001928E-02 0. -1.
       -1   -1    0    0    0  501  0.00000000000E+00  0.00000000000E+00 -0.73355294914E+03  0.73355294916E+03  0.50400001928E-02 0.  1.
    10030    2    1    2    0    0  0.00000000000E+00  0.00000000000E+00 -0.15847484091E+03  0.13086310574E+04  0.12989999882E+04 0.  0.
        4    1    3    3  502    0  0.63294443463E+03 -0.10646436078E+02 -0.22563042853E+03  0.67204367946E+03  0.12699999809E+01 0.  1.
       -4    1    3    3    0  502 -0.63294443463E+03  0.10646436078E+02  0.67155587618E+02  0.63658737796E+03  0.12699999809E+01 0. -1.
</event>
<event>
 5   0  0.3689707E-05  0.1300103E+04  0.7818609E-02  0.9029484E-01
        1   -1    0    0  501    0  0.00000000000E+00  0.00000000000E+00  0.10710634488E+04  0.10710634488E+04  0.50400001928E-02 0.  1.
       -1   -1    0    0    0  501  0.00000000000E+00  0.00000000000E+00 -0.39453005923E+03  0.39453005927E+03  0.50400001928E-02 0. -1.
    10030    2    1    2    0    0  0.00000000000E+00  0.00000000000E+00  0.67653338959E+03  0.14655935081E+04  0.13001026512E+04 0.  0.
        1    1    3    3  502    0 -0.32969325167E+03  0.34718514204E+02 -0.29207295694E+03  0.44182533611E+03  0.50400001928E-02 0. -1.
       -1    1    3    3    0  502  0.32969325167E+03 -0.34718514204E+02  0.96860634654E+03  0.10237681720E+04  0.50400001928E-02 0.  1.
</event>
<event>
 5   0  0.6742824E-05  0.1300300E+04  0.7818609E-02  0.9029327E-01
       -2   -1    0    0    0  501  0.00000000000E+00  0.00000000000E+00  0.12368765174E+04  0.12368765174E+04  0.25500000920E-02 0. -1.
        2   -1    0    0  501    0  0.00000000000E+00  0.00000000000E+00 -0.34174387049E+03  0.34174387050E+03  0.25500000920E-02 0.  1.
    10030    2    1    2    0    0  0.00000000000E+00  0.00000000000E+00  0.89513264694E+03  0.15786203879E+04  0.13002999168E+04 0.  0.
        4    1    3    3  502    0  0.51362421838E+03 -0.34061250633E+03  0.19620764403E+03  0.64678108325E+03  0.12699999809E+01 0.  1.
       -4    1    3    3    0  502 -0.51362421838E+03  0.34061250633E+03  0.69892500291E+03  0.93183930469E+03  0.12699999809E+01 0. -1.
</event>
<event>
 5   0  0.3689707E-05  0.1300984E+04  0.7818609E-02  0.9028786E-01
        1   -1    0    0  501    0  0.00000000000E+00  0.00000000000E+00  0.34444560879E+03  0.34444560883E+03  0.50400001928E-02 0.  1.
       -1   -1    0    0    0  501  0.00000000000E+00  0.00000000000E+00 -0.12284656112E+04  0.12284656112E+04  0.50400001928E-02 0. -1.
    10030    2    1    2    0    0  0.00000000000E+00  0.00000000000E+00 -0.88402000242E+03  0.15729112200E+04  0.13009836054E+04 0.  0.
        1    1    3    3  502    0 -0.42823227284E+03  0.48210308695E+03 -0.33847607418E+03  0.72826665361E+03  0.50400001928E-02 0. -1.
       -1    1    3    3    0  502  0.42823227284E+03 -0.48210308695E+03 -0.54554392823E+03  0.84464456643E+03  0.50400001928E-02 0.  1.
</event>
<event>
 5   0  0.3689707E-05  0.1302560E+04  0.7818609E-02  0.9027538E-01
        1   -1    0    0  501    0  0.00000000000E+00  0.00000000000E+00  0.15843450949E+04  0.15843450949E+04  0.50400001928E-02 0. -1.
       -1   -1    0    0    0  501  0.00000000000E+00  0.00000000000E+00 -0.26772290580E+03  0.26772290585E+03  0.50400001928E-02 0.  1.
    10030    2    1    2    0    0  0.00000000000E+00  0.00000000000E+00  0.13166221891E+04  0.18520680008E+04  0.13025597455E+04 0.  0.
        1    1    3    3  502    0  0.30027883930E+03  0.18787058537E+03 -0.11879242313E+03  0.37359654442E+03  0.50400001928E-02 0.  1.
       -1    1    3    3    0  502 -0.30027883930E+03 -0.18787058537E+03  0.14354146122E+04  0.14784714563E+04  0.50400001928E-02 0. -1.
</event>
<event>
 5   0  0.3689707E-05  0.1299453E+04  0.7818609E-02  0.9029999E-01
        1   -1    0    0  501    0  0.00000000000E+00  0.00000000000E+00  0.84941601073E+03  0.84941601074E+03  0.50400001928E-02 0. -1.
       -1   -1    0    0    0  501  0.00000000000E+00  0.00000000000E+00 -0.49698239912E+03  0.49698239915E+03  0.50400001928E-02 0.  1.
    10030    2    1    2    0    0  0.00000000000E+00  0.00000000000E+00  0.35243361161E+03  0.13463984099E+04  0.12994534342E+04 0.  0.
        1    1    3    3  502    0  0.23761356559E+03 -0.48271353486E+03 -0.20118407165E+03  0.57441064928E+03  0.50400001928E-02 0.  1.
       -1    1    3    3    0  502 -0.23761356559E+03  0.48271353486E+03  0.55361768326E+03  0.77198776061E+03  0.50400001928E-02 0. -1.
</event>
<event>
 5   0  0.3552698E-05  0.1299511E+04  0.7818609E-02  0.9029953E-01
       -1   -1    0    0    0  501  0.00000000000E+00  0.00000000000E+00  0.49282594699E+03  0.49282594702E+03  0.50400001928E-02 0. -1.
        1   -1    0    0  501    0  0.00000000000E+00  0.00000000000E+00 -0.85665623855E+03  0.85665623856E+03  0.50400001928E-02 0.  1.
    10030    2    1    2    0    0  0.00000000000E+00  0.00000000000E+00 -0.36383029155E+03  0.13494821856E+04  0.12995113267E+04 0.  0.
        5    1    3    3  502    0 -0.36950622856E+03  0.99889664662E+02  0.36329526791E+03  0.52774836781E+03  0.46999998093E+01 0. -1.
       -5    1    3    3    0  502  0.36950622856E+03 -0.99889664662E+02 -0.72712555946E+03  0.82173381777E+03  0.46999998093E+01 0.  1.
</event>
<event>
 5   0  0.3552698E-05  0.1299756E+04  0.7818609E-02  0.9029758E-01
        1   -1    0    0  501    0  0.00000000000E+00  0.00000000000E+00  0.53586001201E+03  0.53586001203E+03  0.50400001928E-02 0.  1.
       -1   -1    0    0    0  501  0.00000000000E+00  0.00000000000E+00 -0.78815661476E+03  0.78815661478E+03  0.50400001928E-02 0. -1.
    10030    2    1    2    0    0  0.00000000000E+00  0.00000000000E+00 -0.25229660276E+03  0.13240166268E+04  0.12997563050E+04 0.  0.
        5    1    3    3  502    0 -0.13085934081E+03  0.44155530758E+03 -0.59320857444E+03  0.75100849497E+03  0.46999998093E+01 0. -1.
       -5    1    3    3    0  502  0.13085934081E+03 -0.44155530758E+03  0.34091197168E+03  0.57300813185E+03  0.46999998093E+01 0.  1.
</event>
<event>
 5   0  0.3718559E-05  0.1300022E+04  0.7818609E-02  0.9029547E-01
       -1   -1    0    0    0  501  0.00000000000E+00  0.00000000000E+00  0.13785531274E+03  0.13785531283E+03  0.50400001928E-02 0.  1.
        1   -1    0    0  501    0  0.00000000000E+00  0.00000000000E+00 -0.30649125339E+04  0.30649125339E+04  0.50400001928E-02 0. -1.
    10030    2    1    2    0    0  0.00000000000E+00  0.00000000000E+00 -0.29270572211E+04  0.32027678467E+04  0.13000222706E+04 0.  0.
        2    1    3    3  502    0  0.59146334956E+02 -0.60979722276E+03 -0.92849897517E+03  0.11124123735E+04  0.25500000920E-02 0.  1.
       -2    1    3    3    0  502 -0.59146334956E+02  0.60979722276E+03 -0.19985582460E+04  0.20903554732E+04  0.25500000920E-02 0. -1.
</event>
<event>
 5   0  0.3718559E-05  0.1300554E+04  0.7818609E-02  0.9029126E-01
       -1   -1    0    0    0  501  0.00000000000E+00  0.00000000000E+00  0.28056601317E+03  0.28056601322E+03  0.50400001928E-02 0. -1.
        1   -1    0    0  501    0  0.00000000000E+00  0.00000000000E+00 -0.15071680046E+04  0.15071680046E+04  0.50400001928E-02 0.  1.
    10030    2    1    2    0    0  0.00000000000E+00  0.00000000000E+00 -0.12266019914E+04  0.17877340178E+04  0.13005539101E+04 0.  0.
        2    1    3    3  502    0  0.44177122889E+03 -0.69407427922E+02 -0.12622506117E+04  0.13391250190E+04  0.25500000920E-02 0.  1.
       -2    1    3    3    0  502 -0.44177122889E+03  0.69407427922E+02  0.35648620252E+02  0.44860899886E+03  0.25500000920E-02 0. -1.
</event>
<event>
 5   0  0.3718559E-05  0.1299634E+04  0.7818609E-02  0.9029855E-01
       -1   -1    0    0    0  501  0.00000000000E+00  0.00000000000E+00  0.32303406868E+03  0.32303406872E+03  0.50400001928E-02 0. -1.
        1   -1    0    0  501    0  0.00000000000E+00  0.00000000000E+00 -0.13071755603E+04  0.13071755603E+04  0.50400001928E-02 0.  1.
    10030    2    1    2    0    0  0.00000000000E+00  0.00000000000E+00 -0.98414149159E+03  0.16302096290E+04  0.12996341635E+04 0.  0.
        2    1    3    3  502    0 -0.50760272606E+03 -0.40325783588E+03 -0.43618719449E+03  0.78136846516E+03  0.25500000920E-02 0.  1.
       -2    1    3    3    0  502  0.50760272606E+03  0.40325783588E+03 -0.54795429709E+03  0.84884116383E+03  0.25500000920E-02 0. -1.
</event>
<event>
 5   0  0.6688086E-05  0.1300264E+04  0.7818609E-02  0.9029355E-01
        2   -1    0    0  501    0  0.00000000000E+00  0.00000000000E+00  0.14782079073E+04  0.14782079073E+04  0.25500000920E-02 0. -1.
       -2   -1    0    0    0  501  0.00000000000E+00  0.00000000000E+00 -0.28593536323E+03  0.28593536324E+03  0.25500000920E-02 0.  1.
    10030    2    1    2    0    0  0.00000000000E+00  0.00000000000E+00  0.11922725440E+04  0.17641432705E+04  0.13002644576E+04 0.  0.
        5    1    3    3  502    0 -0.23003859837E+03 -0.31812213023E+03  0.12992067673E+04  0.13572323901E+04  0.46999998093E+01 0. -1.
       -5    1    3    3    0  502  0.23003859837E+03  0.31812213023E+03 -0.10693422329E+03  0.40691088041E+03  0.46999998093E+01 0.  1.
</event>
<event>
 5   0  0.3689707E-05  0.1298313E+04  0.7818609E-02  0.9030904E-01
        1   -1    0    0  501    0  0.00000000000E+00  0.00000000000E+00  0.78096756068E+03  0.78096756070E+03  0.50400001928E-02 0.  1.
       -1   -1    0    0    0  501  0.00000000000E+00  0.00000000000E+00 -0.53959219060E+03  0.53959219063E+03  0.50400001928E-02 0. -1.
    10030    2    1    2    0    0  0.00000000000E+00  0.00000000000E+00  0.24137537008E+03  0.13205597513E+04  0.12983127464E+04 0.  0.
        1    1    3    3  502    0  0.26127595131E+03  0.18248072490E+03  0.69592214186E+03  0.76542273630E+03  0.50400001928E-02 0.  1.
       -1    1    3    3    0  502 -0.26127595131E+03 -0.18248072490E+03 -0.45454677178E+03  0.55513701502E+03  0.50400001928E-02 0. -1.
</event>
<event>
 5   0  0.3552698E-05  0.1299693E+04  0.7818609E-02  0.9029808E-01
        1   -1    0    0  501    0  0.00000000000E+00  0.00000000000E+00  0.41672877690E+03  0.41672877693E+03  0.50400001928E-02 0. -1.
       -1   -1    0    0    0  501  0.00000000000E+00  0.00000000000E+00 -0.10133705005E+04  0.10133705005E+04  0.50400001928E-02 0.  1.
    10030    2    1    2    0    0  0.00000000000E+00  0.00000000000E+00 -0.59664172363E+03  0.14300992775E+04  0.12996932704E+04 0.  0.
        5    1    3    3  502    0 -0.64459363786E+03 -0.74663574416E+02 -0.33648447248E+03  0.73097161199E+03  0.46999998093E+01 0.  1.
       -5    1    3    3    0  502  0.64459363786E+03  0.74663574416E+02 -0.26015725115E+03  0.69912766548E+03  0.46999998093E+01 0. -1.
</event>
<event>
 5   0  0.6458698E-05  0.1300381E+04  0.7818609E-02  0.9029263E-01
       -2   -1    0    0    0  501  0.00000000000E+00  0.00000000000E+00  0.11919223879E+04  0.11919223879E+04  0.25500000920E-02 0.  1.
        2   -1    0    0  501    0  0.00000000000E+00  0.00000000000E+00 -0.35467746081E+03  0.35467746081E+03  0.25500000920E-02 0. -1.
    10030    2    1    2    0    0  0.00000000000E+00  0.00000000000E+00  0.83724492707E+03  0.15465998487E+04  0.13003814917E+04 0.  0.
        3    1    3    3  502    0 -0.13055781891E+03 -0.53390137598E+02  0.11735061220E+04  0.11819528245E+04  0.10100000352E+00 0.  1.
       -3    1    3    3    0  502  0.13055781891E+03  0.53390137598E+02 -0.33626119488E+03  0.36464702420E+03  0.10100000352E+00 0. -1.
</event>
<event>
 5   0  0.3551277E-05  0.1300022E+04  0.7818609E-02  0.9029548E-01
        1   -1    0    0  501    0  0.00000000000E+00  0.00000000000E+00  0.91170429602E+03  0.91170429604E+03  0.50400001928E-02 0.  1.
       -1   -1    0    0    0  501  0.00000000000E+00  0.00000000000E+00 -0.46343339956E+03  0.46343339959E+03  0.50400001928E-02 0. -1.
    10030    2    1    2    0    0  0.00000000000E+00  0.00000000000E+00  0.44827089646E+03  0.13751376956E+04  0.13000218788E+04 0.  0.
        4    1    3    3  502    0  0.50020035563E+03 -0.34996556478E+03  0.46027486805E+03  0.76454617870E+03  0.12699999809E+01 0.  1.
       -4    1    3    3    0  502 -0.50020035563E+03  0.34996556478E+03 -0.12003971597E+02  0.61059151692E+03  0.12699999809E+01 0. -1.
</event>
<event>
 5   0  0.6742824E-05  0.1299985E+04  0.7818609E-02  0.9029577E-01
       -2   -1    0    0    0  501  0.00000000000E+00  0.00000000000E+00  0.37975124252E+03  0.37975124253E+03  0.25500000920E-02 0. -1.
        2   -1    0    0  501    0  0.00000000000E+00  0.00000000000E+00 -0.11125451577E+04  0.11125451577E+04  0.25500000920E-02 0.  1.
    10030    2    1    2    0    0  0.00000000000E+00  0.00000000000E+00 -0.73279391517E+03  0.14922964002E+04  0.12999852399E+04 0.  0.
        4    1    3    3  502    0 -0.60450833165E+02  0.52523251868E+03  0.67645262919E+02  0.53301125354E+03  0.12699999809E+01 0. -1.
       -4    1    3    3    0  502  0.60450833165E+02 -0.52523251868E+03 -0.80043917809E+03  0.95928514667E+03  0.12699999809E+01 0.  1.
</event>
<event>
 5   0  0.6671239E-05  0.1300353E+04  0.7818609E-02  0.9029286E-01
       -2   -1    0    0    0  501  0.00000000000E+00  0.00000000000E+00  0.40065425738E+03  0.40065425738E+03  0.25500000920E-02 0.  1.
        2   -1    0    0  501    0  0.00000000000E+00  0.00000000000E+00 -0.10550974146E+04  0.10550974146E+04  0.25500000920E-02 0. -1.
    10030    2    1    2    0    0  0.00000000000E+00  0.00000000000E+00 -0.65444315727E+03  0.14557516720E+04  0.13003526770E+04 0.  0.
        1    1    3    3  502    0  0.11879533723E+03 -0.12914164812E+03  0.37364538386E+03  0.41279628188E+03  0.50400001928E-02 0.  1.
       -1    1    3    3    0  502 -0.11879533723E+03  0.12914164812E+03 -0.10280885411E+04  0.10429553902E+04  0.50400001928E-02 0. -1.
</event>
<event>
 5   0  0.3631841E-05  0.1300419E+04  0.7818609E-02  0.9029233E-01
        1   -1    0    0  501    0  0.00000000000E+00  0.00000000000E+00  0.86767365655E+03  0.86767365657E+03  0.50400001928E-02 0. -1.
       -1   -1    0    0    0  501  0.00000000000E+00  0.00000000000E+00 -0.48724807763E+03  0.48724807765E+03  0.50400001928E-02 0.  1.
    10030    2    1    2    0    0  0.00000000000E+00  0.00000000000E+00  0.38042557893E+03  0.13549217342E+04  0.13004188882E+04 0.  0.
        3    1    3    3  502    0  0.27224829471E+02 -0.35577460807E+03  0.75655250081E+03  0.83647382492E+03  0.10100000352E+00 0. -1.
       -3    1    3    3    0  502 -0.27224829471E+02  0.35577460807E+03 -0.37612692189E+03  0.51844790930E+03  0.10100000352E+00 0.  1.
</event>
<event>
 5   0  0.6458698E-05  0.1299906E+04  0.7818609E-02  0.9029640E-01
       -2   -1    0    0    0  501  0.00000000000E+00  0.00000000000E+00  0.86919049681E+03  0.86919049681E+03  0.25500000920E-02 0. -1.
        2   -1    0    0  501    0  0.00000000000E+00  0.00000000000E+00 -0.48601399272E+03  0.48601399273E+03  0.25500000920E-02 0.  1.
    10030    2    1    2    0    0  0.00000000000E+00  0.00000000000E+00  0.38317650409E+03  0.13552044895E+04  0.12999057563E+04 0.  0.
        3    1    3    3  502    0  0.18793434495E+03  0.49315386433E+03 -0.20391635877E+03  0.56577552394E+03  0.10100000352E+00 0. -1.
       -3    1    3    3    0  502 -0.18793434495E+03 -0.49315386433E+03  0.58709286286E+03  0.78942896560E+03  0.10100000352E+00 0.  1.
</event>
<event>
 5   0  0.3551277E-05  0.1299607E+04  0.7818609E-02  0.9029877E-01
       -1   -1    0    0    0  501  0.00000000000E+00  0.00000000000E+00  0.48029654106E+03  0.48029654108E+03  0.50400001928E-02 0. -1.
        1   -1    0    0  501    0  0.00000000000E+00  0.00000000000E+00 -0.87913317373E+03  0.87913317375E+03  0.50400001928E-02 0.  1.
    10030    2    1    2    0    0  0.00000000000E+00  0.00000000000E+00 -0.39883663268E+03  0.13594297148E+04  0.12996070522E+04 0.  0.
        4    1    3    3  502    0 -0.10075916090E+03 -0.33750070774E+03 -0.77061644408E+03  0.84729596541E+03  0.12699999809E+01 0.  1.
       -4    1    3    3    0  502  0.10075916090E+03  0.33750070774E+03  0.37177981140E+03  0.51213374942E+03  0.12699999809E+01 0. -1.
</event>
<event>
 5   0  0.6618060E-05  0.1300035E+04  0.7818609E-02  0.9029537E-01
        2   -1    0    0  501    0  0.00000000000E+00  0.00000000000E+00  0.15155128546E+04  0.15155128546E+04  0.25500000920E-02 0. -1.
       -2   -1    0    0    0  501  0.00000000000E+00  0.00000000000E+00 -0.27879862803E+03  0.27879862804E+03  0.25500000920E-02 0.  1.
    10030    2    1    2    0    0  0.00000000000E+00  0.00000000000E+00  0.12367142266E+04  0.17943114826E+04  0.13000352374E+04 0.  0.
        2    1    3    3  502    0  0.28807879722E+03 -0.47497460907E+03  0.15248493271E+03  0.57605722579E+03  0.25500000920E-02 0.  1.
       -2    1    3    3    0  502 -0.28807879722E+03  0.47497460907E+03  0.10842292939E+04  0.12182542569E+04  0.25500000920E-02 0. -1.
</event>
<event>
 5   0  0.3551277E-05  0.1300273E+04  0.7818609E-02  0.9029349E-01
        1   -1    0    0  501    0  0.00000000000E+00  0.00000000000E+00  0.14533889291E+04  0.14533889291E+04  0.50400001928E-02 0.  1.
       -1   -1    0    0    0  501  0.00000000000E+00  0.00000000000E+00 -0.29082198564E+03  0.29082198568E+03  0.50400001928E-02 0. -1.
    10030    2    1    2    0    0  0.00000000000E+00  0.00000000000E+00  0.11625669434E+04  0.17442109148E+04  0.13002729780E+04 0.  0.
        4    1    3    3  502    0  0.19440285636E+03  0.86185517077E+02  0.14054164629E+04  0.14214138951E+04  0.12699999809E+01 0.  1.
       -4    1    3    3    0  502 -0.19440285636E+03 -0.86185517077E+02 -0.24284951949E+03  0.32279701970E+03  0.12699999809E+01 0. -1.
</event>
<event>
 5   0  0.3551277E-05  0.1299846E+04  0.7818609E-02  0.9029688E-01
       -1   -1    0    0    0  501  0.00000000000E+00  0.00000000000E+00  0.19635128527E+03  0.19635128534E+03  0.50400001928E-02 0. -1.
        1   -1    0    0  501    0  0.00000000000E+00  0.00000000000E+00 -0.21512450500E+04  0.21512450500E+04  0.50400001928E-02 0.  1.
    10030    2    1    2    0    0  0.00000000000E+00  0.00000000000E+00 -0.19548937647E+04  0.23475963353E+04  0.12998457302E+04 0.  0.
        4    1    3    3  502    0  0.32616941518E+03  0.53393313401E+03 -0.65983204679E+03  0.90931348932E+03  0.12699999809E+01 0. -1.
       -4    1    3    3    0  502 -0.32616941518E+03 -0.53393313401E+03 -0.12950617179E+04  0.14382828460E+04  0.12699999809E+01 0.  1.
</event>
<event>
 5   0  0.3718559E-05  0.1297814E+04  0.7818609E-02  0.9031300E-01
        1   -1    0    0  501    0  0.00000000000E+00  0.00000000000E+00  0.66358375641E+03  0.66358375643E+03  0.50400001928E-02 0.  1.
       -1   -1    0    0    0  501  0.00000000000E+00  0.00000000000E+00 -0.63455507634E+03  0.63455507636E+03  0.50400001928E-02 0. -1.
    10030    2    1    2    0    0  0.00000000000E+00  0.00000000000E+00  0.29028680063E+02  0.12981388328E+04  0.12978142259E+04 0.  0.
        2    1    3    3  502    0  0.47778434582E+03 -0.26961371176E+03  0.36117137220E+03  0.65682128070E+03  0.25500000920E-02 0.  1.
       -2    1    3    3    0  502 -0.47778434582E+03  0.26961371176E+03 -0.33214269213E+03  0.64131755209E+03  0.25500000920E-02 0. -1.
</event>
<event>
 5   0  0.6618060E-05  0.1299837E+04  0.7818609E-02  0.9029695E-01
       -2   -1    0    0    0  501  0.00000000000E+00  0.00000000000E+00  0.52240499535E+03  0.52240499536E+03  0.25500000920E-02 0.  1.
        2   -1    0    0  501    0  0.00000000000E+00  0.00000000000E+00 -0.80855614262E+03  0.80855614262E+03  0.25500000920E-02 0. -1.
    10030    2    1    2    0    0  0.00000000000E+00  0.00000000000E+00 -0.28615114727E+03  0.13309611380E+04  0.12998365558E+04 0.  0.
        2    1    3    3  502    0  0.22660418289E+03  0.58794035415E+03  0.20019458323E+02  0.63041581077E+03  0.25500000920E-02 0.  1.
       -2    1    3    3    0  502 -0.22660418289E+03 -0.58794035415E+03 -0.30617060559E+03  0.70054532721E+03  0.25500000920E-02 0. -1.
</event>
<event>
 5   0  0.6671239E-05  0.1299601E+04  0.7818609E-02  0.9029881E-01
        2   -1    0    0  501    0  0.00000000000E+00  0.00000000000E+00  0.23626384206E+04  0.23626384206E+04  0.25500000920E-02 0.  1.
       -2   -1    0    0    0  501  0.00000000000E+00  0.00000000000E+00 -0.17871585471E+03  0.17871585472E+03  0.25500000920E-02 0. -1.
    10030    2    1    2    0    0  0.00000000000E+00  0.00000000000E+00  0.21839225659E+04  0.25413542753E+04  0.12996013923E+04 0.  0.
        1    1    3    3  502    0 -0.14655376845E+03 -0.16385087859E+03  0.22877156290E+04  0.22982532316E+04  0.50400001928E-02 0.  1.
       -1    1    3    3    0  502  0.14655376845E+03  0.16385087859E+03 -0.10379306313E+03  0.24310104368E+03  0.50400001928E-02 0. -1.
</event>
<event>
 5   0  0.2512000E-05  0.1299460E+04  0.7818609E-02  0.9029994E-01
       -4   -1    0    0    0  501  0.00000000000E+00  0.00000000000E+00  0.55292231756E+03  0.55292377608E+03  0.12699999809E+01 0.  1.
        4   -1    0    0  501    0  0.00000000000E+00  0.00000000000E+00 -0.76348371812E+03  0.76348477440E+03  0.12699999809E+01 0. -1.
    10030    2    1    2    0    0  0.00000000000E+00  0.00000000000E+00 -0.21056140057E+03  0.13164085505E+04  0.12994596448E+04 0.  0.
        2    1    3    3  502    0  0.39115610318E+03  0.48394555134E+03 -0.29464781568E+03  0.68849381189E+03  0.25500000920E-02 0. -1.
       -2    1    3    3    0  502 -0.39115610318E+03 -0.48394555134E+03  0.84086415118E+02  0.62791473859E+03  0.25500000920E-02 0.  1.
</event>
<event>
 5   0  0.6671239E-05  0.1299336E+04  0.7818609E-02  0.9030092E-01
        2   -1    0    0  501    0  0.00000000000E+00  0.00000000000E+00  0.76521386101E+03  0.76521386102E+03  0.25500000920E-02 0. -1.
       -2   -1    0    0    0  501  0.00000000000E+00  0.00000000000E+00 -0.55156909207E+03  0.55156909208E+03  0.25500000920E-02 0.  1.
    10030    2    1    2    0    0  0.00000000000E+00  0.00000000000E+00  0.21364476894E+03  0.13167829531E+04  0.12993356988E+04 0.  0.
        1    1    3    3  502    0  0.32383969716E+03 -0.45819211346E+03  0.43871984639E+03  0.71224101674E+03  0.50400001928E-02 0. -1.
       -1    1    3    3    0  502 -0.32383969716E+03  0.45819211346E+03 -0.22507507745E+03  0.60454193635E+03  0.50400001928E-02 0.  1.
</event>
<event>
 5   0  0.3689707E-05  0.1304505E+04  0.7818609E-02  0.9026001E-01
        1   -1    0    0  501    0  0.00000000000E+00  0.00000000000E+00  0.11628910173E+04  0.11628910173E+04  0.50400001928E-02 0.  1.
       -1   -1    0    0    0  501  0.00000000000E+00  0.00000000000E+00 -0.36584082916E+03  0.36584082920E+03  0.50400001928E-02 0. -1.
    10030    2    1    2    0    0  0.00000000000E+00  0.00000000000E+00  0.79705018815E+03  0.15287318465E+04  0.13045045252E+04 0.  0.
        1    1    3    3  502    0  0.34596007806E+03  0.34788269407E+03 -0.10514405587E+03  0.50176290911E+03  0.50400001928E-02 0. -1.
       -1    1    3    3    0  502 -0.34596007806E+03 -0.34788269407E+03  0.90219424402E+03  0.10269689374E+04  0.50400001928E-02 0.  1.
</event>
<event>
 5   0  0.6688086E-05  0.1299802E+04  0.7818609E-02  0.9029722E-01
        2   -1    0    0  501    0  0.00000000000E+00  0.00000000000E+00  0.60421810455E+03  0.60421810455E+03  0.25500000920E-02 0. -1.
       -2   -1    0    0    0  501  0.00000000000E+00  0.00000000000E+00 -0.69903756364E+03  0.69903756364E+03  0.25500000920E-02 0.  1.
    10030    2    1    2    0    0  0.00000000000E+00  0.00000000000E+00 -0.94819459089E+02  0.13032556682E+04  0.12998017568E+04 0.  0.
        5    1    3    3  502    0 -0.54418287000E+03 -0.26191566271E+03  0.19325778025E+03  0.63411786759E+03  0.46999998093E+01 0. -1.
       -5    1    3    3    0  502  0.54418287000E+03  0.26191566271E+03 -0.28807723934E+03  0.66913780060E+03  0.46999998093E+01 0.  1.
</event>
<event>
 5   0  0.2512000E-05  0.1300632E+04  0.7818609E-02  0.9029064E-01
       -3   -1    0    0    0  501  0.00000000000E+00  0.00000000000E+00  0.41166135331E+03  0.41166136570E+03  0.10100000352E+00 0.  1.
        3   -1    0    0  501    0  0.00000000000E+00  0.00000000000E+00 -0.10273270978E+04  0.10273271028E+04  0.10100000352E+00 0. -1.
    10030    2    1    2    0    0  0.00000000000E+00  0.00000000000E+00 -0.61566574451E+03  0.14389884685E+04  0.13006319631E+04 0.  0.
        4    1    3    3  502    0  0.33267163241E+03 -0.31397467410E+03  0.20357008456E+03  0.50069242377E+03  0.12699999809E+01 0.  1.
       -4    1    3    3    0  502 -0.33267163241E+03  0.31397467410E+03 -0.81923582907E+03  0.93829604471E+03  0.12699999809E+01 0. -1.
</event>
<event>
 5   0  0.6742824E-05  0.1299884E+04  0.7818609E-02  0.9029657E-01
       -2   -1    0    0    0  501  0.00000000000E+00  0.00000000000E+00  0.66221909288E+03  0.66221909288E+03  0.25500000920E-02 0. -1.
        2   -1    0    0  501    0  0.00000000000E+00  0.00000000000E+00 -0.63789216859E+03  0.63789216860E+03  0.25500000920E-02 0.  1.
    10030    2    1    2    0    0  0.00000000000E+00  0.00000000000E+00  0.24326924284E+02  0.13001112615E+04  0.12998836459E+04 0.  0.
        4    1    3    3  502    0 -0.57710983972E+03 -0.13946243736E+03 -0.25230148751E+03  0.64510711672E+03  0.12699999809E+01 0.  1.
       -4    1    3    3    0  502  0.57710983972E+03  0.13946243736E+03  0.27662841179E+03  0.65500414476E+03  0.12699999809E+01 0. -1.
</event>
<event>
 5   0  0.6742824E-05  0.1300081E+04  0.7818609E-02  0.9029501E-01
        2   -1    0    0  501    0  0.00000000000E+00  0.00000000000E+00  0.78392426120E+03  0.78392426121E+03  0.25500000920E-02 0.  1.
       -2   -1    0    0    0  501  0.00000000000E+00  0.00000000000E+00 -0.53902264588E+03  0.53902264589E+03  0.25500000920E-02 0. -1.
    10030    2    1    2    0    0  0.00000000000E+00  0.00000000000E+00  0.24490161532E+03  0.13229469071E+04  0.13000814274E+04 0.  0.
        4    1    3    3  502    0 -0.26872591933E+03  0.57130476739E+02 -0.47704034756E+03  0.55049670044E+03  0.12699999809E+01 0. -1.
       -4    1    3    3    0  502  0.26872591933E+03 -0.57130476739E+02  0.72194196289E+03  0.77245020666E+03  0.12699999809E+01 0.  1.
</event>
<event>
 5   0  0.3718559E-05  0.1300111E+04  0.7818609E-02  0.9029477E-01
       -1   -1    0    0    0  501  0.00000000000E+00  0.00000000000E+00  0.80028924333E+03  0.80028924335E+03  0.50400001928E-02 0.  1.
        1   -1    0    0  501    0  0.00000000000E+00  0.00000000000E+00 -0.52802448710E+03  0.52802448713E+03  0.50400001928E-02 0. -1.
    10030    2    1    2    0    0  0.00000000000E+00  0.00000000000E+00  0.27226475623E+03  0.13283137305E+04  0.13001112526E+04 0.  0.
        2    1    3    3  502    0 -0.31010963790E+03 -0.48148061069E+03 -0.17807872282E+03  0.59975294707E+03  0.25500000920E-02 0. -1.
       -2    1    3    3    0  502  0.31010963790E+03  0.48148061069E+03  0.45034347905E+03  0.72856078341E+03  0.25500000920E-02 0.  1.
</event>
<event>
 5   0  0.3689707E-05  0.1299715E+04  0.7818609E-02  0.9029791E-01
        1   -1    0    0  501    0  0.00000000000E+00  0.00000000000E+00  0.23489989939E+03  0.23489989945E+03  0.50400001928E-02 0.  1.
       -1   -1    0    0    0  501  0.00000000000E+00  0.00000000000E+00 -0.17978503400E+04  0.17978503400E+04  0.50400001928E-02 0. -1.
    10030    2    1    2    0    0  0.00000000000E+00  0.00000000000E+00 -0.15629504406E+04  0.20327502395E+04  0.12997151443E+04 0.  0.
        1    1    3    3  502    0 -0.41895178695E+03 -0.50966841342E+02 -0.15543438649E+04  0.16106219511E+04  0.50400001928E-02 0. -1.
       -1    1    3    3    0  502  0.41895178695E+03  0.50966841342E+02 -0.86065756696E+01  0.42212828841E+03  0.50400001928E-02 0.  1.
</event>
<event>
 5   0  0.3552698E-05  0.1300930E+04  0.7818609E-02  0.9028828E-01
       -1   -1    0    0    0  501  0.00000000000E+00  0.00000000000E+00  0.47686198565E+03  0.47686198568E+03  0.50400001928E-02 0.  1.
        1   -1    0    0  501    0  0.00000000000E+00  0.00000000000E+00 -0.88726898092E+03  0.88726898093E+03  0.50400001928E-02 0. -1.
    10030    2    1    2    0    0  0.00000000000E+00  0.00000000000E+00 -0.41040699527E+03  0.13641309666E+04  0.13009302027E+04 0.  0.
        5    1    3    3  502    0  0.19262059624E+03 -0.30694105336E+03 -0.77159971607E+03  0.85246918781E+03  0.46999998093E+01 0. -1.
       -5    1    3    3    0  502 -0.19262059624E+03  0.30694105336E+03  0.36119272080E+03  0.51166177880E+03  0.46999998093E+01 0.  1.
</event>
<event>
 5   0  0.6742824E-05  0.1299957E+04  0.7818609E-02  0.9029600E-01
       -2   -1    0    0    0  501  0.00000000000E+00  0.00000000000E+00  0.74074939664E+03  0.74074939664E+03  0.25500000920E-02 0. -1.
        2   -1    0    0  501    0  0.00000000000E+00  0.00000000000E+00 -0.57033023520E+03  0.57033023521E+03  0.25500000920E-02 0.  1.
    10030    2    1    2    0    0  0.00000000000E+00  0.00000000000E+00  0.17041916143E+03  0.13110796318E+04  0.12999565802E+04 0.  0.
        4    1    3    3  502    0  0.50561146927E+01 -0.51468261522E+03 -0.31510782541E+03  0.60350502337E+03  0.12699999809E+01 0.  1.
       -4    1    3    3    0  502 -0.50561146927E+01  0.51468261522E+03  0.48552698684E+03  0.70757460847E+03  0.12699999809E+01 0. -1.
</event>
<event>
 5   0  0.6688086E-05  0.1299200E+04  0.7818609E-02  0.9030200E-01
        2   -1    0    0  501    0  0.00000000000E+00  0.00000000000E+00  0.29797362853E+03  0.29797362854E+03  0.25500000920E-02 0. -1.
       -2   -1    0    0    0  501  0.00000000000E+00  0.00000000000E+00 -0.14161651341E+04  0.14161651341E+04  0.25500000920E-02 0.  1.
    10030    2    1    2    0    0  0.00000000000E+00  0.00000000000E+00 -0.11181915056E+04  0.17141387627E+04  0.12991995438E+04 0.  0.
        5    1    3    3  502    0 -0.55849235267E+03  0.15977758770E+03 -0.17553205420E+03  0.60685762546E+03  0.46999998093E+01 0. -1.
       -5    1    3    3    0  502  0.55849235267E+03 -0.15977758770E+03 -0.94265945141E+03  0.11072811372E+04  0.46999998093E+01 0.  1.
</event>
<event>
 5   0  0.6671239E-05  0.1298903E+04  0.7818609E-02  0.9030436E-01
        2   -1    0    0  501    0  0.00000000000E+00  0.00000000000E+00  0.58113306384E+03  0.58113306385E+03  0.25500000920E-02 0. -1.
       -2   -1    0    0    0  501  0.00000000000E+00  0.00000000000E+00 -0.72580100256E+03  0.72580100256E+03  0.25500000920E-02 0.  1.
    10030    2    1    2    0    0  0.00000000000E+00  0.00000000000E+00 -0.14466793871E+03  0.13069340664E+04  0.12989025527E+04 0.  0.
        1    1    3    3  502    0  0.61858867438E+03 -0.11265644480E+03  0.91286218188E+02  0.63535548812E+03  0.50400001928E-02 0. -1.
       -1    1    3    3    0  502 -0.61858867438E+03  0.11265644480E+03 -0.23595415690E+03  0.67157857829E+03  0.50400001928E-02 0.  1.
</event>
<event>
 5   0  0.6671239E-05  0.1300035E+04  0.7818609E-02  0.9029537E-01
        2   -1    0    0  501    0  0.00000000000E+00  0.00000000000E+00  0.14994448610E+04  0.14994448610E+04  0.25500000920E-02 0.  1.
       -2   -1    0    0    0  501  0.00000000000E+00  0.00000000000E+00 -0.28178631507E+03  0.28178631508E+03  0.25500000920E-02 0. -1.
    10030    2    1    2    0    0  0.00000000000E+00  0.00000000000E+00  0.12176585459E+04  0.17812311761E+04  0.13000354488E+04 0.  0.
        1    1    3    3  502    0 -0.27039923111E+03 -0.50400194131E+03  0.18565913080E+03  0.60133436116E+03  0.50400001928E-02 0. -1.
       -1    1    3    3    0  502  0.27039923111E+03  0.50400194131E+03  0.10319994151E+04  0.11798968149E+04  0.50400001928E-02 0.  1.
</event>
<event>
 5   0  0.3552698E-05  0.1299866E+04  0.7818609E-02  0.9029672E-01
        1   -1    0    0  501    0  0.00000000000E+00  0.00000000000E+00  0.19745371284E+04  0.19745371284E+04  0.50400001928E-02 0. -1.
       -1   -1    0    0    0  501  0.00000000000E+00  0.00000000000E+00 -0.21393002510E+03  0.21393002516E+03  0.50400001928E-02 0.  1.
    10030    2    1    2    0    0  0.00000000000E+00  0.00000000000E+00  0.17606071033E+04  0.21884671536E+04  0.12998658046E+04 0.  0.
        5    1    3    3  502    0  0.20982465601E+03 -0.61500628174E+03  0.86099153419E+03  0.10786971886E+04  0.46999998093E+01 0.  1.
       -5    1    3    3    0  502 -0.20982465601E+03  0.61500628174E+03  0.89961556911E+03  0.11097699649E+04  0.46999998093E+01 0. -1.
</event>
<event>
 5   0  0.3552698E-05  0.1300444E+04  0.7818609E-02  0.9029213E-01
       -1   -1    0    0    0  501  0.00000000000E+00  0.00000000000E+00  0.30550356754E+03  0.30550356759E+03  0.50400001928E-02 0. -1.
        1   -1    0    0  501    0  0.00000000000E+00  0.00000000000E+00 -0.13839073976E+04  0.13839073976E+04  0.50400001928E-02 0.  1.
    10030    2    1    2    0    0  0.00000000000E+00  0.00000000000E+00 -0.10784038300E+04  0.16894109652E+04  0.13004439967E+04 0.  0.
        5    1    3    3  502    0  0.13872160354E+03  0.12546789334E+03  0.26977613736E+03  0.32830950311E+03  0.46999998093E+01 0. -1.
       -5    1    3    3    0  502 -0.13872160354E+03 -0.12546789334E+03 -0.13481799674E+04  0.13611014620E+04  0.46999998093E+01 0.  1.
</event>
<event>
 5   0  0.6742824E-05  0.1299588E+04  0.7818609E-02  0.9029892E-01
       -2   -1    0    0    0  501  0.00000000000E+00  0.00000000000E+00  0.81728948103E+03  0.81728948103E+03  0.25500000920E-02 0. -1.
        2   -1    0    0  501    0  0.00000000000E+00  0.00000000000E+00 -0.51662547334E+03  0.51662547335E+03  0.25500000920E-02 0.  1.
    10030    2    1    2    0    0  0.00000000000E+00  0.00000000000E+00  0.30066400769E+03  0.13339149544E+04  0.12995884964E+04 0.  0.
        4    1    3    3  502    0  0.30590116286E+03  0.45002266547E+03  0.51486776772E+03  0.74912372276E+03  0.12699999809E+01 0. -1.
       -4    1    3    3    0  502 -0.30590116286E+03 -0.45002266547E+03 -0.21420376003E+03  0.58479123162E+03  0.12699999809E+01 0.  1.
</event>
<event>
 5   0  0.3551277E-05  0.1299857E+04  0.7818609E-02  0.9029679E-01
        1   -1    0    0  501    0  0.00000000000E+00  0.00000000000E+00  0.75268361280E+03  0.75268361282E+03  0.50400001928E-02 0.  1.
       -1   -1    0    0    0  501  0.00000000000E+00  0.00000000000E+00 -0.56120134525E+03  0.56120134527E+03  0.50400001928E-02 0. -1.
    10030    2    1    2    0    0  0.00000000000E+00  0.00000000000E+00  0.19148226755E+03  0.13138849581E+04  0.12998570015E+04 0.  0.
        4    1    3    3  502    0  0.36560661456E+03  0.22834672538E+03  0.58740077742E+03  0.72859571082E+03  0.12699999809E+01 0.  1.
       -4    1    3    3    0  502 -0.36560661456E+03 -0.22834672538E+03 -0.39591850987E+03  0.58528924727E+03  0.12699999809E+01 0. -1.
</event>
<event>
 5   0  0.6742824E-05  0.1299371E+04  0.7818609E-02  0.9030064E-01
        2   -1    0    0  501    0  0.00000000000E+00  0.00000000000E+00  0.13242474929E+04  0.13242474929E+04  0.25500000920E-02 0. -1.
       -2   -1    0    0    0  501  0.00000000000E+00  0.00000000000E+00 -0.31874058593E+03  0.31874058594E+03  0.25500000920E-02 0.  1.
    10030    2    1    2    0    0  0.00000000000E+00  0.00000000000E+00  0.10055069070E+04  0.16429880788E+04  0.12993712661E+04 0.  0.
        4    1    3    3  502    0 -0.64528763069E+03  0.57335798070E+02  0.56477963321E+03  0.85945399356E+03  0.12699999809E+01 0.  1.
       -4    1    3    3    0  502  0.64528763069E+03 -0.57335798070E+02  0.44072727376E+03  0.78353408528E+03  0.12699999809E+01 0. -1.
</event>
<event>
 5   0  0.3631841E-05  0.1300607E+04  0.7818609E-02  0.9029084E-01
       -1   -1    0    0    0  501  0.00000000000E+00  0.00000000000E+00  0.39615837154E+03  0.39615837157E+03  0.50400001928E-02 0. -1.
        1   -1    0    0  501    0  0.00000000000E+00  0.00000000000E+00 -0.10674895463E+04  0.10674895463E+04  0.50400001928E-02 0.  1.
    10030    2    1    2    0    0  0.00000000000E+00  0.00000000000E+00 -0.67133117477E+03  0.14636479179E+04  0.13006074278E+04 0.  0.
        3    1    3    3  502    0 -0.44693185355E+03  0.34536953167E+03  0.27018571845E+02  0.56547166909E+03  0.10100000352E+00 0. -1.
       -3    1    3    3    0  502  0.44693185355E+03 -0.34536953167E+03 -0.69834974662E+03  0.89817624881E+03  0.10100000352E+00 0.  1.
</event>
<event>
 5   0  0.3551277E-05  0.1299947E+04  0.7818609E-02  0.9029608E-01
       -1   -1    0    0    0  501  0.00000000000E+00  0.00000000000E+00  0.39399735658E+03  0.39399735661E+03  0.50400001928E-02 0. -1.
        1   -1    0    0  501    0  0.00000000000E+00  0.00000000000E+00 -0.10722541068E+04  0.10722541068E+04  0.50400001928E-02 0.  1.
    10030    2    1    2    0    0  0.00000000000E+00  0.00000000000E+00 -0.67825675022E+03  0.14662514634E+04  0.12999465892E+04 0.  0.
        4    1    3    3  502    0 -0.63438875858E+03  0.12762426384E+02 -0.49804953957E+03  0.80663928327E+03  0.12699999809E+01 0.  1.
       -4    1    3    3    0  502  0.63438875858E+03 -0.12762426384E+02 -0.18020721065E+03  0.65961218015E+03  0.12699999809E+01 0. -1.
</event>
<event>
 5   0  0.3718559E-05  0.1300274E+04  0.7818609E-02  0.9029348E-01
        1   -1    0    0  501    0  0.00000000000E+00  0.00000000000E+00  0.12659732199E+04  0.12659732199E+04  0.50400001928E-02 0.  1.
       -1   -1    0    0    0  501  0.00000000000E+00  0.00000000000E+00 -0.33387608268E+03  0.33387608272E+03  0.50400001928E-02 0. -1.
    10030    2    1    2    0    0  0.00000000000E+00  0.00000000000E+00  0.93209713720E+03  0.15998493026E+04  0.13002740934E+04 0.  0.
        2    1    3    3  502    0 -0.60608243000E+03 -0.15415980829E+03  0.24740850517E+03  0.67254154287E+03  0.25500000920E-02 0. -1.
       -2    1    3    3    0  502  0.60608243000E+03  0.15415980829E+03  0.68468863203E+03  0.92730775974E+03  0.25500000920E-02 0.  1.
</event>
<event>
 5   0  0.6671239E-05  0.1299980E+04  0.7818609E-02  0.9029581E-01
       -2   -1    0    0    0  501  0.00000000000E+00  0.00000000000E+00  0.44029452104E+03  0.44029452105E+03  0.25500000920E-02 0.  1.
        2   -1    0    0  501    0  0.00000000000E+00  0.00000000000E+00 -0.95955519130E+03  0.95955519130E+03  0.25500000920E-02 0. -1.
    10030    2    1    2    0    0  0.00000000000E+00  0.00000000000E+00 -0.51926067026E+03  0.13998497123E+04  0.12999798358E+04 0.  0.
        1    1    3    3  502    0  0.23198908675E+03  0.43235972105E+03 -0.71868217093E+03  0.87020568121E+03  0.50400001928E-02 0. -1.
       -1    1    3    3    0  502 -0.23198908675E+03 -0.43235972105E+03  0.19942150068E+03  0.52964403114E+03  0.50400001928E-02 0.  1.
</event>
<event>
 5   0  0.3689707E-05  0.1299942E+04  0.7818609E-02  0.9029611E-01
        1   -1    0    0  501    0  0.00000000000E+00  0.00000000000E+00  0.10311544775E+04  0.10311544775E+04  0.50400001928E-02 0. -1.
       -1   -1    0    0    0  501  0.00000000000E+00  0.00000000000E+00 -0.40969819864E+03  0.40969819867E+03  0.50400001928E-02 0.  1.
    10030    2    1    2    0    0  0.00000000000E+00  0.00000000000E+00  0.62145627888E+03  0.14408526762E+04  0.12999417402E+04 0.  0.
        1    1    3    3  502    0 -0.48502536359E+03  0.60024207778E+02 -0.16421695705E+03  0.51557707266E+03  0.50400001928E-02 0.  1.
       -1    1    3    3    0  502  0.48502536359E+03 -0.60024207778E+02  0.78567323593E+03  0.92527560355E+03  0.50400001928E-02 0. -1.
</event>
<event>
 5   0  0.6671239E-05  0.1300160E+04  0.7818609E-02  0.9029438E-01
       -2   -1    0    0    0  501  0.00000000000E+00  0.00000000000E+00  0.35273995680E+03  0.35273995681E+03  0.25500000920E-02 0.  1.
        2   -1    0    0  501    0  0.00000000000E+00  0.00000000000E+00 -0.11980618628E+04  0.11980618628E+04  0.25500000920E-02 0. -1.
    10030    2    1    2    0    0  0.00000000000E+00  0.00000000000E+00 -0.84532190595E+03  0.15508018196E+04  0.13001604358E+04 0.  0.
        1    1    3    3  502    0 -0.25803913766E+03 -0.30994706025E+03  0.18548343009E+03  0.44390931460E+03  0.50400001928E-02 0.  1.
       -1    1    3    3    0  502  0.25803913766E+03  0.30994706025E+03 -0.10308053360E+04  0.11068925050E+04  0.50400001928E-02 0. -1.
</event>
<event>
 5   0  0.6618060E-05  0.1299727E+04  0.7818609E-02  0.9029782E-01
        2   -1    0    0  501    0  0.00000000000E+00  0.00000000000E+00  0.15690844186E+04  0.15690844186E+04  0.25500000920E-02 0.  1.
       -2   -1    0    0    0  501  0.00000000000E+00  0.00000000000E+00 -0.26915228707E+03  0.26915228709E+03  0.25500000920E-02 0. -1.
    10030    2    1    2    0    0  0.00000000000E+00  0.00000000000E+00  0.12999321315E+04  0.18382367057E+04  0.12997271404E+04 0.  0.
        2    1    3    3  502    0  0.23338147058E+03  0.54607992674E+03  0.10232312504E+04  0.11830775076E+04  0.25500000920E-02 0.  1.
       -2    1    3    3    0  502 -0.23338147058E+03 -0.54607992674E+03  0.27670088111E+03  0.65515919807E+03  0.25500000920E-02 0. -1.
</event>
<event>
 5   0  0.6742824E-05  0.1299390E+04  0.7818609E-02  0.9030049E-01
        2   -1    0    0  501    0  0.00000000000E+00  0.00000000000E+00  0.15741788737E+04  0.15741788738E+04  0.25500000920E-02 0. -1.
       -2   -1    0    0    0  501  0.00000000000E+00  0.00000000000E+00 -0.26814209005E+03  0.26814209006E+03  0.25500000920E-02 0.  1.
    10030    2    1    2    0    0  0.00000000000E+00  0.00000000000E+00  0.13060367837E+04  0.18423209638E+04  0.12993900313E+04 0.  0.
        4    1    3    3  502    0  0.15066807536E+03 -0.11728787281E+03  0.15334982780E+04  0.15453400582E+04  0.12699999809E+01 0. -1.
       -4    1    3    3    0  502 -0.15066807536E+03  0.11728787281E+03 -0.22746149425E+03  0.29698090563E+03  0.12699999809E+01 0.  1.
</event>
<event>
 5   0  0.3718559E-05  0.1299742E+04  0.7818609E-02  0.9029770E-01
       -1   -1    0    0    0  501  0.00000000000E+00  0.00000000000E+00  0.31748457521E+03  0.31748457525E+03  0.50400001928E-02 0.  1.
        1   -1    0    0  501    0  0.00000000000E+00  0.00000000000E+00 -0.13302447139E+04  0.13302447139E+04  0.50400001928E-02 0. -1.
    10030    2    1    2    0    0  0.00000000000E+00  0.00000000000E+00 -0.10127601387E+04  0.16477292891E+04  0.12997417866E+04 0.  0.
        2    1    3    3  502    0 -0.12675348100E+03  0.57183701788E+03 -0.14945408739E+03  0.60448370053E+03  0.25500000920E-02 0.  1.
       -2    1    3    3    0  502  0.12675348100E+03 -0.57183701788E+03 -0.86330605128E+03  0.10432455886E+04  0.25500000920E-02 0. -1.
</event>
<event>
 5   0  0.3689707E-05  0.1300715E+04  0.7818609E-02  0.9028998E-01
        1   -1    0    0  501    0  0.00000000000E+00  0.00000000000E+00  0.19646075321E+04  0.19646075321E+04  0.50400001928E-02 0.  1.
       -1   -1    0    0    0  501  0.00000000000E+00  0.00000000000E+00 -0.21529226088E+03  0.21529226094E+03  0.50400001928E-02 0. -1.
    10030    2    1    2    0    0  0.00000000000E+00  0.00000000000E+00  0.17493152712E+04  0.21798997930E+04  0.13007148764E+04 0.  0.
        1    1    3    3  502    0 -0.38952517363E+03 -0.24758817716E+03  0.16425438654E+04  0.17061594639E+04  0.50400001928E-02 0. -1.
       -1    1    3    3    0  502  0.38952517363E+03  0.24758817716E+03  0.10677140581E+03  0.47374032917E+03  0.50400001928E-02 0.  1.
</event>
<event>
 5   0  0.6742824E-05  0.1301604E+04  0.7818609E-02  0.9028294E-01
        2   -1    0    0  501    0  0.00000000000E+00  0.00000000000E+00  0.11698065950E+04  0.11698065950E+04  0.25500000920E-02 0.  1.
       -2   -1    0    0    0  501  0.00000000000E+00  0.00000000000E+00 -0.36206289393E+03  0.36206289394E+03  0.25500000920E-02 0. -1.
    10030    2    1    2    0    0  0.00000000000E+00  0.00000000000E+00  0.80774370110E+03  0.15318694890E+04  0.13016044885E+04 0.  0.
        4    1    3    3  502    0 -0.36824383615E+03 -0.25923006275E+03 -0.14907256587E+03  0.47437115331E+03  0.12699999809E+01 0. -1.
       -4    1    3    3    0  502  0.36824383615E+03  0.25923006275E+03  0.95681626697E+03  0.10574983357E+04  0.12699999809E+01 0.  1.
</event>
<event>
 5   0  0.6688086E-05  0.1299870E+04  0.7818609E-02  0.9029668E-01
       -2   -1    0    0    0  501  0.00000000000E+00  0.00000000000E+00  0.89366903250E+03  0.89366903250E+03  0.25500000920E-02 0. -1.
        2   -1    0    0  501    0  0.00000000000E+00  0.00000000000E+00 -0.47267544477E+03  0.47267544477E+03  0.25500000920E-02 0.  1.
    10030    2    1    2    0    0  0.00000000000E+00  0.00000000000E+00  0.42099358773E+03  0.13663444773E+04  0.12998698511E+04 0.  0.
        5    1    3    3  502    0 -0.15981177846E+02 -0.30593005923E+03  0.81299752697E+03  0.86881279229E+03  0.46999998093E+01 0. -1.
       -5    1    3    3    0  502  0.15981177846E+02  0.30593005923E+03 -0.39200393924E+03  0.49753168499E+03  0.46999998093E+01 0.  1.
</event>
<event>
 5   0  0.3718559E-05  0.1298532E+04  0.7818609E-02  0.9030730E-01
       -1   -1    0    0    0  501  0.00000000000E+00  0.00000000000E+00  0.90581573088E+03  0.90581573089E+03  0.50400001928E-02 0.  1.
        1   -1    0    0  501    0  0.00000000000E+00  0.00000000000E+00 -0.46537742806E+03  0.46537742809E+03  0.50400001928E-02 0. -1.
    10030    2    1    2    0    0  0.00000000000E+00  0.00000000000E+00  0.44043830282E+03  0.13711931590E+04  0.12985317788E+04 0.  0.
        2    1    3    3  502    0 -0.64259631507E+03  0.68870244617E+02  0.15450283816E+03  0.66448796960E+03  0.25500000920E-02 0.  1.
       -2    1    3    3    0  502  0.64259631507E+03 -0.68870244617E+02  0.28593546466E+03  0.70670518938E+03  0.25500000920E-02 0. -1.
</event>
<event>
 5   0  0.2512000E-05  0.1299905E+04  0.7818609E-02  0.9029640E-01
        3   -1    0    0  501    0  0.00000000000E+00  0.00000000000E+00  0.33973550467E+03  0.33973551968E+03  0.10100000352E+00 0. -1.
       -3   -1    0    0    0  501  0.00000000000E+00  0.00000000000E+00 -0.12434329455E+04  0.12434329496E+04  0.10100000352E+00 0.  1.
    10030    2    1    2    0    0  0.00000000000E+00  0.00000000000E+00 -0.90369744079E+03  0.15831684692E+04  0.12999051263E+04 0.  0.
        1    1    3    3  502    0  0.25191978807E+03 -0.40225740674E+03  0.88941702590E+02  0.48289256298E+03  0.50400001928E-02 0. -1.
       -1    1    3    3    0  502 -0.25191978807E+03  0.40225740674E+03 -0.99263914338E+03  0.11002759063E+04  0.50400001928E-02 0.  1.
</event>
<event>
 5   0  0.3631841E-05  0.1303470E+04  0.7818609E-02  0.9026818E-01
       -1   -1    0    0    0  501  0.00000000000E+00  0.00000000000E+00  0.48547366304E+03  0.48547366307E+03  0.50400001928E-02 0.  1.
        1   -1    0    0  501    0  0.00000000000E+00  0.00000000000E+00 -0.87493589297E+03  0.87493589299E+03  0.50400001928E-02 0. -1.
    10030    2    1    2    0    0  0.00000000000E+00  0.00000000000E+00 -0.38946222993E+03  0.13604095561E+04  0.13034697279E+04 0.  0.
        3    1    3    3  502    0  0.40333972211E+03  0.50537912650E+03 -0.10951049430E+03  0.65580755675E+03  0.10100000352E+00 0.  1.
       -3    1    3    3    0  502 -0.40333972211E+03 -0.50537912650E+03 -0.27995173563E+03  0.70460199930E+03  0.10100000352E+00 0. -1.
</event>
<event>
 5   0  0.6618060E-05  0.1299647E+04  0.7818609E-02  0.9029845E-01
        2   -1    0    0  501    0  0.00000000000E+00  0.00000000000E+00  0.17088970136E+04  0.17088970136E+04  0.25500000920E-02 0.  1.
       -2   -1    0    0    0  501  0.00000000000E+00  0.00000000000E+00 -0.24710125476E+03  0.24710125478E+03  0.25500000920E-02 0. -1.
    10030    2    1    2    0    0  0.00000000000E+00  0.00000000000E+00  0.14617957589E+04  0.19559982684E+04  0.12996470234E+04 0.  0.
        2    1    3    3  502    0  0.38098763331E+03 -0.31117436961E+03  0.13699382638E+04  0.14555795793E+04  0.25500000920E-02 0.  1.
       -2    1    3    3    0  502 -0.38098763331E+03  0.31117436961E+03  0.91857495116E+02  0.50041868915E+03  0.25500000920E-02 0. -1.
</event>
<event>
 5   0  0.6742824E-05  0.1300216E+04  0.7818609E-02  0.9029394E-01
        2   -1    0    0  501    0  0.00000000000E+00  0.00000000000E+00  0.12384725894E+04  0.12384725894E+04  0.25500000920E-02 0. -1.
       -2   -1    0    0    0  501  0.00000000000E+00  0.00000000000E+00 -0.34125940194E+03  0.34125940194E+03  0.25500000920E-02 0.  1.
    10030    2    1    2    0    0  0.00000000000E+00  0.00000000000E+00  0.89721318747E+03  0.15797319914E+04  0.13002160054E+04 0.  0.
        4    1    3    3  502    0  0.33813271021E+03 -0.42684866883E+03  0.17152541833E+02  0.54482046436E+03  0.12699999809E+01 0. -1.
       -4    1    3    3    0  502 -0.33813271021E+03  0.42684866883E+03  0.88006064563E+03  0.10349115270E+04  0.12699999809E+01 0.  1.
</event>
<event>
 5   0  0.3689707E-05  0.1300006E+04  0.7818609E-02  0.9029560E-01
        1   -1    0    0  501    0  0.00000000000E+00  0.00000000000E+00  0.63032126661E+03  0.63032126663E+03  0.50400001928E-02 0. -1.
       -1   -1    0    0    0  501  0.00000000000E+00  0.00000000000E+00 -0.67029918421E+03  0.67029918423E+03  0.50400001928E-02 0.  1.
    10030    2    1    2    0    0  0.00000000000E+00  0.00000000000E+00 -0.39977917601E+02  0.13006204509E+04  0.13000058936E+04 0.  0.
        1    1    3    3  502    0 -0.46058325107E+03  0.38526773955E+03 -0.26897538523E+03  0.65796346418E+03  0.50400001928E-02 0.  1.
       -1    1    3    3    0  502  0.46058325107E+03 -0.38526773955E+03  0.22899746763E+03  0.64265698667E+03  0.50400001928E-02 0. -1.
</event>
<event>
 5   0  0.3689707E-05  0.1299766E+04  0.7818609E-02  0.9029750E-01
        1   -1    0    0  501    0  0.00000000000E+00  0.00000000000E+00  0.17331377695E+04  0.17331377695E+04  0.50400001928E-02 0. -1.
       -1   -1    0    0    0  501  0.00000000000E+00  0.00000000000E+00 -0.24368988822E+03  0.24368988827E+03  0.50400001928E-02 0.  1.
    10030    2    1    2    0    0  0.00000000000E+00  0.00000000000E+00  0.14894478813E+04  0.19768276578E+04  0.12997663627E+04 0.  0.
        1    1    3    3  502    0  0.19700909409E+02  0.51684662171E+03  0.14627031630E+03  0.53750680151E+03  0.50400001928E-02 0.  1.
       -1    1    3    3    0  502 -0.19700909409E+02 -0.51684662171E+03  0.13431775650E+04  0.14393208563E+04  0.50400001928E-02 0. -1.
</event>
<event>
 5   0  0.6458698E-05  0.1300010E+04  0.7818609E-02  0.9029557E-01
        2   -1    0    0  501    0  0.00000000000E+00  0.00000000000E+00  0.47551043397E+03  0.47551043398E+03  0.25500000920E-02 0. -1.
       -2   -1    0    0    0  501  0.00000000000E+00  0.00000000000E+00 -0.88853313449E+03  0.88853313449E+03  0.25500000920E-02 0.  1.
    10030    2    1    2    0    0  0.00000000000E+00  0.00000000000E+00 -0.41302270052E+03  0.13640435685E+04  0.13000104252E+04 0.  0.
        3    1    3    3  502    0  0.46949134011E+03  0.44911359970E+03 -0.18601397369E+03  0.67581532425E+03  0.10100000352E+00 0. -1.
       -3    1    3    3    0  502 -0.46949134011E+03 -0.44911359970E+03 -0.22700872683E+03  0.68822824422E+03  0.10100000352E+00 0.  1.
</event>
<event>
 5   0  0.3551277E-05  0.1299313E+04  0.7818609E-02  0.9030110E-01
        1   -1    0    0  501    0  0.00000000000E+00  0.00000000000E+00  0.15835854181E+04  0.15835854181E+04  0.50400001928E-02 0.  1.
       -1   -1    0    0    0  501  0.00000000000E+00  0.00000000000E+00 -0.26651759466E+03  0.26651759471E+03  0.50400001928E-02 0. -1.
    10030    2    1    2    0    0  0.00000000000E+00  0.00000000000E+00  0.13170678234E+04  0.18501030128E+04  0.12993127054E+04 0.  0.
        4    1    3    3  502    0  0.47054254409E+02  0.47711319029E+03  0.12827855166E+04  0.13694493031E+04  0.12699999809E+01 0.  1.
       -4    1    3    3    0  502 -0.47054254409E+02 -0.47711319029E+03  0.34282306823E+02  0.48065370972E+03  0.12699999809E+01 0. -1.
</event>
<event>
 5   0  0.3689707E-05  0.1299669E+04  0.7818609E-02  0.9029828E-01
       -1   -1    0    0    0  501  0.00000000000E+00  0.00000000000E+00  0.49295546604E+03  0.49295546606E+03  0.50400001928E-02 0.  1.
        1   -1    0    0  501    0  0.00000000000E+00  0.00000000000E+00 -0.85663881719E+03  0.85663881721E+03  0.50400001928E-02 0. -1.
    10030    2    1    2    0    0  0.00000000000E+00  0.00000000000E+00 -0.36368335116E+03  0.13495942833E+04  0.12996688615E+04 0.  0.
        1    1    3    3  502    0  0.26723156119E+03 -0.28823695106E+03  0.35552278776E+03  0.52999028283E+03  0.50400001928E-02 0.  1.
       -1    1    3    3    0  502 -0.26723156119E+03  0.28823695106E+03 -0.71920613892E+03  0.81960400044E+03  0.50400001928E-02 0. -1.
</event>
<event>
 5   0  0.2512000E-05  0.1297265E+04  0.7818609E-02  0.9031737E-01
       -3   -1    0    0    0  501  0.00000000000E+00  0.00000000000E+00  0.29994955445E+03  0.29994957145E+03  0.10100000352E+00 0.  1.
        3   -1    0    0  501    0  0.00000000000E+00  0.00000000000E+00 -0.14026495178E+04  0.14026495215E+04  0.10100000352E+00 0. -1.
    10030    2    1    2    0    0  0.00000000000E+00  0.00000000000E+00 -0.11026999634E+04  0.17025990929E+04  0.12972649930E+04 0.  0.
        3    1    3    3  502    0 -0.11577717887E+03 -0.24069892802E+03 -0.13271237067E+04  0.13537347126E+04  0.10100000352E+00 0. -1.
       -3    1    3    3    0  502  0.11577717887E+03  0.24069892802E+03  0.22442374329E+03  0.34886438031E+03  0.10100000352E+00 0.  1.
</event>
<event>
 5   0  0.3689707E-05  0.1299048E+04  0.7818609E-02  0.9030321E-01
       -1   -1    0    0    0  501  0.00000000000E+00  0.00000000000E+00  0.27939808186E+03  0.27939808191E+03  0.50400001928E-02 0. -1.
        1   -1    0    0  501    0  0.00000000000E+00  0.00000000000E+00 -0.15099649135E+04  0.15099649135E+04  0.50400001928E-02 0.  1.
    10030    2    1    2    0    0  0.00000000000E+00  0.00000000000E+00 -0.12305668316E+04  0.17893629954E+04  0.12990478060E+04 0.  0.
        1    1    3    3  502    0  0.37031069475E+02  0.19724494977E+03  0.23561951985E+03  0.30950513481E+03  0.50400001928E-02 0. -1.
       -1    1    3    3    0  502 -0.37031069475E+02 -0.19724494977E+03 -0.14661863515E+04  0.14798578606E+04  0.50400001928E-02 0.  1.
</event>
<event>
 5   0  0.3631841E-05  0.1300087E+04  0.7818609E-02  0.9029496E-01
       -1   -1    0    0    0  501  0.00000000000E+00  0.00000000000E+00  0.25595046234E+03  0.25595046238E+03  0.50400001928E-02 0. -1.
        1   -1    0    0  501    0  0.00000000000E+00  0.00000000000E+00 -0.16509322326E+04  0.16509322326E+04  0.50400001928E-02 0.  1.
    10030    2    1    2    0    0  0.00000000000E+00  0.00000000000E+00 -0.13949817703E+04  0.19068826950E+04  0.13000874867E+04 0.  0.
        3    1    3    3  502    0  0.41182103737E+03  0.36674989889E+03 -0.19268113261E+03  0.58414731380E+03  0.10100000352E+00 0. -1.
       -3    1    3    3    0  502 -0.41182103737E+03 -0.36674989889E+03 -0.12023006376E+04  0.13227353812E+04  0.10100000352E+00 0.  1.
</event>
<event>
 5   0  0.6688086E-05  0.1299980E+04  0.7818609E-02  0.9029581E-01
        2   -1    0    0  501    0  0.00000000000E+00  0.00000000000E+00  0.48149114159E+03  0.48149114160E+03  0.25500000920E-02 0. -1.
       -2   -1    0    0    0  501  0.00000000000E+00  0.00000000000E+00 -0.87745474766E+03  0.87745474767E+03  0.25500000920E-02 0.  1.
    10030    2    1    2    0    0  0.00000000000E+00  0.00000000000E+00 -0.39596360607E+03  0.13589458893E+04  0.12999795201E+04 0.  0.
        5    1    3    3  502    0 -0.47568560671E+02 -0.37228924131E+03  0.35675112563E+03  0.51783733237E+03  0.46999998093E+01 0. -1.
       -5    1    3    3    0  502  0.47568560671E+02  0.37228924131E+03 -0.75271473170E+03  0.84110855689E+03  0.46999998093E+01 0.  1.
</event>
<event>
 5   0  0.3551277E-05  0.1300929E+04  0.7818609E-02  0.9028829E-01
       -1   -1    0    0    0  501  0.00000000000E+00  0.00000000000E+00  0.59020429850E+03  0.59020429853E+03  0.50400001928E-02 0.  1.
        1   -1    0    0  501    0  0.00000000000E+00  0.00000000000E+00 -0.71687746765E+03  0.71687746767E+03  0.50400001928E-02 0. -1.
    10030    2    1    2    0    0  0.00000000000E+00  0.00000000000E+00 -0.12667316915E+03  0.13070817662E+04  0.13009291494E+04 0.  0.
        4    1    3    3  502    0  0.14475302394E+02  0.11452143066E+03  0.57982982588E+03  0.59120971943E+03  0.12699999809E+01 0.  1.
       -4    1    3    3    0  502 -0.14475302394E+02 -0.11452143066E+03 -0.70650299503E+03  0.71587204677E+03  0.12699999809E+01 0. -1.
</event>
<event>
 5   0  0.3689707E-05  0.1299657E+04  0.7818609E-02  0.9029837E-01
        1   -1    0    0  501    0  0.00000000000E+00  0.00000000000E+00  0.10200703818E+04  0.10200703819E+04  0.50400001928E-02 0.  1.
       -1   -1    0    0    0  501  0.00000000000E+00  0.00000000000E+00 -0.41396840224E+03  0.41396840227E+03  0.50400001928E-02 0. -1.
    10030    2    1    2    0    0  0.00000000000E+00  0.00000000000E+00  0.60610197960E+03  0.14340387841E+04  0.12996567334E+04 0.  0.
        1    1    3    3  502    0 -0.11586500363E+03  0.56911774855E+03  0.62466304507E+03  0.85294995790E+03  0.50400001928E-02 0.  1.
       -1    1    3    3    0  502  0.11586500363E+03 -0.56911774855E+03 -0.18561065472E+02  0.58108882622E+03  0.50400001928E-02 0. -1.
</event>
<event>
 5   0  0.3689707E-05  0.1300360E+04  0.7818609E-02  0.9029280E-01
        1   -1    0    0  501    0  0.00000000000E+00  0.00000000000E+00  0.48153779816E+03  0.48153779818E+03  0.50400001928E-02 0.  1.
       -1   -1    0    0    0  501  0.00000000000E+00  0.00000000000E+00 -0.87788346036E+03  0.87788346038E+03  0.50400001928E-02 0. -1.
    10030    2    1    2    0    0  0.00000000000E+00  0.00000000000E+00 -0.39634566221E+03  0.13594212586E+04  0.13003600556E+04 0.  0.
        1    1    3    3  502    0 -0.19674080316E+03  0.10164067808E+02 -0.84593109737E+03  0.86856759865E+03  0.50400001928E-02 0. -1.
       -1    1    3    3    0  502  0.19674080316E+03 -0.10164067808E+02  0.44958543517E+03  0.49085365990E+03  0.50400001928E-02 0.  1.
</event>
<event>
 5   0  0.6688086E-05  0.1298952E+04  0.7818609E-02  0.9030396E-01
        2   -1    0    0  501    0  0.00000000000E+00  0.00000000000E+00  0.86955625107E+03  0.86955625107E+03  0.25500000920E-02 0. -1.
       -2   -1    0    0    0  501  0.00000000000E+00  0.00000000000E+00 -0.48509720955E+03  0.48509720956E+03  0.25500000920E-02 0.  1.
    10030    2    1    2    0    0  0.00000000000E+00  0.00000000000E+00  0.38445904152E+03  0.13546534606E+04  0.12989523639E+04 0.  0.
        5    1    3    3  502    0  0.29929587764E+03 -0.57037281304E+03  0.10563861424E+03  0.65275169479E+03  0.46999998093E+01 0.  1.
       -5    1    3    3    0  502 -0.29929587764E+03  0.57037281304E+03  0.27882042728E+03  0.70190176584E+03  0.46999998093E+01 0. -1.
</event>
<event>
 5   0  0.6742824E-05  0.1300221E+04  0.7818609E-02  0.9029390E-01
       -2   -1    0    0    0  501  0.00000000000E+00  0.00000000000E+00  0.31559319273E+03  0.31559319274E+03  0.25500000920E-02 0. -1.
        2   -1    0    0  501    0  0.00000000000E+00  0.00000000000E+00 -0.13392046477E+04  0.13392046477E+04  0.25500000920E-02 0.  1.
    10030    2    1    2    0    0  0.00000000000E+00  0.00000000000E+00 -0.10236114550E+04  0.16547978404E+04  0.13002213204E+04 0.  0.
        4    1    3    3  502    0 -0.49971890665E+03  0.32234479123E+03 -0.84615935501E+03  0.10342206810E+04  0.12699999809E+01 0. -1.
       -4    1    3    3    0  502  0.49971890665E+03 -0.32234479123E+03 -0.17745209995E+03  0.62057715941E+03  0.12699999809E+01 0.  1.
</event>
<event>
 5   0  0.3552698E-05  0.1296561E+04  0.7818609E-02  0.9032297E-01
       -1   -1    0    0    0  501  0.00000000000E+00  0.00000000000E+00  0.51246487778E+03  0.51246487780E+03  0.50400001928E-02 0.  1.
        1   -1    0    0  501    0  0.00000000000E+00  0.00000000000E+00 -0.82009090746E+03  0.82009090748E+03  0.50400001928E-02 0. -1.
    10030    2    1    2    0    0  0.00000000000E+00  0.00000000000E+00 -0.30762602969E+03  0.13325557853E+04  0.12965612777E+04 0.  0.
        5    1    3    3  502    0  0.38113649446E+03 -0.24860224146E+03  0.32071639195E+03  0.55673081101E+03  0.46999998093E+01 0.  1.
       -5    1    3    3    0  502 -0.38113649446E+03  0.24860224146E+03 -0.62834242164E+03  0.77582497427E+03  0.46999998093E+01 0. -1.
</event>
<event>
 5   0  0.6742824E-05  0.1299025E+04  0.7818609E-02  0.9030339E-01
       -2   -1    0    0    0  501  0.00000000000E+00  0.00000000000E+00  0.25887570285E+03  0.25887570286E+03  0.25500000920E-02 0. -1.
        2   -1    0    0  501    0  0.00000000000E+00  0.00000000000E+00 -0.16296107374E+04  0.16296107374E+04  0.25500000920E-02 0.  1.
    10030    2    1    2    0    0  0.00000000000E+00  0.00000000000E+00 -0.13707350345E+04  0.18884864402E+04  0.12990252115E+04 0.  0.
        4    1    3    3  502    0  0.52285861969E+03 -0.13667698275E+03 -0.16159932412E+03  0.56407241401E+03  0.12699999809E+01 0. -1.
       -4    1    3    3    0  502 -0.52285861969E+03  0.13667698275E+03 -0.12091357104E+04  0.13244140262E+04  0.12699999809E+01 0.  1.
</event>
<event>
 5   0  0.3631841E-05  0.1301566E+04  0.7818609E-02  0.9028324E-01
        1   -1    0    0  501    0  0.00000000000E+00  0.00000000000E+00  0.89887961928E+03  0.89887961929E+03  0.50400001928E-02 0.  1.
       -1   -1    0    0    0  501  0.00000000000E+00  0.00000000000E+00 -0.47116271582E+03  0.47116271585E+03  0.50400001928E-02 0. -1.
    10030    2    1    2    0    0  0.00000000000E+00  0.00000000000E+00  0.42771690346E+03  0.13700423351E+04  0.13015660761E+04 0.  0.
        3    1    3    3  502    0  0.37197556811E+03  0.15515562888E+03  0.75169971650E+03  0.85293116161E+03  0.10100000352E+00 0.  1.
       -3    1    3    3    0  502 -0.37197556811E+03 -0.15515562888E+03 -0.32398281305E+03  0.51711117354E+03  0.10100000352E+00 0. -1.
</event>
<event>
 5   0  0.6618060E-05  0.1300181E+04  0.7818609E-02  0.9029422E-01
        2   -1    0    0  501    0  0.00000000000E+00  0.00000000000E+00  0.18657991952E+04  0.18657991952E+04  0.25500000920E-02 0. -1.
       -2   -1    0    0    0  501  0.00000000000E+00  0.00000000000E+00 -0.22650760562E+03  0.22650760564E+03  0.25500000920E-02 0.  1.
    10030    2    1    2    0    0  0.00000000000E+00  0.00000000000E+00  0.16392915895E+04  0.20923068008E+04  0.13001810771E+04 0.  0.
        2    1    3    3  502    0  0.25355575622E+03 -0.22817076718E+03 -0.70929029640E+02  0.34840113054E+03  0.25500000920E-02 0.  1.
       -2    1    3    3    0  502 -0.25355575622E+03  0.22817076718E+03  0.17102206192E+04  0.17439056703E+04  0.25500000920E-02 0. -1.
</event>
<event>
 5   0  0.6671239E-05  0.1298260E+04  0.7818609E-02  0.9030946E-01
       -2   -1    0    0    0  501  0.00000000000E+00  0.00000000000E+00  0.42848667547E+03  0.42848667548E+03  0.25500000920E-02 0. -1.
        2   -1    0    0  501    0  0.00000000000E+00  0.00000000000E+00 -0.98339028991E+03  0.98339028991E+03  0.25500000920E-02 0.  1.
    10030    2    1    2    0    0  0.00000000000E+00  0.00000000000E+00 -0.55490361444E+03  0.14118769654E+04  0.12982598138E+04 0.  0.
        1    1    3    3  502    0 -0.46570804999E+03  0.32381712616E+03  0.65810565121E+02  0.57102762588E+03  0.50400001928E-02 0. -1.
       -1    1    3    3    0  502  0.46570804999E+03 -0.32381712616E+03 -0.62071417956E+03  0.84084933951E+03  0.50400001928E-02 0.  1.
</event>
<event>
 5   0  0.3551277E-05  0.1298634E+04  0.7818609E-02  0.9030649E-01
        1   -1    0    0  501    0  0.00000000000E+00  0.00000000000E+00  0.78595932697E+03  0.78595932699E+03  0.50400001928E-02 0. -1.
       -1   -1    0    0    0  501  0.00000000000E+00  0.00000000000E+00 -0.53643045767E+03  0.53643045769E+03  0.50400001928E-02 0.  1.
    10030    2    1    2    0    0  0.00000000000E+00  0.00000000000E+00  0.24952886931E+03  0.13223897847E+04  0.12986339307E+04 0.  0.
        4    1    3    3  502    0 -0.30343850934E+03  0.43678279229E+03 -0.25455040513E+03  0.58961992694E+03  0.12699999809E+01 0.  1.
       -4    1    3    3    0  502  0.30343850934E+03 -0.43678279229E+03  0.50407927444E+03  0.73276985774E+03  0.12699999809E+01 0. -1.
</event>
<event>
 5   0  0.6671239E-05  0.1300592E+04  0.7818609E-02  0.9029096E-01
        2   -1    0    0  501    0  0.00000000000E+00  0.00000000000E+00  0.18479674873E+04  0.18479674873E+04  0.25500000920E-02 0.  1.
       -2   -1    0    0    0  501  0.00000000000E+00  0.00000000000E+00 -0.22883795429E+03  0.22883795430E+03  0.25500000920E-02 0. -1.
    10030    2    1    2    0    0  0.00000000000E+00  0.00000000000E+00  0.16191295330E+04  0.20768054416E+04  0.13005923257E+04 0.  0.
        1    1    3    3  502    0  0.54389539813E+03 -0.15542927290E+03  0.29732640788E+03  0.63904886811E+03  0.50400001928E-02 0. -1.
       -1    1    3    3    0  502 -0.54389539813E+03  0.15542927290E+03  0.13218031251E+04  0.14377565735E+04  0.50400001928E-02 0.  1.
</event>
<event>
 5   0  0.2512000E-05  0.1300226E+04  0.7818609E-02  0.9029386E-01
        4   -1    0    0  501    0  0.00000000000E+00  0.00000000000E+00  0.51505590782E+03  0.51505747357E+03  0.12699999809E+01 0. -1.
       -4   -1    0    0    0  501  0.00000000000E+00  0.00000000000E+00 -0.82058083731E+03  0.82058182008E+03  0.12699999809E+01 0.  1.
    10030    2    1    2    0    0  0.00000000000E+00  0.00000000000E+00 -0.30552492948E+03  0.13356392937E+04  0.13002256882E+04 0.  0.
        5    1    3    3  502    0 -0.14675786650E+03 -0.46178158318E+03 -0.59797738273E+03  0.76966170634E+03  0.46999998093E+01 0.  1.
       -5    1    3    3    0  502  0.14675786650E+03  0.46178158318E+03  0.29245245325E+03  0.56597758732E+03  0.46999998093E+01 0. -1.
</event>
<event>
 5   0  0.6742824E-05  0.1299864E+04  0.7818609E-02  0.9029673E-01
        2   -1    0    0  501    0  0.00000000000E+00  0.00000000000E+00  0.43824860713E+03  0.43824860714E+03  0.25500000920E-02 0. -1.
       -2   -1    0    0    0  501  0.00000000000E+00  0.00000000000E+00 -0.96386242899E+03  0.96386242899E+03  0.25500000920E-02 0.  1.
    10030    2    1    2    0    0  0.00000000000E+00  0.00000000000E+00 -0.52561382186E+03  0.14021110361E+04  0.12998636344E+04 0.  0.
        4    1    3    3  502    0 -0.22169588620E+03  0.45709490705E+03  0.17444966257E+03  0.53713975619E+03  0.12699999809E+01 0. -1.
       -4    1    3    3    0  502  0.22169588620E+03 -0.45709490705E+03 -0.70006348442E+03  0.86497127994E+03  0.12699999809E+01 0.  1.
</event>
<event>
 5   0  0.6458698E-05  0.1301022E+04  0.7818609E-02  0.9028755E-01
        2   -1    0    0  501    0  0.00000000000E+00  0.00000000000E+00  0.79213197269E+03  0.79213197270E+03  0.25500000920E-02 0. -1.
       -2   -1    0    0    0  501  0.00000000000E+00  0.00000000000E+00 -0.53420940298E+03  0.53420940298E+03  0.25500000920E-02 0.  1.
    10030    2    1    2    0    0  0.00000000000E+00  0.00000000000E+00  0.25792256972E+03  0.13263413757E+04  0.13010216727E+04 0.  0.
        3    1    3    3  502    0 -0.41838307608E+03  0.43268503446E+03 -0.12262807553E+03  0.61424619861E+03  0.10100000352E+00 0.  1.
       -3    1    3    3    0  502  0.41838307608E+03 -0.43268503446E+03  0.38055064524E+03  0.71209517706E+03  0.10100000352E+00 0. -1.
</event>
<event>
 5   0  0.3718559E-05  0.1300478E+04  0.7818609E-02  0.9029187E-01
        1   -1    0    0  501    0  0.00000000000E+00  0.00000000000E+00  0.72797326891E+03  0.72797326893E+03  0.50400001928E-02 0.  1.
       -1   -1    0    0    0  501  0.00000000000E+00  0.00000000000E+00 -0.58080488948E+03  0.58080488951E+03  0.50400001928E-02 0. -1.
    10030    2    1    2    0    0  0.00000000000E+00  0.00000000000E+00  0.14716837943E+03  0.13087781584E+04  0.13004775031E+04 0.  0.
        2    1    3    3  502    0  0.10615091769E+03 -0.61996326377E+03  0.23952437552E+03  0.67304858088E+03  0.25500000920E-02 0.  1.
       -2    1    3    3    0  502 -0.10615091769E+03  0.61996326377E+03 -0.92355996090E+02  0.63572957755E+03  0.25500000920E-02 0. -1.
</event>
<event>
 5   0  0.3551277E-05  0.1300332E+04  0.7818609E-02  0.9029302E-01
       -1   -1    0    0    0  501  0.00000000000E+00  0.00000000000E+00  0.92968524524E+03  0.92968524525E+03  0.50400001928E-02 0.  1.
        1   -1    0    0  501    0  0.00000000000E+00  0.00000000000E+00 -0.45468717522E+03  0.45468717525E+03  0.50400001928E-02 0. -1.
    10030    2    1    2    0    0  0.00000000000E+00  0.00000000000E+00  0.47499807002E+03  0.13843724205E+04  0.13003322007E+04 0.  0.
        4    1    3    3  502    0  0.17055697541E+03  0.40777382891E+03  0.74512226150E+03  0.86635903348E+03  0.12699999809E+01 0.  1.
       -4    1    3    3    0  502 -0.17055697541E+03 -0.40777382891E+03 -0.27012419148E+03  0.51801338702E+03  0.12699999809E+01 0. -1.
</event>
<event>
 5   0  0.3631841E-05  0.1300339E+04  0.7818609E-02  0.9029296E-01
       -1   -1    0    0    0  501  0.00000000000E+00  0.00000000000E+00  0.39224221164E+03  0.39224221167E+03  0.50400001928E-02 0. -1.
        1   -1    0    0  501    0  0.00000000000E+00  0.00000000000E+00 -0.10777024769E+04  0.10777024769E+04  0.50400001928E-02 0.  1.
    10030    2    1    2    0    0  0.00000000000E+00  0.00000000000E+00 -0.68546026522E+03  0.14699446885E+04  0.13003390374E+04 0.  0.
        3    1    3    3  502    0 -0.21986901952E+03 -0.31746856636E+03  0.24855350992E+03  0.45924670262E+03  0.10100000352E+00 0. -1.
       -3    1    3    3    0  502  0.21986901952E+03  0.31746856636E+03 -0.93401377514E+03  0.10106979859E+04  0.10100000352E+00 0.  1.
</event>
<event>
 5   0  0.3631841E-05  0.1299689E+04  0.7818609E-02  0.9029812E-01
        1   -1    0    0  501    0  0.00000000000E+00  0.00000000000E+00  0.16717129564E+04  0.16717129564E+04  0.50400001928E-02 0. -1.
       -1   -1    0    0    0  501  0.00000000000E+00  0.00000000000E+00 -0.25261380571E+03  0.25261380576E+03  0.50400001928E-02 0.  1.
    10030    2    1    2    0    0  0.00000000000E+00  0.00000000000E+00  0.14190991506E+04  0.19243267621E+04  0.12996888428E+04 0.  0.
        3    1    3    3  502    0 -0.16739727609E+03 -0.43008227235E+03  0.13869249264E+04  0.14616953754E+04  0.10100000352E+00 0. -1.
       -3    1    3    3    0  502  0.16739727609E+03  0.43008227235E+03  0.32174224285E+02  0.46263138668E+03  0.10100000352E+00 0.  1.
</event>
<event>
 5   0  0.6458698E-05  0.1299978E+04  0.7818609E-02  0.9029583E-01
        2   -1    0    0  501    0  0.00000000000E+00  0.00000000000E+00  0.69575256421E+03  0.69575256422E+03  0.25500000920E-02 0.  1.
       -2   -1    0    0    0  501  0.00000000000E+00  0.00000000000E+00 -0.60723541496E+03  0.60723541497E+03  0.25500000920E-02 0. -1.
    10030    2    1    2    0    0  0.00000000000E+00  0.00000000000E+00  0.88517149251E+02  0.13029879792E+04  0.12999778414E+04 0.  0.
        3    1    3    3  502    0 -0.31710494913E+03 -0.18704483905E+03  0.58117072844E+03  0.68796856497E+03  0.10100000352E+00 0.  1.
       -3    1    3    3    0  502  0.31710494913E+03  0.18704483905E+03 -0.49265357919E+03  0.61501941422E+03  0.10100000352E+00 0. -1.
</event>
<event>
 5   0  0.6688086E-05  0.1299229E+04  0.7818609E-02  0.9030177E-01
        2   -1    0    0  501    0  0.00000000000E+00  0.00000000000E+00  0.42671310299E+03  0.42671310300E+03  0.25500000920E-02 0. -1.
       -2   -1    0    0    0  501  0.00000000000E+00  0.00000000000E+00 -0.98895203050E+03  0.98895203051E+03  0.25500000920E-02 0.  1.
    10030    2    1    2    0    0  0.00000000000E+00  0.00000000000E+00 -0.56223892751E+03  0.14156651335E+04  0.12992286783E+04 0.  0.
        5    1    3    3  502    0  0.49481491877E+02 -0.55964319524E+03  0.74183067810E+02  0.56672227904E+03  0.46999998093E+01 0. -1.
       -5    1    3    3    0  502 -0.49481491877E+02  0.55964319524E+03 -0.63642199532E+03  0.84894285446E+03  0.46999998093E+01 0.  1.
</event>
<event>
 5   0  0.6618060E-05  0.1300073E+04  0.7818609E-02  0.9029507E-01
       -2   -1    0    0    0  501  0.00000000000E+00  0.00000000000E+00  0.42055649600E+03  0.42055649601E+03  0.25500000920E-02 0. -1.
        2   -1    0    0  501    0  0.00000000000E+00  0.00000000000E+00 -0.10047346618E+04  0.10047346618E+04  0.25500000920E-02 0.  1.
    10030    2    1    2    0    0  0.00000000000E+00  0.00000000000E+00 -0.58417816581E+03  0.14252911578E+04  0.13000733653E+04 0.  0.
        2    1    3    3  502    0 -0.33736477488E+03 -0.17671383464E+02 -0.90093485111E+03  0.96219066461E+03  0.25500000920E-02 0.  1.
       -2    1    3    3    0  502  0.33736477488E+03  0.17671383464E+02  0.31675668530E+03  0.46310049321E+03  0.25500000920E-02 0. -1.
</event>
<event>
 5   0  0.3689707E-05  0.1298828E+04  0.7818609E-02  0.9030495E-01
       -1   -1    0    0    0  501  0.00000000000E+00  0.00000000000E+00  0.31172015358E+03  0.31172015362E+03  0.50400001928E-02 0. -1.
        1   -1    0    0  501    0  0.00000000000E+00  0.00000000000E+00 -0.13529398536E+04  0.13529398536E+04  0.50400001928E-02 0.  1.
    10030    2    1    2    0    0  0.00000000000E+00  0.00000000000E+00 -0.10412197000E+04  0.16646600072E+04  0.12988281164E+04 0.  0.
        1    1    3    3  502    0  0.50839732894E+03  0.40645053917E+02 -0.10358619165E+04  0.11546123915E+04  0.50400001928E-02 0.  1.
       -1    1    3    3    0  502 -0.50839732894E+03 -0.40645053917E+02 -0.53577835306E+01  0.51004761577E+03  0.50400001928E-02 0. -1.
</event>
<event>
 5   0  0.6618060E-05  0.1299990E+04  0.7818609E-02  0.9029573E-01
       -2   -1    0    0    0  501  0.00000000000E+00  0.00000000000E+00  0.75321508886E+03  0.75321508887E+03  0.25500000920E-02 0. -1.
        2   -1    0    0  501    0  0.00000000000E+00  0.00000000000E+00 -0.56092027680E+03  0.56092027681E+03  0.25500000920E-02 0.  1.
    10030    2    1    2    0    0  0.00000000000E+00  0.00000000000E+00  0.19229481206E+03  0.13141353657E+04  0.12999901786E+04 0.  0.
        2    1    3    3  502    0 -0.56840403875E+03 -0.14720614904E+03 -0.18570683580E+03  0.61582451271E+03  0.25500000920E-02 0.  1.
       -2    1    3    3    0  502  0.56840403875E+03  0.14720614904E+03  0.37800164787E+03  0.69831085297E+03  0.25500000920E-02 0. -1.
</event>
<event>
 5   0  0.3689707E-05  0.1300336E+04  0.7818609E-02  0.9029299E-01
        1   -1    0    0  501    0  0.00000000000E+00  0.00000000000E+00  0.13262062253E+04  0.13262062254E+04  0.50400001928E-02 0. -1.
       -1   -1    0    0    0  501  0.00000000000E+00  0.00000000000E+00 -0.31874253741E+03  0.31874253745E+03  0.50400001928E-02 0.  1.
    10030    2    1    2    0    0  0.00000000000E+00  0.00000000000E+00  0.10074636879E+04  0.16449487628E+04  0.13003358604E+04 0.  0.
        1    1    3    3  502    0 -0.25007876647E+03  0.57222728331E+03  0.27485479781E+03  0.68229657270E+03  0.50400001928E-02 0.  1.
       -1    1    3    3    0  502  0.25007876647E+03 -0.57222728331E+03  0.73260889012E+03  0.96265219011E+03  0.50400001928E-02 0. -1.
</event>
<event>
 5   0  0.3552698E-05  0.1297018E+04  0.7818609E-02  0.9031933E-01
       -1   -1    0    0    0  501  0.00000000000E+00  0.00000000000E+00  0.97539732803E+03  0.97539732805E+03  0.50400001928E-02 0. -1.
        1   -1    0    0  501    0  0.00000000000E+00  0.00000000000E+00 -0.43117180498E+03  0.43117180501E+03  0.50400001928E-02 0.  1.
    10030    2    1    2    0    0  0.00000000000E+00  0.00000000000E+00  0.54422552306E+03  0.14065691331E+04  0.12970178511E+04 0.  0.
        5    1    3    3  502    0 -0.11520076971E+03  0.10962136688E+03 -0.40968110132E+03  0.43948692381E+03  0.46999998093E+01 0.  1.
       -5    1    3    3    0  502  0.11520076971E+03 -0.10962136688E+03  0.95390662438E+03  0.96708220925E+03  0.46999998093E+01 0. -1.
</event>
<event>
 5   0  0.6742824E-05  0.1300259E+04  0.7818609E-02  0.9029360E-01
       -2   -1    0    0    0  501  0.00000000000E+00  0.00000000000E+00  0.13556872157E+04  0.13556872157E+04  0.25500000920E-02 0. -1.
        2   -1    0    0  501    0  0.00000000000E+00  0.00000000000E+00 -0.31177415688E+03  0.31177415689E+03  0.25500000920E-02 0.  1.
    10030    2    1    2    0    0  0.00000000000E+00  0.00000000000E+00  0.10439130588E+04  0.16674613725E+04  0.13002588030E+04 0.  0.
        4    1    3    3  502    0  0.22571314215E+03 -0.60617826635E+03  0.43817584289E+03  0.78127984444E+03  0.12699999809E+01 0.  1.
       -4    1    3    3    0  502 -0.22571314215E+03  0.60617826635E+03  0.60573721589E+03  0.88618152811E+03  0.12699999809E+01 0. -1.
</event>
<event>
 5   0  0.3689707E-05  0.1300281E+04  0.7818609E-02  0.9029342E-01
       -1   -1    0    0    0  501  0.00000000000E+00  0.00000000000E+00  0.22625634941E+03  0.22625634947E+03  0.50400001928E-02 0.  1.
        1   -1    0    0  501    0  0.00000000000E+00  0.00000000000E+00 -0.18681580923E+04  0.18681580923E+04  0.50400001928E-02 0. -1.
    10030    2    1    2    0    0  0.00000000000E+00  0.00000000000E+00 -0.16419017429E+04  0.20944144417E+04  0.13002809391E+04 0.  0.
        1    1    3    3  502    0 -0.30863312918E+02  0.89028994038E+02 -0.18571011070E+04  0.18594900450E+04  0.50400001928E-02 0. -1.
       -1    1    3    3    0  502  0.30863312918E+02 -0.89028994038E+02  0.21519936410E+03  0.23492439677E+03  0.50400001928E-02 0.  1.
</event>
<event>
 5   0  0.3552698E-05  0.1300037E+04  0.7818609E-02  0.9029536E-01
       -1   -1    0    0    0  501  0.00000000000E+00  0.00000000000E+00  0.50212620603E+03  0.50212620606E+03  0.50400001928E-02 0. -1.
        1   -1    0    0  501    0  0.00000000000E+00  0.00000000000E+00 -0.84146967618E+03  0.84146967619E+03  0.50400001928E-02 0.  1.
    10030    2    1    2    0    0  0.00000000000E+00  0.00000000000E+00 -0.33934347014E+03  0.13435958822E+04  0.13000368857E+04 0.  0.
        5    1    3    3  502    0 -0.15862852998E+03 -0.60063027807E+03  0.28001363679E+02  0.62187290327E+03  0.46999998093E+01 0. -1.
       -5    1    3    3    0  502  0.15862852998E+03  0.60063027807E+03 -0.36734483382E+03  0.72172297898E+03  0.46999998093E+01 0.  1.
</event>
<event>
 5   0  0.3689707E-05  0.1292921E+04  0.7818609E-02  0.9035197E-01
        1   -1    0    0  501    0  0.00000000000E+00  0.00000000000E+00  0.64382346522E+03  0.64382346524E+03  0.50400001928E-02 0.  1.
       -1   -1    0    0    0  501  0.00000000000E+00  0.00000000000E+00 -0.64910878794E+03  0.64910878796E+03  0.50400001928E-02 0. -1.
    10030    2    1    2    0    0  0.00000000000E+00  0.00000000000E+00 -0.52853227264E+01  0.12929322532E+04  0.12929214503E+04 0.  0.
        1    1    3    3  502    0  0.36933746494E+03  0.41178819839E+03 -0.33720753742E+03  0.64783378011E+03  0.50400001928E-02 0. -1.
       -1    1    3    3    0  502 -0.36933746494E+03 -0.41178819839E+03  0.33192221469E+03  0.64509847308E+03  0.50400001928E-02 0.  1.
</event>
<event>
 5   0  0.3718559E-05  0.1299527E+04  0.7818609E-02  0.9029940E-01
       -1   -1    0    0    0  501  0.00000000000E+00  0.00000000000E+00  0.27061968369E+03  0.27061968373E+03  0.50400001928E-02 0.  1.
        1   -1    0    0  501    0  0.00000000000E+00  0.00000000000E+00 -0.15600963753E+04  0.15600963753E+04  0.50400001928E-02 0. -1.
    10030    2    1    2    0    0  0.00000000000E+00  0.00000000000E+00 -0.12894766916E+04  0.18307160591E+04  0.12995272797E+04 0.  0.
        2    1    3    3  502    0  0.23633473989E+03 -0.21329962875E+03 -0.14426984199E+04  0.14774063664E+04  0.25500000920E-02 0. -1.
       -2    1    3    3    0  502 -0.23633473989E+03  0.21329962875E+03  0.15322172822E+03  0.35330969264E+03  0.25500000920E-02 0.  1.
</event>
<event>
 5   0  0.3551277E-05  0.1300977E+04  0.7818609E-02  0.9028791E-01
       -1   -1    0    0    0  501  0.00000000000E+00  0.00000000000E+00  0.41305672106E+03  0.41305672109E+03  0.50400001928E-02 0. -1.
        1   -1    0    0  501    0  0.00000000000E+00  0.00000000000E+00 -0.10244002989E+04  0.10244002990E+04  0.50400001928E-02 0.  1.
    10030    2    1    2    0    0  0.00000000000E+00  0.00000000000E+00 -0.61134357788E+03  0.14374570200E+04  0.13009772151E+04 0.  0.
        4    1    3    3  502    0  0.18252607209E+03  0.40015880521E+03  0.22386623115E+03  0.49351852927E+03  0.12699999809E+01 0. -1.
       -4    1    3    3    0  502 -0.18252607209E+03 -0.40015880521E+03 -0.83520980903E+03  0.94393849078E+03  0.12699999809E+01 0.  1.
</event>
<event>
 5   0  0.3552698E-05  0.1299477E+04  0.7818609E-02  0.9029980E-01
        1   -1    0    0  501    0  0.00000000000E+00  0.00000000000E+00  0.20105799400E+04  0.20105799400E+04  0.50400001928E-02 0. -1.
       -1   -1    0    0    0  501  0.00000000000E+00  0.00000000000E+00 -0.20996930559E+03  0.20996930565E+03  0.50400001928E-02 0.  1.
    10030    2    1    2    0    0  0.00000000000E+00  0.00000000000E+00  0.18006106344E+04  0.22205492456E+04  0.12994769315E+04 0.  0.
        5    1    3    3  502    0  0.20262872806E+03 -0.35703266425E+03  0.17608485129E+04  0.18080764089E+04  0.46999998093E+01 0. -1.
       -5    1    3    3    0  502 -0.20262872806E+03  0.35703266425E+03  0.39762121462E+02  0.41247283678E+03  0.46999998093E+01 0.  1.
</event>
<event>
 5   0  0.6671239E-05  0.1299581E+04  0.7818609E-02  0.9029897E-01
       -2   -1    0    0    0  501  0.00000000000E+00  0.00000000000E+00  0.37972259486E+03  0.37972259487E+03  0.25500000920E-02 0.  1.
        2   -1    0    0  501    0  0.00000000000E+00  0.00000000000E+00 -0.11119376176E+04  0.11119376176E+04  0.25500000920E-02 0. -1.
    10030    2    1    2    0    0  0.00000000000E+00  0.00000000000E+00 -0.73221502270E+03  0.14916602124E+04  0.12995812210E+04 0.  0.
        1    1    3    3  502    0 -0.35776104282E+03 -0.33417406279E+03 -0.85653222640E+03  0.98656612697E+03  0.50400001928E-02 0. -1.
       -1    1    3    3    0  502  0.35776104282E+03  0.33417406279E+03  0.12431720370E+03  0.50509408546E+03  0.50400001928E-02 0.  1.
</event>
<event>
 5   0  0.3718559E-05  0.1300491E+04  0.7818609E-02  0.9029176E-01
       -1   -1    0    0    0  501  0.00000000000E+00  0.00000000000E+00  0.19959814853E+03  0.19959814860E+03  0.50400001928E-02 0. -1.
        1   -1    0    0  501    0  0.00000000000E+00  0.00000000000E+00 -0.21183529646E+04  0.21183529646E+04  0.50400001928E-02 0.  1.
    10030    2    1    2    0    0  0.00000000000E+00  0.00000000000E+00 -0.19187548160E+04  0.23179511132E+04  0.13004911837E+04 0.  0.
        2    1    3    3  502    0  0.26928368941E+02 -0.59403847909E+03 -0.49046787812E+03  0.77082137436E+03  0.25500000920E-02 0. -1.
       -2    1    3    3    0  502 -0.26928368941E+02  0.59403847909E+03 -0.14282869379E+04  0.15471297388E+04  0.25500000920E-02 0.  1.
</event>
<event>
 5   0  0.6458698E-05  0.1299937E+04  0.7818609E-02  0.9029615E-01
        2   -1    0    0  501    0  0.00000000000E+00  0.00000000000E+00  0.10072912000E+04  0.10072912000E+04  0.25500000920E-02 0. -1.
       -2   -1    0    0    0  501  0.00000000000E+00  0.00000000000E+00 -0.41940104489E+03  0.41940104490E+03  0.25500000920E-02 0.  1.
    10030    2    1    2    0    0  0.00000000000E+00  0.00000000000E+00  0.58789015513E+03  0.14266922449E+04  0.12999368936E+04 0.  0.
        3    1    3    3  502    0 -0.34843584030E+03  0.37000874119E+03  0.73859868292E+03  0.89657237743E+03  0.10100000352E+00 0. -1.
       -3    1    3    3    0  502  0.34843584030E+03 -0.37000874119E+03 -0.15070852779E+03  0.53011986750E+03  0.10100000352E+00 0.  1.
</event>
<event>
 5   0  0.3551277E-05  0.1299924E+04  0.7818609E-02  0.9029626E-01
        1   -1    0    0  501    0  0.00000000000E+00  0.00000000000E+00  0.56540155849E+03  0.56540155851E+03  0.50400001928E-02 0.  1.
       -1   -1    0    0    0  501  0.00000000000E+00  0.00000000000E+00 -0.74716879236E+03  0.74716879238E+03  0.50400001928E-02 0. -1.
    10030    2    1    2    0    0  0.00000000000E+00  0.00000000000E+00 -0.18176723387E+03  0.13125703509E+04  0.12999236896E+04 0.  0.
        4    1    3    3  502    0 -0.21610535980E+03  0.61242502150E+03 -0.11726930557E+03  0.65993911569E+03  0.12699999809E+01 0.  1.
       -4    1    3    3    0  502  0.21610535980E+03 -0.61242502150E+03 -0.64497928301E+02  0.65263123519E+03  0.12699999809E+01 0. -1.
</event>
<event>
 5   0  0.6671239E-05  0.1300986E+04  0.7818609E-02  0.9028784E-01
        2   -1    0    0  501    0  0.00000000000E+00  0.00000000000E+00  0.11893240112E+04  0.11893240112E+04  0.25500000920E-02 0.  1.
       -2   -1    0    0    0  501  0.00000000000E+00  0.00000000000E+00 -0.35578275084E+03  0.35578275084E+03  0.25500000920E-02 0. -1.
    10030    2    1    2    0    0  0.00000000000E+00  0.00000000000E+00  0.83354126035E+03  0.15451067620E+04  0.13009857314E+04 0.  0.
        1    1    3    3  502    0  0.20713799119E+03  0.61634326083E+03  0.39436833883E+03  0.76046798043E+03  0.50400001928E-02 0.  1.
       -1    1    3    3    0  502 -0.20713799119E+03 -0.61634326083E+03  0.43917292152E+03  0.78463878160E+03  0.50400001928E-02 0. -1.
</event>
<event>
 5   0  0.3631841E-05  0.1299561E+04  0.7818609E-02  0.9029913E-01
       -1   -1    0    0    0  501  0.00000000000E+00  0.00000000000E+00  0.73155421656E+03  0.73155421658E+03  0.50400001928E-02 0. -1.
        1   -1    0    0  501    0  0.00000000000E+00  0.00000000000E+00 -0.57714763487E+03  0.57714763489E+03  0.50400001928E-02 0.  1.
    10030    2    1    2    0    0  0.00000000000E+00  0.00000000000E+00  0.15440658169E+03  0.13087018515E+04  0.12995611350E+04 0.  0.
        3    1    3    3  502    0  0.18894833530E+03  0.40168088575E+03  0.55505724606E+03  0.71073030328E+03  0.10100000352E+00 0. -1.
       -3    1    3    3    0  502 -0.18894833530E+03 -0.40168088575E+03 -0.40065066437E+03  0.59797154819E+03  0.10100000352E+00 0.  1.
</event>
<event>
 5   0  0.6742824E-05  0.1294178E+04  0.7818609E-02  0.9034195E-01
        2   -1    0    0  501    0  0.00000000000E+00  0.00000000000E+00  0.14752422512E+04  0.14752422512E+04  0.25500000920E-02 0. -1.
       -2   -1    0    0    0  501  0.00000000000E+00  0.00000000000E+00 -0.28383433159E+03  0.28383433161E+03  0.25500000920E-02 0.  1.
    10030    2    1    2    0    0  0.00000000000E+00  0.00000000000E+00  0.11914079196E+04  0.17590765828E+04  0.12941783468E+04 0.  0.
        4    1    3    3  502    0  0.35261766328E+03  0.15206175748E+03  0.13036238746E+04  0.13590065540E+04  0.12699999809E+01 0. -1.
       -4    1    3    3    0  502 -0.35261766328E+03 -0.15206175748E+03 -0.11221595493E+03  0.40007002885E+03  0.12699999809E+01 0.  1.
</event>
<event>
 5   0  0.2512000E-05  0.1300608E+04  0.7818609E-02  0.9029083E-01
       -3   -1    0    0    0  501  0.00000000000E+00  0.00000000000E+00  0.18750849470E+03  0.18750852190E+03  0.10100000352E+00 0. -1.
        3   -1    0    0  501    0  0.00000000000E+00  0.00000000000E+00 -0.22553407961E+04  0.22553407984E+04  0.10100000352E+00 0.  1.
    10030    2    1    2    0    0  0.00000000000E+00  0.00000000000E+00 -0.20678323014E+04  0.24428493203E+04  0.13006084633E+04 0.  0.
        1    1    3    3  502    0  0.83264802289E+02 -0.41596572718E+02 -0.22427652177E+04  0.22446957753E+04  0.50400001928E-02 0.  1.
       -1    1    3    3    0  502 -0.83264802289E+02  0.41596572718E+02  0.17493291626E+03  0.19815354495E+03  0.50400001928E-02 0. -1.
</event>
<event>
 5   0  0.6742824E-05  0.1299903E+04  0.7818609E-02  0.9029642E-01
        2   -1    0    0  501    0  0.00000000000E+00  0.00000000000E+00  0.11633577240E+04  0.11633577240E+04  0.25500000920E-02 0. -1.
       -2   -1    0    0    0  501  0.00000000000E+00  0.00000000000E+00 -0.36311856146E+03  0.36311856147E+03  0.25500000920E-02 0.  1.
    10030    2    1    2    0    0  0.00000000000E+00  0.00000000000E+00  0.80023916253E+03  0.15264762855E+04  0.12999027397E+04 0.  0.
        4    1    3    3  502    0  0.61896451535E+03  0.18092800140E+03  0.49539839045E+03  0.81318705788E+03  0.12699999809E+01 0. -1.
       -4    1    3    3    0  502 -0.61896451535E+03 -0.18092800140E+03  0.30484077208E+03  0.71328922757E+03  0.12699999809E+01 0.  1.
</event>
<event>
 5   0  0.6688086E-05  0.1300202E+04  0.7818609E-02  0.9029405E-01
        2   -1    0    0  501    0  0.00000000000E+00  0.00000000000E+00  0.10684887374E+04  0.10684887374E+04  0.25500000920E-02 0.  1.
       -2   -1    0    0    0  501  0.00000000000E+00  0.00000000000E+00 -0.39554121913E+03  0.39554121914E+03  0.25500000920E-02 0. -1.
    10030    2    1    2    0    0  0.00000000000E+00  0.00000000000E+00  0.67294751825E+03  0.14640299565E+04  0.13002020425E+04 0.  0.
        5    1    3    3  502    0 -0.45918805639E+03  0.28472149550E+03 -0.70586820436E+02  0.54490787327E+03  0.46999998093E+01 0.  1.
       -5    1    3    3    0  502  0.45918805639E+03 -0.28472149550E+03  0.74353433869E+03  0.91912208326E+03  0.46999998093E+01 0. -1.
</event>
<event>
 5   0  0.6618060E-05  0.1301787E+04  0.7818609E-02  0.9028149E-01
       -2   -1    0    0    0  501  0.00000000000E+00  0.00000000000E+00  0.33877377143E+03  0.33877377143E+03  0.25500000920E-02 0.  1.
        2   -1    0    0  501    0  0.00000000000E+00  0.00000000000E+00 -0.12505755773E+04  0.12505755773E+04  0.25500000920E-02 0. -1.
    10030    2    1    2    0    0  0.00000000000E+00  0.00000000000E+00 -0.91180180591E+03  0.15893493488E+04  0.13017867795E+04 0.  0.
        2    1    3    3  502    0  0.18229621798E+03  0.42567660852E+03 -0.10143597780E+04  0.11150597497E+04  0.25500000920E-02 0. -1.
       -2    1    3    3    0  502 -0.18229621798E+03 -0.42567660852E+03  0.10255797211E+03  0.47428959907E+03  0.25500000920E-02 0.  1.
</event>
<event>
 5   0  0.6458698E-05  0.1299521E+04  0.7818609E-02  0.9029945E-01
       -2   -1    0    0    0  501  0.00000000000E+00  0.00000000000E+00  0.67034476317E+03  0.67034476317E+03  0.25500000920E-02 0.  1.
        2   -1    0    0  501    0  0.00000000000E+00  0.00000000000E+00 -0.62980862943E+03  0.62980862944E+03  0.25500000920E-02 0. -1.
    10030    2    1    2    0    0  0.00000000000E+00  0.00000000000E+00  0.40536133736E+02  0.13001533926E+04  0.12995213219E+04 0.  0.
        3    1    3    3  502    0 -0.21556810334E+03 -0.36142473692E+03 -0.47503985295E+03  0.63463400455E+03  0.10100000352E+00 0. -1.
       -3    1    3    3    0  502  0.21556810334E+03  0.36142473692E+03  0.51557598669E+03  0.66551938806E+03  0.10100000352E+00 0.  1.
</event>
<event>
 5   0  0.6458698E-05  0.1298483E+04  0.7818609E-02  0.9030769E-01
       -2   -1    0    0    0  501  0.00000000000E+00  0.00000000000E+00  0.60027373133E+03  0.60027373133E+03  0.25500000920E-02 0. -1.
        2   -1    0    0  501    0  0.00000000000E+00  0.00000000000E+00 -0.70220365191E+03  0.70220365191E+03  0.25500000920E-02 0.  1.
    10030    2    1    2    0    0  0.00000000000E+00  0.00000000000E+00 -0.10192992058E+03  0.13024773832E+04  0.12984828167E+04 0.  0.
        3    1    3    3  502    0 -0.37715029155E+03  0.27442594691E+03 -0.50397632525E+03  0.68669067954E+03  0.10100000352E+00 0.  1.
       -3    1    3    3    0  502  0.37715029155E+03 -0.27442594691E+03  0.40204640466E+03  0.61578670370E+03  0.10100000352E+00 0. -1.
</event>
<event>
 5   0  0.6618060E-05  0.1300466E+04  0.7818609E-02  0.9029195E-01
       -2   -1    0    0    0  501  0.00000000000E+00  0.00000000000E+00  0.38065895168E+03  0.38065895169E+03  0.25500000920E-02 0.  1.
        2   -1    0    0  501    0  0.00000000000E+00  0.00000000000E+00 -0.11107138538E+04  0.11107138538E+04  0.25500000920E-02 0. -1.
    10030    2    1    2    0    0  0.00000000000E+00  0.00000000000E+00 -0.73005490213E+03  0.14913728055E+04  0.13004663336E+04 0.  0.
        2    1    3    3  502    0 -0.52764474866E+03  0.19832873045E+03  0.66837156219E+01  0.56372682939E+03  0.25500000920E-02 0.  1.
       -2    1    3    3    0  502  0.52764474866E+03 -0.19832873045E+03 -0.73673861775E+03  0.92764597612E+03  0.25500000920E-02 0. -1.
</event>
<event>
 5   0  0.2512000E-05  0.1300458E+04  0.7818609E-02  0.9029202E-01
       -3   -1    0    0    0  501  0.00000000000E+00  0.00000000000E+00  0.16534002428E+03  0.16534005513E+03  0.10100000352E+00 0. -1.
        3   -1    0    0  501    0  0.00000000000E+00  0.00000000000E+00 -0.25571420764E+04  0.25571420784E+04  0.10100000352E+00 0.  1.
    10030    2    1    2    0    0  0.00000000000E+00  0.00000000000E+00 -0.23918020521E+04  0.27224821335E+04  0.13004583465E+04 0.  0.
        4    1    3    3  502    0 -0.19719961964E+03 -0.61217150859E+03 -0.13962057072E+04  0.15372161968E+04  0.12699999809E+01 0.  1.
       -4    1    3    3    0  502  0.19719961964E+03  0.61217150859E+03 -0.99559634495E+03  0.11852659368E+04  0.12699999809E+01 0. -1.
</event>
<event>
 5   0  0.2512000E-05  0.1299836E+04  0.7818609E-02  0.9029696E-01
       -4   -1    0    0    0  501  0.00000000000E+00  0.00000000000E+00  0.17824278779E+04  0.17824283303E+04  0.12699999809E+01 0.  1.
        4   -1    0    0  501    0  0.00000000000E+00  0.00000000000E+00 -0.23697407372E+03  0.23697747682E+03  0.12699999809E+01 0. -1.
    10030    2    1    2    0    0  0.00000000000E+00  0.00000000000E+00  0.15454538042E+04  0.20194058072E+04  0.12998355100E+04 0.  0.
        2    1    3    3  502    0  0.54141577397E+03 -0.21108103985E+03  0.12248893075E+04  0.13557433612E+04  0.25500000920E-02 0.  1.
       -2    1    3    3    0  502 -0.54141577397E+03  0.21108103985E+03  0.32056449666E+03  0.66366244598E+03  0.25500000920E-02 0. -1.
</event>
<event>
 5   0  0.6458698E-05  0.1299792E+04  0.7818609E-02  0.9029730E-01
        2   -1    0    0  501    0  0.00000000000E+00  0.00000000000E+00  0.35279999101E+03  0.35279999102E+03  0.25500000920E-02 0. -1.
       -2   -1    0    0    0  501  0.00000000000E+00  0.00000000000E+00 -0.11971787458E+04  0.11971787458E+04  0.25500000920E-02 0.  1.
    10030    2    1    2    0    0  0.00000000000E+00  0.00000000000E+00 -0.84437875477E+03  0.15499787368E+04  0.12997917537E+04 0.  0.
        3    1    3    3  502    0 -0.22988933096E+03  0.12764538395E+03 -0.11309114418E+04  0.11610784418E+04  0.10100000352E+00 0.  1.
       -3    1    3    3    0  502  0.22988933096E+03 -0.12764538395E+03  0.28653268704E+03  0.38890029503E+03  0.10100000352E+00 0. -1.
</event>
<event>
 5   0  0.3551277E-05  0.1299638E+04  0.7818609E-02  0.9029852E-01
       -1   -1    0    0    0  501  0.00000000000E+00  0.00000000000E+00  0.42203446732E+03  0.42203446735E+03  0.50400001928E-02 0. -1.
        1   -1    0    0  501    0  0.00000000000E+00  0.00000000000E+00 -0.10005461429E+04  0.10005461429E+04  0.50400001928E-02 0.  1.
    10030    2    1    2    0    0  0.00000000000E+00  0.00000000000E+00 -0.57851167558E+03  0.14225806103E+04  0.12996383474E+04 0.  0.
        4    1    3    3  502    0  0.40434612588E+03  0.37183235705E+03  0.90725935703E+02  0.55676556967E+03  0.12699999809E+01 0. -1.
       -4    1    3    3    0  502 -0.40434612588E+03 -0.37183235705E+03 -0.66923761128E+03  0.86581504059E+03  0.12699999809E+01 0.  1.
</event>
<event>
 5   0  0.6671239E-05  0.1300000E+04  0.7818609E-02  0.9029565E-01
        2   -1    0    0  501    0  0.00000000000E+00  0.00000000000E+00  0.24633868713E+04  0.24633868713E+04  0.25500000920E-02 0. -1.
       -2   -1    0    0    0  501  0.00000000000E+00  0.00000000000E+00 -0.17151195495E+03  0.17151195497E+03  0.25500000920E-02 0.  1.
    10030    2    1    2    0    0  0.00000000000E+00  0.00000000000E+00  0.22918749163E+04  0.26348988263E+04  0.13000004586E+04 0.  0.
        1    1    3    3  502    0 -0.42696415765E+03  0.24865533769E+03  0.28991668882E+03  0.57286957971E+03  0.50400001928E-02 0.  1.
       -1    1    3    3    0  502  0.42696415765E+03 -0.24865533769E+03  0.20019582275E+04  0.20620292465E+04  0.50400001928E-02 0. -1.
</event>
<event>
 5   0  0.6618060E-05  0.1298674E+04  0.7818609E-02  0.9030617E-01
        2   -1    0    0  501    0  0.00000000000E+00  0.00000000000E+00  0.86224128539E+03  0.86224128540E+03  0.25500000920E-02 0. -1.
       -2   -1    0    0    0  501  0.00000000000E+00  0.00000000000E+00 -0.48900289538E+03  0.48900289539E+03  0.25500000920E-02 0.  1.
    10030    2    1    2    0    0  0.00000000000E+00  0.00000000000E+00  0.37323839001E+03  0.13512441808E+04  0.12986739161E+04 0.  0.
        2    1    3    3  502    0  0.18414957576E+03 -0.19817172022E+03  0.80081565787E+03  0.84527440210E+03  0.25500000920E-02 0. -1.
       -2    1    3    3    0  502 -0.18414957576E+03  0.19817172022E+03 -0.42757726786E+03  0.50596977869E+03  0.25500000920E-02 0.  1.
</event>
<event>
 5   0  0.3718559E-05  0.1300205E+04  0.7818609E-02  0.9029403E-01
        1   -1    0    0  501    0  0.00000000000E+00  0.00000000000E+00  0.11478421666E+04  0.11478421666E+04  0.50400001928E-02 0.  1.
       -1   -1    0    0    0  501  0.00000000000E+00  0.00000000000E+00 -0.36819785292E+03  0.36819785295E+03  0.50400001928E-02 0. -1.
    10030    2    1    2    0    0  0.00000000000E+00  0.00000000000E+00  0.77964431364E+03  0.15160400195E+04  0.13002046320E+04 0.  0.
        2    1    3    3  502    0  0.27226495535E+02  0.64728762298E+03  0.32691780471E+03  0.72567058640E+03  0.25500000920E-02 0.  1.
       -2    1    3    3    0  502 -0.27226495535E+02 -0.64728762298E+03  0.45272650893E+03  0.79036943312E+03  0.25500000920E-02 0. -1.
</event>
<event>
 5   0  0.6688086E-05  0.1300030E+04  0.7818609E-02  0.9029541E-01
        2   -1    0    0  501    0  0.00000000000E+00  0.00000000000E+00  0.51630835447E+03  0.51630835448E+03  0.25500000920E-02 0. -1.
       -2   -1    0    0    0  501  0.00000000000E+00  0.00000000000E+00 -0.81834721598E+03  0.81834721598E+03  0.25500000920E-02 0.  1.
    10030    2    1    2    0    0  0.00000000000E+00  0.00000000000E+00 -0.30203886151E+03  0.13346555705E+04  0.13000300065E+04 0.  0.
        5    1    3    3  502    0  0.25077425288E+03  0.47032382309E+03  0.23091781748E+03  0.58089358140E+03  0.46999998093E+01 0. -1.
       -5    1    3    3    0  502 -0.25077425288E+03 -0.47032382309E+03 -0.53295667899E+03  0.75376198906E+03  0.46999998093E+01 0.  1.
</event>
<event>
 5   0  0.3631841E-05  0.1300229E+04  0.7818609E-02  0.9029383E-01
        1   -1    0    0  501    0  0.00000000000E+00  0.00000000000E+00  0.25534794414E+04  0.25534794414E+04  0.50400001928E-02 0.  1.
       -1   -1    0    0    0  501  0.00000000000E+00  0.00000000000E+00 -0.16551892683E+03  0.16551892690E+03  0.50400001928E-02 0. -1.
    10030    2    1    2    0    0  0.00000000000E+00  0.00000000000E+00  0.23879605146E+04  0.27189983683E+04  0.13002294827E+04 0.  0.
        3    1    3    3  502    0  0.56305303783E+03 -0.17172107927E+02  0.51531466702E+03  0.76346108018E+03  0.10100000352E+00 0. -1.
       -3    1    3    3    0  502 -0.56305303783E+03  0.17172107927E+02  0.18726458475E+04  0.19555372881E+04  0.10100000352E+00 0.  1.
</event>
<event>
 5   0  0.3631841E-05  0.1299908E+04  0.7818609E-02  0.9029638E-01
       -1   -1    0    0    0  501  0.00000000000E+00  0.00000000000E+00  0.10774518017E+04  0.10774518017E+04  0.50400001928E-02 0.  1.
        1   -1    0    0  501    0  0.00000000000E+00  0.00000000000E+00 -0.39207335469E+03  0.39207335472E+03  0.50400001928E-02 0. -1.
    10030    2    1    2    0    0  0.00000000000E+00  0.00000000000E+00  0.68537844704E+03  0.14695251565E+04  0.12999079082E+04 0.  0.
        3    1    3    3  502    0  0.19037266093E+03  0.38425890327E+03 -0.20944950683E+03  0.47724811249E+03  0.10100000352E+00 0. -1.
       -3    1    3    3    0  502 -0.19037266093E+03 -0.38425890327E+03  0.89482795387E+03  0.99227704397E+03  0.10100000352E+00 0.  1.
</event>
<event>
 5   0  0.3551277E-05  0.1300428E+04  0.7818609E-02  0.9029226E-01
        1   -1    0    0  501    0  0.00000000000E+00  0.00000000000E+00  0.44838044421E+03  0.44838044424E+03  0.50400001928E-02 0.  1.
       -1   -1    0    0    0  501  0.00000000000E+00  0.00000000000E+00 -0.94290116360E+03  0.94290116361E+03  0.50400001928E-02 0. -1.
    10030    2    1    2    0    0  0.00000000000E+00  0.00000000000E+00 -0.49452071938E+03  0.13912816079E+04  0.13004283027E+04 0.  0.
        4    1    3    3  502    0 -0.56756429563E+03 -0.42165315534E+02 -0.58366362986E+03  0.81521284903E+03  0.12699999809E+01 0. -1.
       -4    1    3    3    0  502  0.56756429563E+03  0.42165315534E+02  0.89142910476E+02  0.57606875882E+03  0.12699999809E+01 0.  1.
</event>
<event>
 5   0  0.6742824E-05  0.1297992E+04  0.7818609E-02  0.9031159E-01
        2   -1    0    0  501    0  0.00000000000E+00  0.00000000000E+00  0.46187671371E+03  0.46187671372E+03  0.25500000920E-02 0.  1.
       -2   -1    0    0    0  501  0.00000000000E+00  0.00000000000E+00 -0.91192296133E+03  0.91192296133E+03  0.25500000920E-02 0. -1.
    10030    2    1    2    0    0  0.00000000000E+00  0.00000000000E+00 -0.45004624762E+03  0.13737996750E+04  0.12979922658E+04 0.  0.
        4    1    3    3  502    0  0.26316307815E+03  0.30531591571E+03  0.31333066972E+03  0.51053925958E+03  0.12699999809E+01 0.  1.
       -4    1    3    3    0  502 -0.26316307815E+03 -0.30531591571E+03 -0.76337691734E+03  0.86326041547E+03  0.12699999809E+01 0. -1.
</event>
<event>
 5   0  0.6618060E-05  0.1300387E+04  0.7818609E-02  0.9029258E-01
       -2   -1    0    0    0  501  0.00000000000E+00  0.00000000000E+00  0.15917010693E+03  0.15917010695E+03  0.25500000920E-02 0.  1.
        2   -1    0    0  501    0  0.00000000000E+00  0.00000000000E+00 -0.26559752104E+04  0.26559752104E+04  0.25500000920E-02 0. -1.
    10030    2    1    2    0    0  0.00000000000E+00  0.00000000000E+00 -0.24968051035E+04  0.28151453174E+04  0.13003874165E+04 0.  0.
        2    1    3    3  502    0 -0.28126542851E+03  0.38209619556E+02  0.17955198525E+02  0.28441625386E+03  0.25500000920E-02 0.  1.
       -2    1    3    3    0  502  0.28126542851E+03 -0.38209619556E+02 -0.25147603020E+04  0.25307290635E+04  0.25500000920E-02 0. -1.
</event>
<event>
 5   0  0.6742824E-05  0.1299977E+04  0.7818609E-02  0.9029583E-01
        2   -1    0    0  501    0  0.00000000000E+00  0.00000000000E+00  0.11370816454E+04  0.11370816454E+04  0.25500000920E-02 0. -1.
       -2   -1    0    0    0  501  0.00000000000E+00  0.00000000000E+00 -0.37155203704E+03  0.37155203705E+03  0.25500000920E-02 0.  1.
    10030    2    1    2    0    0  0.00000000000E+00  0.00000000000E+00  0.76552960839E+03  0.15086336825E+04  0.12999769254E+04 0.  0.
        4    1    3    3  502    0 -0.18368249989E+03  0.43541728283E+03 -0.13513382794E+03  0.49151829601E+03  0.12699999809E+01 0.  1.
       -4    1    3    3    0  502  0.18368249989E+03 -0.43541728283E+03  0.90066343633E+03  0.10171153865E+04  0.12699999809E+01 0. -1.
</event>
<event>
 5   0  0.6671239E-05  0.1299213E+04  0.7818609E-02  0.9030189E-01
       -2   -1    0    0    0  501  0.00000000000E+00  0.00000000000E+00  0.22592734844E+03  0.22592734845E+03  0.25500000920E-02 0. -1.
        2   -1    0    0  501    0  0.00000000000E+00  0.00000000000E+00 -0.18678072749E+04  0.18678072749E+04  0.25500000920E-02 0.  1.
    10030    2    1    2    0    0  0.00000000000E+00  0.00000000000E+00 -0.16418799264E+04  0.20937346233E+04  0.12992132158E+04 0.  0.
        1    1    3    3  502    0 -0.31953659136E+03  0.49289362614E+03 -0.12679528840E+04  0.13974091297E+04  0.50400001928E-02 0. -1.
       -1    1    3    3    0  502  0.31953659136E+03 -0.49289362614E+03 -0.37392704250E+03  0.69632549360E+03  0.50400001928E-02 0.  1.
</event>
<event>
 5   0  0.6458698E-05  0.1300000E+04  0.7818609E-02  0.9029565E-01
       -2   -1    0    0    0  501  0.00000000000E+00  0.00000000000E+00  0.24610996011E+03  0.24610996012E+03  0.25500000920E-02 0. -1.
        2   -1    0    0  501    0  0.00000000000E+00  0.00000000000E+00 -0.17167126428E+04  0.17167126428E+04  0.25500000920E-02 0.  1.
    10030    2    1    2    0    0  0.00000000000E+00  0.00000000000E+00 -0.14706026826E+04  0.19628226029E+04  0.13000001231E+04 0.  0.
        3    1    3    3  502    0 -0.10886068942E+03  0.57500254009E+03 -0.11624125791E+04  0.13014152239E+04  0.10100000352E+00 0.  1.
       -3    1    3    3    0  502  0.10886068942E+03 -0.57500254009E+03 -0.30819010352E+03  0.66140737894E+03  0.10100000352E+00 0. -1.
</event>
<event>
 5   0  0.3689707E-05  0.1293297E+04  0.7818609E-02  0.9034898E-01
       -1   -1    0    0    0  501  0.00000000000E+00  0.00000000000E+00  0.72505677438E+03  0.72505677440E+03  0.50400001928E-02 0.  1.
        1   -1    0    0  501    0  0.00000000000E+00  0.00000000000E+00 -0.57671916307E+03  0.57671916310E+03  0.50400001928E-02 0. -1.
    10030    2    1    2    0    0  0.00000000000E+00  0.00000000000E+00  0.14833761131E+03  0.13017759375E+04  0.12932967736E+04 0.  0.
        1    1    3    3  502    0  0.39449210820E+03 -0.40551601844E+03 -0.24107276801E+03  0.61496613253E+03  0.50400001928E-02 0. -1.
       -1    1    3    3    0  502 -0.39449210820E+03  0.40551601844E+03  0.38941037932E+03  0.68680980497E+03  0.50400001928E-02 0.  1.
</event>
<event>
 5   0  0.6618060E-05  0.1300781E+04  0.7818609E-02  0.9028946E-01
       -2   -1    0    0    0  501  0.00000000000E+00  0.00000000000E+00  0.47314467723E+03  0.47314467724E+03  0.25500000920E-02 0.  1.
        2   -1    0    0  501    0  0.00000000000E+00  0.00000000000E+00 -0.89403450447E+03  0.89403450448E+03  0.25500000920E-02 0. -1.
    10030    2    1    2    0    0  0.00000000000E+00  0.00000000000E+00 -0.42088982724E+03  0.13671791817E+04  0.13007807918E+04 0.  0.
        2    1    3    3  502    0 -0.43278630313E+03  0.43966580019E+03 -0.42686237647E+03  0.75021429504E+03  0.25500000920E-02 0. -1.
       -2    1    3    3    0  502  0.43278630313E+03 -0.43966580019E+03  0.59725492240E+01  0.61696488667E+03  0.25500000920E-02 0.  1.
</event>
<event>
 5   0  0.3718559E-05  0.1299892E+04  0.7818609E-02  0.9029651E-01
       -1   -1    0    0    0  501  0.00000000000E+00  0.00000000000E+00  0.27888716905E+03  0.27888716909E+03  0.50400001928E-02 0. -1.
        1   -1    0    0  501    0  0.00000000000E+00  0.00000000000E+00 -0.15146976259E+04  0.15146976259E+04  0.50400001928E-02 0.  1.
    10030    2    1    2    0    0  0.00000000000E+00  0.00000000000E+00 -0.12358104568E+04  0.17935847950E+04  0.12998918922E+04 0.  0.
        2    1    3    3  502    0 -0.34035109787E+03  0.17956237163E+02 -0.13815050169E+04  0.14229256509E+04  0.25500000920E-02 0.  1.
       -2    1    3    3    0  502  0.34035109787E+03 -0.17956237163E+02  0.14569456003E+03  0.37065914410E+03  0.25500000920E-02 0. -1.
</event>
<event>
 5   0  0.6742824E-05  0.1298844E+04  0.7818609E-02  0.9030482E-01
       -2   -1    0    0    0  501  0.00000000000E+00  0.00000000000E+00  0.34204176338E+03  0.34204176339E+03  0.25500000920E-02 0. -1.
        2   -1    0    0  501    0  0.00000000000E+00  0.00000000000E+00 -0.12330343922E+04  0.12330343922E+04  0.25500000920E-02 0.  1.
    10030    2    1    2    0    0  0.00000000000E+00  0.00000000000E+00 -0.89099262879E+03  0.15750761556E+04  0.12988444985E+04 0.  0.
        4    1    3    3  502    0 -0.19694281006E+03 -0.56121701309E+03 -0.12927719851E+03  0.60865853577E+03  0.12699999809E+01 0. -1.
       -4    1    3    3    0  502  0.19694281006E+03  0.56121701309E+03 -0.76171543028E+03  0.96641761979E+03  0.12699999809E+01 0.  1.
</event>
<event>
 5   0  0.6742824E-05  0.1300026E+04  0.7818609E-02  0.9029545E-01
        2   -1    0    0  501    0  0.00000000000E+00  0.00000000000E+00  0.44730734461E+03  0.44730734462E+03  0.25500000920E-02 0.  1.
       -2   -1    0    0    0  501  0.00000000000E+00  0.00000000000E+00 -0.94457784845E+03  0.94457784845E+03  0.25500000920E-02 0. -1.
    10030    2    1    2    0    0  0.00000000000E+00  0.00000000000E+00 -0.49727050384E+03  0.13918851931E+04  0.13000255523E+04 0.  0.
        4    1    3    3  502    0 -0.17565306894E+03  0.57074721476E+03  0.26231753335E+02  0.59774250440E+03  0.12699999809E+01 0.  1.
       -4    1    3    3    0  502  0.17565306894E+03 -0.57074721476E+03 -0.52350225717E+03  0.79414268866E+03  0.12699999809E+01 0. -1.
</event>
<event>
 5   0  0.3689707E-05  0.1300340E+04  0.7818609E-02  0.9029296E-01
       -1   -1    0    0    0  501  0.00000000000E+00  0.00000000000E+00  0.47247665169E+03  0.47247665171E+03  0.50400001928E-02 0.  1.
        1   -1    0    0  501    0  0.00000000000E+00  0.00000000000E+00 -0.89469133596E+03  0.89469133597E+03  0.50400001928E-02 0. -1.
    10030    2    1    2    0    0  0.00000000000E+00  0.00000000000E+00 -0.42221468427E+03  0.13671679877E+04  0.13003395968E+04 0.  0.
        1    1    3    3  502    0  0.60614002027E+03 -0.14156373918E+03 -0.40857549662E+03  0.74456695662E+03  0.50400001928E-02 0. -1.
       -1    1    3    3    0  502 -0.60614002027E+03  0.14156373918E+03 -0.13639187649E+02  0.62260103107E+03  0.50400001928E-02 0.  1.
</event>
<event>
 5   0  0.3631841E-05  0.1299529E+04  0.7818609E-02  0.9029938E-01
       -1   -1    0    0    0  501  0.00000000000E+00  0.00000000000E+00  0.74250388246E+03  0.74250388248E+03  0.50400001928E-02 0.  1.
        1   -1    0    0  501    0  0.00000000000E+00  0.00000000000E+00 -0.56860870999E+03  0.56860871001E+03  0.50400001928E-02 0. -1.
    10030    2    1    2    0    0  0.00000000000E+00  0.00000000000E+00  0.17389517248E+03  0.13111125925E+04  0.12995294145E+04 0.  0.
        3    1    3    3  502    0  0.26174344999E+03 -0.55851161909E+03  0.29309528238E+03  0.68289802828E+03  0.10100000352E+00 0.  1.
       -3    1    3    3    0  502 -0.26174344999E+03  0.55851161909E+03 -0.11920010991E+03  0.62821456420E+03  0.10100000352E+00 0. -1.
</event>
<event>
 5   0  0.6458698E-05  0.1299224E+04  0.7818609E-02  0.9030181E-01
        2   -1    0    0  501    0  0.00000000000E+00  0.00000000000E+00  0.10620476345E+04  0.10620476345E+04  0.25500000920E-02 0. -1.
       -2   -1    0    0    0  501  0.00000000000E+00  0.00000000000E+00 -0.39734145714E+03  0.39734145715E+03  0.25500000920E-02 0.  1.
    10030    2    1    2    0    0  0.00000000000E+00  0.00000000000E+00  0.66470617737E+03  0.14593890917E+04  0.12992236985E+04 0.  0.
        3    1    3    3  502    0 -0.46263071678E+03  0.28804793202E+02  0.84358473642E+03  0.96254460361E+03  0.10100000352E+00 0. -1.
       -3    1    3    3    0  502  0.46263071678E+03 -0.28804793202E+02 -0.17887855905E+03  0.49684448805E+03  0.10100000352E+00 0.  1.
</event>
<event>
 5   0  0.3552698E-05  0.1300559E+04  0.7818609E-02  0.9029122E-01
       -1   -1    0    0    0  501  0.00000000000E+00  0.00000000000E+00  0.20350671059E+03  0.20350671065E+03  0.50400001928E-02 0. -1.
        1   -1    0    0  501    0  0.00000000000E+00  0.00000000000E+00 -0.20778848481E+04  0.20778848481E+04  0.50400001928E-02 0.  1.
    10030    2    1    2    0    0  0.00000000000E+00  0.00000000000E+00 -0.18743781375E+04  0.22813915588E+04  0.13005591267E+04 0.  0.
        5    1    3    3  502    0  0.47359242666E+03  0.20022515558E+03 -0.23890579509E+03  0.56699027191E+03  0.46999998093E+01 0. -1.
       -5    1    3    3    0  502 -0.47359242666E+03 -0.20022515558E+03 -0.16354723424E+04  0.17144012869E+04  0.46999998093E+01 0.  1.
</event>
<event>
 5   0  0.3551277E-05  0.1295169E+04  0.7818609E-02  0.9033405E-01
       -1   -1    0    0    0  501  0.00000000000E+00  0.00000000000E+00  0.25038605701E+03  0.25038605706E+03  0.50400001928E-02 0.  1.
        1   -1    0    0  501    0  0.00000000000E+00  0.00000000000E+00 -0.16748753123E+04  0.16748753123E+04  0.50400001928E-02 0. -1.
    10030    2    1    2    0    0  0.00000000000E+00  0.00000000000E+00 -0.14244892553E+04  0.19252613694E+04  0.12951685998E+04 0.  0.
        4    1    3    3  502    0  0.32155285899E+03 -0.37648922434E+03 -0.91780501694E+02  0.50355302656E+03  0.12699999809E+01 0.  1.
       -4    1    3    3    0  502 -0.32155285899E+03  0.37648922434E+03 -0.13327087536E+04  0.14217083428E+04  0.12699999809E+01 0. -1.
</event>
<event>
 5   0  0.6742824E-05  0.1300026E+04  0.7818609E-02  0.9029544E-01
        2   -1    0    0  501    0  0.00000000000E+00  0.00000000000E+00  0.22082372430E+04  0.22082372430E+04  0.25500000920E-02 0. -1.
       -2   -1    0    0    0  501  0.00000000000E+00  0.00000000000E+00 -0.19133677007E+03  0.19133677009E+03  0.25500000920E-02 0.  1.
    10030    2    1    2    0    0  0.00000000000E+00  0.00000000000E+00  0.20169004729E+04  0.23995740131E+04  0.13000261254E+04 0.  0.
        4    1    3    3  502    0 -0.15731339261E+03 -0.41524583453E+03  0.13225674640E+03  0.46332501169E+03  0.12699999809E+01 0.  1.
       -4    1    3    3    0  502  0.15731339261E+03  0.41524583453E+03  0.18846437265E+04  0.19362490014E+04  0.12699999809E+01 0. -1.
</event>
<event>
 5   0  0.6671239E-05  0.1299345E+04  0.7818609E-02  0.9030085E-01
       -2   -1    0    0    0  501  0.00000000000E+00  0.00000000000E+00  0.28365820783E+03  0.28365820784E+03  0.25500000920E-02 0. -1.
        2   -1    0    0  501    0  0.00000000000E+00  0.00000000000E+00 -0.14879678148E+04  0.14879678148E+04  0.25500000920E-02 0.  1.
    10030    2    1    2    0    0  0.00000000000E+00  0.00000000000E+00 -0.12043096070E+04  0.17716260227E+04  0.12993448867E+04 0.  0.
        1    1    3    3  502    0  0.56028792209E+03  0.32652193074E+03 -0.54873233245E+03  0.84949767486E+03  0.50400001928E-02 0. -1.
       -1    1    3    3    0  502 -0.56028792209E+03 -0.32652193074E+03 -0.65557727455E+03  0.92212834781E+03  0.50400001928E-02 0.  1.
</event>
<event>
 5   0  0.3718559E-05  0.1301315E+04  0.7818609E-02  0.9028523E-01
        1   -1    0    0  501    0  0.00000000000E+00  0.00000000000E+00  0.12968043659E+04  0.12968043659E+04  0.50400001928E-02 0.  1.
       -1   -1    0    0    0  501  0.00000000000E+00  0.00000000000E+00 -0.32646032957E+03  0.32646032961E+03  0.50400001928E-02 0. -1.
    10030    2    1    2    0    0  0.00000000000E+00  0.00000000000E+00  0.97034403635E+03  0.16232646956E+04  0.13013149976E+04 0.  0.
        2    1    3    3  502    0  0.11085036242E+03 -0.17951547020E+03 -0.28260608909E+03  0.35267521671E+03  0.25500000920E-02 0. -1.
       -2    1    3    3    0  502 -0.11085036242E+03  0.17951547020E+03  0.12529501254E+04  0.12705894788E+04  0.25500000920E-02 0.  1.
</event>
<event>
 5   0  0.6618060E-05  0.1303267E+04  0.7818609E-02  0.9026979E-01
        2   -1    0    0  501    0  0.00000000000E+00  0.00000000000E+00  0.10260872184E+04  0.10260872184E+04  0.25500000920E-02 0.  1.
       -2   -1    0    0    0  501  0.00000000000E+00  0.00000000000E+00 -0.41383028623E+03  0.41383028624E+03  0.25500000920E-02 0. -1.
    10030    2    1    2    0    0  0.00000000000E+00  0.00000000000E+00  0.61225693215E+03  0.14399175046E+04  0.13032666148E+04 0.  0.
        2    1    3    3  502    0  0.30351383520E+03 -0.46456794517E+03 -0.71275246545E+02  0.55948564290E+03  0.25500000920E-02 0. -1.
       -2    1    3    3    0  502 -0.30351383520E+03  0.46456794517E+03  0.68353217869E+03  0.88043186173E+03  0.25500000920E-02 0.  1.
</event>
<event>
 5   0  0.6671239E-05  0.1300164E+04  0.7818609E-02  0.9029435E-01
        2   -1    0    0  501    0  0.00000000000E+00  0.00000000000E+00  0.68406489076E+03  0.68406489077E+03  0.25500000920E-02 0. -1.
       -2   -1    0    0    0  501  0.00000000000E+00  0.00000000000E+00 -0.61778700299E+03  0.61778700300E+03  0.25500000920E-02 0.  1.
    10030    2    1    2    0    0  0.00000000000E+00  0.00000000000E+00  0.66277887768E+02  0.13018518938E+04  0.13001636800E+04 0.  0.
        1    1    3    3  502    0  0.30776320563E+03  0.22833979664E+03  0.55893901042E+03  0.67769467378E+03  0.50400001928E-02 0. -1.
       -1    1    3    3    0  502 -0.30776320563E+03 -0.22833979664E+03 -0.49266112265E+03  0.62415721999E+03  0.50400001928E-02 0.  1.
</event>
<event>
 5   0  0.6458698E-05  0.1300244E+04  0.7818609E-02  0.9029372E-01
       -2   -1    0    0    0  501  0.00000000000E+00  0.00000000000E+00  0.27079227963E+03  0.27079227964E+03  0.25500000920E-02 0. -1.
        2   -1    0    0  501    0  0.00000000000E+00  0.00000000000E+00 -0.15608219634E+04  0.15608219634E+04  0.25500000920E-02 0.  1.
    10030    2    1    2    0    0  0.00000000000E+00  0.00000000000E+00 -0.12900296838E+04  0.18316142431E+04  0.13002438811E+04 0.  0.
        3    1    3    3  502    0  0.50991682859E+03 -0.35942188065E+03 -0.38734273726E+03  0.73432531393E+03  0.10100000352E+00 0. -1.
       -3    1    3    3    0  502 -0.50991682859E+03  0.35942188065E+03 -0.90268694654E+03  0.10972889291E+04  0.10100000352E+00 0.  1.
</event>
<event>
 5   0  0.6618060E-05  0.1298476E+04  0.7818609E-02  0.9030774E-01
        2   -1    0    0  501    0  0.00000000000E+00  0.00000000000E+00  0.13338476950E+04  0.13338476950E+04  0.25500000920E-02 0.  1.
       -2   -1    0    0    0  501  0.00000000000E+00  0.00000000000E+00 -0.31601075995E+03  0.31601075996E+03  0.25500000920E-02 0. -1.
    10030    2    1    2    0    0  0.00000000000E+00  0.00000000000E+00  0.10178369350E+04  0.16498584549E+04  0.12984763745E+04 0.  0.
        2    1    3    3  502    0  0.24216331876E+02 -0.20580169968E+03 -0.27286308557E+03  0.34262958687E+03  0.25500000920E-02 0. -1.
       -2    1    3    3    0  502 -0.24216331876E+02  0.20580169968E+03  0.12907000206E+04  0.13072288681E+04  0.25500000920E-02 0.  1.
</event>
<event>
 5   0  0.3552698E-05  0.1301235E+04  0.7818609E-02  0.9028586E-01
        1   -1    0    0  501    0  0.00000000000E+00  0.00000000000E+00  0.51724225657E+03  0.51724225659E+03  0.50400001928E-02 0. -1.
       -1   -1    0    0    0  501  0.00000000000E+00  0.00000000000E+00 -0.81838455632E+03  0.81838455634E+03  0.50400001928E-02 0.  1.
    10030    2    1    2    0    0  0.00000000000E+00  0.00000000000E+00 -0.30114229976E+03  0.13356268129E+04  0.13012349130E+04 0.  0.
        5    1    3    3  502    0  0.26168755787E+03  0.56440005715E+03 -0.34600621545E+03  0.71187793447E+03  0.46999998093E+01 0.  1.
       -5    1    3    3    0  502 -0.26168755787E+03 -0.56440005715E+03  0.44863915696E+02  0.62374887846E+03  0.46999998093E+01 0. -1.
</event>
<event>
 5   0  0.6742824E-05  0.1300570E+04  0.7818609E-02  0.9029113E-01
        2   -1    0    0  501    0  0.00000000000E+00  0.00000000000E+00  0.70943005874E+03  0.70943005875E+03  0.25500000920E-02 0. -1.
       -2   -1    0    0    0  501  0.00000000000E+00  0.00000000000E+00 -0.59607083403E+03  0.59607083403E+03  0.25500000920E-02 0.  1.
    10030    2    1    2    0    0  0.00000000000E+00  0.00000000000E+00  0.11335922472E+03  0.13055008928E+04  0.13005699778E+04 0.  0.
        4    1    3    3  502    0 -0.26072560625E+03 -0.26640449784E+03 -0.47818178531E+03  0.60630737331E+03  0.12699999809E+01 0.  1.
       -4    1    3    3    0  502  0.26072560625E+03  0.26640449784E+03  0.59154101003E+03  0.69919351947E+03  0.12699999809E+01 0. -1.
</event>
<event>
 5   0  0.3631841E-05  0.1300354E+04  0.7818609E-02  0.9029285E-01
        1   -1    0    0  501    0  0.00000000000E+00  0.00000000000E+00  0.78064882212E+03  0.78064882214E+03  0.50400001928E-02 0. -1.
       -1   -1    0    0    0  501  0.00000000000E+00  0.00000000000E+00 -0.54151085311E+03  0.54151085314E+03  0.50400001928E-02 0.  1.
    10030    2    1    2    0    0  0.00000000000E+00  0.00000000000E+00  0.23913796901E+03  0.13221596753E+04  0.13003535053E+04 0.  0.
        3    1    3    3  502    0 -0.16717164396E+03  0.36456731698E+03  0.63988687495E+03  0.75518932069E+03  0.10100000352E+00 0. -1.
       -3    1    3    3    0  502  0.16717164396E+03 -0.36456731698E+03 -0.40074890595E+03  0.56697035458E+03  0.10100000352E+00 0.  1.
</event>
<event>
 5   0  0.3689707E-05  0.1299427E+04  0.7818609E-02  0.9030020E-01
       -1   -1    0    0    0  501  0.00000000000E+00  0.00000000000E+00  0.62117769901E+03  0.62117769903E+03  0.50400001928E-02 0. -1.
        1   -1    0    0  501    0  0.00000000000E+00  0.00000000000E+00 -0.67955966282E+03  0.67955966284E+03  0.50400001928E-02 0.  1.
    10030    2    1    2    0    0  0.00000000000E+00  0.00000000000E+00 -0.58381963818E+02  0.13007373619E+04  0.12994265008E+04 0.  0.
        1    1    3    3  502    0  0.63113342067E+03  0.13906406001E+03 -0.96034840517E+02  0.65336888363E+03  0.50400001928E-02 0.  1.
       -1    1    3    3    0  502 -0.63113342067E+03 -0.13906406001E+03  0.37652876699E+02  0.64736847824E+03  0.50400001928E-02 0. -1.
</event>
<event>
 5   0  0.6458698E-05  0.1300961E+04  0.7818609E-02  0.9028803E-01
        2   -1    0    0  501    0  0.00000000000E+00  0.00000000000E+00  0.51871095849E+03  0.51871095849E+03  0.25500000920E-02 0.  1.
       -2   -1    0    0    0  501  0.00000000000E+00  0.00000000000E+00 -0.81572399450E+03  0.81572399450E+03  0.25500000920E-02 0. -1.
    10030    2    1    2    0    0  0.00000000000E+00  0.00000000000E+00 -0.29701303601E+03  0.13344349530E+04  0.13009611448E+04 0.  0.
        3    1    3    3  502    0  0.67430831414E+02  0.59153482337E+03 -0.41728811630E+03  0.72704177768E+03  0.10100000352E+00 0. -1.
       -3    1    3    3    0  502 -0.67430831414E+02 -0.59153482337E+03  0.12027508029E+03  0.60739317532E+03  0.10100000352E+00 0.  1.
</event>
<event>
 5   0  0.3552698E-05  0.1305740E+04  0.7818609E-02  0.9025026E-01
       -1   -1    0    0    0  501  0.00000000000E+00  0.00000000000E+00  0.50966723203E+03  0.50966723206E+03  0.50400001928E-02 0.  1.
        1   -1    0    0  501    0  0.00000000000E+00  0.00000000000E+00 -0.83630850643E+03  0.83630850645E+03  0.50400001928E-02 0. -1.
    10030    2    1    2    0    0  0.00000000000E+00  0.00000000000E+00 -0.32664127440E+03  0.13459757385E+04  0.13057397009E+04 0.  0.
        5    1    3    3  502    0 -0.38342921101E+03 -0.51224193369E+03 -0.29695809890E+03  0.70541899676E+03  0.46999998093E+01 0. -1.
       -5    1    3    3    0  502  0.38342921101E+03  0.51224193369E+03 -0.29683175504E+02  0.64055674174E+03  0.46999998093E+01 0.  1.
</event>
<event>
 5   0  0.3631841E-05  0.1299801E+04  0.7818609E-02  0.9029723E-01
        1   -1    0    0  501    0  0.00000000000E+00  0.00000000000E+00  0.14106214066E+04  0.14106214066E+04  0.50400001928E-02 0. -1.
       -1   -1    0    0    0  501  0.00000000000E+00  0.00000000000E+00 -0.29942176329E+03  0.29942176333E+03  0.50400001928E-02 0.  1.
    10030    2    1    2    0    0  0.00000000000E+00  0.00000000000E+00  0.11111996433E+04  0.17100431699E+04  0.12998011370E+04 0.  0.
        3    1    3    3  502    0  0.34551491282E+03  0.30208220810E+03 -0.49780152653E+02  0.46164086608E+03  0.10100000352E+00 0.  1.
       -3    1    3    3    0  502 -0.34551491282E+03 -0.30208220810E+03  0.11609797960E+04  0.12484023039E+04  0.10100000352E+00 0. -1.
</event>
<event>
 5   0  0.3551277E-05  0.1300316E+04  0.7818609E-02  0.9029315E-01
       -1   -1    0    0    0  501  0.00000000000E+00  0.00000000000E+00  0.39135400786E+03  0.39135400789E+03  0.50400001928E-02 0. -1.
        1   -1    0    0  501    0  0.00000000000E+00  0.00000000000E+00 -0.10801102987E+04  0.10801102987E+04  0.50400001928E-02 0.  1.
    10030    2    1    2    0    0  0.00000000000E+00  0.00000000000E+00 -0.68875629084E+03  0.14714643066E+04  0.13003161067E+04 0.  0.
        4    1    3    3  502    0 -0.18466966833E+03  0.53806639848E+03  0.11831719702E+02  0.56899906684E+03  0.12699999809E+01 0. -1.
       -4    1    3    3    0  502  0.18466966833E+03 -0.53806639848E+03 -0.70058801054E+03  0.90246523977E+03  0.12699999809E+01 0.  1.
</event>
<event>
 5   0  0.3552698E-05  0.1299698E+04  0.7818609E-02  0.9029805E-01
        1   -1    0    0  501    0  0.00000000000E+00  0.00000000000E+00  0.15113681954E+04  0.15113681954E+04  0.50400001928E-02 0. -1.
       -1   -1    0    0    0  501  0.00000000000E+00  0.00000000000E+00 -0.27941798054E+03  0.27941798058E+03  0.50400001928E-02 0.  1.
    10030    2    1    2    0    0  0.00000000000E+00  0.00000000000E+00  0.12319502149E+04  0.17907861760E+04  0.12996975788E+04 0.  0.
        5    1    3    3  502    0 -0.53880490384E+03  0.36278927866E+03  0.59003003815E+03  0.87754448379E+03  0.46999998093E+01 0.  1.
       -5    1    3    3    0  502  0.53880490384E+03 -0.36278927866E+03  0.64192017674E+03  0.91324169223E+03  0.46999998093E+01 0. -1.
</event>
<event>
 5   0  0.3551277E-05  0.1299999E+04  0.7818609E-02  0.9029566E-01
       -1   -1    0    0    0  501  0.00000000000E+00  0.00000000000E+00  0.35406854737E+03  0.35406854740E+03  0.50400001928E-02 0.  1.
        1   -1    0    0  501    0  0.00000000000E+00  0.00000000000E+00 -0.11932693407E+04  0.11932693408E+04  0.50400001928E-02 0. -1.
    10030    2    1    2    0    0  0.00000000000E+00  0.00000000000E+00 -0.83920079338E+03  0.15473378882E+04  0.12999986802E+04 0.  0.
        4    1    3    3  502    0  0.40200571625E+03 -0.47949136498E+03 -0.62908961473E+03  0.88728570441E+03  0.12699999809E+01 0. -1.
       -4    1    3    3    0  502 -0.40200571625E+03  0.47949136498E+03 -0.21011117865E+03  0.66005218375E+03  0.12699999809E+01 0.  1.
</event>
<event>
 5   0  0.6458698E-05  0.1300484E+04  0.7818609E-02  0.9029182E-01
       -2   -1    0    0    0  501  0.00000000000E+00  0.00000000000E+00  0.24350915499E+03  0.24350915500E+03  0.25500000920E-02 0. -1.
        2   -1    0    0  501    0  0.00000000000E+00  0.00000000000E+00 -0.17363387985E+04  0.17363387985E+04  0.25500000920E-02 0.  1.
    10030    2    1    2    0    0  0.00000000000E+00  0.00000000000E+00 -0.14928296435E+04  0.19798479535E+04  0.13004835925E+04 0.  0.
        3    1    3    3  502    0  0.28611326336E+03  0.89813510762E+02  0.13195105515E+03  0.32762533074E+03  0.10100000352E+00 0. -1.
       -3    1    3    3    0  502 -0.28611326336E+03 -0.89813510762E+02 -0.16247806986E+04  0.16522226227E+04  0.10100000352E+00 0.  1.
</event>
<event>
 5   0  0.3551277E-05  0.1299963E+04  0.7818609E-02  0.9029594E-01
        1   -1    0    0  501    0  0.00000000000E+00  0.00000000000E+00  0.83873810899E+03  0.83873810900E+03  0.50400001928E-02 0. -1.
       -1   -1    0    0    0  501  0.00000000000E+00  0.00000000000E+00 -0.50370448823E+03  0.50370448826E+03  0.50400001928E-02 0.  1.
    10030    2    1    2    0    0  0.00000000000E+00  0.00000000000E+00  0.33503362076E+03  0.13424425973E+04  0.12999633071E+04 0.  0.
        4    1    3    3  502    0  0.12668420618E+03 -0.50892075711E+03 -0.22899000631E+03  0.57226502689E+03  0.12699999809E+01 0.  1.
       -4    1    3    3    0  502 -0.12668420618E+03  0.50892075711E+03  0.56402362707E+03  0.77017757037E+03  0.12699999809E+01 0. -1.
</event>
<event>
 5   0  0.6458698E-05  0.1300145E+04  0.7818609E-02  0.9029450E-01
       -2   -1    0    0    0  501  0.00000000000E+00  0.00000000000E+00  0.65506990257E+03  0.65506990258E+03  0.25500000920E-02 0.  1.
        2   -1    0    0  501    0  0.00000000000E+00  0.00000000000E+00 -0.64511352403E+03  0.64511352404E+03  0.25500000920E-02 0. -1.
    10030    2    1    2    0    0  0.00000000000E+00  0.00000000000E+00  0.99563785408E+01  0.13001834266E+04  0.13001453047E+04 0.  0.
        3    1    3    3  502    0  0.44208903668E+03  0.34165361091E+03 -0.32733343046E+03  0.64754697984E+03  0.10100000352E+00 0. -1.
       -3    1    3    3    0  502 -0.44208903668E+03 -0.34165361091E+03  0.33728980900E+03  0.65263644678E+03  0.10100000352E+00 0.  1.
</event>
<event>
 5   0  0.6742824E-05  0.1300196E+04  0.7818609E-02  0.9029410E-01
        2   -1    0    0  501    0  0.00000000000E+00  0.00000000000E+00  0.24590294234E+04  0.24590294234E+04  0.25500000920E-02 0.  1.
       -2   -1    0    0    0  501  0.00000000000E+00  0.00000000000E+00 -0.17186750593E+03  0.17186750595E+03  0.25500000920E-02 0. -1.
    10030    2    1    2    0    0  0.00000000000E+00  0.00000000000E+00  0.22871619175E+04  0.26308969294E+04  0.13001957607E+04 0.  0.
        4    1    3    3  502    0  0.28471891955E+03 -0.55839737177E+03  0.79455189882E+03  0.10120211563E+04  0.12699999809E+01 0.  1.
       -4    1    3    3    0  502 -0.28471891955E+03  0.55839737177E+03  0.14926100187E+04  0.16188757731E+04  0.12699999809E+01 0. -1.
</event>
<event>
 5   0  0.3551277E-05  0.1299766E+04  0.7818609E-02  0.9029750E-01
       -1   -1    0    0    0  501  0.00000000000E+00  0.00000000000E+00  0.31359690893E+03  0.31359690897E+03  0.50400001928E-02 0.  1.
        1   -1    0    0  501    0  0.00000000000E+00  0.00000000000E+00 -0.13467867232E+04  0.13467867232E+04  0.50400001928E-02 0. -1.
    10030    2    1    2    0    0  0.00000000000E+00  0.00000000000E+00 -0.10331898143E+04  0.16603836322E+04  0.12997663689E+04 0.  0.
        4    1    3    3  502    0 -0.32390978386E+02 -0.53095686991E+03 -0.39673568083E+02  0.53342288861E+03  0.12699999809E+01 0.  1.
       -4    1    3    3    0  502  0.32390978386E+02  0.53095686991E+03 -0.99351624617E+03  0.11269607435E+04  0.12699999809E+01 0. -1.
</event>
<event>
 5   0  0.3689707E-05  0.1299947E+04  0.7818609E-02  0.9029607E-01
        1   -1    0    0  501    0  0.00000000000E+00  0.00000000000E+00  0.79045773670E+03  0.79045773672E+03  0.50400001928E-02 0. -1.
       -1   -1    0    0    0  501  0.00000000000E+00  0.00000000000E+00 -0.53445682057E+03  0.53445682059E+03  0.50400001928E-02 0.  1.
    10030    2    1    2    0    0  0.00000000000E+00  0.00000000000E+00  0.25600091613E+03  0.13249145573E+04  0.12999469663E+04 0.  0.
        1    1    3    3  502    0 -0.23781150493E+03 -0.35088610531E+02  0.74348650773E+03  0.78138192305E+03  0.50400001928E-02 0. -1.
       -1    1    3    3    0  502  0.23781150493E+03  0.35088610531E+02 -0.48748559160E+03  0.54353263426E+03  0.50400001928E-02 0.  1.
</event>
<event>
 5   0  0.6618060E-05  0.1300206E+04  0.7818609E-02  0.9029401E-01
        2   -1    0    0  501    0  0.00000000000E+00  0.00000000000E+00  0.19558310955E+04  0.19558310955E+04  0.25500000920E-02 0. -1.
       -2   -1    0    0    0  501  0.00000000000E+00  0.00000000000E+00 -0.21608933009E+03  0.21608933011E+03  0.25500000920E-02 0.  1.
    10030    2    1    2    0    0  0.00000000000E+00  0.00000000000E+00  0.17397417654E+04  0.21719204256E+04  0.13002064932E+04 0.  0.
        2    1    3    3  502    0  0.16162857274E+03 -0.50376301520E+03  0.15009650581E+04  0.15914763827E+04  0.25500000920E-02 0. -1.
       -2    1    3    3    0  502 -0.16162857274E+03  0.50376301520E+03  0.23877670732E+03  0.58044404293E+03  0.25500000920E-02 0.  1.
</event>
<event>
 5   0  0.6458698E-05  0.1300042E+04  0.7818609E-02  0.9029532E-01
        2   -1    0    0  501    0  0.00000000000E+00  0.00000000000E+00  0.93262804171E+03  0.93262804172E+03  0.25500000920E-02 0.  1.
       -2   -1    0    0    0  501  0.00000000000E+00  0.00000000000E+00 -0.45304995284E+03  0.45304995285E+03  0.25500000920E-02 0. -1.
    10030    2    1    2    0    0  0.00000000000E+00  0.00000000000E+00  0.47957808887E+03  0.13856779946E+04  0.13000416768E+04 0.  0.
        3    1    3    3  502    0  0.25080122203E+03  0.13691806158E+03  0.86209698359E+03  0.90821750031E+03  0.10100000352E+00 0.  1.
       -3    1    3    3    0  502 -0.25080122203E+03 -0.13691806158E+03 -0.38251889471E+03  0.47746049425E+03  0.10100000352E+00 0. -1.
</event>
<event>
 5   0  0.3551277E-05  0.1299988E+04  0.7818609E-02  0.9029575E-01
       -1   -1    0    0    0  501  0.00000000000E+00  0.00000000000E+00  0.28234073153E+03  0.28234073157E+03  0.50400001928E-02 0. -1.
        1   -1    0    0  501    0  0.00000000000E+00  0.00000000000E+00 -0.14963915829E+04  0.14963915829E+04  0.50400001928E-02 0.  1.
    10030    2    1    2    0    0  0.00000000000E+00  0.00000000000E+00 -0.12140508513E+04  0.17787323144E+04  0.12999881449E+04 0.  0.
        4    1    3    3  502    0  0.16640427951E+03 -0.37966694300E+03 -0.12920527970E+04  0.13569227742E+04  0.12699999809E+01 0.  1.
       -4    1    3    3    0  502 -0.16640427951E+03  0.37966694300E+03  0.78001945683E+02  0.42180954029E+03  0.12699999809E+01 0. -1.
</event>
<event>
 5   0  0.3718559E-05  0.1299464E+04  0.7818609E-02  0.9029990E-01
        1   -1    0    0  501    0  0.00000000000E+00  0.00000000000E+00  0.15263955584E+04  0.15263955584E+04  0.50400001928E-02 0.  1.
       -1   -1    0    0    0  501  0.00000000000E+00  0.00000000000E+00 -0.27656788150E+03  0.27656788155E+03  0.50400001928E-02 0. -1.
    10030    2    1    2    0    0  0.00000000000E+00  0.00000000000E+00  0.12498276769E+04  0.18029634400E+04  0.12994644835E+04 0.  0.
        2    1    3    3  502    0 -0.64398080362E+03 -0.69430315035E+02  0.55389314435E+03  0.85224964620E+03  0.25500000920E-02 0. -1.
       -2    1    3    3    0  502  0.64398080362E+03  0.69430315035E+02  0.69593453258E+03  0.95071379380E+03  0.25500000920E-02 0.  1.
</event>
<event>
 5   0  0.3689707E-05  0.1300075E+04  0.7818609E-02  0.9029506E-01
       -1   -1    0    0    0  501  0.00000000000E+00  0.00000000000E+00  0.74887912480E+03  0.74887912482E+03  0.50400001928E-02 0. -1.
        1   -1    0    0  501    0  0.00000000000E+00  0.00000000000E+00 -0.56424179584E+03  0.56424179587E+03  0.50400001928E-02 0.  1.
    10030    2    1    2    0    0  0.00000000000E+00  0.00000000000E+00  0.18463732896E+03  0.13131209207E+04  0.13000752321E+04 0.  0.
        1    1    3    3  502    0  0.38743605745E+03 -0.52102104578E+03  0.60711303539E+02  0.65211616385E+03  0.50400001928E-02 0. -1.
       -1    1    3    3    0  502 -0.38743605745E+03  0.52102104578E+03  0.12392602542E+03  0.66100475683E+03  0.50400001928E-02 0.  1.
</event>
<event>
 5   0  0.6618060E-05  0.1297324E+04  0.7818609E-02  0.9031690E-01
       -2   -1    0    0    0  501  0.00000000000E+00  0.00000000000E+00  0.12243084842E+04  0.12243084842E+04  0.25500000920E-02 0.  1.
        2   -1    0    0  501    0  0.00000000000E+00  0.00000000000E+00 -0.34367363589E+03  0.34367363590E+03  0.25500000920E-02 0. -1.
    10030    2    1    2    0    0  0.00000000000E+00  0.00000000000E+00  0.88063484832E+03  0.15679821201E+04  0.12973242435E+04 0.  0.
        2    1    3    3  502    0  0.32613686139E+02 -0.50830993844E+03 -0.45123680168E+02  0.51134997072E+03  0.25500000920E-02 0. -1.
       -2    1    3    3    0  502 -0.32613686139E+02  0.50830993844E+03  0.92575852849E+03  0.10566321494E+04  0.25500000920E-02 0.  1.
</event>
<event>
 5   0  0.3552698E-05  0.1301666E+04  0.7818609E-02  0.9028245E-01
        1   -1    0    0  501    0  0.00000000000E+00  0.00000000000E+00  0.87716521568E+03  0.87716521569E+03  0.50400001928E-02 0. -1.
       -1   -1    0    0    0  501  0.00000000000E+00  0.00000000000E+00 -0.48290039883E+03  0.48290039886E+03  0.50400001928E-02 0.  1.
    10030    2    1    2    0    0  0.00000000000E+00  0.00000000000E+00  0.39426481685E+03  0.13600656146E+04  0.13016657521E+04 0.  0.
        5    1    3    3  502    0 -0.32893747208E+03  0.54475268516E+03  0.54608796257E+02  0.63871711982E+03  0.46999998093E+01 0.  1.
       -5    1    3    3    0  502  0.32893747208E+03 -0.54475268516E+03  0.33965602059E+03  0.72134849473E+03  0.46999998093E+01 0. -1.
</event>
<event>
 5   0  0.3631841E-05  0.1299624E+04  0.7818609E-02  0.9029863E-01
       -1   -1    0    0    0  501  0.00000000000E+00  0.00000000000E+00  0.86509049421E+03  0.86509049423E+03  0.50400001928E-02 0. -1.
        1   -1    0    0  501    0  0.00000000000E+00  0.00000000000E+00 -0.48810578646E+03  0.48810578649E+03  0.50400001928E-02 0.  1.
    10030    2    1    2    0    0  0.00000000000E+00  0.00000000000E+00  0.37698470775E+03  0.13531962807E+04  0.12996240627E+04 0.  0.
        3    1    3    3  502    0 -0.32705440194E+02  0.28566110454E+03 -0.41826703302E+03  0.50756204899E+03  0.10100000352E+00 0.  1.
       -3    1    3    3    0  502  0.32705440194E+02 -0.28566110454E+03  0.79525174077E+03  0.84563423172E+03  0.10100000352E+00 0. -1.
</event>
<event>
 5   0  0.6458698E-05  0.1299880E+04  0.7818609E-02  0.9029660E-01
        2   -1    0    0  501    0  0.00000000000E+00  0.00000000000E+00  0.38553263363E+03  0.38553263364E+03  0.25500000920E-02 0.  1.
       -2   -1    0    0    0  501  0.00000000000E+00  0.00000000000E+00 -0.10956847218E+04  0.10956847218E+04  0.25500000920E-02 0. -1.
    10030    2    1    2    0    0  0.00000000000E+00  0.00000000000E+00 -0.71015208815E+03  0.14812173554E+04  0.12998803275E+04 0.  0.
        3    1    3    3  502    0  0.61653490886E+02  0.26893199043E+03 -0.10256390007E+04  0.10621021318E+04  0.10100000352E+00 0. -1.
       -3    1    3    3    0  502 -0.61653490886E+02 -0.26893199043E+03  0.31548691260E+03  0.41911522358E+03  0.10100000352E+00 0.  1.
</event>
<event>
 5   0  0.6458698E-05  0.1300089E+04  0.7818609E-02  0.9029494E-01
       -2   -1    0    0    0  501  0.00000000000E+00  0.00000000000E+00  0.63320760676E+03  0.63320760677E+03  0.25500000920E-02 0.  1.
        2   -1    0    0  501    0  0.00000000000E+00  0.00000000000E+00 -0.66732944869E+03  0.66732944870E+03  0.25500000920E-02 0. -1.
    10030    2    1    2    0    0  0.00000000000E+00  0.00000000000E+00 -0.34121841930E+02  0.13005370555E+04  0.13000893556E+04 0.  0.
        3    1    3    3  502    0  0.24994226656E+02  0.41691837325E+03 -0.51534130534E+03  0.66334177654E+03  0.10100000352E+00 0. -1.
       -3    1    3    3    0  502 -0.24994226656E+02 -0.41691837325E+03  0.48121946341E+03  0.63719527892E+03  0.10100000352E+00 0.  1.
</event>
<event>
 5   0  0.3689707E-05  0.1300087E+04  0.7818609E-02  0.9029496E-01
       -1   -1    0    0    0  501  0.00000000000E+00  0.00000000000E+00  0.65196761580E+03  0.65196761582E+03  0.50400001928E-02 0.  1.
        1   -1    0    0  501    0  0.00000000000E+00  0.00000000000E+00 -0.64812549575E+03  0.64812549577E+03  0.50400001928E-02 0. -1.
    10030    2    1    2    0    0  0.00000000000E+00  0.00000000000E+00  0.38421200515E+01  0.13000931116E+04  0.13000874343E+04 0.  0.
        1    1    3    3  502    0 -0.13435671615E+03 -0.24198778498E+03  0.59009623830E+03  0.65178476949E+03  0.50400001928E-02 0.  1.
       -1    1    3    3    0  502  0.13435671615E+03  0.24198778498E+03 -0.58625411825E+03  0.64830834211E+03  0.50400001928E-02 0. -1.
</event>
<event>
 5   0  0.6671239E-05  0.1302266E+04  0.7818609E-02  0.9027770E-01
        2   -1    0    0  501    0  0.00000000000E+00  0.00000000000E+00  0.64158874040E+03  0.64158874041E+03  0.25500000920E-02 0.  1.
       -2   -1    0    0    0  501  0.00000000000E+00  0.00000000000E+00 -0.66081949276E+03  0.66081949276E+03  0.25500000920E-02 0. -1.
    10030    2    1    2    0    0  0.00000000000E+00  0.00000000000E+00 -0.19230752357E+02  0.13024082332E+04  0.13022662493E+04 0.  0.
        1    1    3    3  502    0 -0.63277397365E+02 -0.18653651258E+03 -0.63030728111E+03  0.66036896368E+03  0.50400001928E-02 0. -1.
       -1    1    3    3    0  502  0.63277397365E+02  0.18653651258E+03  0.61107652876E+03  0.64203926949E+03  0.50400001928E-02 0.  1.
</event>
<event>
 5   0  0.3718559E-05  0.1300503E+04  0.7818609E-02  0.9029167E-01
        1   -1    0    0  501    0  0.00000000000E+00  0.00000000000E+00  0.95522746857E+03  0.95522746858E+03  0.50400001928E-02 0.  1.
       -1   -1    0    0    0  501  0.00000000000E+00  0.00000000000E+00 -0.44264514957E+03  0.44264514960E+03  0.50400001928E-02 0. -1.
    10030    2    1    2    0    0  0.00000000000E+00  0.00000000000E+00  0.51258231900E+03  0.13978726182E+04  0.13005026809E+04 0.  0.
        2    1    3    3  502    0  0.68393729330E+02 -0.30428267615E+02 -0.43799831840E+03  0.44434908418E+03  0.25500000920E-02 0. -1.
       -2    1    3    3    0  502 -0.68393729330E+02  0.30428267615E+02  0.95058063740E+03  0.95352353400E+03  0.25500000920E-02 0.  1.
</event>
<event>
 5   0  0.3689707E-05  0.1299992E+04  0.7818609E-02  0.9029572E-01
       -1   -1    0    0    0  501  0.00000000000E+00  0.00000000000E+00  0.63343708402E+03  0.63343708404E+03  0.50400001928E-02 0.  1.
        1   -1    0    0  501    0  0.00000000000E+00  0.00000000000E+00 -0.66698747927E+03  0.66698747929E+03  0.50400001928E-02 0. -1.
    10030    2    1    2    0    0  0.00000000000E+00  0.00000000000E+00 -0.33550395244E+02  0.13004245633E+04  0.12999916984E+04 0.  0.
        1    1    3    3  502    0  0.27571585282E+03  0.53511215389E+03  0.22852136922E+03  0.64388373559E+03  0.50400001928E-02 0.  1.
       -1    1    3    3    0  502 -0.27571585282E+03 -0.53511215389E+03 -0.26207176446E+03  0.65654082774E+03  0.50400001928E-02 0. -1.
</event>
<event>
 5   0  0.2512000E-05  0.1300088E+04  0.7818609E-02  0.9029496E-01
       -4   -1    0    0    0  501  0.00000000000E+00  0.00000000000E+00  0.62346468525E+03  0.62346597875E+03  0.12699999809E+01 0. -1.
        4   -1    0    0  501    0  0.00000000000E+00  0.00000000000E+00 -0.67775335036E+03  0.67775454025E+03  0.12699999809E+01 0.  1.
    10030    2    1    2    0    0  0.00000000000E+00  0.00000000000E+00 -0.54288665107E+02  0.13012205190E+04  0.13000875278E+04 0.  0.
        4    1    3    3  502    0 -0.61505841365E+03  0.16118791770E+03  0.10816551399E+03  0.64496495124E+03  0.12699999809E+01 0. -1.
       -4    1    3    3    0  502  0.61505841365E+03 -0.16118791770E+03 -0.16245417910E+03  0.65625556776E+03  0.12699999809E+01 0.  1.
</event>
<event>
 5   0  0.6671239E-05  0.1306948E+04  0.7818609E-02  0.9024074E-01
       -2   -1    0    0    0  501  0.00000000000E+00  0.00000000000E+00  0.65869438270E+03  0.65869438270E+03  0.25500000920E-02 0.  1.
        2   -1    0    0  501    0  0.00000000000E+00  0.00000000000E+00 -0.64829479332E+03  0.64829479332E+03  0.25500000920E-02 0. -1.
    10030    2    1    2    0    0  0.00000000000E+00  0.00000000000E+00  0.10399589377E+02  0.13069891760E+04  0.13069478011E+04 0.  0.
        1    1    3    3  502    0  0.43042218408E+03 -0.10084662978E+03  0.48645804462E+03  0.65732391443E+03  0.50400001928E-02 0.  1.
       -1    1    3    3    0  502 -0.43042218408E+03  0.10084662978E+03 -0.47605845524E+03  0.64966526159E+03  0.50400001928E-02 0. -1.
</event>
<event>
 5   0  0.3718559E-05  0.1300340E+04  0.7818609E-02  0.9029295E-01
        1   -1    0    0  501    0  0.00000000000E+00  0.00000000000E+00  0.68153719839E+03  0.68153719841E+03  0.50400001928E-02 0. -1.
       -1   -1    0    0    0  501  0.00000000000E+00  0.00000000000E+00 -0.62024667652E+03  0.62024667654E+03  0.50400001928E-02 0.  1.
    10030    2    1    2    0    0  0.00000000000E+00  0.00000000000E+00  0.61290521871E+02  0.13017838749E+04  0.13003402359E+04 0.  0.
        2    1    3    3  502    0  0.49849688343E+03 -0.12337134644E+03 -0.36854741645E+03  0.63209716824E+03  0.25500000920E-02 0.  1.
       -2    1    3    3    0  502 -0.49849688343E+03  0.12337134644E+03  0.42983793832E+03  0.66968670671E+03  0.25500000920E-02 0. -1.
</event>
<event>
 5   0  0.3718559E-05  0.1299952E+04  0.7818609E-02  0.9029603E-01
        1   -1    0    0  501    0  0.00000000000E+00  0.00000000000E+00  0.55551616444E+03  0.55551616446E+03  0.50400001928E-02 0. -1.
       -1   -1    0    0    0  501  0.00000000000E+00  0.00000000000E+00 -0.76049775010E+03  0.76049775012E+03  0.50400001928E-02 0.  1.
    10030    2    1    2    0    0  0.00000000000E+00  0.00000000000E+00 -0.20498158566E+03  0.13160139146E+04  0.12999519887E+04 0.  0.
        2    1    3    3  502    0 -0.62744115682E+03  0.15916957360E+02  0.68513565425E+02  0.63137141482E+03  0.25500000920E-02 0. -1.
       -2    1    3    3    0  502  0.62744115682E+03 -0.15916957360E+02 -0.27349515108E+03  0.68464249976E+03  0.25500000920E-02 0.  1.
</event>
<event>
 5   0  0.6618060E-05  0.1299983E+04  0.7818609E-02  0.9029578E-01
        2   -1    0    0  501    0  0.00000000000E+00  0.00000000000E+00  0.22268711017E+04  0.22268711017E+04  0.25500000920E-02 0.  1.
       -2   -1    0    0    0  501  0.00000000000E+00  0.00000000000E+00 -0.18972321371E+03  0.18972321373E+03  0.25500000920E-02 0. -1.
    10030    2    1    2    0    0  0.00000000000E+00  0.00000000000E+00  0.20371478880E+04  0.24165943154E+04  0.12999832952E+04 0.  0.
        2    1    3    3  502    0 -0.77142093942E+02  0.64340166008E+03  0.11128599651E+04  0.12877786692E+04  0.25500000920E-02 0.  1.
       -2    1    3    3    0  502  0.77142093942E+02 -0.64340166008E+03  0.92428792291E+03  0.11288156463E+04  0.25500000920E-02 0. -1.
</event>
<event>
 5   0  0.2512000E-05  0.1300242E+04  0.7818609E-02  0.9029374E-01
        3   -1    0    0  501    0  0.00000000000E+00  0.00000000000E+00  0.59800719132E+03  0.59800719985E+03  0.10100000352E+00 0.  1.
       -3   -1    0    0    0  501  0.00000000000E+00  0.00000000000E+00 -0.70677582886E+03  0.70677583608E+03  0.10100000352E+00 0. -1.
    10030    2    1    2    0    0  0.00000000000E+00  0.00000000000E+00 -0.10876863755E+03  0.13047830359E+04  0.13002415754E+04 0.  0.
        1    1    3    3  502    0 -0.47380561610E+03 -0.10324794971E+03  0.38014675520E+03  0.61616836700E+03  0.50400001928E-02 0.  1.
       -1    1    3    3    0  502  0.47380561610E+03  0.10324794971E+03 -0.48891539275E+03  0.68861466893E+03  0.50400001928E-02 0. -1.
</event>
<event>
 5   0  0.3631841E-05  0.1299952E+04  0.7818609E-02  0.9029603E-01
       -1   -1    0    0    0  501  0.00000000000E+00  0.00000000000E+00  0.70088630507E+03  0.70088630508E+03  0.50400001928E-02 0. -1.
        1   -1    0    0  501    0  0.00000000000E+00  0.00000000000E+00 -0.60276350106E+03  0.60276350108E+03  0.50400001928E-02 0.  1.
    10030    2    1    2    0    0  0.00000000000E+00  0.00000000000E+00  0.98122804010E+02  0.13036498062E+04  0.12999518193E+04 0.  0.
        3    1    3    3  502    0  0.20688750570E+03  0.48149255403E+03 -0.33652052619E+03  0.62280301408E+03  0.10100000352E+00 0.  1.
       -3    1    3    3    0  502 -0.20688750570E+03 -0.48149255403E+03  0.43464333020E+03  0.68084679208E+03  0.10100000352E+00 0. -1.
</event>
<event>
 5   0  0.6688086E-05  0.1300615E+04  0.7818609E-02  0.9029078E-01
       -2   -1    0    0    0  501  0.00000000000E+00  0.00000000000E+00  0.60823681432E+03  0.60823681432E+03  0.25500000920E-02 0. -1.
        2   -1    0    0  501    0  0.00000000000E+00  0.00000000000E+00 -0.69528813635E+03  0.69528813636E+03  0.25500000920E-02 0.  1.
    10030    2    1    2    0    0  0.00000000000E+00  0.00000000000E+00 -0.87051322036E+02  0.13035249507E+04  0.13006149947E+04 0.  0.
        5    1    3    3  502    0 -0.64283148966E+01 -0.58191893077E+03  0.24730764304E+03  0.63234019762E+03  0.46999998093E+01 0. -1.
       -5    1    3    3    0  502  0.64283148966E+01  0.58191893077E+03 -0.33435896508E+03  0.67118475306E+03  0.46999998093E+01 0.  1.
</event>
<event>
 5   0  0.3631841E-05  0.1299462E+04  0.7818609E-02  0.9029992E-01
        1   -1    0    0  501    0  0.00000000000E+00  0.00000000000E+00  0.92602799632E+03  0.92602799633E+03  0.50400001928E-02 0.  1.
       -1   -1    0    0    0  501  0.00000000000E+00  0.00000000000E+00 -0.45587180451E+03  0.45587180453E+03  0.50400001928E-02 0. -1.
    10030    2    1    2    0    0  0.00000000000E+00  0.00000000000E+00  0.47015619181E+03  0.13818998009E+04  0.12994615096E+04 0.  0.
        3    1    3    3  502    0  0.41917485080E+03  0.98336773129E+02  0.75254030958E+03  0.86700323196E+03  0.10100000352E+00 0.  1.
       -3    1    3    3    0  502 -0.41917485080E+03 -0.98336773129E+02 -0.28238411777E+03  0.51489656890E+03  0.10100000352E+00 0. -1.
</event>
<event>
 5   0  0.6618060E-05  0.1300779E+04  0.7818609E-02  0.9028948E-01
       -2   -1    0    0    0  501  0.00000000000E+00  0.00000000000E+00  0.21413419600E+04  0.21413419600E+04  0.25500000920E-02 0. -1.
        2   -1    0    0  501    0  0.00000000000E+00  0.00000000000E+00 -0.19754266188E+03  0.19754266189E+03  0.25500000920E-02 0.  1.
    10030    2    1    2    0    0  0.00000000000E+00  0.00000000000E+00  0.19437992981E+04  0.23388846219E+04  0.13007788294E+04 0.  0.
        2    1    3    3  502    0 -0.41614698836E+03  0.41038485872E+03  0.14849387480E+04  0.15958186405E+04  0.25500000920E-02 0. -1.
       -2    1    3    3    0  502  0.41614698836E+03 -0.41038485872E+03  0.45886055015E+03  0.74306598138E+03  0.25500000920E-02 0.  1.
</event>
<event>
 5   0  0.6618060E-05  0.1299871E+04  0.7818609E-02  0.9029668E-01
        2   -1    0    0  501    0  0.00000000000E+00  0.00000000000E+00  0.20308352136E+04  0.20308352137E+04  0.25500000920E-02 0. -1.
       -2   -1    0    0    0  501  0.00000000000E+00  0.00000000000E+00 -0.20800109088E+03  0.20800109089E+03  0.25500000920E-02 0.  1.
    10030    2    1    2    0    0  0.00000000000E+00  0.00000000000E+00  0.18228341228E+04  0.22388363045E+04  0.12998706703E+04 0.  0.
        2    1    3    3  502    0 -0.23811989008E+03 -0.57004209480E+03  0.12591740524E+04  0.14025577942E+04  0.25500000920E-02 0. -1.
       -2    1    3    3    0  502  0.23811989008E+03  0.57004209480E+03  0.56366007041E+03  0.83627851036E+03  0.25500000920E-02 0.  1.
</event>
<event>
 5   0  0.3689707E-05  0.1299563E+04  0.7818609E-02  0.9029912E-01
        1   -1    0    0  501    0  0.00000000000E+00  0.00000000000E+00  0.54539910819E+03  0.54539910822E+03  0.50400001928E-02 0. -1.
       -1   -1    0    0    0  501  0.00000000000E+00  0.00000000000E+00 -0.77414103935E+03  0.77414103937E+03  0.50400001928E-02 0.  1.
    10030    2    1    2    0    0  0.00000000000E+00  0.00000000000E+00 -0.22874193116E+03  0.13195401476E+04  0.12995627457E+04 0.  0.
        1    1    3    3  502    0 -0.35164029238E+03 -0.53552834115E+03 -0.22454861787E+03  0.67886934031E+03  0.50400001928E-02 0.  1.
       -1    1    3    3    0  502  0.35164029238E+03  0.53552834115E+03 -0.41933132900E+01  0.64067080728E+03  0.50400001928E-02 0. -1.
</event>
<event>
 5   0  0.6458698E-05  0.1299929E+04  0.7818609E-02  0.9029622E-01
       -2   -1    0    0    0  501  0.00000000000E+00  0.00000000000E+00  0.32689119001E+03  0.32689119002E+03  0.25500000920E-02 0. -1.
        2   -1    0    0  501    0  0.00000000000E+00  0.00000000000E+00 -0.12923372852E+04  0.12923372852E+04  0.25500000920E-02 0.  1.
    10030    2    1    2    0    0  0.00000000000E+00  0.00000000000E+00 -0.96544609516E+03  0.16192284752E+04  0.12999287258E+04 0.  0.
        3    1    3    3  502    0 -0.44494430201E+02  0.31864011171E+03 -0.11861916399E+04  0.12290491820E+04  0.10100000352E+00 0.  1.
       -3    1    3    3    0  502  0.44494430201E+02 -0.31864011171E+03  0.22074554471E+03  0.39017929317E+03  0.10100000352E+00 0. -1.
</event>
<event>
 5   0  0.6618060E-05  0.1299875E+04  0.7818609E-02  0.9029664E-01
       -2   -1    0    0    0  501  0.00000000000E+00  0.00000000000E+00  0.29236946449E+03  0.29236946450E+03  0.25500000920E-02 0.  1.
        2   -1    0    0  501    0  0.00000000000E+00  0.00000000000E+00 -0.14448116368E+04  0.14448116368E+04  0.25500000920E-02 0. -1.
    10030    2    1    2    0    0  0.00000000000E+00  0.00000000000E+00 -0.11524421723E+04  0.17371811013E+04  0.12998750779E+04 0.  0.
        2    1    3    3  502    0  0.56262301875E+03  0.30624991800E+03 -0.72313710830E+03  0.96605432089E+03  0.25500000920E-02 0. -1.
       -2    1    3    3    0  502 -0.56262301875E+03 -0.30624991800E+03 -0.42930506403E+03  0.77112678044E+03  0.25500000920E-02 0.  1.
</event>
<event>
 5   0  0.3631841E-05  0.1299855E+04  0.7818609E-02  0.9029680E-01
       -1   -1    0    0    0  501  0.00000000000E+00  0.00000000000E+00  0.42061356016E+03  0.42061356019E+03  0.50400001928E-02 0. -1.
        1   -1    0    0  501    0  0.00000000000E+00  0.00000000000E+00 -0.10042604085E+04  0.10042604085E+04  0.50400001928E-02 0.  1.
    10030    2    1    2    0    0  0.00000000000E+00  0.00000000000E+00 -0.58364684837E+03  0.14248739687E+04  0.12998546777E+04 0.  0.
        3    1    3    3  502    0 -0.49062857106E+03  0.27779155891E+03 -0.64621501617E+03  0.85760037445E+03  0.10100000352E+00 0.  1.
       -3    1    3    3    0  502  0.49062857106E+03 -0.27779155891E+03  0.62568167794E+02  0.56727359428E+03  0.10100000352E+00 0. -1.
</event>
<event>
 5   0  0.3631841E-05  0.1298282E+04  0.7818609E-02  0.9030929E-01
       -1   -1    0    0    0  501  0.00000000000E+00  0.00000000000E+00  0.39272827227E+03  0.39272827230E+03  0.50400001928E-02 0.  1.
        1   -1    0    0  501    0  0.00000000000E+00  0.00000000000E+00 -0.10729656093E+04  0.10729656093E+04  0.50400001928E-02 0. -1.
    10030    2    1    2    0    0  0.00000000000E+00  0.00000000000E+00 -0.68023733700E+03  0.14656938816E+04  0.12982818338E+04 0.  0.
        3    1    3    3  502    0  0.48774133190E+03  0.91026886027E+02 -0.81267033734E+03  0.95216100961E+03  0.10100000352E+00 0. -1.
       -3    1    3    3    0  502 -0.48774133190E+03 -0.91026886027E+02  0.13243300034E+03  0.51353287198E+03  0.10100000352E+00 0.  1.
</event>
<event>
 5   0  0.3551277E-05  0.1299887E+04  0.7818609E-02  0.9029654E-01
        1   -1    0    0  501    0  0.00000000000E+00  0.00000000000E+00  0.10173169782E+04  0.10173169782E+04  0.50400001928E-02 0. -1.
       -1   -1    0    0    0  501  0.00000000000E+00  0.00000000000E+00 -0.41523621522E+03  0.41523621525E+03  0.50400001928E-02 0.  1.
    10030    2    1    2    0    0  0.00000000000E+00  0.00000000000E+00  0.60208076297E+03  0.14325531935E+04  0.12998874593E+04 0.  0.
        4    1    3    3  502    0  0.35642011128E+03  0.21958288554E+03  0.84894603375E+03  0.94655317889E+03  0.12699999809E+01 0. -1.
       -4    1    3    3    0  502 -0.35642011128E+03 -0.21958288554E+03 -0.24686527078E+03  0.48600001457E+03  0.12699999809E+01 0.  1.
</event>
<event>
 5   0  0.6458698E-05  0.1300600E+04  0.7818609E-02  0.9029090E-01
        2   -1    0    0  501    0  0.00000000000E+00  0.00000000000E+00  0.51003282535E+03  0.51003282535E+03  0.25500000920E-02 0. -1.
       -2   -1    0    0    0  501  0.00000000000E+00  0.00000000000E+00 -0.82914286207E+03  0.82914286207E+03  0.25500000920E-02 0.  1.
    10030    2    1    2    0    0  0.00000000000E+00  0.00000000000E+00 -0.31911003672E+03  0.13391756874E+04  0.13005999793E+04 0.  0.
        3    1    3    3  502    0  0.61627410000E+03 -0.13995386905E+02  0.53712458954E+02  0.61876867700E+03  0.10100000352E+00 0. -1.
       -3    1    3    3    0  502 -0.61627410000E+03  0.13995386905E+02 -0.37282249568E+03  0.72040701043E+03  0.10100000352E+00 0.  1.
</event>
<event>
 5   0  0.6618060E-05  0.1300003E+04  0.7818609E-02  0.9029562E-01
       -2   -1    0    0    0  501  0.00000000000E+00  0.00000000000E+00  0.51887162750E+03  0.51887162751E+03  0.25500000920E-02 0. -1.
        2   -1    0    0  501    0  0.00000000000E+00  0.00000000000E+00 -0.81427121910E+03  0.81427121910E+03  0.25500000920E-02 0.  1.
    10030    2    1    2    0    0  0.00000000000E+00  0.00000000000E+00 -0.29539959160E+03  0.13331428466E+04  0.13000034349E+04 0.  0.
        2    1    3    3  502    0  0.44134613023E+03 -0.38774785636E+03  0.13754075125E+03  0.60336743784E+03  0.25500000920E-02 0. -1.
       -2    1    3    3    0  502 -0.44134613023E+03  0.38774785636E+03 -0.43294034285E+03  0.72977540877E+03  0.25500000920E-02 0.  1.
</event>
<event>
 5   0  0.6742824E-05  0.1300642E+04  0.7818609E-02  0.9029056E-01
        2   -1    0    0  501    0  0.00000000000E+00  0.00000000000E+00  0.93493576414E+03  0.93493576414E+03  0.25500000920E-02 0. -1.
       -2   -1    0    0    0  501  0.00000000000E+00  0.00000000000E+00 -0.45234905692E+03  0.45234905693E+03  0.25500000920E-02 0.  1.
    10030    2    1    2    0    0  0.00000000000E+00  0.00000000000E+00  0.48258670721E+03  0.13872848211E+04  0.13006418588E+04 0.  0.
        4    1    3    3  502    0 -0.44934317036E+03  0.24001319676E+03 -0.18986225370E+03  0.54365881548E+03  0.12699999809E+01 0.  1.
       -4    1    3    3    0  502  0.44934317036E+03 -0.24001319676E+03  0.67244896091E+03  0.84362600559E+03  0.12699999809E+01 0. -1.
</event>
<event>
 5   0  0.3718559E-05  0.1299768E+04  0.7818609E-02  0.9029749E-01
       -1   -1    0    0    0  501  0.00000000000E+00  0.00000000000E+00  0.54441937556E+03  0.54441937559E+03  0.50400001928E-02 0.  1.
        1   -1    0    0  501    0  0.00000000000E+00  0.00000000000E+00 -0.77577894985E+03  0.77577894987E+03  0.50400001928E-02 0. -1.
    10030    2    1    2    0    0  0.00000000000E+00  0.00000000000E+00 -0.23135957429E+03  0.13201983255E+04  0.12997678123E+04 0.  0.
        2    1    3    3  502    0  0.67673067885E+02  0.28618527367E+02 -0.77154653259E+03  0.77503723536E+03  0.25500000920E-02 0. -1.
       -2    1    3    3    0  502 -0.67673067885E+02 -0.28618527367E+02  0.54018695831E+03  0.54516109010E+03  0.25500000920E-02 0.  1.
</event>
<event>
 5   0  0.2512000E-05  0.1298070E+04  0.7818609E-02  0.9031097E-01
       -3   -1    0    0    0  501  0.00000000000E+00  0.00000000000E+00  0.37645438173E+03  0.37645439527E+03  0.10100000352E+00 0.  1.
        3   -1    0    0  501    0  0.00000000000E+00  0.00000000000E+00 -0.11189841587E+04  0.11189841632E+04  0.10100000352E+00 0. -1.
    10030    2    1    2    0    0  0.00000000000E+00  0.00000000000E+00 -0.74252977693E+03  0.14954385585E+04  0.12980701108E+04 0.  0.
        2    1    3    3  502    0 -0.39426373680E+03 -0.48173666614E+03 -0.15967544164E+03  0.64265881798E+03  0.25500000920E-02 0. -1.
       -2    1    3    3    0  502  0.39426373680E+03  0.48173666614E+03 -0.58285433530E+03  0.85277974052E+03  0.25500000920E-02 0.  1.
</event>
<event>
 5   0  0.6458698E-05  0.1299945E+04  0.7818609E-02  0.9029608E-01
       -2   -1    0    0    0  501  0.00000000000E+00  0.00000000000E+00  0.77208458523E+03  0.77208458523E+03  0.25500000920E-02 0.  1.
        2   -1    0    0  501    0  0.00000000000E+00  0.00000000000E+00 -0.54717394521E+03  0.54717394522E+03  0.25500000920E-02 0. -1.
    10030    2    1    2    0    0  0.00000000000E+00  0.00000000000E+00  0.22491064002E+03  0.13192585304E+04  0.12999454889E+04 0.  0.
        3    1    3    3  502    0  0.42846935631E+03  0.36160940724E+03 -0.22124158300E+03  0.60273974562E+03  0.10100000352E+00 0. -1.
       -3    1    3    3    0  502 -0.42846935631E+03 -0.36160940724E+03  0.44615222302E+03  0.71651878483E+03  0.10100000352E+00 0.  1.
</event>
<event>
 5   0  0.6618060E-05  0.1300117E+04  0.7818609E-02  0.9029473E-01
       -2   -1    0    0    0  501  0.00000000000E+00  0.00000000000E+00  0.30420715527E+03  0.30420715528E+03  0.25500000920E-02 0.  1.
        2   -1    0    0  501    0  0.00000000000E+00  0.00000000000E+00 -0.13891055934E+04  0.13891055934E+04  0.25500000920E-02 0. -1.
    10030    2    1    2    0    0  0.00000000000E+00  0.00000000000E+00 -0.10848984381E+04  0.16933127487E+04  0.13001167039E+04 0.  0.
        2    1    3    3  502    0  0.44616684739E+03 -0.20630565288E+02  0.72714054892E+02  0.45252382226E+03  0.25500000920E-02 0.  1.
       -2    1    3    3    0  502 -0.44616684739E+03  0.20630565288E+02 -0.11576124930E+04  0.12407889264E+04  0.25500000920E-02 0. -1.
</event>
<event>
 5   0  0.3689707E-05  0.1307226E+04  0.7818609E-02  0.9023854E-01
        1   -1    0    0  501    0  0.00000000000E+00  0.00000000000E+00  0.65663617105E+03  0.65663617107E+03  0.50400001928E-02 0. -1.
       -1   -1    0    0    0  501  0.00000000000E+00  0.00000000000E+00 -0.65060377392E+03  0.65060377393E+03  0.50400001928E-02 0.  1.
    10030    2    1    2    0    0  0.00000000000E+00  0.00000000000E+00  0.60323971380E+01  0.13072399450E+04  0.13072260264E+04 0.  0.
        1    1    3    3  502    0 -0.55497897194E+03 -0.34480343866E+03  0.20874170356E+02  0.65370238001E+03  0.50400001928E-02 0. -1.
       -1    1    3    3    0  502  0.55497897194E+03  0.34480343866E+03 -0.14841773218E+02  0.65353756500E+03  0.50400001928E-02 0.  1.
</event>
<event>
 5   0  0.3631841E-05  0.1299791E+04  0.7818609E-02  0.9029731E-01
        1   -1    0    0  501    0  0.00000000000E+00  0.00000000000E+00  0.59381710181E+03  0.59381710183E+03  0.50400001928E-02 0.  1.
       -1   -1    0    0    0  501  0.00000000000E+00  0.00000000000E+00 -0.71126993791E+03  0.71126993792E+03  0.50400001928E-02 0. -1.
    10030    2    1    2    0    0  0.00000000000E+00  0.00000000000E+00 -0.11745283610E+03  0.13050870398E+04  0.12997911419E+04 0.  0.
        3    1    3    3  502    0 -0.12507807251E+03  0.31806073375E+03  0.49629799407E+03  0.60259344810E+03  0.10100000352E+00 0.  1.
       -3    1    3    3    0  502  0.12507807251E+03 -0.31806073375E+03 -0.61375083017E+03  0.70249359165E+03  0.10100000352E+00 0. -1.
</event>
<event>
 5   0  0.3551277E-05  0.1300323E+04  0.7818609E-02  0.9029309E-01
        1   -1    0    0  501    0  0.00000000000E+00  0.00000000000E+00  0.79023515433E+03  0.79023515435E+03  0.50400001928E-02 0.  1.
       -1   -1    0    0    0  501  0.00000000000E+00  0.00000000000E+00 -0.53491709577E+03  0.53491709579E+03  0.50400001928E-02 0. -1.
    10030    2    1    2    0    0  0.00000000000E+00  0.00000000000E+00  0.25531805856E+03  0.13251522501E+04  0.13003234886E+04 0.  0.
        4    1    3    3  502    0  0.29518413542E+02 -0.63873235319E+03  0.76898346545E+01  0.63946157211E+03  0.12699999809E+01 0. -1.
       -4    1    3    3    0  502 -0.29518413542E+02  0.63873235319E+03  0.24762822391E+03  0.68569067803E+03  0.12699999809E+01 0.  1.
</event>
<event>
 5   0  0.2512000E-05  0.1300072E+04  0.7818609E-02  0.9029508E-01
       -3   -1    0    0    0  501  0.00000000000E+00  0.00000000000E+00  0.65178007674E+03  0.65178008456E+03  0.10100000352E+00 0. -1.
        3   -1    0    0  501    0  0.00000000000E+00  0.00000000000E+00 -0.64829618723E+03  0.64829619510E+03  0.10100000352E+00 0.  1.
    10030    2    1    2    0    0  0.00000000000E+00  0.00000000000E+00  0.34838895036E+01  0.13000762797E+04  0.13000716117E+04 0.  0.
        1    1    3    3  502    0 -0.23896023136E+03  0.18762725588E+03 -0.57292573402E+03  0.64849816966E+03  0.50400001928E-02 0.  1.
       -1    1    3    3    0  502  0.23896023136E+03 -0.18762725588E+03  0.57640962353E+03  0.65157811001E+03  0.50400001928E-02 0. -1.
</event>
<event>
 5   0  0.3689707E-05  0.1299837E+04  0.7818609E-02  0.9029694E-01
        1   -1    0    0  501    0  0.00000000000E+00  0.00000000000E+00  0.25301308932E+04  0.25301308932E+04  0.50400001928E-02 0. -1.
       -1   -1    0    0    0  501  0.00000000000E+00  0.00000000000E+00 -0.16694564705E+03  0.16694564712E+03  0.50400001928E-02 0.  1.
    10030    2    1    2    0    0  0.00000000000E+00  0.00000000000E+00  0.23631852461E+04  0.26970765403E+04  0.12998374347E+04 0.  0.
        1    1    3    3  502    0  0.54096444236E+03  0.18596430567E+03  0.54148619933E+03  0.78767541220E+03  0.50400001928E-02 0.  1.
       -1    1    3    3    0  502 -0.54096444236E+03 -0.18596430567E+03  0.18216990468E+04  0.19094011281E+04  0.50400001928E-02 0. -1.
</event>
<event>
 5   0  0.6458698E-05  0.1300175E+04  0.7818609E-02  0.9029426E-01
        2   -1    0    0  501    0  0.00000000000E+00  0.00000000000E+00  0.88780908978E+03  0.88780908978E+03  0.25500000920E-02 0. -1.
       -2   -1    0    0    0  501  0.00000000000E+00  0.00000000000E+00 -0.47601873255E+03  0.47601873255E+03  0.25500000920E-02 0.  1.
    10030    2    1    2    0    0  0.00000000000E+00  0.00000000000E+00  0.41179035723E+03  0.13638278223E+04  0.13001750000E+04 0.  0.
        3    1    3    3  502    0 -0.21929986837E+03 -0.52204710082E+03  0.54088573946E+03  0.78306002394E+03  0.10100000352E+00 0. -1.
       -3    1    3    3    0  502  0.21929986837E+03  0.52204710082E+03 -0.12909538223E+03  0.58076779840E+03  0.10100000352E+00 0.  1.
</event>
<event>
 5   0  0.3718559E-05  0.1300958E+04  0.7818609E-02  0.9028806E-01
       -1   -1    0    0    0  501  0.00000000000E+00  0.00000000000E+00  0.51278301233E+03  0.51278301235E+03  0.50400001928E-02 0. -1.
        1   -1    0    0  501    0  0.00000000000E+00  0.00000000000E+00 -0.82515052375E+03  0.82515052376E+03  0.50400001928E-02 0.  1.
    10030    2    1    2    0    0  0.00000000000E+00  0.00000000000E+00 -0.31236751142E+03  0.13379335361E+04  0.13009583717E+04 0.  0.
        2    1    3    3  502    0  0.11472313663E+01 -0.36890299952E+03  0.39479724689E+03  0.54032916389E+03  0.25500000920E-02 0. -1.
       -2    1    3    3    0  502 -0.11472313663E+01  0.36890299952E+03 -0.70716475831E+03  0.79760437223E+03  0.25500000920E-02 0.  1.
</event>
<event>
 5   0  0.6671239E-05  0.1300384E+04  0.7818609E-02  0.9029261E-01
       -2   -1    0    0    0  501  0.00000000000E+00  0.00000000000E+00  0.76619144470E+03  0.76619144470E+03  0.25500000920E-02 0.  1.
        2   -1    0    0  501    0  0.00000000000E+00  0.00000000000E+00 -0.55175419508E+03  0.55175419509E+03  0.25500000920E-02 0. -1.
    10030    2    1    2    0    0  0.00000000000E+00  0.00000000000E+00  0.21443724961E+03  0.13179456398E+04  0.13003835494E+04 0.  0.
        1    1    3    3  502    0 -0.68966676451E+02  0.24554332871E+03  0.71337734878E+03  0.75759829099E+03  0.50400001928E-02 0.  1.
       -1    1    3    3    0  502  0.68966676451E+02 -0.24554332871E+03 -0.49894009916E+03  0.56034734880E+03  0.50400001928E-02 0. -1.
</event>
<event>
 5   0  0.3718559E-05  0.1308263E+04  0.7818609E-02  0.9023038E-01
        1   -1    0    0  501    0  0.00000000000E+00  0.00000000000E+00  0.12967729844E+04  0.12967729844E+04  0.50400001928E-02 0. -1.
       -1   -1    0    0    0  501  0.00000000000E+00  0.00000000000E+00 -0.32996356975E+03  0.32996356979E+03  0.50400001928E-02 0.  1.
    10030    2    1    2    0    0  0.00000000000E+00  0.00000000000E+00  0.96680941460E+03  0.16267365542E+04  0.13082627307E+04 0.  0.
        2    1    3    3  502    0 -0.14391348883E+03  0.22324681818E+02  0.12763583301E+04  0.12846400549E+04  0.25500000920E-02 0. -1.
       -2    1    3    3    0  502  0.14391348883E+03 -0.22324681818E+02 -0.30954891554E+03  0.34209649926E+03  0.25500000920E-02 0.  1.
</event>
<event>
 5   0  0.3631841E-05  0.1300264E+04  0.7818609E-02  0.9029355E-01
       -1   -1    0    0    0  501  0.00000000000E+00  0.00000000000E+00  0.94769259340E+03  0.94769259341E+03  0.50400001928E-02 0. -1.
        1   -1    0    0  501    0  0.00000000000E+00  0.00000000000E+00 -0.44600108970E+03  0.44600108973E+03  0.50400001928E-02 0.  1.
    10030    2    1    2    0    0  0.00000000000E+00  0.00000000000E+00  0.50169150369E+03  0.13936936831E+04  0.13002644798E+04 0.  0.
        3    1    3    3  502    0 -0.17491454869E+03  0.94058988680E+02 -0.41269137422E+03  0.45799167378E+03  0.10100000352E+00 0.  1.
       -3    1    3    3    0  502  0.17491454869E+03 -0.94058988680E+02  0.91438287792E+03  0.93570200936E+03  0.10100000352E+00 0. -1.
</event>
<event>
 5   0  0.6671239E-05  0.1299524E+04  0.7818609E-02  0.9029943E-01
       -2   -1    0    0    0  501  0.00000000000E+00  0.00000000000E+00  0.10246616075E+04  0.10246616075E+04  0.25500000920E-02 0.  1.
        2   -1    0    0  501    0  0.00000000000E+00  0.00000000000E+00 -0.41202944546E+03  0.41202944547E+03  0.25500000920E-02 0. -1.
    10030    2    1    2    0    0  0.00000000000E+00  0.00000000000E+00  0.61263216200E+03  0.14366910529E+04  0.12995241497E+04 0.  0.
        1    1    3    3  502    0 -0.14347936028E+03  0.95947118415E+02  0.99885270377E+03  0.10136562042E+04  0.50400001928E-02 0.  1.
       -1    1    3    3    0  502  0.14347936028E+03 -0.95947118415E+02 -0.38622054178E+03  0.42303484877E+03  0.50400001928E-02 0. -1.
</event>
<event>
 5   0  0.3551277E-05  0.1299743E+04  0.7818609E-02  0.9029769E-01
        1   -1    0    0  501    0  0.00000000000E+00  0.00000000000E+00  0.88630326256E+03  0.88630326257E+03  0.50400001928E-02 0.  1.
       -1   -1    0    0    0  501  0.00000000000E+00  0.00000000000E+00 -0.47651087594E+03  0.47651087597E+03  0.50400001928E-02 0. -1.
    10030    2    1    2    0    0  0.00000000000E+00  0.00000000000E+00  0.40979238662E+03  0.13628141385E+04  0.12997432731E+04 0.  0.
        4    1    3    3  502    0  0.75882933570E+02  0.20738415630E+02  0.88129131823E+03  0.88479619234E+03  0.12699999809E+01 0.  1.
       -4    1    3    3    0  502 -0.75882933570E+02 -0.20738415630E+02 -0.47149893161E+03  0.47801794621E+03  0.12699999809E+01 0. -1.
</event>
<event>
 5   0  0.6618060E-05  0.1290450E+04  0.7818609E-02  0.9037173E-01
        2   -1    0    0  501    0  0.00000000000E+00  0.00000000000E+00  0.11534686036E+04  0.11534686036E+04  0.25500000920E-02 0.  1.
       -2   -1    0    0    0  501  0.00000000000E+00  0.00000000000E+00 -0.36092441798E+03  0.36092441799E+03  0.25500000920E-02 0. -1.
    10030    2    1    2    0    0  0.00000000000E+00  0.00000000000E+00  0.79254418563E+03  0.15143930216E+04  0.12904495099E+04 0.  0.
        2    1    3    3  502    0 -0.21343735073E+03  0.57973736418E+03  0.17777917667E+03  0.64285017677E+03  0.25500000920E-02 0. -1.
       -2    1    3    3    0  502  0.21343735073E+03 -0.57973736418E+03  0.61476500896E+03  0.87154284482E+03  0.25500000920E-02 0.  1.
</event>
<event>
 5   0  0.3631841E-05  0.1300782E+04  0.7818609E-02  0.9028945E-01
        1   -1    0    0  501    0  0.00000000000E+00  0.00000000000E+00  0.59107792325E+03  0.59107792327E+03  0.50400001928E-02 0. -1.
       -1   -1    0    0    0  501  0.00000000000E+00  0.00000000000E+00 -0.71565648471E+03  0.71565648473E+03  0.50400001928E-02 0.  1.
    10030    2    1    2    0    0  0.00000000000E+00  0.00000000000E+00 -0.12457856146E+03  0.13067344080E+04  0.13007824549E+04 0.  0.
        3    1    3    3  502    0 -0.12991214354E+03  0.52189515712E+03 -0.42969079850E+03  0.68839371917E+03  0.10100000352E+00 0.  1.
       -3    1    3    3    0  502  0.12991214354E+03 -0.52189515712E+03  0.30511223704E+03  0.61834068883E+03  0.10100000352E+00 0. -1.
</event>
<event>
 5   0  0.6458698E-05  0.1300492E+04  0.7818609E-02  0.9029175E-01
       -2   -1    0    0    0  501  0.00000000000E+00  0.00000000000E+00  0.24276440163E+03  0.24276440164E+03  0.25500000920E-02 0.  1.
        2   -1    0    0  501    0  0.00000000000E+00  0.00000000000E+00 -0.17416869499E+04  0.17416869499E+04  0.25500000920E-02 0. -1.
    10030    2    1    2    0    0  0.00000000000E+00  0.00000000000E+00 -0.14989225483E+04  0.19844513515E+04  0.13004915843E+04 0.  0.
        3    1    3    3  502    0  0.39878673877E+03  0.50271689813E+03 -0.90996960460E+03  0.11134629918E+04  0.10100000352E+00 0.  1.
       -3    1    3    3    0  502 -0.39878673877E+03 -0.50271689813E+03 -0.58895294368E+03  0.87098835971E+03  0.10100000352E+00 0. -1.
</event>
<event>
 5   0  0.3718559E-05  0.1300525E+04  0.7818609E-02  0.9029149E-01
        1   -1    0    0  501    0  0.00000000000E+00  0.00000000000E+00  0.14026653780E+04  0.14026653780E+04  0.50400001928E-02 0.  1.
       -1   -1    0    0    0  501  0.00000000000E+00  0.00000000000E+00 -0.30145555020E+03  0.30145555024E+03  0.50400001928E-02 0. -1.
    10030    2    1    2    0    0  0.00000000000E+00  0.00000000000E+00  0.11012098278E+04  0.17041209283E+04  0.13005249145E+04 0.  0.
        2    1    3    3  502    0 -0.23196585669E+03 -0.55661279778E+03  0.86946392370E+03  0.10581084443E+04  0.25500000920E-02 0.  1.
       -2    1    3    3    0  502  0.23196585669E+03  0.55661279778E+03  0.23174590412E+03  0.64601248394E+03  0.25500000920E-02 0. -1.
</event>
<event>
 5   0  0.6618060E-05  0.1299712E+04  0.7818609E-02  0.9029793E-01
        2   -1    0    0  501    0  0.00000000000E+00  0.00000000000E+00  0.12907047170E+04  0.12907047170E+04  0.25500000920E-02 0.  1.
       -2   -1    0    0    0  501  0.00000000000E+00  0.00000000000E+00 -0.32719578453E+03  0.32719578454E+03  0.25500000920E-02 0. -1.
    10030    2    1    2    0    0  0.00000000000E+00  0.00000000000E+00  0.96350893250E+03  0.16179005016E+04  0.12997124951E+04 0.  0.
        2    1    3    3  502    0 -0.53634166376E+03 -0.42609063374E+02  0.93544649761E+03  0.10791376476E+04  0.25500000920E-02 0.  1.
       -2    1    3    3    0  502  0.53634166376E+03  0.42609063374E+02  0.28062434894E+02  0.53876285398E+03  0.25500000920E-02 0. -1.
</event>
<event>
 5   0  0.6671239E-05  0.1298275E+04  0.7818609E-02  0.9030935E-01
        2   -1    0    0  501    0  0.00000000000E+00  0.00000000000E+00  0.71280698991E+03  0.71280698992E+03  0.25500000920E-02 0. -1.
       -2   -1    0    0    0  501  0.00000000000E+00  0.00000000000E+00 -0.59115472624E+03  0.59115472625E+03  0.25500000920E-02 0.  1.
    10030    2    1    2    0    0  0.00000000000E+00  0.00000000000E+00  0.12165226367E+03  0.13039617162E+04  0.12982745796E+04 0.  0.
        1    1    3    3  502    0 -0.51546447592E+03  0.39214618077E+03  0.17081145817E+02  0.64789969795E+03  0.50400001928E-02 0. -1.
       -1    1    3    3    0  502  0.51546447592E+03 -0.39214618077E+03  0.10457111785E+03  0.65606201822E+03  0.50400001928E-02 0.  1.
</event>
<event>
 5   0  0.3631841E-05  0.1298961E+04  0.7818609E-02  0.9030390E-01
        1   -1    0    0  501    0  0.00000000000E+00  0.00000000000E+00  0.56940112111E+03  0.56940112113E+03  0.50400001928E-02 0.  1.
       -1   -1    0    0    0  501  0.00000000000E+00  0.00000000000E+00 -0.74082152602E+03  0.74082152604E+03  0.50400001928E-02 0. -1.
    10030    2    1    2    0    0  0.00000000000E+00  0.00000000000E+00 -0.17142040491E+03  0.13102226472E+04  0.12989605190E+04 0.  0.
        3    1    3    3  502    0 -0.55241240407E+03  0.20286768011E+03 -0.36288319992E+03  0.69137470795E+03  0.10100000352E+00 0. -1.
       -3    1    3    3    0  502  0.55241240407E+03 -0.20286768011E+03  0.19146279501E+03  0.61884793922E+03  0.10100000352E+00 0.  1.
</event>
<event>
 5   0  0.3551277E-05  0.1298840E+04  0.7818609E-02  0.9030486E-01
       -1   -1    0    0    0  501  0.00000000000E+00  0.00000000000E+00  0.57230141893E+03  0.57230141895E+03  0.50400001928E-02 0.  1.
        1   -1    0    0  501    0  0.00000000000E+00  0.00000000000E+00 -0.73692994770E+03  0.73692994772E+03  0.50400001928E-02 0. -1.
    10030    2    1    2    0    0  0.00000000000E+00  0.00000000000E+00 -0.16462852877E+03  0.13092313667E+04  0.12988395663E+04 0.  0.
        4    1    3    3  502    0 -0.16626043850E+03 -0.15012010460E+02 -0.71493140252E+03  0.73416375358E+03  0.12699999809E+01 0. -1.
       -4    1    3    3    0  502  0.16626043850E+03  0.15012010460E+02  0.55030287374E+03  0.57506761309E+03  0.12699999809E+01 0.  1.
</event>
<event>
 5   0  0.6618060E-05  0.1299690E+04  0.7818609E-02  0.9029811E-01
       -2   -1    0    0    0  501  0.00000000000E+00  0.00000000000E+00  0.47799347847E+03  0.47799347847E+03  0.25500000920E-02 0.  1.
        2   -1    0    0  501    0  0.00000000000E+00  0.00000000000E+00 -0.88348230516E+03  0.88348230516E+03  0.25500000920E-02 0. -1.
    10030    2    1    2    0    0  0.00000000000E+00  0.00000000000E+00 -0.40548882669E+03  0.13614757836E+04  0.12996903942E+04 0.  0.
        2    1    3    3  502    0  0.39037354011E+03  0.51396457881E+02  0.33880939176E+03  0.51944672552E+03  0.25500000920E-02 0.  1.
       -2    1    3    3    0  502 -0.39037354011E+03 -0.51396457881E+02 -0.74429821846E+03  0.84202905811E+03  0.25500000920E-02 0. -1.
</event>
<event>
 5   0  0.6742824E-05  0.1302615E+04  0.7818609E-02  0.9027494E-01
       -2   -1    0    0    0  501  0.00000000000E+00  0.00000000000E+00  0.28807886939E+03  0.28807886940E+03  0.25500000920E-02 0.  1.
        2   -1    0    0  501    0  0.00000000000E+00  0.00000000000E+00 -0.14725191455E+04  0.14725191455E+04  0.25500000920E-02 0. -1.
    10030    2    1    2    0    0  0.00000000000E+00  0.00000000000E+00 -0.11844402761E+04  0.17605980149E+04  0.13026152933E+04 0.  0.
        4    1    3    3  502    0 -0.35158358627E+02 -0.29470104909E+03 -0.13758087649E+04  0.14074573489E+04  0.12699999809E+01 0. -1.
       -4    1    3    3    0  502  0.35158358627E+02  0.29470104909E+03  0.19136848885E+03  0.35314066593E+03  0.12699999809E+01 0.  1.
</event>
<event>
 5   0  0.6458698E-05  0.1300587E+04  0.7818609E-02  0.9029100E-01
       -2   -1    0    0    0  501  0.00000000000E+00  0.00000000000E+00  0.55976003954E+03  0.55976003954E+03  0.25500000920E-02 0. -1.
        2   -1    0    0  501    0  0.00000000000E+00  0.00000000000E+00 -0.75546918309E+03  0.75546918309E+03  0.25500000920E-02 0.  1.
    10030    2    1    2    0    0  0.00000000000E+00  0.00000000000E+00 -0.19570914355E+03  0.13152292226E+04  0.13005867288E+04 0.  0.
        3    1    3    3  502    0 -0.19065855870E+03  0.62109096372E+03 -0.69670048319E+02  0.65342068918E+03  0.10100000352E+00 0. -1.
       -3    1    3    3    0  502  0.19065855870E+03 -0.62109096372E+03 -0.12603909523E+03  0.66180853345E+03  0.10100000352E+00 0.  1.
</event>
<event>
 5   0  0.6688086E-05  0.1302550E+04  0.7818609E-02  0.9027546E-01
        2   -1    0    0  501    0  0.00000000000E+00  0.00000000000E+00  0.74537454456E+03  0.74537454456E+03  0.25500000920E-02 0.  1.
       -2   -1    0    0    0  501  0.00000000000E+00  0.00000000000E+00 -0.56905482929E+03  0.56905482930E+03  0.25500000920E-02 0. -1.
    10030    2    1    2    0    0  0.00000000000E+00  0.00000000000E+00  0.17631971527E+03  0.13144293739E+04  0.13025497829E+04 0.  0.
        5    1    3    3  502    0 -0.31543427037E+03 -0.57539991219E+02 -0.48386738646E+03  0.58048201281E+03  0.46999998093E+01 0. -1.
       -5    1    3    3    0  502  0.31543427037E+03  0.57539991219E+02  0.66018710173E+03  0.73394736106E+03  0.46999998093E+01 0.  1.
</event>
<event>
 5   0  0.3551277E-05  0.1299711E+04  0.7818609E-02  0.9029795E-01
       -1   -1    0    0    0  501  0.00000000000E+00  0.00000000000E+00  0.27581070953E+03  0.27581070957E+03  0.50400001928E-02 0. -1.
        1   -1    0    0  501    0  0.00000000000E+00  0.00000000000E+00 -0.15311660646E+04  0.15311660646E+04  0.50400001928E-02 0.  1.
    10030    2    1    2    0    0  0.00000000000E+00  0.00000000000E+00 -0.12553553551E+04  0.18069767742E+04  0.12997107351E+04 0.  0.
        4    1    3    3  502    0 -0.20847588730E+03  0.28883315341E+03  0.12798584294E+03  0.37850861944E+03  0.12699999809E+01 0. -1.
       -4    1    3    3    0  502  0.20847588730E+03 -0.28883315341E+03 -0.13833411980E+04  0.14284681548E+04  0.12699999809E+01 0.  1.
</event>
<event>
 5   0  0.3631841E-05  0.1300096E+04  0.7818609E-02  0.9029489E-01
        1   -1    0    0  501    0  0.00000000000E+00  0.00000000000E+00  0.70507354910E+03  0.70507354912E+03  0.50400001928E-02 0. -1.
       -1   -1    0    0    0  501  0.00000000000E+00  0.00000000000E+00 -0.59931691626E+03  0.59931691628E+03  0.50400001928E-02 0.  1.
    10030    2    1    2    0    0  0.00000000000E+00  0.00000000000E+00  0.10575663284E+03  0.13043904654E+04  0.13000961583E+04 0.  0.
        3    1    3    3  502    0  0.11917934489E+03  0.22333918787E+03  0.65358661051E+03  0.70089912022E+03  0.10100000352E+00 0. -1.
       -3    1    3    3    0  502 -0.11917934489E+03 -0.22333918787E+03 -0.54782997766E+03  0.60349134519E+03  0.10100000352E+00 0.  1.
</event>
<event>
 5   0  0.3689707E-05  0.1290267E+04  0.7818609E-02  0.9037319E-01
        1   -1    0    0  501    0  0.00000000000E+00  0.00000000000E+00  0.73405669744E+03  0.73405669746E+03  0.50400001928E-02 0. -1.
       -1   -1    0    0    0  501  0.00000000000E+00  0.00000000000E+00 -0.56698220169E+03  0.56698220171E+03  0.50400001928E-02 0.  1.
    10030    2    1    2    0    0  0.00000000000E+00  0.00000000000E+00  0.16707449575E+03  0.13010388992E+04  0.12902667670E+04 0.  0.
        1    1    3    3  502    0  0.90740004623E+02 -0.12647488356E+02  0.72746356947E+03  0.73321003289E+03  0.50400001928E-02 0. -1.
       -1    1    3    3    0  502 -0.90740004623E+02  0.12647488356E+02 -0.56038907373E+03  0.56782886628E+03  0.50400001928E-02 0.  1.
</event>
<event>
 5   0  0.6742824E-05  0.1300293E+04  0.7818609E-02  0.9029333E-01
        2   -1    0    0  501    0  0.00000000000E+00  0.00000000000E+00  0.44710362924E+03  0.44710362925E+03  0.25500000920E-02 0.  1.
       -2   -1    0    0    0  501  0.00000000000E+00  0.00000000000E+00 -0.94539720020E+03  0.94539720021E+03  0.25500000920E-02 0. -1.
    10030    2    1    2    0    0  0.00000000000E+00  0.00000000000E+00 -0.49829357096E+03  0.13925008295E+04  0.13002930736E+04 0.  0.
        4    1    3    3  502    0 -0.29452235436E+03 -0.57546678387E+03 -0.17507961847E+03  0.66974616255E+03  0.12699999809E+01 0. -1.
       -4    1    3    3    0  502  0.29452235436E+03  0.57546678387E+03 -0.32321395249E+03  0.72275466691E+03  0.12699999809E+01 0.  1.
</event>
<event>
 5   0  0.6742824E-05  0.1299461E+04  0.7818609E-02  0.9029992E-01
        2   -1    0    0  501    0  0.00000000000E+00  0.00000000000E+00  0.96909757854E+03  0.96909757854E+03  0.25500000920E-02 0. -1.
       -2   -1    0    0    0  501  0.00000000000E+00  0.00000000000E+00 -0.43561149240E+03  0.43561149240E+03  0.25500000920E-02 0.  1.
    10030    2    1    2    0    0  0.00000000000E+00  0.00000000000E+00  0.53348608614E+03  0.14047090709E+04  0.12994614923E+04 0.  0.
        4    1    3    3  502    0  0.31890519946E+03  0.69153341840E+01  0.87862730291E+03  0.93473841176E+03  0.12699999809E+01 0. -1.
       -4    1    3    3    0  502 -0.31890519946E+03 -0.69153341840E+01 -0.34514121677E+03  0.46997065919E+03  0.12699999809E+01 0.  1.
</event>
<event>
 5   0  0.3552698E-05  0.1299871E+04  0.7818609E-02  0.9029668E-01
        1   -1    0    0  501    0  0.00000000000E+00  0.00000000000E+00  0.13637741475E+04  0.13637741475E+04  0.50400001928E-02 0. -1.
       -1   -1    0    0    0  501  0.00000000000E+00  0.00000000000E+00 -0.30974049713E+03  0.30974049717E+03  0.50400001928E-02 0.  1.
    10030    2    1    2    0    0  0.00000000000E+00  0.00000000000E+00  0.10540336504E+04  0.16735146447E+04  0.12998708897E+04 0.  0.
        5    1    3    3  502    0  0.47765470666E+03  0.22029628531E+03  0.10184599497E+04  0.11462840971E+04  0.46999998093E+01 0. -1.
       -5    1    3    3    0  502 -0.47765470666E+03 -0.22029628531E+03  0.35573700666E+02  0.52723054757E+03  0.46999998093E+01 0.  1.
</event>
<event>
 5   0  0.6618060E-05  0.1298052E+04  0.7818609E-02  0.9031111E-01
       -2   -1    0    0    0  501  0.00000000000E+00  0.00000000000E+00  0.28199377044E+03  0.28199377045E+03  0.25500000920E-02 0. -1.
        2   -1    0    0  501    0  0.00000000000E+00  0.00000000000E+00 -0.14937734713E+04  0.14937734713E+04  0.25500000920E-02 0.  1.
    10030    2    1    2    0    0  0.00000000000E+00  0.00000000000E+00 -0.12117797009E+04  0.17757672417E+04  0.12980520997E+04 0.  0.
        2    1    3    3  502    0  0.25046143692E+03 -0.12393258689E+03 -0.14072587760E+04  0.14347360316E+04  0.25500000920E-02 0.  1.
       -2    1    3    3    0  502 -0.25046143692E+03  0.12393258689E+03  0.19547907519E+03  0.34103121019E+03  0.25500000920E-02 0. -1.
</event>
<event>
 5   0  0.3718559E-05  0.1300075E+04  0.7818609E-02  0.9029506E-01
        1   -1    0    0  501    0  0.00000000000E+00  0.00000000000E+00  0.13133516868E+04  0.13133516868E+04  0.50400001928E-02 0.  1.
       -1   -1    0    0    0  501  0.00000000000E+00  0.00000000000E+00 -0.32173291754E+03  0.32173291758E+03  0.50400001928E-02 0. -1.
    10030    2    1    2    0    0  0.00000000000E+00  0.00000000000E+00  0.99161876925E+03  0.16350846044E+04  0.13000745671E+04 0.  0.
        2    1    3    3  502    0  0.13985254780E+01 -0.66137349370E+02  0.13091072482E+04  0.13107775907E+04  0.25500000920E-02 0.  1.
       -2    1    3    3    0  502 -0.13985254780E+01  0.66137349370E+02 -0.31748847897E+03  0.32430701371E+03  0.25500000920E-02 0. -1.
</event>
<event>
 5   0  0.3631841E-05  0.1301207E+04  0.7818609E-02  0.9028609E-01
       -1   -1    0    0    0  501  0.00000000000E+00  0.00000000000E+00  0.31896232185E+03  0.31896232189E+03  0.50400001928E-02 0.  1.
        1   -1    0    0  501    0  0.00000000000E+00  0.00000000000E+00 -0.13270683267E+04  0.13270683268E+04  0.50400001928E-02 0. -1.
    10030    2    1    2    0    0  0.00000000000E+00  0.00000000000E+00 -0.10081060049E+04  0.16460306486E+04  0.13012068165E+04 0.  0.
        3    1    3    3  502    0 -0.58074680434E+03 -0.21219072640E+03 -0.24793117308E+03  0.66615436042E+03  0.10100000352E+00 0. -1.
       -3    1    3    3    0  502  0.58074680434E+03  0.21219072640E+03 -0.76017483181E+03  0.97987628823E+03  0.10100000352E+00 0.  1.
</event>
<event>
 5   0  0.6688086E-05  0.1299993E+04  0.7818609E-02  0.9029571E-01
        2   -1    0    0  501    0  0.00000000000E+00  0.00000000000E+00  0.12419281410E+04  0.12419281410E+04  0.25500000920E-02 0. -1.
       -2   -1    0    0    0  501  0.00000000000E+00  0.00000000000E+00 -0.34019308187E+03  0.34019308188E+03  0.25500000920E-02 0.  1.
    10030    2    1    2    0    0  0.00000000000E+00  0.00000000000E+00  0.90173505910E+03  0.15821212228E+04  0.12999928642E+04 0.  0.
        5    1    3    3  502    0 -0.47212543349E+03  0.43265765763E+03  0.58627028491E+03  0.86823384559E+03  0.46999998093E+01 0. -1.
       -5    1    3    3    0  502  0.47212543349E+03 -0.43265765763E+03  0.31546477419E+03  0.71388737726E+03  0.46999998093E+01 0.  1.
</event>
<event>
 5   0  0.6671239E-05  0.1300050E+04  0.7818609E-02  0.9029525E-01
        2   -1    0    0  501    0  0.00000000000E+00  0.00000000000E+00  0.21268724951E+04  0.21268724951E+04  0.25500000920E-02 0.  1.
       -2   -1    0    0    0  501  0.00000000000E+00  0.00000000000E+00 -0.19866390301E+03  0.19866390303E+03  0.25500000920E-02 0. -1.
    10030    2    1    2    0    0  0.00000000000E+00  0.00000000000E+00  0.19282085921E+04  0.23255363981E+04  0.13000504469E+04 0.  0.
        1    1    3    3  502    0  0.29549148246E+03 -0.42220279253E+03  0.25540709160E+03  0.57515493277E+03  0.50400001928E-02 0.  1.
       -1    1    3    3    0  502 -0.29549148246E+03  0.42220279253E+03  0.16728015005E+04  0.17503814654E+04  0.50400001928E-02 0. -1.
</event>
<event>
 5   0  0.3551277E-05  0.1299515E+04  0.7818609E-02  0.9029950E-01
       -1   -1    0    0    0  501  0.00000000000E+00  0.00000000000E+00  0.58687177914E+03  0.58687177917E+03  0.50400001928E-02 0. -1.
        1   -1    0    0  501    0  0.00000000000E+00  0.00000000000E+00 -0.71938170114E+03  0.71938170116E+03  0.50400001928E-02 0.  1.
    10030    2    1    2    0    0  0.00000000000E+00  0.00000000000E+00 -0.13250992200E+03  0.13062534803E+04  0.12995150155E+04 0.  0.
        4    1    3    3  502    0 -0.64583430807E+03 -0.63124872504E+02 -0.99540152600E+02  0.65650328094E+03  0.12699999809E+01 0.  1.
       -4    1    3    3    0  502  0.64583430807E+03  0.63124872504E+02 -0.32969769397E+02  0.64975019939E+03  0.12699999809E+01 0. -1.
</event>
<event>
 5   0  0.3551277E-05  0.1300454E+04  0.7818609E-02  0.9029205E-01
        1   -1    0    0  501    0  0.00000000000E+00  0.00000000000E+00  0.90498817844E+03  0.90498817846E+03  0.50400001928E-02 0.  1.
       -1   -1    0    0    0  501  0.00000000000E+00  0.00000000000E+00 -0.46718307995E+03  0.46718307998E+03  0.50400001928E-02 0. -1.
    10030    2    1    2    0    0  0.00000000000E+00  0.00000000000E+00  0.43780509849E+03  0.13721712584E+04  0.13004540200E+04 0.  0.
        4    1    3    3  502    0  0.49282072131E+03  0.34801240132E+03 -0.36976039638E+02  0.60444498114E+03  0.12699999809E+01 0. -1.
       -4    1    3    3    0  502 -0.49282072131E+03 -0.34801240132E+03  0.47478113813E+03  0.76772627729E+03  0.12699999809E+01 0.  1.
</event>
<event>
 5   0  0.3631841E-05  0.1299820E+04  0.7818609E-02  0.9029708E-01
       -1   -1    0    0    0  501  0.00000000000E+00  0.00000000000E+00  0.59750994958E+03  0.59750994960E+03  0.50400001928E-02 0.  1.
        1   -1    0    0  501    0  0.00000000000E+00  0.00000000000E+00 -0.70690517116E+03  0.70690517117E+03  0.50400001928E-02 0. -1.
    10030    2    1    2    0    0  0.00000000000E+00  0.00000000000E+00 -0.10939522158E+03  0.13044151208E+04  0.12998197924E+04 0.  0.
        3    1    3    3  502    0 -0.12744152789E+03 -0.50757987347E+03  0.33202719978E+03  0.61977475149E+03  0.10100000352E+00 0.  1.
       -3    1    3    3    0  502  0.12744152789E+03  0.50757987347E+03 -0.44142242135E+03  0.68464036929E+03  0.10100000352E+00 0. -1.
</event>
<event>
 5   0  0.6742824E-05  0.1300509E+04  0.7818609E-02  0.9029162E-01
       -2   -1    0    0    0  501  0.00000000000E+00  0.00000000000E+00  0.43873532017E+03  0.43873532017E+03  0.25500000920E-02 0.  1.
        2   -1    0    0  501    0  0.00000000000E+00  0.00000000000E+00 -0.96374956602E+03  0.96374956602E+03  0.25500000920E-02 0. -1.
    10030    2    1    2    0    0  0.00000000000E+00  0.00000000000E+00 -0.52501424585E+03  0.14024848862E+04  0.13005090917E+04 0.  0.
        4    1    3    3  502    0 -0.35200688680E+03 -0.21946158271E+03 -0.80252910648E+03  0.90339737341E+03  0.12699999809E+01 0. -1.
       -4    1    3    3    0  502  0.35200688680E+03  0.21946158271E+03  0.27751486063E+03  0.49908751278E+03  0.12699999809E+01 0.  1.
</event>
<event>
 5   0  0.3552698E-05  0.1299817E+04  0.7818609E-02  0.9029710E-01
        1   -1    0    0  501    0  0.00000000000E+00  0.00000000000E+00  0.10260502073E+04  0.10260502074E+04  0.50400001928E-02 0.  1.
       -1   -1    0    0    0  501  0.00000000000E+00  0.00000000000E+00 -0.41165745257E+03  0.41165745260E+03  0.50400001928E-02 0. -1.
    10030    2    1    2    0    0  0.00000000000E+00  0.00000000000E+00  0.61439275478E+03  0.14377076600E+04  0.12998172404E+04 0.  0.
        5    1    3    3  502    0 -0.72384663666E+02  0.62686062365E+03  0.13525326619E+03  0.64537533036E+03  0.46999998093E+01 0. -1.
       -5    1    3    3    0  502  0.72384663666E+02 -0.62686062365E+03  0.47913948858E+03  0.79233232960E+03  0.46999998093E+01 0.  1.
</event>
<event>
 5   0  0.6458698E-05  0.1298919E+04  0.7818609E-02  0.9030422E-01
       -2   -1    0    0    0  501  0.00000000000E+00  0.00000000000E+00  0.51433837313E+03  0.51433837314E+03  0.25500000920E-02 0.  1.
        2   -1    0    0  501    0  0.00000000000E+00  0.00000000000E+00 -0.82007869790E+03  0.82007869791E+03  0.25500000920E-02 0. -1.
    10030    2    1    2    0    0  0.00000000000E+00  0.00000000000E+00 -0.30574032477E+03  0.13344170710E+04  0.12989194637E+04 0.  0.
        3    1    3    3  502    0 -0.25640494997E+03  0.33089133539E+03  0.35725341299E+03  0.55032952446E+03  0.10100000352E+00 0.  1.
       -3    1    3    3    0  502  0.25640494997E+03 -0.33089133539E+03 -0.66299373776E+03  0.78408754658E+03  0.10100000352E+00 0. -1.
</event>
<event>
 5   0  0.6458698E-05  0.1299743E+04  0.7818609E-02  0.9029769E-01
       -2   -1    0    0    0  501  0.00000000000E+00  0.00000000000E+00  0.76315133389E+03  0.76315133389E+03  0.25500000920E-02 0. -1.
        2   -1    0    0  501    0  0.00000000000E+00  0.00000000000E+00 -0.55340659953E+03  0.55340659954E+03  0.25500000920E-02 0.  1.
    10030    2    1    2    0    0  0.00000000000E+00  0.00000000000E+00  0.20974473436E+03  0.13165579334E+04  0.12997430279E+04 0.  0.
        3    1    3    3  502    0 -0.30391490592E+03  0.32337572979E+02 -0.47606537153E+03  0.56572805909E+03  0.10100000352E+00 0.  1.
       -3    1    3    3    0  502  0.30391490592E+03 -0.32337572979E+02  0.68581010588E+03  0.75082987434E+03  0.10100000352E+00 0. -1.
</event>
<event>
 5   0  0.3552698E-05  0.1302917E+04  0.7818609E-02  0.9027255E-01
       -1   -1    0    0    0  501  0.00000000000E+00  0.00000000000E+00  0.50172876202E+03  0.50172876205E+03  0.50400001928E-02 0.  1.
        1   -1    0    0  501    0  0.00000000000E+00  0.00000000000E+00 -0.84587202469E+03  0.84587202471E+03  0.50400001928E-02 0. -1.
    10030    2    1    2    0    0  0.00000000000E+00  0.00000000000E+00 -0.34414326267E+03  0.13476007868E+04  0.13029172250E+04 0.  0.
        5    1    3    3  502    0 -0.37810884188E+03  0.54269763922E+02  0.37372333786E+03  0.53441811986E+03  0.46999998093E+01 0.  1.
       -5    1    3    3    0  502  0.37810884188E+03 -0.54269763922E+02 -0.71786660053E+03  0.81318266689E+03  0.46999998093E+01 0. -1.
</event>
<event>
 5   0  0.3552698E-05  0.1300155E+04  0.7818609E-02  0.9029442E-01
        1   -1    0    0  501    0  0.00000000000E+00  0.00000000000E+00  0.83416748133E+03  0.83416748135E+03  0.50400001928E-02 0. -1.
       -1   -1    0    0    0  501  0.00000000000E+00  0.00000000000E+00 -0.50661358325E+03  0.50661358328E+03  0.50400001928E-02 0.  1.
    10030    2    1    2    0    0  0.00000000000E+00  0.00000000000E+00  0.32755389808E+03  0.13407810646E+04  0.13001547243E+04 0.  0.
        5    1    3    3  502    0 -0.42611484332E+03 -0.46828418479E+03  0.11813815608E+02  0.63326581596E+03  0.46999998093E+01 0.  1.
       -5    1    3    3    0  502  0.42611484332E+03  0.46828418479E+03  0.31574008247E+03  0.70751524867E+03  0.46999998093E+01 0. -1.
</event>
<event>
 5   0  0.6458698E-05  0.1299722E+04  0.7818609E-02  0.9029786E-01
        2   -1    0    0  501    0  0.00000000000E+00  0.00000000000E+00  0.11392926902E+04  0.11392926902E+04  0.25500000920E-02 0. -1.
       -2   -1    0    0    0  501  0.00000000000E+00  0.00000000000E+00 -0.37068531580E+03  0.37068531581E+03  0.25500000920E-02 0.  1.
    10030    2    1    2    0    0  0.00000000000E+00  0.00000000000E+00  0.76860737442E+03  0.15099780060E+04  0.12997216174E+04 0.  0.
        3    1    3    3  502    0  0.52992723901E+03  0.29447728557E+03  0.65621580252E+03  0.89339741438E+03  0.10100000352E+00 0. -1.
       -3    1    3    3    0  502 -0.52992723901E+03 -0.29447728557E+03  0.11239157190E+03  0.61658059164E+03  0.10100000352E+00 0.  1.
</event>
<event>
 5   0  0.2512000E-05  0.1300165E+04  0.7818609E-02  0.9029435E-01
       -3   -1    0    0    0  501  0.00000000000E+00  0.00000000000E+00  0.20190771081E+03  0.20190773607E+03  0.10100000352E+00 0.  1.
        3   -1    0    0  501    0  0.00000000000E+00  0.00000000000E+00 -0.20930704177E+04  0.20930704201E+04  0.10100000352E+00 0. -1.
    10030    2    1    2    0    0  0.00000000000E+00  0.00000000000E+00 -0.18911627069E+04  0.22949781562E+04  0.13001647409E+04 0.  0.
        4    1    3    3  502    0  0.31679816574E+03  0.38672752628E+02 -0.19452652650E+04  0.19712724885E+04  0.12699999809E+01 0. -1.
       -4    1    3    3    0  502 -0.31679816574E+03 -0.38672752628E+02  0.54102558152E+02  0.32370566772E+03  0.12699999809E+01 0.  1.
</event>
<event>
 5   0  0.6618060E-05  0.1299857E+04  0.7818609E-02  0.9029679E-01
        2   -1    0    0  501    0  0.00000000000E+00  0.00000000000E+00  0.10003094200E+04  0.10003094200E+04  0.25500000920E-02 0. -1.
       -2   -1    0    0    0  501  0.00000000000E+00  0.00000000000E+00 -0.42227616942E+03  0.42227616943E+03  0.25500000920E-02 0.  1.
    10030    2    1    2    0    0  0.00000000000E+00  0.00000000000E+00  0.57803325063E+03  0.14225855895E+04  0.12998566538E+04 0.  0.
        2    1    3    3  502    0  0.33620358198E+03 -0.11304449442E+03  0.88504206996E+03  0.95347331996E+03  0.25500000920E-02 0. -1.
       -2    1    3    3    0  502 -0.33620358198E+03  0.11304449442E+03 -0.30700881934E+03  0.46911226952E+03  0.25500000920E-02 0.  1.
</event>
<event>
 5   0  0.6671239E-05  0.1298980E+04  0.7818609E-02  0.9030375E-01
        2   -1    0    0  501    0  0.00000000000E+00  0.00000000000E+00  0.17731873656E+04  0.17731873656E+04  0.25500000920E-02 0. -1.
       -2   -1    0    0    0  501  0.00000000000E+00  0.00000000000E+00 -0.23789757984E+03  0.23789757985E+03  0.25500000920E-02 0.  1.
    10030    2    1    2    0    0  0.00000000000E+00  0.00000000000E+00  0.15352897858E+04  0.20110849455E+04  0.12989795732E+04 0.  0.
        1    1    3    3  502    0 -0.55766059473E+03 -0.63517857676E+02  0.26164719957E+03  0.61925690487E+03  0.50400001928E-02 0.  1.
       -1    1    3    3    0  502  0.55766059473E+03  0.63517857676E+02  0.12736425862E+04  0.13918280406E+04  0.50400001928E-02 0. -1.
</event>
<event>
 5   0  0.3689707E-05  0.1299685E+04  0.7818609E-02  0.9029815E-01
       -1   -1    0    0    0  501  0.00000000000E+00  0.00000000000E+00  0.60189899371E+03  0.60189899374E+03  0.50400001928E-02 0.  1.
        1   -1    0    0  501    0  0.00000000000E+00  0.00000000000E+00 -0.70160460214E+03  0.70160460216E+03  0.50400001928E-02 0. -1.
    10030    2    1    2    0    0  0.00000000000E+00  0.00000000000E+00 -0.99705608428E+02  0.13035035959E+04  0.12996847372E+04 0.  0.
        1    1    3    3  502    0  0.48875895078E+02 -0.48259980230E+03  0.38385705344E+03  0.61857712519E+03  0.50400001928E-02 0.  1.
       -1    1    3    3    0  502 -0.48875895078E+02  0.48259980230E+03 -0.48356266187E+03  0.68492647071E+03  0.50400001928E-02 0. -1.
</event>
<event>
 5   0  0.6742824E-05  0.1298316E+04  0.7818609E-02  0.9030902E-01
       -2   -1    0    0    0  501  0.00000000000E+00  0.00000000000E+00  0.45731036641E+03  0.45731036642E+03  0.25500000920E-02 0.  1.
        2   -1    0    0  501    0  0.00000000000E+00  0.00000000000E+00 -0.92148820364E+03  0.92148820364E+03  0.25500000920E-02 0. -1.
    10030    2    1    2    0    0  0.00000000000E+00  0.00000000000E+00 -0.46417783723E+03  0.13787985701E+04  0.12983159986E+04 0.  0.
        4    1    3    3  502    0  0.48054496609E+03 -0.14988227146E+03  0.20321860132E+03  0.54285133559E+03  0.12699999809E+01 0.  1.
       -4    1    3    3    0  502 -0.48054496609E+03  0.14988227146E+03 -0.66739643855E+03  0.83594723447E+03  0.12699999809E+01 0. -1.
</event>
<event>
 5   0  0.6742824E-05  0.1301730E+04  0.7818609E-02  0.9028194E-01
        2   -1    0    0  501    0  0.00000000000E+00  0.00000000000E+00  0.12957978364E+04  0.12957978364E+04  0.25500000920E-02 0.  1.
       -2   -1    0    0    0  501  0.00000000000E+00  0.00000000000E+00 -0.32692237707E+03  0.32692237708E+03  0.25500000920E-02 0. -1.
    10030    2    1    2    0    0  0.00000000000E+00  0.00000000000E+00  0.96887545933E+03  0.16227202135E+04  0.13017300932E+04 0.  0.
        4    1    3    3  502    0 -0.26620368961E+03  0.46789801158E+02  0.12225290177E+04  0.12520513176E+04  0.12699999809E+01 0.  1.
       -4    1    3    3    0  502  0.26620368961E+03 -0.46789801158E+02 -0.25365355833E+03  0.37066889593E+03  0.12699999809E+01 0. -1.
</event>
<event>
 5   0  0.6688086E-05  0.1299892E+04  0.7818609E-02  0.9029651E-01
        2   -1    0    0  501    0  0.00000000000E+00  0.00000000000E+00  0.15403836703E+04  0.15403836703E+04  0.25500000920E-02 0. -1.
       -2   -1    0    0    0  501  0.00000000000E+00  0.00000000000E+00 -0.27423654974E+03  0.27423654975E+03  0.25500000920E-02 0.  1.
    10030    2    1    2    0    0  0.00000000000E+00  0.00000000000E+00  0.12661471205E+04  0.18146202200E+04  0.12998915386E+04 0.  0.
        5    1    3    3  502    0 -0.22470124394E+03  0.53399992442E+03  0.22188548162E+03  0.62040456580E+03  0.46999998093E+01 0.  1.
       -5    1    3    3    0  502  0.22470124394E+03 -0.53399992442E+03  0.10442616389E+04  0.11942156542E+04  0.46999998093E+01 0. -1.
</event>
<event>
 5   0  0.3551277E-05  0.1299143E+04  0.7818609E-02  0.9030245E-01
        1   -1    0    0  501    0  0.00000000000E+00  0.00000000000E+00  0.12065793939E+04  0.12065793940E+04  0.50400001928E-02 0. -1.
       -1   -1    0    0    0  501  0.00000000000E+00  0.00000000000E+00 -0.34970199041E+03  0.34970199045E+03  0.50400001928E-02 0.  1.
    10030    2    1    2    0    0  0.00000000000E+00  0.00000000000E+00  0.85687740354E+03  0.15562813844E+04  0.12991431264E+04 0.  0.
        4    1    3    3  502    0 -0.43982525201E+03  0.46115669547E+03  0.57915824167E+03  0.86112579329E+03  0.12699999809E+01 0. -1.
       -4    1    3    3    0  502  0.43982525201E+03 -0.46115669547E+03  0.27771916187E+03  0.69515559111E+03  0.12699999809E+01 0.  1.
</event>
<event>
 5   0  0.3718559E-05  0.1299364E+04  0.7818609E-02  0.9030070E-01
       -1   -1    0    0    0  501  0.00000000000E+00  0.00000000000E+00  0.55746138637E+03  0.55746138639E+03  0.50400001928E-02 0. -1.
        1   -1    0    0  501    0  0.00000000000E+00  0.00000000000E+00 -0.75715862790E+03  0.75715862792E+03  0.50400001928E-02 0.  1.
    10030    2    1    2    0    0  0.00000000000E+00  0.00000000000E+00 -0.19969724154E+03  0.13146200143E+04  0.12993639959E+04 0.  0.
        2    1    3    3  502    0 -0.45701063712E+03  0.43043234913E+03 -0.26901212960E+03  0.68300677559E+03  0.25500000920E-02 0.  1.
       -2    1    3    3    0  502  0.45701063712E+03 -0.43043234913E+03  0.69314888062E+02  0.63161323872E+03  0.25500000920E-02 0. -1.
</event>
<event>
 5   0  0.6458698E-05  0.1299461E+04  0.7818609E-02  0.9029993E-01
        2   -1    0    0  501    0  0.00000000000E+00  0.00000000000E+00  0.91055186258E+03  0.91055186259E+03  0.25500000920E-02 0. -1.
       -2   -1    0    0    0  501  0.00000000000E+00  0.00000000000E+00 -0.46361947717E+03  0.46361947717E+03  0.25500000920E-02 0.  1.
    10030    2    1    2    0    0  0.00000000000E+00  0.00000000000E+00  0.44693238542E+03  0.13741713398E+04  0.12994607781E+04 0.  0.
        3    1    3    3  502    0 -0.50804221333E+03  0.40110797202E+03  0.28286563735E+03  0.70640461121E+03  0.10100000352E+00 0.  1.
       -3    1    3    3    0  502  0.50804221333E+03 -0.40110797202E+03  0.16406674807E+03  0.66776672855E+03  0.10100000352E+00 0. -1.
</event>
<event>
 5   0  0.6742824E-05  0.1300485E+04  0.7818609E-02  0.9029180E-01
        2   -1    0    0  501    0  0.00000000000E+00  0.00000000000E+00  0.14660684448E+04  0.14660684448E+04  0.25500000920E-02 0. -1.
       -2   -1    0    0    0  501  0.00000000000E+00  0.00000000000E+00 -0.28840091529E+03  0.28840091530E+03  0.25500000920E-02 0.  1.
    10030    2    1    2    0    0  0.00000000000E+00  0.00000000000E+00  0.11776675296E+04  0.17544693601E+04  0.13004852654E+04 0.  0.
        4    1    3    3  502    0  0.37252016698E+03  0.16209441843E+03 -0.96109890962E+02  0.41747407025E+03  0.12699999809E+01 0.  1.
       -4    1    3    3    0  502 -0.37252016698E+03 -0.16209441843E+03  0.12737774205E+04  0.13369952899E+04  0.12699999809E+01 0. -1.
</event>
<event>
 5   0  0.6742824E-05  0.1297776E+04  0.7818609E-02  0.9031331E-01
        2   -1    0    0  501    0  0.00000000000E+00  0.00000000000E+00  0.38122689602E+03  0.38122689602E+03  0.25500000920E-02 0.  1.
       -2   -1    0    0    0  501  0.00000000000E+00  0.00000000000E+00 -0.11044750940E+04  0.11044750940E+04  0.25500000920E-02 0. -1.
    10030    2    1    2    0    0  0.00000000000E+00  0.00000000000E+00 -0.72324819795E+03  0.14857019900E+04  0.12977759619E+04 0.  0.
        4    1    3    3  502    0  0.40108705920E+03  0.74236574872E+02 -0.93935109913E+03  0.10240917920E+04  0.12699999809E+01 0. -1.
       -4    1    3    3    0  502 -0.40108705920E+03 -0.74236574872E+02  0.21610290117E+03  0.46161019800E+03  0.12699999809E+01 0.  1.
</event>
<event>
 5   0  0.3631841E-05  0.1299803E+04  0.7818609E-02  0.9029721E-01
       -1   -1    0    0    0  501  0.00000000000E+00  0.00000000000E+00  0.30742105190E+03  0.30742105194E+03  0.50400001928E-02 0.  1.
        1   -1    0    0  501    0  0.00000000000E+00  0.00000000000E+00 -0.13739207294E+04  0.13739207294E+04  0.50400001928E-02 0. -1.
    10030    2    1    2    0    0  0.00000000000E+00  0.00000000000E+00 -0.10664996775E+04  0.16813417814E+04  0.12998033019E+04 0.  0.
        3    1    3    3  502    0 -0.18609341011E+03  0.12575647199E+03 -0.13221227564E+04  0.13410645177E+04  0.10100000352E+00 0. -1.
       -3    1    3    3    0  502  0.18609341011E+03 -0.12575647199E+03  0.25562307884E+03  0.34027726367E+03  0.10100000352E+00 0.  1.
</event>
<event>
 5   0  0.3689707E-05  0.1298583E+04  0.7818609E-02  0.9030689E-01
       -1   -1    0    0    0  501  0.00000000000E+00  0.00000000000E+00  0.66435896941E+03  0.66435896943E+03  0.50400001928E-02 0. -1.
        1   -1    0    0  501    0  0.00000000000E+00  0.00000000000E+00 -0.63456619446E+03  0.63456619448E+03  0.50400001928E-02 0.  1.
    10030    2    1    2    0    0  0.00000000000E+00  0.00000000000E+00  0.29792774952E+02  0.12989251639E+04  0.12985834482E+04 0.  0.
        1    1    3    3  502    0 -0.19153726056E+03 -0.18795143357E+03  0.60629428860E+03  0.66302716986E+03  0.50400001928E-02 0. -1.
       -1    1    3    3    0  502  0.19153726056E+03  0.18795143357E+03 -0.57650151364E+03  0.63589799404E+03  0.50400001928E-02 0.  1.
</event>
<event>
 5   0  0.3718559E-05  0.1300337E+04  0.7818609E-02  0.9029298E-01
       -1   -1    0    0    0  501  0.00000000000E+00  0.00000000000E+00  0.20911238260E+03  0.20911238266E+03  0.50400001928E-02 0.  1.
        1   -1    0    0  501    0  0.00000000000E+00  0.00000000000E+00 -0.20214937032E+04  0.20214937032E+04  0.50400001928E-02 0. -1.
    10030    2    1    2    0    0  0.00000000000E+00  0.00000000000E+00 -0.18123813206E+04  0.22306060859E+04  0.13003374405E+04 0.  0.
        2    1    3    3  502    0 -0.50469228474E+02  0.27882113861E+03  0.97623572106E+02  0.29969773472E+03  0.25500000920E-02 0.  1.
       -2    1    3    3    0  502  0.50469228474E+02 -0.27882113861E+03 -0.19100048927E+04  0.19309083512E+04  0.25500000920E-02 0. -1.
</event>
<event>
 5   0  0.6671239E-05  0.1300009E+04  0.7818609E-02  0.9029558E-01
        2   -1    0    0  501    0  0.00000000000E+00  0.00000000000E+00  0.16215178358E+04  0.16215178358E+04  0.25500000920E-02 0. -1.
       -2   -1    0    0    0  501  0.00000000000E+00  0.00000000000E+00 -0.26056177127E+03  0.26056177129E+03  0.25500000920E-02 0.  1.
    10030    2    1    2    0    0  0.00000000000E+00  0.00000000000E+00  0.13609560645E+04  0.18820796071E+04  0.13000085530E+04 0.  0.
        1    1    3    3  502    0  0.34383279835E+03 -0.38424511797E+03  0.10749274464E+03  0.52670674391E+03  0.50400001928E-02 0. -1.
       -1    1    3    3    0  502 -0.34383279835E+03  0.38424511797E+03  0.12534633199E+04  0.13553728632E+04  0.50400001928E-02 0.  1.
</event>
<event>
 5   0  0.6742824E-05  0.1299791E+04  0.7818609E-02  0.9029731E-01
       -2   -1    0    0    0  501  0.00000000000E+00  0.00000000000E+00  0.45346236744E+03  0.45346236745E+03  0.25500000920E-02 0.  1.
        2   -1    0    0  501    0  0.00000000000E+00  0.00000000000E+00 -0.93142019947E+03  0.93142019947E+03  0.25500000920E-02 0. -1.
    10030    2    1    2    0    0  0.00000000000E+00  0.00000000000E+00 -0.47795783203E+03  0.13848825669E+04  0.12997907658E+04 0.  0.
        4    1    3    3  502    0  0.56430190181E+03  0.69925332160E+02 -0.57428119199E+03  0.80816253863E+03  0.12699999809E+01 0. -1.
       -4    1    3    3    0  502 -0.56430190181E+03 -0.69925332160E+02  0.96323359962E+02  0.57672002830E+03  0.12699999809E+01 0.  1.
</event>
<event>
 5   0  0.3552698E-05  0.1299502E+04  0.7818609E-02  0.9029961E-01
       -1   -1    0    0    0  501  0.00000000000E+00  0.00000000000E+00  0.27138195004E+03  0.27138195009E+03  0.50400001928E-02 0. -1.
        1   -1    0    0  501    0  0.00000000000E+00  0.00000000000E+00 -0.15556527021E+04  0.15556527021E+04  0.50400001928E-02 0.  1.
    10030    2    1    2    0    0  0.00000000000E+00  0.00000000000E+00 -0.12842707521E+04  0.18270346522E+04  0.12995015413E+04 0.  0.
        5    1    3    3  502    0  0.10183686258E+03  0.31899292808E+03 -0.14249691635E+04  0.14637918027E+04  0.46999998093E+01 0.  1.
       -5    1    3    3    0  502 -0.10183686258E+03 -0.31899292808E+03  0.14069841143E+03  0.36324284951E+03  0.46999998093E+01 0. -1.
</event>
<event>
 5   0  0.6671239E-05  0.1301094E+04  0.7818609E-02  0.9028698E-01
        2   -1    0    0  501    0  0.00000000000E+00  0.00000000000E+00  0.24139975216E+04  0.24139975216E+04  0.25500000920E-02 0. -1.
       -2   -1    0    0    0  501  0.00000000000E+00  0.00000000000E+00 -0.17531560827E+03  0.17531560828E+03  0.25500000920E-02 0.  1.
    10030    2    1    2    0    0  0.00000000000E+00  0.00000000000E+00  0.22386819133E+04  0.25893131299E+04  0.13010940687E+04 0.  0.
        1    1    3    3  502    0 -0.10174759494E+03  0.45949208538E+03  0.22550730512E+03  0.52186118297E+03  0.50400001928E-02 0.  1.
       -1    1    3    3    0  502  0.10174759494E+03 -0.45949208538E+03  0.20131746082E+04  0.20674519469E+04  0.50400001928E-02 0. -1.
</event>
<event>
 5   0  0.3631841E-05  0.1299505E+04  0.7818609E-02  0.9029957E-01
        1   -1    0    0  501    0  0.00000000000E+00  0.00000000000E+00  0.54221340444E+03  0.54221340446E+03  0.50400001928E-02 0. -1.
       -1   -1    0    0    0  501  0.00000000000E+00  0.00000000000E+00 -0.77862068259E+03  0.77862068261E+03  0.50400001928E-02 0.  1.
    10030    2    1    2    0    0  0.00000000000E+00  0.00000000000E+00 -0.23640727816E+03  0.13208340871E+04  0.12995053999E+04 0.  0.
        3    1    3    3  502    0 -0.61983066770E+03  0.14215385078E+02 -0.31578141592E+03  0.69578017120E+03  0.10100000352E+00 0.  1.
       -3    1    3    3    0  502  0.61983066770E+03 -0.14215385078E+02  0.79374137767E+02  0.62505391587E+03  0.10100000352E+00 0. -1.
</event>
<event>
 5   0  0.3552698E-05  0.1300808E+04  0.7818609E-02  0.9028925E-01
       -1   -1    0    0    0  501  0.00000000000E+00  0.00000000000E+00  0.32593664555E+03  0.32593664559E+03  0.50400001928E-02 0. -1.
        1   -1    0    0  501    0  0.00000000000E+00  0.00000000000E+00 -0.12978751237E+04  0.12978751237E+04  0.50400001928E-02 0.  1.
    10030    2    1    2    0    0  0.00000000000E+00  0.00000000000E+00 -0.97193847812E+03  0.16238117693E+04  0.13008075402E+04 0.  0.
        5    1    3    3  502    0 -0.35597176972E+03 -0.96252567737E+02 -0.11547451523E+04  0.12122041554E+04  0.46999998093E+01 0.  1.
       -5    1    3    3    0  502  0.35597176972E+03  0.96252567737E+02  0.18280667420E+03  0.41160761384E+03  0.46999998093E+01 0. -1.
</event>
<event>
 5   0  0.3552698E-05  0.1300408E+04  0.7818609E-02  0.9029242E-01
       -1   -1    0    0    0  501  0.00000000000E+00  0.00000000000E+00  0.39343656776E+03  0.39343656779E+03  0.50400001928E-02 0. -1.
        1   -1    0    0  501    0  0.00000000000E+00  0.00000000000E+00 -0.10745448142E+04  0.10745448142E+04  0.50400001928E-02 0.  1.
    10030    2    1    2    0    0  0.00000000000E+00  0.00000000000E+00 -0.68110824642E+03  0.14679813820E+04  0.13004079723E+04 0.  0.
        5    1    3    3  502    0 -0.30237397585E+03 -0.43548022112E+03 -0.76544754577E+03  0.93113107541E+03  0.46999998093E+01 0.  1.
       -5    1    3    3    0  502  0.30237397585E+03  0.43548022112E+03  0.84339299358E+02  0.53685030658E+03  0.46999998093E+01 0. -1.
</event>
<event>
 5   0  0.2512000E-05  0.1299491E+04  0.7818609E-02  0.9029969E-01
        4   -1    0    0  501    0  0.00000000000E+00  0.00000000000E+00  0.40862926000E+03  0.40863123354E+03  0.12699999809E+01 0.  1.
       -4   -1    0    0    0  501  0.00000000000E+00  0.00000000000E+00 -0.10331303255E+04  0.10331311061E+04  0.12699999809E+01 0. -1.
    10030    2    1    2    0    0  0.00000000000E+00  0.00000000000E+00 -0.62450106550E+03  0.14417623396E+04  0.12994910785E+04 0.  0.
        2    1    3    3  502    0 -0.50333127837E+03  0.25253086297E+03  0.47357056354E+02  0.56511671655E+03  0.25500000920E-02 0.  1.
       -2    1    3    3    0  502  0.50333127837E+03 -0.25253086297E+03 -0.67185812185E+03  0.87664562306E+03  0.25500000920E-02 0. -1.
</event>
<event>
 5   0  0.6688086E-05  0.1299826E+04  0.7818609E-02  0.9029703E-01
       -2   -1    0    0    0  501  0.00000000000E+00  0.00000000000E+00  0.40386373329E+03  0.40386373329E+03  0.25500000920E-02 0.  1.
        2   -1    0    0  501    0  0.00000000000E+00  0.00000000000E+00 -0.10458650357E+04  0.10458650357E+04  0.25500000920E-02 0. -1.
    10030    2    1    2    0    0  0.00000000000E+00  0.00000000000E+00 -0.64200130245E+03  0.14497287690E+04  0.12998260774E+04 0.  0.
        5    1    3    3  502    0 -0.12444555815E+03 -0.44417362632E+03 -0.83160519779E+03  0.95098170448E+03  0.46999998093E+01 0. -1.
       -5    1    3    3    0  502  0.12444555815E+03  0.44417362632E+03  0.18960389535E+03  0.49874706455E+03  0.46999998093E+01 0.  1.
</event>
<event>
 5   0  0.6742824E-05  0.1299927E+04  0.7818609E-02  0.9029623E-01
        2   -1    0    0  501    0  0.00000000000E+00  0.00000000000E+00  0.39226598370E+03  0.39226598370E+03  0.25500000920E-02 0.  1.
       -2   -1    0    0    0  501  0.00000000000E+00  0.00000000000E+00 -0.10769537039E+04  0.10769537039E+04  0.25500000920E-02 0. -1.
    10030    2    1    2    0    0  0.00000000000E+00  0.00000000000E+00 -0.68468772016E+03  0.14692196876E+04  0.12999266195E+04 0.  0.
        4    1    3    3  502    0 -0.40562963216E+03 -0.49084060077E+03 -0.48966829415E+03  0.80326617322E+03  0.12699999809E+01 0. -1.
       -4    1    3    3    0  502  0.40562963216E+03  0.49084060077E+03 -0.19501942601E+03  0.66595351435E+03  0.12699999809E+01 0.  1.
</event>
<event>
 5   0  0.3689707E-05  0.1302284E+04  0.7818609E-02  0.9027756E-01
        1   -1    0    0  501    0  0.00000000000E+00  0.00000000000E+00  0.14555606273E+04  0.14555606273E+04  0.50400001928E-02 0.  1.
       -1   -1    0    0    0  501  0.00000000000E+00  0.00000000000E+00 -0.29128686353E+03  0.29128686357E+03  0.50400001928E-02 0. -1.
    10030    2    1    2    0    0  0.00000000000E+00  0.00000000000E+00  0.11642737637E+04  0.17468474908E+04  0.13022836708E+04 0.  0.
        1    1    3    3  502    0 -0.39222851705E+03 -0.31170605944E+03  0.11400282184E+04  0.12452582928E+04  0.50400001928E-02 0.  1.
       -1    1    3    3    0  502  0.39222851705E+03  0.31170605944E+03  0.24245545348E+02  0.50158919803E+03  0.50400001928E-02 0. -1.
</event>
<event>
 5   0  0.6688086E-05  0.1300512E+04  0.7818609E-02  0.9029160E-01
        2   -1    0    0  501    0  0.00000000000E+00  0.00000000000E+00  0.61557125480E+03  0.61557125481E+03  0.25500000920E-02 0. -1.
       -2   -1    0    0    0  501  0.00000000000E+00  0.00000000000E+00 -0.68689464615E+03  0.68689464615E+03  0.25500000920E-02 0.  1.
    10030    2    1    2    0    0  0.00000000000E+00  0.00000000000E+00 -0.71323391347E+02  0.13024659010E+04  0.13005115905E+04 0.  0.
        5    1    3    3  502    0 -0.44120607126E+03 -0.47132370866E+03  0.41925190290E+02  0.64698427124E+03  0.46999998093E+01 0. -1.
       -5    1    3    3    0  502  0.44120607126E+03  0.47132370866E+03 -0.11324858164E+03  0.65548162972E+03  0.46999998093E+01 0.  1.
</event>
<event>
 5   0  0.3552698E-05  0.1299815E+04  0.7818609E-02  0.9029712E-01
        1   -1    0    0  501    0  0.00000000000E+00  0.00000000000E+00  0.13366913097E+04  0.13366913098E+04  0.50400001928E-02 0.  1.
       -1   -1    0    0    0  501  0.00000000000E+00  0.00000000000E+00 -0.31598902682E+03  0.31598902686E+03  0.50400001928E-02 0. -1.
    10030    2    1    2    0    0  0.00000000000E+00  0.00000000000E+00  0.10207022829E+04  0.16526803366E+04  0.12998150425E+04 0.  0.
        5    1    3    3  502    0  0.43055518330E+03 -0.16597522774E+03  0.10922251805E+04  0.11857080066E+04  0.46999998093E+01 0.  1.
       -5    1    3    3    0  502 -0.43055518330E+03  0.16597522774E+03 -0.71522897573E+02  0.46697232998E+03  0.46999998093E+01 0. -1.
</event>
<event>
 5   0  0.6458698E-05  0.1300258E+04  0.7818609E-02  0.9029360E-01
       -2   -1    0    0    0  501  0.00000000000E+00  0.00000000000E+00  0.48792289147E+03  0.48792289148E+03  0.25500000920E-02 0. -1.
        2   -1    0    0  501    0  0.00000000000E+00  0.00000000000E+00 -0.86625975659E+03  0.86625975660E+03  0.25500000920E-02 0.  1.
    10030    2    1    2    0    0  0.00000000000E+00  0.00000000000E+00 -0.37833686512E+03  0.13541826481E+04  0.13002583823E+04 0.  0.
        3    1    3    3  502    0  0.35356778913E+03 -0.48991927584E+03  0.60864837947E+02  0.60723604722E+03  0.10100000352E+00 0. -1.
       -3    1    3    3    0  502 -0.35356778913E+03  0.48991927584E+03 -0.43920170307E+03  0.74694660085E+03  0.10100000352E+00 0.  1.
</event>
<event>
 5   0  0.6688086E-05  0.1300325E+04  0.7818609E-02  0.9029308E-01
        2   -1    0    0  501    0  0.00000000000E+00  0.00000000000E+00  0.18839171625E+04  0.18839171625E+04  0.25500000920E-02 0.  1.
       -2   -1    0    0    0  501  0.00000000000E+00  0.00000000000E+00 -0.22437876361E+03  0.22437876362E+03  0.25500000920E-02 0. -1.
    10030    2    1    2    0    0  0.00000000000E+00  0.00000000000E+00  0.16595383989E+04  0.21082959262E+04  0.13003245805E+04 0.  0.
        5    1    3    3  502    0 -0.27790371991E+03  0.14266745991E+03  0.17542358361E+04  0.17818389209E+04  0.46999998093E+01 0.  1.
       -5    1    3    3    0  502  0.27790371991E+03 -0.14266745991E+03 -0.94697437130E+02  0.32645700522E+03  0.46999998093E+01 0. -1.
</event>
<event>
 5   0  0.3551277E-05  0.1303987E+04  0.7818609E-02  0.9026410E-01
        1   -1    0    0  501    0  0.00000000000E+00  0.00000000000E+00  0.11638258133E+04  0.11638258133E+04  0.50400001928E-02 0. -1.
       -1   -1    0    0    0  501  0.00000000000E+00  0.00000000000E+00 -0.36525676895E+03  0.36525676899E+03  0.50400001928E-02 0.  1.
    10030    2    1    2    0    0  0.00000000000E+00  0.00000000000E+00  0.79856904436E+03  0.15290825823E+04  0.13039865892E+04 0.  0.
        4    1    3    3  502    0 -0.12466761285E+03 -0.63378637509E+03  0.50328791237E+03  0.81885744705E+03  0.12699999809E+01 0. -1.
       -4    1    3    3    0  502  0.12466761285E+03  0.63378637509E+03  0.29528113199E+03  0.71022513526E+03  0.12699999809E+01 0.  1.
</event>
<event>
 5   0  0.6458698E-05  0.1300190E+04  0.7818609E-02  0.9029415E-01
       -2   -1    0    0    0  501  0.00000000000E+00  0.00000000000E+00  0.34490306661E+03  0.34490306661E+03  0.25500000920E-02 0. -1.
        2   -1    0    0  501    0  0.00000000000E+00  0.00000000000E+00 -0.12253396656E+04  0.12253396657E+04  0.25500000920E-02 0.  1.
    10030    2    1    2    0    0  0.00000000000E+00  0.00000000000E+00 -0.88043659904E+03  0.15702427323E+04  0.13001898451E+04 0.  0.
        3    1    3    3  502    0  0.65043556856E+01 -0.33569784743E+03  0.23208065289E+03  0.40816270169E+03  0.10100000352E+00 0. -1.
       -3    1    3    3    0  502 -0.65043556856E+01  0.33569784743E+03 -0.11125172519E+04  0.11620800306E+04  0.10100000352E+00 0.  1.
</event>
<event>
 5   0  0.6618060E-05  0.1300401E+04  0.7818609E-02  0.9029248E-01
       -2   -1    0    0    0  501  0.00000000000E+00  0.00000000000E+00  0.31166774604E+03  0.31166774605E+03  0.25500000920E-02 0. -1.
        2   -1    0    0  501    0  0.00000000000E+00  0.00000000000E+00 -0.13564457738E+04  0.13564457738E+04  0.25500000920E-02 0.  1.
    10030    2    1    2    0    0  0.00000000000E+00  0.00000000000E+00 -0.10447780278E+04  0.16681135199E+04  0.13004005490E+04 0.  0.
        2    1    3    3  502    0  0.17447877028E+03 -0.44413305009E+03 -0.10889365320E+04  0.11888985567E+04  0.25500000920E-02 0.  1.
       -2    1    3    3    0  502 -0.17447877028E+03  0.44413305009E+03  0.44158504156E+02  0.47921496320E+03  0.25500000920E-02 0. -1.
</event>
<event>
 5   0  0.6742824E-05  0.1300892E+04  0.7818609E-02  0.9028858E-01
        2   -1    0    0  501    0  0.00000000000E+00  0.00000000000E+00  0.18011996510E+04  0.18011996510E+04  0.25500000920E-02 0. -1.
       -2   -1    0    0    0  501  0.00000000000E+00  0.00000000000E+00 -0.23488804563E+03  0.23488804565E+03  0.25500000920E-02 0.  1.
    10030    2    1    2    0    0  0.00000000000E+00  0.00000000000E+00  0.15663116054E+04  0.20360876967E+04  0.13008924104E+04 0.  0.
        4    1    3    3  502    0  0.32048618899E+03 -0.35026730001E+03  0.87272289520E+02  0.48271797585E+03  0.12699999809E+01 0.  1.
       -4    1    3    3    0  502 -0.32048618899E+03  0.35026730001E+03  0.14790393158E+04  0.15533697208E+04  0.12699999809E+01 0. -1.
</event>
<event>
 5   0  0.6688086E-05  0.1300244E+04  0.7818609E-02  0.9029372E-01
       -2   -1    0    0    0  501  0.00000000000E+00  0.00000000000E+00  0.77643959708E+03  0.77643959709E+03  0.25500000920E-02 0.  1.
        2   -1    0    0  501    0  0.00000000000E+00  0.00000000000E+00 -0.54435485919E+03  0.54435485920E+03  0.25500000920E-02 0. -1.
    10030    2    1    2    0    0  0.00000000000E+00  0.00000000000E+00  0.23208473789E+03  0.13207944563E+04  0.13002440810E+04 0.  0.
        5    1    3    3  502    0  0.37478939841E+03 -0.39920159125E+03 -0.23993544189E+03  0.59784622595E+03  0.46999998093E+01 0. -1.
       -5    1    3    3    0  502 -0.37478939841E+03  0.39920159125E+03  0.47202017978E+03  0.72294823033E+03  0.46999998093E+01 0.  1.
</event>
<event>
 5   0  0.6671239E-05  0.1300872E+04  0.7818609E-02  0.9028874E-01
       -2   -1    0    0    0  501  0.00000000000E+00  0.00000000000E+00  0.48451259502E+03  0.48451259503E+03  0.25500000920E-02 0.  1.
        2   -1    0    0  501    0  0.00000000000E+00  0.00000000000E+00 -0.87318010718E+03  0.87318010718E+03  0.25500000920E-02 0. -1.
    10030    2    1    2    0    0  0.00000000000E+00  0.00000000000E+00 -0.38866751216E+03  0.13576927022E+04  0.13008716457E+04 0.  0.
        1    1    3    3  502    0 -0.29805352609E+03  0.53976267233E+03  0.21803901674E+02  0.61697249291E+03  0.50400001928E-02 0.  1.
       -1    1    3    3    0  502  0.29805352609E+03 -0.53976267233E+03 -0.41047141383E+03  0.74072020929E+03  0.50400001928E-02 0. -1.
</event>
<event>
 5   0  0.6671239E-05  0.1300387E+04  0.7818609E-02  0.9029258E-01
        2   -1    0    0  501    0  0.00000000000E+00  0.00000000000E+00  0.13675707468E+04  0.13675707468E+04  0.25500000920E-02 0.  1.
       -2   -1    0    0    0  501  0.00000000000E+00  0.00000000000E+00 -0.30912592034E+03  0.30912592035E+03  0.25500000920E-02 0. -1.
    10030    2    1    2    0    0  0.00000000000E+00  0.00000000000E+00  0.10584448264E+04  0.16766966671E+04  0.13003869666E+04 0.  0.
        1    1    3    3  502    0  0.59348147390E+03  0.13919379493E+03  0.23759264558E+03  0.65425181518E+03  0.50400001928E-02 0. -1.
       -1    1    3    3    0  502 -0.59348147390E+03 -0.13919379493E+03  0.82085218085E+03  0.10224448519E+04  0.50400001928E-02 0.  1.
</event>
<event>
 5   0  0.3689707E-05  0.1299993E+04  0.7818609E-02  0.9029570E-01
       -1   -1    0    0    0  501  0.00000000000E+00  0.00000000000E+00  0.21591894726E+03  0.21591894732E+03  0.50400001928E-02 0.  1.
        1   -1    0    0  501    0  0.00000000000E+00  0.00000000000E+00 -0.19567330835E+04  0.19567330835E+04  0.50400001928E-02 0. -1.
    10030    2    1    2    0    0  0.00000000000E+00  0.00000000000E+00 -0.17408141363E+04  0.21726520309E+04  0.12999934577E+04 0.  0.
        1    1    3    3  502    0  0.63645799060E+03 -0.50738839012E+02 -0.66679515685E+03  0.92318415541E+03  0.50400001928E-02 0.  1.
       -1    1    3    3    0  502 -0.63645799060E+03  0.50738839012E+02 -0.10740189794E+04  0.12494678754E+04  0.50400001928E-02 0. -1.
</event>
<event>
 5   0  0.3718559E-05  0.1299954E+04  0.7818609E-02  0.9029601E-01
       -1   -1    0    0    0  501  0.00000000000E+00  0.00000000000E+00  0.35925391556E+03  0.35925391560E+03  0.50400001928E-02 0. -1.
        1   -1    0    0  501    0  0.00000000000E+00  0.00000000000E+00 -0.11759659590E+04  0.11759659590E+04  0.50400001928E-02 0.  1.
    10030    2    1    2    0    0  0.00000000000E+00  0.00000000000E+00 -0.81671204341E+03  0.15352198746E+04  0.12999544228E+04 0.  0.
        2    1    3    3  502    0 -0.17757629936E+03 -0.27035383457E+03 -0.10741666480E+04  0.11218103786E+04  0.25500000920E-02 0.  1.
       -2    1    3    3    0  502  0.17757629936E+03  0.27035383457E+03  0.25745460454E+03  0.41340949598E+03  0.25500000920E-02 0. -1.
</event>
<event>
 5   0  0.6671239E-05  0.1298956E+04  0.7818609E-02  0.9030394E-01
        2   -1    0    0  501    0  0.00000000000E+00  0.00000000000E+00  0.61423838384E+03  0.61423838385E+03  0.25500000920E-02 0.  1.
       -2   -1    0    0    0  501  0.00000000000E+00  0.00000000000E+00 -0.68673917895E+03  0.68673917895E+03  0.25500000920E-02 0. -1.
    10030    2    1    2    0    0  0.00000000000E+00  0.00000000000E+00 -0.72500795103E+02  0.13009775628E+04  0.12989558320E+04 0.  0.
        1    1    3    3  502    0  0.36676702919E+03  0.39813395045E+03  0.32318540023E+03  0.63045816606E+03  0.50400001928E-02 0.  1.
       -1    1    3    3    0  502 -0.36676702919E+03 -0.39813395045E+03 -0.39568619533E+03  0.67051939674E+03  0.50400001928E-02 0. -1.
</event>
<event>
 5   0  0.3631841E-05  0.1300375E+04  0.7818609E-02  0.9029268E-01
       -1   -1    0    0    0  501  0.00000000000E+00  0.00000000000E+00  0.19880669703E+03  0.19880669709E+03  0.50400001928E-02 0. -1.
        1   -1    0    0  501    0  0.00000000000E+00  0.00000000000E+00 -0.21264062110E+04  0.21264062110E+04  0.50400001928E-02 0.  1.
    10030    2    1    2    0    0  0.00000000000E+00  0.00000000000E+00 -0.19275995140E+04  0.23252129081E+04  0.13003750158E+04 0.  0.
        3    1    3    3  502    0  0.61512147575E+03  0.18026938942E+03 -0.76896717493E+03  0.10010904100E+04  0.10100000352E+00 0. -1.
       -3    1    3    3    0  502 -0.61512147575E+03 -0.18026938942E+03 -0.11586323391E+04  0.13241224981E+04  0.10100000352E+00 0.  1.
</event>
<event>
 5   0  0.6688086E-05  0.1300415E+04  0.7818609E-02  0.9029236E-01
        2   -1    0    0  501    0  0.00000000000E+00  0.00000000000E+00  0.11735175007E+04  0.11735175007E+04  0.25500000920E-02 0.  1.
       -2   -1    0    0    0  501  0.00000000000E+00  0.00000000000E+00 -0.36025852982E+03  0.36025852983E+03  0.25500000920E-02 0. -1.
    10030    2    1    2    0    0  0.00000000000E+00  0.00000000000E+00  0.81325897086E+03  0.15337760305E+04  0.13004148408E+04 0.  0.
        5    1    3    3  502    0  0.46444344691E+03  0.15819238646E+03  0.90982143290E+03  0.10336970912E+04  0.46999998093E+01 0.  1.
       -5    1    3    3    0  502 -0.46444344691E+03 -0.15819238646E+03 -0.96562462048E+02  0.50007893935E+03  0.46999998093E+01 0. -1.
</event>
<event>
 5   0  0.3631841E-05  0.1299830E+04  0.7818609E-02  0.9029700E-01
        1   -1    0    0  501    0  0.00000000000E+00  0.00000000000E+00  0.10655355401E+04  0.10655355401E+04  0.50400001928E-02 0. -1.
       -1   -1    0    0    0  501  0.00000000000E+00  0.00000000000E+00 -0.39641048721E+03  0.39641048724E+03  0.50400001928E-02 0.  1.
    10030    2    1    2    0    0  0.00000000000E+00  0.00000000000E+00  0.66912505290E+03  0.14619460274E+04  0.12998299314E+04 0.  0.
        3    1    3    3  502    0 -0.16203289994E+03 -0.42685457194E+03 -0.18564977463E+03  0.49287456342E+03  0.10100000352E+00 0.  1.
       -3    1    3    3    0  502  0.16203289994E+03  0.42685457194E+03  0.85477482752E+03  0.96907146394E+03  0.10100000352E+00 0. -1.
</event>
<event>
 5   0  0.6618060E-05  0.1299496E+04  0.7818609E-02  0.9029965E-01
       -2   -1    0    0    0  501  0.00000000000E+00  0.00000000000E+00  0.37983873534E+03  0.37983873535E+03  0.25500000920E-02 0.  1.
        2   -1    0    0  501    0  0.00000000000E+00  0.00000000000E+00 -0.11114518927E+04  0.11114518927E+04  0.25500000920E-02 0. -1.
    10030    2    1    2    0    0  0.00000000000E+00  0.00000000000E+00 -0.73161315741E+03  0.14912906281E+04  0.12994960275E+04 0.  0.
        2    1    3    3  502    0 -0.59314620307E+03 -0.26043610057E+03 -0.42345064633E+03  0.77392495152E+03  0.25500000920E-02 0.  1.
       -2    1    3    3    0  502  0.59314620307E+03  0.26043610057E+03 -0.30816251107E+03  0.71736567658E+03  0.25500000920E-02 0. -1.
</event>
<event>
 5   0  0.3551277E-05  0.1300499E+04  0.7818609E-02  0.9029169E-01
        1   -1    0    0  501    0  0.00000000000E+00  0.00000000000E+00  0.80879846756E+03  0.80879846757E+03  0.50400001928E-02 0.  1.
       -1   -1    0    0    0  501  0.00000000000E+00  0.00000000000E+00 -0.52278127590E+03  0.52278127593E+03  0.50400001928E-02 0. -1.
    10030    2    1    2    0    0  0.00000000000E+00  0.00000000000E+00  0.28601719165E+03  0.13315797435E+04  0.13004994346E+04 0.  0.
        4    1    3    3  502    0  0.34562994903E+03 -0.54239563412E+03  0.24105724030E+03  0.68685026868E+03  0.12699999809E+01 0.  1.
       -4    1    3    3    0  502 -0.34562994903E+03  0.54239563412E+03  0.44959951350E+02  0.64472947482E+03  0.12699999809E+01 0. -1.
</event>
<event>
 5   0  0.3552698E-05  0.1300030E+04  0.7818609E-02  0.9029541E-01
        1   -1    0    0  501    0  0.00000000000E+00  0.00000000000E+00  0.51006582339E+03  0.51006582341E+03  0.50400001928E-02 0. -1.
       -1   -1    0    0    0  501  0.00000000000E+00  0.00000000000E+00 -0.82836267752E+03  0.82836267753E+03  0.50400001928E-02 0.  1.
    10030    2    1    2    0    0  0.00000000000E+00  0.00000000000E+00 -0.31829685413E+03  0.13384285009E+04  0.13000299861E+04 0.  0.
        5    1    3    3  502    0 -0.54720054092E+03  0.22168803098E+03 -0.43906765545E+03  0.73578292392E+03  0.46999998093E+01 0.  1.
       -5    1    3    3    0  502  0.54720054092E+03 -0.22168803098E+03  0.12077080132E+03  0.60264557703E+03  0.46999998093E+01 0. -1.
</event>
<event>
 5   0  0.3689707E-05  0.1299500E+04  0.7818609E-02  0.9029961E-01
       -1   -1    0    0    0  501  0.00000000000E+00  0.00000000000E+00  0.34218016168E+03  0.34218016171E+03  0.50400001928E-02 0.  1.
        1   -1    0    0  501    0  0.00000000000E+00  0.00000000000E+00 -0.12337806862E+04  0.12337806862E+04  0.50400001928E-02 0. -1.
    10030    2    1    2    0    0  0.00000000000E+00  0.00000000000E+00 -0.89160052450E+03  0.15759608479E+04  0.12995003266E+04 0.  0.
        1    1    3    3  502    0  0.45470593595E+02  0.26122859667E+03  0.27357996654E+03  0.38099075149E+03  0.50400001928E-02 0.  1.
       -1    1    3    3    0  502 -0.45470593595E+02 -0.26122859667E+03 -0.11651804910E+04  0.11949700964E+04  0.50400001928E-02 0. -1.
</event>
<event>
 5   0  0.3718559E-05  0.1299224E+04  0.7818609E-02  0.9030181E-01
       -1   -1    0    0    0  501  0.00000000000E+00  0.00000000000E+00  0.24436431507E+03  0.24436431512E+03  0.50400001928E-02 0.  1.
        1   -1    0    0  501    0  0.00000000000E+00  0.00000000000E+00 -0.17269111135E+04  0.17269111136E+04  0.50400001928E-02 0. -1.
    10030    2    1    2    0    0  0.00000000000E+00  0.00000000000E+00 -0.14825467985E+04  0.19712754287E+04  0.12992235397E+04 0.  0.
        2    1    3    3  502    0 -0.41515665596E+03  0.36272833364E+03 -0.21992198205E+03  0.59354239209E+03  0.25500000920E-02 0.  1.
       -2    1    3    3    0  502  0.41515665596E+03 -0.36272833364E+03 -0.12626248164E+04  0.13777330366E+04  0.25500000920E-02 0. -1.
</event>
<event>
 5   0  0.6458698E-05  0.1299465E+04  0.7818609E-02  0.9029989E-01
        2   -1    0    0  501    0  0.00000000000E+00  0.00000000000E+00  0.12315131713E+04  0.12315131713E+04  0.25500000920E-02 0.  1.
       -2   -1    0    0    0  501  0.00000000000E+00  0.00000000000E+00 -0.34279170583E+03  0.34279170584E+03  0.25500000920E-02 0. -1.
    10030    2    1    2    0    0  0.00000000000E+00  0.00000000000E+00  0.88872146548E+03  0.15743048772E+04  0.12994652758E+04 0.  0.
        3    1    3    3  502    0  0.39552476220E+03 -0.19240748143E+03  0.10237222726E+04  0.11142117295E+04  0.10100000352E+00 0.  1.
       -3    1    3    3    0  502 -0.39552476220E+03  0.19240748143E+03 -0.13500080713E+03  0.46009314769E+03  0.10100000352E+00 0. -1.
</event>
<event>
 5   0  0.6671239E-05  0.1299977E+04  0.7818609E-02  0.9029583E-01
       -2   -1    0    0    0  501  0.00000000000E+00  0.00000000000E+00  0.13785157170E+04  0.13785157170E+04  0.25500000920E-02 0. -1.
        2   -1    0    0  501    0  0.00000000000E+00  0.00000000000E+00 -0.30647838044E+03  0.30647838045E+03  0.25500000920E-02 0.  1.
    10030    2    1    2    0    0  0.00000000000E+00  0.00000000000E+00  0.10720373366E+04  0.16849940975E+04  0.12999773296E+04 0.  0.
        1    1    3    3  502    0  0.52341563785E+03 -0.36955937466E+03  0.67769448558E+03  0.93263491097E+03  0.50400001928E-02 0.  1.
       -1    1    3    3    0  502 -0.52341563785E+03  0.36955937466E+03  0.39434285098E+03  0.75235918649E+03  0.50400001928E-02 0. -1.
</event>
<event>
 5   0  0.3718559E-05  0.1300115E+04  0.7818609E-02  0.9029474E-01
        1   -1    0    0  501    0  0.00000000000E+00  0.00000000000E+00  0.10960106898E+04  0.10960106898E+04  0.50400001928E-02 0. -1.
       -1   -1    0    0    0  501  0.00000000000E+00  0.00000000000E+00 -0.38555702496E+03  0.38555702499E+03  0.50400001928E-02 0.  1.
    10030    2    1    2    0    0  0.00000000000E+00  0.00000000000E+00  0.71045366481E+03  0.14815677148E+04  0.13001147963E+04 0.  0.
        2    1    3    3  502    0 -0.40605225461E+03 -0.37414947884E+03 -0.35743181485E+02  0.55330266674E+03  0.25500000920E-02 0.  1.
       -2    1    3    3    0  502  0.40605225461E+03  0.37414947884E+03  0.74619684629E+03  0.92826504804E+03  0.25500000920E-02 0. -1.
</event>
<event>
 5   0  0.3551277E-05  0.1299827E+04  0.7818609E-02  0.9029702E-01
        1   -1    0    0  501    0  0.00000000000E+00  0.00000000000E+00  0.19387839010E+04  0.19387839010E+04  0.50400001928E-02 0.  1.
       -1   -1    0    0    0  501  0.00000000000E+00  0.00000000000E+00 -0.21786210782E+03  0.21786210788E+03  0.50400001928E-02 0. -1.
    10030    2    1    2    0    0  0.00000000000E+00  0.00000000000E+00  0.17209217932E+04  0.21566460089E+04  0.12998269844E+04 0.  0.
        4    1    3    3  502    0  0.31742636038E+03 -0.56111238469E+03  0.99707224131E+03  0.11873336809E+04  0.12699999809E+01 0. -1.
       -4    1    3    3    0  502 -0.31742636038E+03  0.56111238469E+03  0.72384955186E+03  0.96931232797E+03  0.12699999809E+01 0.  1.
</event>
<event>
 5   0  0.3631841E-05  0.1299188E+04  0.7818609E-02  0.9030209E-01
        1   -1    0    0  501    0  0.00000000000E+00  0.00000000000E+00  0.97060176463E+03  0.97060176464E+03  0.50400001928E-02 0. -1.
       -1   -1    0    0    0  501  0.00000000000E+00  0.00000000000E+00 -0.43475322474E+03  0.43475322477E+03  0.50400001928E-02 0.  1.
    10030    2    1    2    0    0  0.00000000000E+00  0.00000000000E+00  0.53584853989E+03  0.14053549894E+04  0.12991878188E+04 0.  0.
        3    1    3    3  502    0  0.16432671779E+03  0.52024457247E+03 -0.11347080780E+03  0.55725516578E+03  0.10100000352E+00 0.  1.
       -3    1    3    3    0  502 -0.16432671779E+03 -0.52024457247E+03  0.64931934769E+03  0.84809982364E+03  0.10100000352E+00 0. -1.
</event>
<event>
 5   0  0.3551277E-05  0.1300162E+04  0.7818609E-02  0.9029437E-01
        1   -1    0    0  501    0  0.00000000000E+00  0.00000000000E+00  0.46384132615E+03  0.46384132618E+03  0.50400001928E-02 0.  1.
       -1   -1    0    0    0  501  0.00000000000E+00  0.00000000000E+00 -0.91109848171E+03  0.91109848173E+03  0.50400001928E-02 0. -1.
    10030    2    1    2    0    0  0.00000000000E+00  0.00000000000E+00 -0.44725715556E+03  0.13749398079E+04  0.13001617254E+04 0.  0.
        4    1    3    3  502    0  0.43848770553E+03  0.41529409660E+03 -0.47801050844E+03  0.77021835452E+03  0.12699999809E+01 0. -1.
       -4    1    3    3    0  502 -0.43848770553E+03 -0.41529409660E+03  0.30753352877E+02  0.60472145338E+03  0.12699999809E+01 0.  1.
</event>
<event>
 5   0  0.6618060E-05  0.1300478E+04  0.7818609E-02  0.9029186E-01
        2   -1    0    0  501    0  0.00000000000E+00  0.00000000000E+00  0.57731492422E+03  0.57731492422E+03  0.25500000920E-02 0. -1.
       -2   -1    0    0    0  501  0.00000000000E+00  0.00000000000E+00 -0.73237433688E+03  0.73237433688E+03  0.25500000920E-02 0.  1.
    10030    2    1    2    0    0  0.00000000000E+00  0.00000000000E+00 -0.15505941266E+03  0.13096892611E+04  0.13004778119E+04 0.  0.
        2    1    3    3  502    0 -0.17668370701E+03  0.31888932007E+03 -0.61976995709E+03  0.71904264859E+03  0.25500000920E-02 0.  1.
       -2    1    3    3    0  502  0.17668370701E+03 -0.31888932007E+03  0.46471054443E+03  0.59064661252E+03  0.25500000920E-02 0. -1.
</event>
<event>
 5   0  0.6671239E-05  0.1300104E+04  0.7818609E-02  0.9029482E-01
       -2   -1    0    0    0  501  0.00000000000E+00  0.00000000000E+00  0.75330644609E+03  0.75330644609E+03  0.25500000920E-02 0. -1.
        2   -1    0    0  501    0  0.00000000000E+00  0.00000000000E+00 -0.56095082477E+03  0.56095082478E+03  0.25500000920E-02 0.  1.
    10030    2    1    2    0    0  0.00000000000E+00  0.00000000000E+00  0.19235562132E+03  0.13142572709E+04  0.13001044146E+04 0.  0.
        1    1    3    3  502    0 -0.41473953236E+03  0.25010313524E+03  0.53449615158E+03  0.72128121703E+03  0.50400001928E-02 0. -1.
       -1    1    3    3    0  502  0.41473953236E+03 -0.25010313524E+03 -0.34214053026E+03  0.59297605384E+03  0.50400001928E-02 0.  1.
</event>
<event>
 5   0  0.2512000E-05  0.1299851E+04  0.7818609E-02  0.9029683E-01
       -3   -1    0    0    0  501  0.00000000000E+00  0.00000000000E+00  0.72698224207E+03  0.72698224908E+03  0.10100000352E+00 0. -1.
        3   -1    0    0  501    0  0.00000000000E+00  0.00000000000E+00 -0.58103660969E+03  0.58103661847E+03  0.10100000352E+00 0.  1.
    10030    2    1    2    0    0  0.00000000000E+00  0.00000000000E+00  0.14594563238E+03  0.13080188675E+04  0.12998512339E+04 0.  0.
        3    1    3    3  502    0 -0.16842610470E+03  0.32636337707E+03  0.61255371947E+03  0.71421458685E+03  0.10100000352E+00 0. -1.
       -3    1    3    3    0  502  0.16842610470E+03 -0.32636337707E+03 -0.46660808709E+03  0.59380428070E+03  0.10100000352E+00 0.  1.
</event>
<event>
 5   0  0.3689707E-05  0.1301644E+04  0.7818609E-02  0.9028262E-01
       -1   -1    0    0    0  501  0.00000000000E+00  0.00000000000E+00  0.73442275157E+03  0.73442275158E+03  0.50400001928E-02 0. -1.
        1   -1    0    0  501    0  0.00000000000E+00  0.00000000000E+00 -0.57673803010E+03  0.57673803012E+03  0.50400001928E-02 0.  1.
    10030    2    1    2    0    0  0.00000000000E+00  0.00000000000E+00  0.15768472147E+03  0.13111607817E+04  0.13016443923E+04 0.  0.
        1    1    3    3  502    0 -0.31630776646E+03 -0.33514895328E+03 -0.38407609609E+03  0.59990821933E+03  0.50400001928E-02 0. -1.
       -1    1    3    3    0  502  0.31630776646E+03  0.33514895328E+03  0.54176081756E+03  0.71125256237E+03  0.50400001928E-02 0.  1.
</event>
<event>
 5   0  0.6618060E-05  0.1300974E+04  0.7818609E-02  0.9028793E-01
       -2   -1    0    0    0  501  0.00000000000E+00  0.00000000000E+00  0.23223645351E+03  0.23223645352E+03  0.25500000920E-02 0. -1.
        2   -1    0    0  501    0  0.00000000000E+00  0.00000000000E+00 -0.18219935573E+04  0.18219935573E+04  0.25500000920E-02 0.  1.
    10030    2    1    2    0    0  0.00000000000E+00  0.00000000000E+00 -0.15897571038E+04  0.20542300108E+04  0.13009739768E+04 0.  0.
        2    1    3    3  502    0 -0.72204792476E+02 -0.47633433265E+02  0.22311445485E+03  0.23929591721E+03  0.25500000920E-02 0. -1.
       -2    1    3    3    0  502  0.72204792476E+02  0.47633433265E+02 -0.18128715586E+04  0.18149340936E+04  0.25500000920E-02 0.  1.
</event>
<event>
 5   0  0.3631841E-05  0.1299592E+04  0.7818609E-02  0.9029889E-01
       -1   -1    0    0    0  501  0.00000000000E+00  0.00000000000E+00  0.23084531120E+03  0.23084531125E+03  0.50400001928E-02 0. -1.
        1   -1    0    0  501    0  0.00000000000E+00  0.00000000000E+00 -0.18290812219E+04  0.18290812220E+04  0.50400001928E-02 0.  1.
    10030    2    1    2    0    0  0.00000000000E+00  0.00000000000E+00 -0.15982359107E+04  0.20599265332E+04  0.12995919728E+04 0.  0.
        3    1    3    3  502    0 -0.23739512130E+03  0.41787628629E+03 -0.10592479955E+03  0.49213525338E+03  0.10100000352E+00 0. -1.
       -3    1    3    3    0  502  0.23739512130E+03 -0.41787628629E+03 -0.14923111112E+04  0.15677912798E+04  0.10100000352E+00 0.  1.
</event>
<event>
 5   0  0.6671239E-05  0.1301694E+04  0.7818609E-02  0.9028223E-01
        2   -1    0    0  501    0  0.00000000000E+00  0.00000000000E+00  0.88447688387E+03  0.88447688388E+03  0.25500000920E-02 0.  1.
       -2   -1    0    0    0  501  0.00000000000E+00  0.00000000000E+00 -0.47892928292E+03  0.47892928293E+03  0.25500000920E-02 0. -1.
    10030    2    1    2    0    0  0.00000000000E+00  0.00000000000E+00  0.40554760095E+03  0.13634061668E+04  0.13016940958E+04 0.  0.
        1    1    3    3  502    0 -0.14325539097E+03 -0.13180700043E+02  0.86761543572E+03  0.87946141599E+03  0.50400001928E-02 0.  1.
       -1    1    3    3    0  502  0.14325539097E+03  0.13180700043E+02 -0.46206783477E+03  0.48394475082E+03  0.50400001928E-02 0. -1.
</event>
<event>
 5   0  0.3631841E-05  0.1299377E+04  0.7818609E-02  0.9030060E-01
       -1   -1    0    0    0  501  0.00000000000E+00  0.00000000000E+00  0.19457572373E+03  0.19457572380E+03  0.50400001928E-02 0. -1.
        1   -1    0    0  501    0  0.00000000000E+00  0.00000000000E+00 -0.21693087945E+04  0.21693087945E+04  0.50400001928E-02 0.  1.
    10030    2    1    2    0    0  0.00000000000E+00  0.00000000000E+00 -0.19747330707E+04  0.23638845183E+04  0.12993765101E+04 0.  0.
        3    1    3    3  502    0  0.54131116283E+03 -0.10421840747E+03 -0.16128683586E+04  0.17044716495E+04  0.10100000352E+00 0.  1.
       -3    1    3    3    0  502 -0.54131116283E+03  0.10421840747E+03 -0.36186471215E+03  0.65941286881E+03  0.10100000352E+00 0. -1.
</event>
<event>
 5   0  0.6688086E-05  0.1299858E+04  0.7818609E-02  0.9029678E-01
       -2   -1    0    0    0  501  0.00000000000E+00  0.00000000000E+00  0.43258355074E+03  0.43258355075E+03  0.25500000920E-02 0.  1.
        2   -1    0    0  501    0  0.00000000000E+00  0.00000000000E+00 -0.97647600869E+03  0.97647600870E+03  0.25500000920E-02 0. -1.
    10030    2    1    2    0    0  0.00000000000E+00  0.00000000000E+00 -0.54389245795E+03  0.14090595594E+04  0.12998576215E+04 0.  0.
        5    1    3    3  502    0  0.52768682383E+03  0.22951911824E+03 -0.59940531445E+03  0.83092793350E+03  0.46999998093E+01 0. -1.
       -5    1    3    3    0  502 -0.52768682383E+03 -0.22951911824E+03  0.55512856495E+02  0.57813162595E+03  0.46999998093E+01 0.  1.
</event>
<event>
 5   0  0.6671239E-05  0.1298968E+04  0.7818609E-02  0.9030384E-01
       -2   -1    0    0    0  501  0.00000000000E+00  0.00000000000E+00  0.12686957061E+04  0.12686957061E+04  0.25500000920E-02 0. -1.
        2   -1    0    0  501    0  0.00000000000E+00  0.00000000000E+00 -0.33249080685E+03  0.33249080686E+03  0.25500000920E-02 0.  1.
    10030    2    1    2    0    0  0.00000000000E+00  0.00000000000E+00  0.93620489929E+03  0.16011865130E+04  0.12989682967E+04 0.  0.
        1    1    3    3  502    0 -0.51052634158E+03 -0.16763042090E+03  0.18405176892E+02  0.53765774803E+03  0.50400001928E-02 0.  1.
       -1    1    3    3    0  502  0.51052634158E+03  0.16763042090E+03  0.91779972240E+03  0.10635287650E+04  0.50400001928E-02 0. -1.
</event>
<event>
 5   0  0.3718559E-05  0.1297646E+04  0.7818609E-02  0.9031434E-01
        1   -1    0    0  501    0  0.00000000000E+00  0.00000000000E+00  0.63323429352E+03  0.63323429354E+03  0.50400001928E-02 0.  1.
       -1   -1    0    0    0  501  0.00000000000E+00  0.00000000000E+00 -0.66479572898E+03  0.66479572899E+03  0.50400001928E-02 0. -1.
    10030    2    1    2    0    0  0.00000000000E+00  0.00000000000E+00 -0.31561435452E+02  0.12980300225E+04  0.12976462597E+04 0.  0.
        2    1    3    3  502    0  0.83260086066E+02  0.53197804796E+03 -0.37788027019E+03  0.65781941599E+03  0.25500000920E-02 0. -1.
       -2    1    3    3    0  502 -0.83260086066E+02 -0.53197804796E+03  0.34631883474E+03  0.64021060655E+03  0.25500000920E-02 0.  1.
</event>
<event>
 5   0  0.6618060E-05  0.1300147E+04  0.7818609E-02  0.9029449E-01
        2   -1    0    0  501    0  0.00000000000E+00  0.00000000000E+00  0.66196141751E+03  0.66196141752E+03  0.25500000920E-02 0. -1.
       -2   -1    0    0    0  501  0.00000000000E+00  0.00000000000E+00 -0.63839872018E+03  0.63839872018E+03  0.25500000920E-02 0.  1.
    10030    2    1    2    0    0  0.00000000000E+00  0.00000000000E+00  0.23562697333E+02  0.13003601377E+04  0.13001466406E+04 0.  0.
        2    1    3    3  502    0  0.15132727865E+03  0.63034145555E+03  0.60420866369E+02  0.65106142333E+03  0.25500000920E-02 0.  1.
       -2    1    3    3    0  502 -0.15132727865E+03 -0.63034145555E+03 -0.36858169035E+02  0.64929871437E+03  0.25500000920E-02 0. -1.
</event>
<event>
 5   0  0.6671239E-05  0.1300022E+04  0.7818609E-02  0.9029548E-01
        2   -1    0    0  501    0  0.00000000000E+00  0.00000000000E+00  0.73261282798E+03  0.73261282798E+03  0.25500000920E-02 0. -1.
       -2   -1    0    0    0  501  0.00000000000E+00  0.00000000000E+00 -0.57672242124E+03  0.57672242124E+03  0.25500000920E-02 0.  1.
    10030    2    1    2    0    0  0.00000000000E+00  0.00000000000E+00  0.15589040674E+03  0.13093352492E+04  0.13000219136E+04 0.  0.
        1    1    3    3  502    0  0.16331769699E+03  0.60290975803E+03 -0.10318028852E+03  0.63310269186E+03  0.50400001928E-02 0.  1.
       -1    1    3    3    0  502 -0.16331769699E+03 -0.60290975803E+03  0.25907069526E+03  0.67623255737E+03  0.50400001928E-02 0. -1.
</event>
<event>
 5   0  0.3718559E-05  0.1294304E+04  0.7818609E-02  0.9034094E-01
        1   -1    0    0  501    0  0.00000000000E+00  0.00000000000E+00  0.14094580282E+04  0.14094580282E+04  0.50400001928E-02 0.  1.
       -1   -1    0    0    0  501  0.00000000000E+00  0.00000000000E+00 -0.29713950887E+03  0.29713950891E+03  0.50400001928E-02 0. -1.
    10030    2    1    2    0    0  0.00000000000E+00  0.00000000000E+00  0.11123185193E+04  0.17065975371E+04  0.12943039308E+04 0.  0.
        2    1    3    3  502    0  0.20516537649E+03 -0.84789383190E+02 -0.24536363434E+03  0.33088575713E+03  0.25500000920E-02 0. -1.
       -2    1    3    3    0  502 -0.20516537649E+03  0.84789383190E+02  0.13576821537E+04  0.13757117800E+04  0.25500000920E-02 0.  1.
</event>
<event>
 5   0  0.3551277E-05  0.1297457E+04  0.7818609E-02  0.9031584E-01
       -1   -1    0    0    0  501  0.00000000000E+00  0.00000000000E+00  0.19045697980E+03  0.19045697987E+03  0.50400001928E-02 0.  1.
        1   -1    0    0  501    0  0.00000000000E+00  0.00000000000E+00 -0.22096785222E+04  0.22096785222E+04  0.50400001928E-02 0. -1.
    10030    2    1    2    0    0  0.00000000000E+00  0.00000000000E+00 -0.20192215424E+04  0.24001355021E+04  0.12974570479E+04 0.  0.
        4    1    3    3  502    0  0.40047068400E+03  0.16832630256E+03 -0.11832996338E+03  0.45023783272E+03  0.12699999809E+01 0.  1.
       -4    1    3    3    0  502 -0.40047068400E+03 -0.16832630256E+03 -0.19008915790E+04  0.19498976694E+04  0.12699999809E+01 0. -1.
</event>
<event>
 5   0  0.6688086E-05  0.1299839E+04  0.7818609E-02  0.9029693E-01
        2   -1    0    0  501    0  0.00000000000E+00  0.00000000000E+00  0.11390373809E+04  0.11390373809E+04  0.25500000920E-02 0. -1.
       -2   -1    0    0    0  501  0.00000000000E+00  0.00000000000E+00 -0.37083513073E+03  0.37083513074E+03  0.25500000920E-02 0.  1.
    10030    2    1    2    0    0  0.00000000000E+00  0.00000000000E+00  0.76820225018E+03  0.15098725117E+04  0.12998385685E+04 0.  0.
        5    1    3    3  502    0 -0.45343778902E+03  0.45172207984E+03  0.51507884643E+03  0.82157590883E+03  0.46999998093E+01 0.  1.
       -5    1    3    3    0  502  0.45343778902E+03 -0.45172207984E+03  0.25312340375E+03  0.68829660282E+03  0.46999998093E+01 0. -1.
</event>
<event>
 5   0  0.3631841E-05  0.1300754E+04  0.7818609E-02  0.9028967E-01
       -1   -1    0    0    0  501  0.00000000000E+00  0.00000000000E+00  0.20780007652E+03  0.20780007658E+03  0.50400001928E-02 0. -1.
        1   -1    0    0  501    0  0.00000000000E+00  0.00000000000E+00 -0.20355637056E+04  0.20355637056E+04  0.50400001928E-02 0.  1.
    10030    2    1    2    0    0  0.00000000000E+00  0.00000000000E+00 -0.18277636291E+04  0.22433637822E+04  0.13007540795E+04 0.  0.
        3    1    3    3  502    0  0.42371066338E+02  0.37170928533E+02 -0.20313434022E+04  0.20321252454E+04  0.10100000352E+00 0.  1.
       -3    1    3    3    0  502 -0.42371066338E+02 -0.37170928533E+02  0.20357977312E+03  0.21123853677E+03  0.10100000352E+00 0. -1.
</event>
<event>
 5   0  0.3631841E-05  0.1299873E+04  0.7818609E-02  0.9029666E-01
       -1   -1    0    0    0  501  0.00000000000E+00  0.00000000000E+00  0.37836729638E+03  0.37836729641E+03  0.50400001928E-02 0. -1.
        1   -1    0    0  501    0  0.00000000000E+00  0.00000000000E+00 -0.11164224302E+04  0.11164224303E+04  0.50400001928E-02 0.  1.
    10030    2    1    2    0    0  0.00000000000E+00  0.00000000000E+00 -0.73805513387E+03  0.14947897267E+04  0.12998734347E+04 0.  0.
        3    1    3    3  502    0 -0.41216736740E+03  0.20753836313E+03 -0.89532752311E+03  0.10072564196E+04  0.10100000352E+00 0.  1.
       -3    1    3    3    0  502  0.41216736740E+03 -0.20753836313E+03  0.15727238924E+03  0.48753330711E+03  0.10100000352E+00 0. -1.
</event>
<event>
 5   0  0.6458698E-05  0.1299713E+04  0.7818609E-02  0.9029793E-01
        2   -1    0    0  501    0  0.00000000000E+00  0.00000000000E+00  0.29562484485E+03  0.29562484486E+03  0.25500000920E-02 0.  1.
       -2   -1    0    0    0  501  0.00000000000E+00  0.00000000000E+00 -0.14285452175E+04  0.14285452175E+04  0.25500000920E-02 0. -1.
    10030    2    1    2    0    0  0.00000000000E+00  0.00000000000E+00 -0.11329203726E+04  0.17241700623E+04  0.12997129811E+04 0.  0.
        3    1    3    3  502    0 -0.21900525356E+03 -0.33838149099E+03 -0.12426870625E+04  0.13064212491E+04  0.10100000352E+00 0. -1.
       -3    1    3    3    0  502  0.21900525356E+03  0.33838149099E+03  0.10976668992E+03  0.41774881322E+03  0.10100000352E+00 0.  1.
</event>
<event>
 5   0  0.6688086E-05  0.1299869E+04  0.7818609E-02  0.9029669E-01
        2   -1    0    0  501    0  0.00000000000E+00  0.00000000000E+00  0.20649027559E+04  0.20649027559E+04  0.25500000920E-02 0. -1.
       -2   -1    0    0    0  501  0.00000000000E+00  0.00000000000E+00 -0.20456882858E+03  0.20456882859E+03  0.25500000920E-02 0.  1.
    10030    2    1    2    0    0  0.00000000000E+00  0.00000000000E+00  0.18603339273E+04  0.22694715845E+04  0.12998688209E+04 0.  0.
        5    1    3    3  502    0 -0.14668395125E+03  0.31197877662E+03  0.18920832366E+04  0.19232389354E+04  0.46999998093E+01 0. -1.
       -5    1    3    3    0  502  0.14668395125E+03 -0.31197877662E+03 -0.31749309296E+02  0.34623264903E+03  0.46999998093E+01 0.  1.
</event>
<event>
 5   0  0.3552698E-05  0.1300525E+04  0.7818609E-02  0.9029149E-01
        1   -1    0    0  501    0  0.00000000000E+00  0.00000000000E+00  0.63397056616E+03  0.63397056618E+03  0.50400001928E-02 0.  1.
       -1   -1    0    0    0  501  0.00000000000E+00  0.00000000000E+00 -0.66697348075E+03  0.66697348077E+03  0.50400001928E-02 0. -1.
    10030    2    1    2    0    0  0.00000000000E+00  0.00000000000E+00 -0.33002914589E+02  0.13009440469E+04  0.13005253634E+04 0.  0.
        5    1    3    3  502    0  0.11001961223E+03 -0.63571484852E+03 -0.97655754821E+02  0.65253078100E+03  0.46999998093E+01 0.  1.
       -5    1    3    3    0  502 -0.11001961223E+03  0.63571484852E+03  0.64652840232E+02  0.64841326594E+03  0.46999998093E+01 0. -1.
</event>
<event>
 5   0  0.3718559E-05  0.1301216E+04  0.7818609E-02  0.9028601E-01
        1   -1    0    0  501    0  0.00000000000E+00  0.00000000000E+00  0.21067638728E+04  0.21067638728E+04  0.50400001928E-02 0.  1.
       -1   -1    0    0    0  501  0.00000000000E+00  0.00000000000E+00 -0.20091989374E+03  0.20091989380E+03  0.50400001928E-02 0. -1.
    10030    2    1    2    0    0  0.00000000000E+00  0.00000000000E+00  0.19058439791E+04  0.23076837667E+04  0.13012160060E+04 0.  0.
        2    1    3    3  502    0 -0.85143990269E+02  0.90224508828E+02 -0.17975005912E+03  0.21840339931E+03  0.25500000920E-02 0. -1.
       -2    1    3    3    0  502  0.85143990269E+02 -0.90224508828E+02  0.20855940382E+04  0.20892803673E+04  0.25500000920E-02 0.  1.
</event>
<event>
 5   0  0.6742824E-05  0.1301274E+04  0.7818609E-02  0.9028556E-01
        2   -1    0    0  501    0  0.00000000000E+00  0.00000000000E+00  0.55643440154E+03  0.55643440155E+03  0.25500000920E-02 0.  1.
       -2   -1    0    0    0  501  0.00000000000E+00  0.00000000000E+00 -0.76078768488E+03  0.76078768488E+03  0.25500000920E-02 0. -1.
    10030    2    1    2    0    0  0.00000000000E+00  0.00000000000E+00 -0.20435328334E+03  0.13172220864E+04  0.13012738991E+04 0.  0.
        4    1    3    3  502    0 -0.35469652663E+03  0.20707978449E+02 -0.65391492427E+03  0.74420748952E+03  0.12699999809E+01 0. -1.
       -4    1    3    3    0  502  0.35469652663E+03 -0.20707978449E+02  0.44956164093E+03  0.57301459691E+03  0.12699999809E+01 0.  1.
</event>
<event>
 5   0  0.6688086E-05  0.1300198E+04  0.7818609E-02  0.9029408E-01
        2   -1    0    0  501    0  0.00000000000E+00  0.00000000000E+00  0.10736964546E+04  0.10736964546E+04  0.25500000920E-02 0.  1.
       -2   -1    0    0    0  501  0.00000000000E+00  0.00000000000E+00 -0.39362045751E+03  0.39362045752E+03  0.25500000920E-02 0. -1.
    10030    2    1    2    0    0  0.00000000000E+00  0.00000000000E+00  0.68007599708E+03  0.14673169121E+04  0.13001982767E+04 0.  0.
        5    1    3    3  502    0  0.34851241335E+03  0.12435239285E+03 -0.26315468433E+03  0.45408908570E+03  0.46999998093E+01 0. -1.
       -5    1    3    3    0  502 -0.34851241335E+03 -0.12435239285E+03  0.94323068140E+03  0.10132278264E+04  0.46999998093E+01 0.  1.
</event>
<event>
 5   0  0.3689707E-05  0.1299809E+04  0.7818609E-02  0.9029717E-01
       -1   -1    0    0    0  501  0.00000000000E+00  0.00000000000E+00  0.24583103594E+03  0.24583103600E+03  0.50400001928E-02 0. -1.
        1   -1    0    0  501    0  0.00000000000E+00  0.00000000000E+00 -0.17181540018E+04  0.17181540018E+04  0.50400001928E-02 0.  1.
    10030    2    1    2    0    0  0.00000000000E+00  0.00000000000E+00 -0.14723229658E+04  0.19639850378E+04  0.12998085678E+04 0.  0.
        1    1    3    3  502    0 -0.10711140888E+03 -0.40040255298E+03  0.20205273280E+02  0.41497386838E+03  0.50400001928E-02 0. -1.
       -1    1    3    3    0  502  0.10711140888E+03  0.40040255298E+03 -0.14925282391E+04  0.15490111694E+04  0.50400001928E-02 0.  1.
</event>
<event>
 5   0  0.6618060E-05  0.1299234E+04  0.7818609E-02  0.9030173E-01
        2   -1    0    0  501    0  0.00000000000E+00  0.00000000000E+00  0.50811385635E+03  0.50811385636E+03  0.25500000920E-02 0. -1.
       -2   -1    0    0    0  501  0.00000000000E+00  0.00000000000E+00 -0.83052633151E+03  0.83052633151E+03  0.25500000920E-02 0.  1.
    10030    2    1    2    0    0  0.00000000000E+00  0.00000000000E+00 -0.32241247515E+03  0.13386401879E+04  0.12992335234E+04 0.  0.
        2    1    3    3  502    0 -0.48586732100E+02  0.35499817313E+03 -0.71950627431E+03  0.80378706897E+03  0.25500000920E-02 0.  1.
       -2    1    3    3    0  502  0.48586732100E+02 -0.35499817313E+03  0.39709379916E+03  0.53485311890E+03  0.25500000920E-02 0. -1.
</event>
<event>
 5   0  0.3718559E-05  0.1299947E+04  0.7818609E-02  0.9029607E-01
        1   -1    0    0  501    0  0.00000000000E+00  0.00000000000E+00  0.13476370647E+04  0.13476370647E+04  0.50400001928E-02 0.  1.
       -1   -1    0    0    0  501  0.00000000000E+00  0.00000000000E+00 -0.31348638467E+03  0.31348638471E+03  0.50400001928E-02 0. -1.
    10030    2    1    2    0    0  0.00000000000E+00  0.00000000000E+00  0.10341506801E+04  0.16611234495E+04  0.12999474933E+04 0.  0.
        2    1    3    3  502    0 -0.39045958176E+03  0.34226861847E+03  0.10166750111E+04  0.11415929968E+04  0.25500000920E-02 0.  1.
       -2    1    3    3    0  502  0.39045958176E+03 -0.34226861847E+03  0.17475668931E+02  0.51953045261E+03  0.25500000920E-02 0. -1.
</event>
<event>
 5   0  0.6671239E-05  0.1302939E+04  0.7818609E-02  0.9027238E-01
        2   -1    0    0  501    0  0.00000000000E+00  0.00000000000E+00  0.11335624547E+04  0.11335624547E+04  0.25500000920E-02 0.  1.
       -2   -1    0    0    0  501  0.00000000000E+00  0.00000000000E+00 -0.37440591744E+03  0.37440591744E+03  0.25500000920E-02 0. -1.
    10030    2    1    2    0    0  0.00000000000E+00  0.00000000000E+00  0.75915653723E+03  0.15079683721E+04  0.13029389714E+04 0.  0.
        1    1    3    3  502    0 -0.26665396314E+03 -0.57830966327E+03  0.22061049653E+03  0.67395503848E+03  0.50400001928E-02 0.  1.
       -1    1    3    3    0  502  0.26665396314E+03  0.57830966327E+03  0.53854604070E+03  0.83401333363E+03  0.50400001928E-02 0. -1.
</event>
<event>
 5   0  0.3631841E-05  0.1298011E+04  0.7818609E-02  0.9031144E-01
        1   -1    0    0  501    0  0.00000000000E+00  0.00000000000E+00  0.22400068330E+03  0.22400068336E+03  0.50400001928E-02 0.  1.
       -1   -1    0    0    0  501  0.00000000000E+00  0.00000000000E+00 -0.18803871499E+04  0.18803871499E+04  0.50400001928E-02 0. -1.
    10030    2    1    2    0    0  0.00000000000E+00  0.00000000000E+00 -0.16563864666E+04  0.21043878332E+04  0.12980107958E+04 0.  0.
        3    1    3    3  502    0  0.85679525618E+02  0.50537266627E+03 -0.18281425153E+03  0.54420912679E+03  0.10100000352E+00 0.  1.
       -3    1    3    3    0  502 -0.85679525618E+02 -0.50537266627E+03 -0.14735722150E+04  0.15601787064E+04  0.10100000352E+00 0. -1.
</event>
<event>
 5   0  0.3631841E-05  0.1303413E+04  0.7818609E-02  0.9026863E-01
        1   -1    0    0  501    0  0.00000000000E+00  0.00000000000E+00  0.21468305165E+04  0.21468305165E+04  0.50400001928E-02 0. -1.
       -1   -1    0    0    0  501  0.00000000000E+00  0.00000000000E+00 -0.19783646785E+03  0.19783646791E+03  0.50400001928E-02 0.  1.
    10030    2    1    2    0    0  0.00000000000E+00  0.00000000000E+00  0.19489940487E+04  0.23446669844E+04  0.13034130068E+04 0.  0.
        3    1    3    3  502    0  0.43920234826E+03 -0.19860292332E+03  0.18549421403E+03  0.51647839985E+03  0.10100000352E+00 0.  1.
       -3    1    3    3    0  502 -0.43920234826E+03  0.19860292332E+03  0.17634998346E+04  0.18281885846E+04  0.10100000352E+00 0. -1.
</event>
<event>
 5   0  0.6742824E-05  0.1300033E+04  0.7818609E-02  0.9029539E-01
       -2   -1    0    0    0  501  0.00000000000E+00  0.00000000000E+00  0.10784200431E+04  0.10784200431E+04  0.25500000920E-02 0. -1.
        2   -1    0    0  501    0  0.00000000000E+00  0.00000000000E+00 -0.39179677267E+03  0.39179677268E+03  0.25500000920E-02 0.  1.
    10030    2    1    2    0    0  0.00000000000E+00  0.00000000000E+00  0.68662327046E+03  0.14702168158E+04  0.13000330650E+04 0.  0.
        4    1    3    3  502    0  0.26395593954E+03  0.17621266763E+03  0.98484237110E+03  0.10347172324E+04  0.12699999809E+01 0. -1.
       -4    1    3    3    0  502 -0.26395593954E+03 -0.17621266763E+03 -0.29821910064E+03  0.43549958340E+03  0.12699999809E+01 0.  1.
</event>
<event>
 5   0  0.6671239E-05  0.1300113E+04  0.7818609E-02  0.9029475E-01
        2   -1    0    0  501    0  0.00000000000E+00  0.00000000000E+00  0.55574184716E+03  0.55574184717E+03  0.25500000920E-02 0.  1.
       -2   -1    0    0    0  501  0.00000000000E+00  0.00000000000E+00 -0.76037748870E+03  0.76037748870E+03  0.25500000920E-02 0. -1.
    10030    2    1    2    0    0  0.00000000000E+00  0.00000000000E+00 -0.20463564153E+03  0.13161193359E+04  0.13001132106E+04 0.  0.
        1    1    3    3  502    0 -0.15260209573E+03  0.14055606998E+03 -0.72596255192E+03  0.75502651294E+03  0.50400001928E-02 0. -1.
       -1    1    3    3    0  502  0.15260209573E+03 -0.14055606998E+03  0.52132691038E+03  0.56109282293E+03  0.50400001928E-02 0.  1.
</event>
<event>
 5   0  0.2512000E-05  0.1300387E+04  0.7818609E-02  0.9029258E-01
       -4   -1    0    0    0  501  0.00000000000E+00  0.00000000000E+00  0.38290375390E+03  0.38290586003E+03  0.12699999809E+01 0. -1.
        4   -1    0    0  501    0  0.00000000000E+00  0.00000000000E+00 -0.11040617717E+04  0.11040625022E+04  0.12699999809E+01 0.  1.
    10030    2    1    2    0    0  0.00000000000E+00  0.00000000000E+00 -0.72115801784E+03  0.14869683622E+04  0.13003868746E+04 0.  0.
        4    1    3    3  502    0 -0.36900468480E+03  0.36357984669E+03 -0.80988887042E+03  0.96139292573E+03  0.12699999809E+01 0.  1.
       -4    1    3    3    0  502  0.36900468480E+03 -0.36357984669E+03  0.88730852577E+02  0.52557543647E+03  0.12699999809E+01 0. -1.
</event>
<event>
 5   0  0.3551277E-05  0.1299884E+04  0.7818609E-02  0.9029657E-01
       -1   -1    0    0    0  501  0.00000000000E+00  0.00000000000E+00  0.54460386579E+03  0.54460386581E+03  0.50400001928E-02 0. -1.
        1   -1    0    0  501    0  0.00000000000E+00  0.00000000000E+00 -0.77565435057E+03  0.77565435058E+03  0.50400001928E-02 0.  1.
    10030    2    1    2    0    0  0.00000000000E+00  0.00000000000E+00 -0.23105048478E+03  0.13202582164E+04  0.12998836223E+04 0.  0.
        4    1    3    3  502    0  0.37672286909E+03  0.52370770914E+03 -0.19571115971E+03  0.67416196543E+03  0.12699999809E+01 0.  1.
       -4    1    3    3    0  502 -0.37672286909E+03 -0.52370770914E+03 -0.35339325077E+02  0.64609625096E+03  0.12699999809E+01 0. -1.
</event>
<event>
 5   0  0.3552698E-05  0.1300032E+04  0.7818609E-02  0.9029540E-01
       -1   -1    0    0    0  501  0.00000000000E+00  0.00000000000E+00  0.25787487606E+03  0.25787487611E+03  0.50400001928E-02 0.  1.
        1   -1    0    0  501    0  0.00000000000E+00  0.00000000000E+00 -0.16384726520E+04  0.16384726521E+04  0.50400001928E-02 0. -1.
    10030    2    1    2    0    0  0.00000000000E+00  0.00000000000E+00 -0.13805977760E+04  0.18963475282E+04  0.13000322029E+04 0.  0.
        5    1    3    3  502    0  0.23038332906E+03  0.56983944336E+03 -0.99871970205E+03  0.11727133507E+04  0.46999998093E+01 0. -1.
       -5    1    3    3    0  502 -0.23038332906E+03 -0.56983944336E+03 -0.38187807393E+03  0.72363417752E+03  0.46999998093E+01 0.  1.
</event>
<event>
 5   0  0.6618060E-05  0.1299909E+04  0.7818609E-02  0.9029637E-01
       -2   -1    0    0    0  501  0.00000000000E+00  0.00000000000E+00  0.41618429579E+03  0.41618429579E+03  0.25500000920E-02 0. -1.
        2   -1    0    0  501    0  0.00000000000E+00  0.00000000000E+00 -0.10150337414E+04  0.10150337414E+04  0.25500000920E-02 0.  1.
    10030    2    1    2    0    0  0.00000000000E+00  0.00000000000E+00 -0.59884944566E+03  0.14312180372E+04  0.12999093859E+04 0.  0.
        2    1    3    3  502    0 -0.62103667508E+02  0.26488314402E+03 -0.94932239419E+03  0.98753883651E+03  0.25500000920E-02 0.  1.
       -2    1    3    3    0  502  0.62103667508E+02 -0.26488314402E+03  0.35047294853E+03  0.44367920073E+03  0.25500000920E-02 0. -1.
</event>
<event>
 5   0  0.3551277E-05  0.1299898E+04  0.7818609E-02  0.9029646E-01
        1   -1    0    0  501    0  0.00000000000E+00  0.00000000000E+00  0.99628342261E+03  0.99628342263E+03  0.50400001928E-02 0. -1.
       -1   -1    0    0    0  501  0.00000000000E+00  0.00000000000E+00 -0.42400958607E+03  0.42400958610E+03  0.50400001928E-02 0.  1.
    10030    2    1    2    0    0  0.00000000000E+00  0.00000000000E+00  0.57227383654E+03  0.14202930087E+04  0.12998980293E+04 0.  0.
        4    1    3    3  502    0 -0.25675182651E+03 -0.22030803897E+03 -0.32021726643E+03  0.46583027282E+03  0.12699999809E+01 0.  1.
       -4    1    3    3    0  502  0.25675182651E+03  0.22030803897E+03  0.89249110298E+03  0.95446273591E+03  0.12699999809E+01 0. -1.
</event>
<event>
 5   0  0.6688086E-05  0.1301532E+04  0.7818609E-02  0.9028351E-01
        2   -1    0    0  501    0  0.00000000000E+00  0.00000000000E+00  0.10548606091E+04  0.10548606091E+04  0.25500000920E-02 0. -1.
       -2   -1    0    0    0  501  0.00000000000E+00  0.00000000000E+00 -0.40147135995E+03  0.40147135996E+03  0.25500000920E-02 0.  1.
    10030    2    1    2    0    0  0.00000000000E+00  0.00000000000E+00  0.65338924914E+03  0.14563319691E+04  0.13015319025E+04 0.  0.
        5    1    3    3  502    0 -0.17569832786E+03  0.79689463323E+02 -0.36871711118E+03  0.41616668662E+03  0.46999998093E+01 0.  1.
       -5    1    3    3    0  502  0.17569832786E+03 -0.79689463323E+02  0.10221063603E+04  0.10401652824E+04  0.46999998093E+01 0. -1.
</event>
<event>
 5   0  0.3552698E-05  0.1300072E+04  0.7818609E-02  0.9029508E-01
        1   -1    0    0  501    0  0.00000000000E+00  0.00000000000E+00  0.10539791914E+04  0.10539791914E+04  0.50400001928E-02 0.  1.
       -1   -1    0    0    0  501  0.00000000000E+00  0.00000000000E+00 -0.40090590522E+03  0.40090590525E+03  0.50400001928E-02 0. -1.
    10030    2    1    2    0    0  0.00000000000E+00  0.00000000000E+00  0.65307328619E+03  0.14548850967E+04  0.13000715086E+04 0.  0.
        5    1    3    3  502    0  0.41470775330E+03  0.74629565590E+01  0.88662086112E+03  0.97885487062E+03  0.46999998093E+01 0.  1.
       -5    1    3    3    0  502 -0.41470775330E+03 -0.74629565590E+01 -0.23354757493E+03  0.47603022606E+03  0.46999998093E+01 0. -1.
</event>
<event>
 5   0  0.3689707E-05  0.1298102E+04  0.7818609E-02  0.9031072E-01
        1   -1    0    0  501    0  0.00000000000E+00  0.00000000000E+00  0.70086498704E+03  0.70086498705E+03  0.50400001928E-02 0.  1.
       -1   -1    0    0    0  501  0.00000000000E+00  0.00000000000E+00 -0.60106758085E+03  0.60106758087E+03  0.50400001928E-02 0. -1.
    10030    2    1    2    0    0  0.00000000000E+00  0.00000000000E+00  0.99797406188E+02  0.13019325679E+04  0.12981020334E+04 0.  0.
        1    1    3    3  502    0  0.35231658334E+03  0.12196113148E+03  0.58275332530E+03  0.69181134037E+03  0.50400001928E-02 0.  1.
       -1    1    3    3    0  502 -0.35231658334E+03 -0.12196113148E+03 -0.48295591911E+03  0.61012122756E+03  0.50400001928E-02 0. -1.
</event>
<event>
 5   0  0.6618060E-05  0.1299915E+04  0.7818609E-02  0.9029633E-01
        2   -1    0    0  501    0  0.00000000000E+00  0.00000000000E+00  0.95892416776E+03  0.95892416776E+03  0.25500000920E-02 0.  1.
       -2   -1    0    0    0  501  0.00000000000E+00  0.00000000000E+00 -0.44054034056E+03  0.44054034057E+03  0.25500000920E-02 0. -1.
    10030    2    1    2    0    0  0.00000000000E+00  0.00000000000E+00  0.51838382719E+03  0.13994645083E+04  0.12999150425E+04 0.  0.
        2    1    3    3  502    0  0.19780178349E+03 -0.27306429090E+03  0.85740238152E+03  0.92131888961E+03  0.25500000920E-02 0.  1.
       -2    1    3    3    0  502 -0.19780178349E+03  0.27306429090E+03 -0.33901855433E+03  0.47814561872E+03  0.25500000920E-02 0. -1.
</event>
<event>
 5   0  0.3552698E-05  0.1299767E+04  0.7818609E-02  0.9029750E-01
       -1   -1    0    0    0  501  0.00000000000E+00  0.00000000000E+00  0.68559200160E+03  0.68559200161E+03  0.50400001928E-02 0. -1.
        1   -1    0    0  501    0  0.00000000000E+00  0.00000000000E+00 -0.61603479822E+03  0.61603479824E+03  0.50400001928E-02 0.  1.
    10030    2    1    2    0    0  0.00000000000E+00  0.00000000000E+00  0.69557203379E+02  0.13016267999E+04  0.12997669489E+04 0.  0.
        5    1    3    3  502    0 -0.26086923157E+02 -0.30697526260E+03  0.60779672231E+03  0.68143472545E+03  0.46999998093E+01 0. -1.
       -5    1    3    3    0  502  0.26086923157E+02  0.30697526260E+03 -0.53823951893E+03  0.62019207440E+03  0.46999998093E+01 0.  1.
</event>
<event>
 5   0  0.6671239E-05  0.1298590E+04  0.7818609E-02  0.9030684E-01
        2   -1    0    0  501    0  0.00000000000E+00  0.00000000000E+00  0.21951853047E+04  0.21951853047E+04  0.25500000920E-02 0. -1.
       -2   -1    0    0    0  501  0.00000000000E+00  0.00000000000E+00 -0.19204937166E+03  0.19204937168E+03  0.25500000920E-02 0.  1.
    10030    2    1    2    0    0  0.00000000000E+00  0.00000000000E+00  0.20031359331E+04  0.23872346764E+04  0.12985899406E+04 0.  0.
        1    1    3    3  502    0 -0.29186919102E+03  0.55288348427E+03  0.67938191941E+03  0.92327003867E+03  0.50400001928E-02 0.  1.
       -1    1    3    3    0  502  0.29186919102E+03 -0.55288348427E+03  0.13237540137E+04  0.14639646377E+04  0.50400001928E-02 0. -1.
</event>
<event>
 5   0  0.3689707E-05  0.1299632E+04  0.7818609E-02  0.9029857E-01
        1   -1    0    0  501    0  0.00000000000E+00  0.00000000000E+00  0.28799430746E+03  0.28799430751E+03  0.50400001928E-02 0. -1.
       -1   -1    0    0    0  501  0.00000000000E+00  0.00000000000E+00 -0.14662127839E+04  0.14662127839E+04  0.50400001928E-02 0.  1.
    10030    2    1    2    0    0  0.00000000000E+00  0.00000000000E+00 -0.11782184765E+04  0.17542070914E+04  0.12996321562E+04 0.  0.
        1    1    3    3  502    0 -0.50330295007E+03  0.32380938083E+03 -0.93082971329E+03  0.11066211320E+04  0.50400001928E-02 0.  1.
       -1    1    3    3    0  502  0.50330295007E+03 -0.32380938083E+03 -0.24738876317E+03  0.64758595941E+03  0.50400001928E-02 0. -1.
</event>
<event>
 5   0  0.3718559E-05  0.1300407E+04  0.7818609E-02  0.9029242E-01
       -1   -1    0    0    0  501  0.00000000000E+00  0.00000000000E+00  0.33773983754E+03  0.33773983757E+03  0.50400001928E-02 0. -1.
        1   -1    0    0  501    0  0.00000000000E+00  0.00000000000E+00 -0.12517465725E+04  0.12517465726E+04  0.50400001928E-02 0.  1.
    10030    2    1    2    0    0  0.00000000000E+00  0.00000000000E+00 -0.91400673501E+03  0.15894864101E+04  0.13004071425E+04 0.  0.
        2    1    3    3  502    0 -0.29097925157E+03 -0.25603055463E+03  0.18110711172E+03  0.42780878400E+03  0.25500000920E-02 0. -1.
       -2    1    3    3    0  502  0.29097925157E+03  0.25603055463E+03 -0.10951138467E+04  0.11616776261E+04  0.25500000920E-02 0.  1.
</event>
<event>
 5   0  0.6742824E-05  0.1306208E+04  0.7818609E-02  0.9024657E-01
        2   -1    0    0  501    0  0.00000000000E+00  0.00000000000E+00  0.22905560812E+04  0.22905560812E+04  0.25500000920E-02 0. -1.
       -2   -1    0    0    0  501  0.00000000000E+00  0.00000000000E+00 -0.18621887393E+03  0.18621887395E+03  0.25500000920E-02 0.  1.
    10030    2    1    2    0    0  0.00000000000E+00  0.00000000000E+00  0.21043372073E+04  0.24767749551E+04  0.13062079071E+04 0.  0.
        4    1    3    3  502    0  0.50158590526E+02  0.62967702956E+00  0.22868955709E+04  0.22874460093E+04  0.12699999809E+01 0. -1.
       -4    1    3    3    0  502 -0.50158590526E+02 -0.62967702956E+00 -0.18255836361E+03  0.18932894580E+03  0.12699999809E+01 0.  1.
</event>
<event>
 5   0  0.6618060E-05  0.1299929E+04  0.7818609E-02  0.9029622E-01
       -2   -1    0    0    0  501  0.00000000000E+00  0.00000000000E+00  0.33977224138E+03  0.33977224139E+03  0.25500000920E-02 0.  1.
        2   -1    0    0  501    0  0.00000000000E+00  0.00000000000E+00 -0.12433432700E+04  0.12433432700E+04  0.25500000920E-02 0. -1.
    10030    2    1    2    0    0  0.00000000000E+00  0.00000000000E+00 -0.90357102866E+03  0.15831155114E+04  0.12999285052E+04 0.  0.
        2    1    3    3  502    0 -0.11900629349E+03  0.62587805879E+03 -0.29502954730E+03  0.70208851020E+03  0.25500000920E-02 0.  1.
       -2    1    3    3    0  502  0.11900629349E+03 -0.62587805879E+03 -0.60854148136E+03  0.88102700124E+03  0.25500000920E-02 0. -1.
</event>
<event>
 5   0  0.6742824E-05  0.1299437E+04  0.7818609E-02  0.9030012E-01
        2   -1    0    0  501    0  0.00000000000E+00  0.00000000000E+00  0.93106778893E+03  0.93106778894E+03  0.25500000920E-02 0.  1.
       -2   -1    0    0    0  501  0.00000000000E+00  0.00000000000E+00 -0.45338717792E+03  0.45338717793E+03  0.25500000920E-02 0. -1.
    10030    2    1    2    0    0  0.00000000000E+00  0.00000000000E+00  0.47768061101E+03  0.13844549669E+04  0.12994371047E+04 0.  0.
        4    1    3    3  502    0  0.63564763113E+03 -0.12748855601E+03  0.28443436269E+03  0.70795887059E+03  0.12699999809E+01 0. -1.
       -4    1    3    3    0  502 -0.63564763113E+03  0.12748855601E+03  0.19324624833E+03  0.67649609627E+03  0.12699999809E+01 0.  1.
</event>
<event>
 5   0  0.3718559E-05  0.1298773E+04  0.7818609E-02  0.9030539E-01
        1   -1    0    0  501    0  0.00000000000E+00  0.00000000000E+00  0.15666089138E+04  0.15666089138E+04  0.50400001928E-02 0.  1.
       -1   -1    0    0    0  501  0.00000000000E+00  0.00000000000E+00 -0.26918188588E+03  0.26918188593E+03  0.50400001928E-02 0. -1.
    10030    2    1    2    0    0  0.00000000000E+00  0.00000000000E+00  0.12974270279E+04  0.18357907997E+04  0.12987728699E+04 0.  0.
        2    1    3    3  502    0 -0.42801354585E+03 -0.15443248072E+03 -0.61688165432E+01  0.45506377667E+03  0.25500000920E-02 0. -1.
       -2    1    3    3    0  502  0.42801354585E+03  0.15443248072E+03  0.13035958445E+04  0.13807270231E+04  0.25500000920E-02 0.  1.
</event>
<event>
 5   0  0.6671239E-05  0.1298171E+04  0.7818609E-02  0.9031017E-01
        2   -1    0    0  501    0  0.00000000000E+00  0.00000000000E+00  0.15204312338E+04  0.15204312338E+04  0.25500000920E-02 0.  1.
       -2   -1    0    0    0  501  0.00000000000E+00  0.00000000000E+00 -0.27710012777E+03  0.27710012778E+03  0.25500000920E-02 0. -1.
    10030    2    1    2    0    0  0.00000000000E+00  0.00000000000E+00  0.12433311060E+04  0.17975313616E+04  0.12981705422E+04 0.  0.
        1    1    3    3  502    0  0.46112195649E+03  0.29496799095E+03  0.13867320045E+03  0.56468560367E+03  0.50400001928E-02 0. -1.
       -1    1    3    3    0  502 -0.46112195649E+03 -0.29496799095E+03  0.11046579056E+04  0.12328457579E+04  0.50400001928E-02 0.  1.
</event>
<event>
 5   0  0.3551277E-05  0.1299818E+04  0.7818609E-02  0.9029710E-01
       -1   -1    0    0    0  501  0.00000000000E+00  0.00000000000E+00  0.82845451949E+03  0.82845451950E+03  0.50400001928E-02 0. -1.
        1   -1    0    0  501    0  0.00000000000E+00  0.00000000000E+00 -0.50984259047E+03  0.50984259049E+03  0.50400001928E-02 0.  1.
    10030    2    1    2    0    0  0.00000000000E+00  0.00000000000E+00  0.31861192902E+03  0.13382971100E+04  0.12998175231E+04 0.  0.
        4    1    3    3  502    0  0.23600107656E+03 -0.50145837232E+03 -0.19018771314E+03  0.58594367173E+03  0.12699999809E+01 0.  1.
       -4    1    3    3    0  502 -0.23600107656E+03  0.50145837232E+03  0.50879964216E+03  0.75235343827E+03  0.12699999809E+01 0. -1.
</event>
<event>
 5   0  0.3718559E-05  0.1299791E+04  0.7818609E-02  0.9029731E-01
       -1   -1    0    0    0  501  0.00000000000E+00  0.00000000000E+00  0.98663973561E+03  0.98663973562E+03  0.50400001928E-02 0. -1.
        1   -1    0    0  501    0  0.00000000000E+00  0.00000000000E+00 -0.42808376433E+03  0.42808376436E+03  0.50400001928E-02 0.  1.
    10030    2    1    2    0    0  0.00000000000E+00  0.00000000000E+00  0.55855597128E+03  0.14147235000E+04  0.12997914480E+04 0.  0.
        2    1    3    3  502    0  0.58538606808E+01 -0.63766645720E+03  0.41570774682E+03  0.76122645060E+03  0.25500000920E-02 0. -1.
       -2    1    3    3    0  502 -0.58538606808E+01  0.63766645720E+03  0.14284822446E+03  0.65349704939E+03  0.25500000920E-02 0.  1.
</event>
<event>
 5   0  0.3689707E-05  0.1299893E+04  0.7818609E-02  0.9029650E-01
       -1   -1    0    0    0  501  0.00000000000E+00  0.00000000000E+00  0.40699639190E+03  0.40699639193E+03  0.50400001928E-02 0.  1.
        1   -1    0    0  501    0  0.00000000000E+00  0.00000000000E+00 -0.10379213354E+04  0.10379213354E+04  0.50400001928E-02 0. -1.
    10030    2    1    2    0    0  0.00000000000E+00  0.00000000000E+00 -0.63092494349E+03  0.14449177273E+04  0.12998926703E+04 0.  0.
        1    1    3    3  502    0 -0.48312259238E+03  0.39171176073E+03 -0.10577752514E+03  0.63089969695E+03  0.50400001928E-02 0.  1.
       -1    1    3    3    0  502  0.48312259238E+03 -0.39171176073E+03 -0.52514741835E+03  0.81401803038E+03  0.50400001928E-02 0. -1.
</event>
<event>
 5   0  0.6671239E-05  0.1300142E+04  0.7818609E-02  0.9029453E-01
       -2   -1    0    0    0  501  0.00000000000E+00  0.00000000000E+00  0.34840338945E+03  0.34840338945E+03  0.25500000920E-02 0. -1.
        2   -1    0    0  501    0  0.00000000000E+00  0.00000000000E+00 -0.12129392882E+04  0.12129392883E+04  0.25500000920E-02 0.  1.
    10030    2    1    2    0    0  0.00000000000E+00  0.00000000000E+00 -0.86453589880E+03  0.15613426777E+04  0.13001417757E+04 0.  0.
        1    1    3    3  502    0 -0.56070935535E+03 -0.29089866946E+03 -0.24787909010E+03  0.67857281142E+03  0.50400001928E-02 0. -1.
       -1    1    3    3    0  502  0.56070935535E+03  0.29089866946E+03 -0.61665680870E+03  0.88276986628E+03  0.50400001928E-02 0.  1.
</event>
<event>
 5   0  0.3631841E-05  0.1299833E+04  0.7818609E-02  0.9029698E-01
       -1   -1    0    0    0  501  0.00000000000E+00  0.00000000000E+00  0.27507359274E+03  0.27507359279E+03  0.50400001928E-02 0. -1.
        1   -1    0    0  501    0  0.00000000000E+00  0.00000000000E+00 -0.15355577193E+04  0.15355577193E+04  0.50400001928E-02 0.  1.
    10030    2    1    2    0    0  0.00000000000E+00  0.00000000000E+00 -0.12604841266E+04  0.18106313121E+04  0.12998328797E+04 0.  0.
        3    1    3    3  502    0 -0.23686272294E+03 -0.30466853300E+02 -0.14722235181E+04  0.14914671556E+04  0.10100000352E+00 0.  1.
       -3    1    3    3    0  502  0.23686272294E+03  0.30466853300E+02  0.21173939156E+03  0.31916415652E+03  0.10100000352E+00 0. -1.
</event>
<event>
 5   0  0.3552698E-05  0.1299949E+04  0.7818609E-02  0.9029605E-01
       -1   -1    0    0    0  501  0.00000000000E+00  0.00000000000E+00  0.54401421158E+03  0.54401421161E+03  0.50400001928E-02 0.  1.
        1   -1    0    0  501    0  0.00000000000E+00  0.00000000000E+00 -0.77657338374E+03  0.77657338376E+03  0.50400001928E-02 0. -1.
    10030    2    1    2    0    0  0.00000000000E+00  0.00000000000E+00 -0.23255917215E+03  0.13205875954E+04  0.12999491638E+04 0.  0.
        5    1    3    3  502    0 -0.91693528980E+02  0.17652241425E+03  0.51231478019E+03  0.54959657021E+03  0.46999998093E+01 0.  1.
       -5    1    3    3    0  502  0.91693528980E+02 -0.17652241425E+03 -0.74487395234E+03  0.77099102515E+03  0.46999998093E+01 0. -1.
</event>
<event>
 5   0  0.3631841E-05  0.1300294E+04  0.7818609E-02  0.9029332E-01
       -1   -1    0    0    0  501  0.00000000000E+00  0.00000000000E+00  0.23784776987E+03  0.23784776992E+03  0.50400001928E-02 0. -1.
        1   -1    0    0  501    0  0.00000000000E+00  0.00000000000E+00 -0.17771495880E+04  0.17771495880E+04  0.50400001928E-02 0.  1.
    10030    2    1    2    0    0  0.00000000000E+00  0.00000000000E+00 -0.15393018181E+04  0.20149973579E+04  0.13002939149E+04 0.  0.
        3    1    3    3  502    0 -0.15842884159E+03 -0.10335321368E+03 -0.17335634519E+04  0.17438531580E+04  0.10100000352E+00 0.  1.
       -3    1    3    3    0  502  0.15842884159E+03  0.10335321368E+03  0.19426163376E+03  0.27114419997E+03  0.10100000352E+00 0. -1.
</event>
<event>
 5   0  0.6618060E-05  0.1299846E+04  0.7818609E-02  0.9029687E-01
       -2   -1    0    0    0  501  0.00000000000E+00  0.00000000000E+00  0.15419104733E+03  0.15419104736E+03  0.25500000920E-02 0. -1.
        2   -1    0    0  501    0  0.00000000000E+00  0.00000000000E+00 -0.27394575081E+04  0.27394575081E+04  0.25500000920E-02 0.  1.
    10030    2    1    2    0    0  0.00000000000E+00  0.00000000000E+00 -0.25852664607E+04  0.28936485554E+04  0.12998458714E+04 0.  0.
        2    1    3    3  502    0  0.34810105943E+03  0.36378989383E+03 -0.37779120926E+03  0.62947885765E+03  0.25500000920E-02 0. -1.
       -2    1    3    3    0  502 -0.34810105943E+03 -0.36378989383E+03 -0.22074752515E+04  0.22641696978E+04  0.25500000920E-02 0.  1.
</event>
<event>
 5   0  0.6618060E-05  0.1299989E+04  0.7818609E-02  0.9029574E-01
       -2   -1    0    0    0  501  0.00000000000E+00  0.00000000000E+00  0.27418157841E+03  0.27418157842E+03  0.25500000920E-02 0.  1.
        2   -1    0    0  501    0  0.00000000000E+00  0.00000000000E+00 -0.15409232051E+04  0.15409232051E+04  0.25500000920E-02 0. -1.
    10030    2    1    2    0    0  0.00000000000E+00  0.00000000000E+00 -0.12667416267E+04  0.18151047836E+04  0.12999888563E+04 0.  0.
        2    1    3    3  502    0 -0.27968697066E+03 -0.58674000807E+03 -0.63620418533E+03  0.90952977086E+03  0.25500000920E-02 0.  1.
       -2    1    3    3    0  502  0.27968697066E+03  0.58674000807E+03 -0.63053744139E+03  0.90557501270E+03  0.25500000920E-02 0. -1.
</event>
<event>
 5   0  0.6742824E-05  0.1299419E+04  0.7818609E-02  0.9030026E-01
       -2   -1    0    0    0  501  0.00000000000E+00  0.00000000000E+00  0.39823594047E+03  0.39823594048E+03  0.25500000920E-02 0.  1.
        2   -1    0    0  501    0  0.00000000000E+00  0.00000000000E+00 -0.10599808981E+04  0.10599808981E+04  0.25500000920E-02 0. -1.
    10030    2    1    2    0    0  0.00000000000E+00  0.00000000000E+00 -0.66174495760E+03  0.14582168386E+04  0.12994190853E+04 0.  0.
        4    1    3    3  502    0 -0.31210753137E+03 -0.63933341422E+02 -0.96630542122E+03  0.10174705712E+04  0.12699999809E+01 0. -1.
       -4    1    3    3    0  502  0.31210753137E+03  0.63933341422E+02  0.30456046362E+03  0.44074626735E+03  0.12699999809E+01 0.  1.
</event>
<event>
 5   0  0.3552698E-05  0.1300056E+04  0.7818609E-02  0.9029521E-01
        1   -1    0    0  501    0  0.00000000000E+00  0.00000000000E+00  0.54655492466E+03  0.54655492469E+03  0.50400001928E-02 0. -1.
       -1   -1    0    0    0  501  0.00000000000E+00  0.00000000000E+00 -0.77308989041E+03  0.77308989043E+03  0.50400001928E-02 0.  1.
    10030    2    1    2    0    0  0.00000000000E+00  0.00000000000E+00 -0.22653496575E+03  0.13196448151E+04  0.13000555170E+04 0.  0.
        5    1    3    3  502    0  0.21231387579E+03  0.22225311538E+03  0.46811079634E+03  0.56002092532E+03  0.46999998093E+01 0. -1.
       -5    1    3    3    0  502 -0.21231387579E+03 -0.22225311538E+03 -0.69464576209E+03  0.75962388979E+03  0.46999998093E+01 0.  1.
</event>
<event>
 5   0  0.3631841E-05  0.1300274E+04  0.7818609E-02  0.9029348E-01
        1   -1    0    0  501    0  0.00000000000E+00  0.00000000000E+00  0.13296493542E+04  0.13296493542E+04  0.50400001928E-02 0. -1.
       -1   -1    0    0    0  501  0.00000000000E+00  0.00000000000E+00 -0.31788677681E+03  0.31788677685E+03  0.50400001928E-02 0.  1.
    10030    2    1    2    0    0  0.00000000000E+00  0.00000000000E+00  0.10117625774E+04  0.16475361311E+04  0.13002737366E+04 0.  0.
        3    1    3    3  502    0  0.12320083547E+02 -0.37356174209E+03  0.11799067818E+04  0.12376914735E+04  0.10100000352E+00 0. -1.
       -3    1    3    3    0  502 -0.12320083547E+02  0.37356174209E+03 -0.16814420445E+03  0.40984465753E+03  0.10100000352E+00 0.  1.
</event>
<event>
 5   0  0.3551277E-05  0.1297241E+04  0.7818609E-02  0.9031756E-01
       -1   -1    0    0    0  501  0.00000000000E+00  0.00000000000E+00  0.10459962141E+04  0.10459962141E+04  0.50400001928E-02 0.  1.
        1   -1    0    0  501    0  0.00000000000E+00  0.00000000000E+00 -0.40220847220E+03  0.40220847223E+03  0.50400001928E-02 0. -1.
    10030    2    1    2    0    0  0.00000000000E+00  0.00000000000E+00  0.64378774185E+03  0.14482046863E+04  0.12972409787E+04 0.  0.
        4    1    3    3  502    0  0.52761564342E+03 -0.29909974894E+02  0.74173625744E+03  0.91073989826E+03  0.12699999809E+01 0.  1.
       -4    1    3    3    0  502 -0.52761564342E+03  0.29909974894E+02 -0.97948515588E+02  0.53746478804E+03  0.12699999809E+01 0. -1.
</event>
<event>
 5   0  0.6688086E-05  0.1299867E+04  0.7818609E-02  0.9029671E-01
        2   -1    0    0  501    0  0.00000000000E+00  0.00000000000E+00  0.46319439436E+03  0.46319439437E+03  0.25500000920E-02 0. -1.
       -2   -1    0    0    0  501  0.00000000000E+00  0.00000000000E+00 -0.91195682577E+03  0.91195682578E+03  0.25500000920E-02 0.  1.
    10030    2    1    2    0    0  0.00000000000E+00  0.00000000000E+00 -0.44876243141E+03  0.13751512201E+04  0.12998665926E+04 0.  0.
        5    1    3    3  502    0  0.16879887757E+03  0.55721391300E+03  0.81155075906E+02  0.58786787823E+03  0.46999998093E+01 0. -1.
       -5    1    3    3    0  502 -0.16879887757E+03 -0.55721391300E+03 -0.52991750732E+03  0.78728334192E+03  0.46999998093E+01 0.  1.
</event>
<event>
 5   0  0.3631841E-05  0.1300404E+04  0.7818609E-02  0.9029245E-01
       -1   -1    0    0    0  501  0.00000000000E+00  0.00000000000E+00  0.39431816139E+03  0.39431816143E+03  0.50400001928E-02 0. -1.
        1   -1    0    0  501    0  0.00000000000E+00  0.00000000000E+00 -0.10721352235E+04  0.10721352235E+04  0.50400001928E-02 0.  1.
    10030    2    1    2    0    0  0.00000000000E+00  0.00000000000E+00 -0.67781706208E+03  0.14664533849E+04  0.13004036145E+04 0.  0.
        3    1    3    3  502    0  0.34945809488E+03 -0.43398571432E+03 -0.71680754298E+03  0.90789736435E+03  0.10100000352E+00 0.  1.
       -3    1    3    3    0  502 -0.34945809488E+03  0.43398571432E+03  0.38990480900E+02  0.55855602057E+03  0.10100000352E+00 0. -1.
</event>
<event>
 5   0  0.3718559E-05  0.1299884E+04  0.7818609E-02  0.9029657E-01
       -1   -1    0    0    0  501  0.00000000000E+00  0.00000000000E+00  0.48855724300E+03  0.48855724303E+03  0.50400001928E-02 0. -1.
        1   -1    0    0  501    0  0.00000000000E+00  0.00000000000E+00 -0.86463696177E+03  0.86463696178E+03  0.50400001928E-02 0.  1.
    10030    2    1    2    0    0  0.00000000000E+00  0.00000000000E+00 -0.37607971877E+03  0.13531942048E+04  0.12998840722E+04 0.  0.
        2    1    3    3  502    0  0.13699985454E+03  0.11611054387E+03 -0.83829633763E+03  0.85731637581E+03  0.25500000920E-02 0.  1.
       -2    1    3    3    0  502 -0.13699985454E+03 -0.11611054387E+03  0.46221661886E+03  0.49587782900E+03  0.25500000920E-02 0. -1.
</event>
<event>
 5   0  0.6458698E-05  0.1299833E+04  0.7818609E-02  0.9029698E-01
        2   -1    0    0  501    0  0.00000000000E+00  0.00000000000E+00  0.83472181388E+03  0.83472181389E+03  0.25500000920E-02 0. -1.
       -2   -1    0    0    0  501  0.00000000000E+00  0.00000000000E+00 -0.50602670215E+03  0.50602670216E+03  0.25500000920E-02 0.  1.
    10030    2    1    2    0    0  0.00000000000E+00  0.00000000000E+00  0.32869511173E+03  0.13407485160E+04  0.12998331073E+04 0.  0.
        3    1    3    3  502    0 -0.33548448645E+03 -0.49096535235E+03 -0.10619601429E+03  0.60404836024E+03  0.10100000352E+00 0.  1.
       -3    1    3    3    0  502  0.33548448645E+03  0.49096535235E+03  0.43489112602E+03  0.73670015580E+03  0.10100000352E+00 0. -1.
</event>
<event>
 5   0  0.3631841E-05  0.1300319E+04  0.7818609E-02  0.9029312E-01
        1   -1    0    0  501    0  0.00000000000E+00  0.00000000000E+00  0.10486463804E+04  0.10486463804E+04  0.50400001928E-02 0.  1.
       -1   -1    0    0    0  501  0.00000000000E+00  0.00000000000E+00 -0.40309796809E+03  0.40309796813E+03  0.50400001928E-02 0. -1.
    10030    2    1    2    0    0  0.00000000000E+00  0.00000000000E+00  0.64554841231E+03  0.14517443485E+04  0.13003187689E+04 0.  0.
        3    1    3    3  502    0 -0.48309505240E+03 -0.16046519496E+01 -0.16300948581E+03  0.50985832074E+03  0.10100000352E+00 0. -1.
       -3    1    3    3    0  502  0.48309505240E+03  0.16046519496E+01  0.80855789812E+03  0.94188602780E+03  0.10100000352E+00 0.  1.
</event>
<event>
 5   0  0.3631841E-05  0.1297672E+04  0.7818609E-02  0.9031413E-01
        1   -1    0    0  501    0  0.00000000000E+00  0.00000000000E+00  0.59510120795E+03  0.59510120798E+03  0.50400001928E-02 0. -1.
       -1   -1    0    0    0  501  0.00000000000E+00  0.00000000000E+00 -0.70742331946E+03  0.70742331948E+03  0.50400001928E-02 0.  1.
    10030    2    1    2    0    0  0.00000000000E+00  0.00000000000E+00 -0.11232211151E+03  0.13025245275E+04  0.12976724887E+04 0.  0.
        3    1    3    3  502    0  0.44561026821E+03 -0.11437990179E+02 -0.52939939204E+03  0.69207157523E+03  0.10100000352E+00 0.  1.
       -3    1    3    3    0  502 -0.44561026821E+03  0.11437990179E+02  0.41707728053E+03  0.61045295223E+03  0.10100000352E+00 0. -1.
</event>
<event>
 5   0  0.3631841E-05  0.1300468E+04  0.7818609E-02  0.9029194E-01
        1   -1    0    0  501    0  0.00000000000E+00  0.00000000000E+00  0.49762492332E+03  0.49762492335E+03  0.50400001928E-02 0. -1.
       -1   -1    0    0    0  501  0.00000000000E+00  0.00000000000E+00 -0.84964486127E+03  0.84964486129E+03  0.50400001928E-02 0.  1.
    10030    2    1    2    0    0  0.00000000000E+00  0.00000000000E+00 -0.35201993795E+03  0.13472697846E+04  0.13004683141E+04 0.  0.
        3    1    3    3  502    0  0.58006719509E+03 -0.21545451190E+03  0.30943678267E+02  0.61956123098E+03  0.10100000352E+00 0. -1.
       -3    1    3    3    0  502 -0.58006719509E+03  0.21545451190E+03 -0.38296361622E+03  0.72770855365E+03  0.10100000352E+00 0.  1.
</event>
<event>
 5   0  0.2512000E-05  0.1300157E+04  0.7818609E-02  0.9029441E-01
        4   -1    0    0  501    0  0.00000000000E+00  0.00000000000E+00  0.87106684983E+03  0.87106777565E+03  0.12699999809E+01 0. -1.
       -4   -1    0    0    0  501  0.00000000000E+00  0.00000000000E+00 -0.48515231395E+03  0.48515397621E+03  0.12699999809E+01 0.  1.
    10030    2    1    2    0    0  0.00000000000E+00  0.00000000000E+00  0.38591453588E+03  0.13562217519E+04  0.13001566872E+04 0.  0.
        1    1    3    3  502    0  0.51978911465E+03 -0.34377115022E+03 -0.69662472739E-01  0.62318482998E+03  0.50400001928E-02 0.  1.
       -1    1    3    3    0  502 -0.51978911465E+03  0.34377115022E+03  0.38598419835E+03  0.73303692188E+03  0.50400001928E-02 0. -1.
</event>
<event>
 5   0  0.3551277E-05  0.1299969E+04  0.7818609E-02  0.9029590E-01
       -1   -1    0    0    0  501  0.00000000000E+00  0.00000000000E+00  0.75398929647E+03  0.75398929649E+03  0.50400001928E-02 0.  1.
        1   -1    0    0  501    0  0.00000000000E+00  0.00000000000E+00 -0.56032583524E+03  0.56032583526E+03  0.50400001928E-02 0. -1.
    10030    2    1    2    0    0  0.00000000000E+00  0.00000000000E+00  0.19366346123E+03  0.13143151318E+04  0.12999687417E+04 0.  0.
        4    1    3    3  502    0  0.40211724457E+03 -0.13650066563E+03 -0.40068359910E+03  0.58384901267E+03  0.12699999809E+01 0. -1.
       -4    1    3    3    0  502 -0.40211724457E+03  0.13650066563E+03  0.59434706034E+03  0.73046611909E+03  0.12699999809E+01 0.  1.
</event>
<event>
 5   0  0.3551277E-05  0.1302629E+04  0.7818609E-02  0.9027483E-01
        1   -1    0    0  501    0  0.00000000000E+00  0.00000000000E+00  0.11028967900E+04  0.11028967900E+04  0.50400001928E-02 0.  1.
       -1   -1    0    0    0  501  0.00000000000E+00  0.00000000000E+00 -0.38463278770E+03  0.38463278773E+03  0.50400001928E-02 0. -1.
    10030    2    1    2    0    0  0.00000000000E+00  0.00000000000E+00  0.71826400229E+03  0.14875295777E+04  0.13026285225E+04 0.  0.
        4    1    3    3  502    0 -0.37092735133E+03 -0.33940272570E+03  0.83194028241E+03  0.97206355583E+03  0.12699999809E+01 0.  1.
       -4    1    3    3    0  502  0.37092735133E+03  0.33940272570E+03 -0.11367628012E+03  0.51546602190E+03  0.12699999809E+01 0. -1.
</event>
<event>
 5   0  0.6458698E-05  0.1299690E+04  0.7818609E-02  0.9029811E-01
        2   -1    0    0  501    0  0.00000000000E+00  0.00000000000E+00  0.13791411906E+04  0.13791411906E+04  0.25500000920E-02 0.  1.
       -2   -1    0    0    0  501  0.00000000000E+00  0.00000000000E+00 -0.30620401431E+03  0.30620401432E+03  0.25500000920E-02 0. -1.
    10030    2    1    2    0    0  0.00000000000E+00  0.00000000000E+00  0.10729371763E+04  0.16853452050E+04  0.12996900690E+04 0.  0.
        3    1    3    3  502    0  0.24961274280E+03 -0.54397845314E+03  0.86472147795E+03  0.10516474331E+04  0.10100000352E+00 0.  1.
       -3    1    3    3    0  502 -0.24961274280E+03  0.54397845314E+03  0.20821569839E+03  0.63369777190E+03  0.10100000352E+00 0. -1.
</event>
<event>
 5   0  0.6742824E-05  0.1300311E+04  0.7818609E-02  0.9029318E-01
       -2   -1    0    0    0  501  0.00000000000E+00  0.00000000000E+00  0.55560936715E+03  0.55560936716E+03  0.25500000920E-02 0. -1.
        2   -1    0    0  501    0  0.00000000000E+00  0.00000000000E+00 -0.76079059385E+03  0.76079059385E+03  0.25500000920E-02 0.  1.
    10030    2    1    2    0    0  0.00000000000E+00  0.00000000000E+00 -0.20518122670E+03  0.13163999610E+04  0.13003113172E+04 0.  0.
        4    1    3    3  502    0  0.38734422018E+03  0.52189123607E+03 -0.11997162335E+03  0.66090907885E+03  0.12699999809E+01 0. -1.
       -4    1    3    3    0  502 -0.38734422018E+03 -0.52189123607E+03 -0.85209603347E+02  0.65549088216E+03  0.12699999809E+01 0.  1.
</event>
<event>
 5   0  0.6742824E-05  0.1299730E+04  0.7818609E-02  0.9029780E-01
       -2   -1    0    0    0  501  0.00000000000E+00  0.00000000000E+00  0.19002442917E+03  0.19002442919E+03  0.25500000920E-02 0.  1.
        2   -1    0    0  501    0  0.00000000000E+00  0.00000000000E+00 -0.22224739231E+04  0.22224739231E+04  0.25500000920E-02 0. -1.
    10030    2    1    2    0    0  0.00000000000E+00  0.00000000000E+00 -0.20324494939E+04  0.24124983522E+04  0.12997297236E+04 0.  0.
        4    1    3    3  502    0  0.32287086739E+03  0.27531042357E+03 -0.19298622569E+04  0.19759583421E+04  0.12699999809E+01 0. -1.
       -4    1    3    3    0  502 -0.32287086739E+03 -0.27531042357E+03 -0.10258723698E+03  0.43654001011E+03  0.12699999809E+01 0.  1.
</event>
<event>
 5   0  0.3552698E-05  0.1300275E+04  0.7818609E-02  0.9029347E-01
        1   -1    0    0  501    0  0.00000000000E+00  0.00000000000E+00  0.93358319597E+03  0.93358319598E+03  0.50400001928E-02 0.  1.
       -1   -1    0    0    0  501  0.00000000000E+00  0.00000000000E+00 -0.45274881076E+03  0.45274881079E+03  0.50400001928E-02 0. -1.
    10030    2    1    2    0    0  0.00000000000E+00  0.00000000000E+00  0.48083438521E+03  0.13863320068E+04  0.13002748659E+04 0.  0.
        5    1    3    3  502    0  0.30419152455E+03  0.50188629119E+03 -0.57798551905E+02  0.58973307139E+03  0.46999998093E+01 0. -1.
       -5    1    3    3    0  502 -0.30419152455E+03 -0.50188629119E+03  0.53863293711E+03  0.79659893537E+03  0.46999998093E+01 0.  1.
</event>
<event>
 5   0  0.3631841E-05  0.1299658E+04  0.7818609E-02  0.9029836E-01
       -1   -1    0    0    0  501  0.00000000000E+00  0.00000000000E+00  0.88045134177E+03  0.88045134178E+03  0.50400001928E-02 0.  1.
        1   -1    0    0  501    0  0.00000000000E+00  0.00000000000E+00 -0.47961539341E+03  0.47961539343E+03  0.50400001928E-02 0. -1.
    10030    2    1    2    0    0  0.00000000000E+00  0.00000000000E+00  0.40083594836E+03  0.13600667352E+04  0.12996584423E+04 0.  0.
        3    1    3    3  502    0  0.23702023308E+03 -0.36318206956E+03 -0.30601591854E+03  0.53077825798E+03  0.10100000352E+00 0. -1.
       -3    1    3    3    0  502 -0.23702023308E+03  0.36318206956E+03  0.70685186690E+03  0.82928847724E+03  0.10100000352E+00 0.  1.
</event>
<event>
 5   0  0.6742824E-05  0.1299840E+04  0.7818609E-02  0.9029692E-01
        2   -1    0    0  501    0  0.00000000000E+00  0.00000000000E+00  0.15321867079E+04  0.15321867079E+04  0.25500000920E-02 0.  1.
       -2   -1    0    0    0  501  0.00000000000E+00  0.00000000000E+00 -0.27568163651E+03  0.27568163652E+03  0.25500000920E-02 0. -1.
    10030    2    1    2    0    0  0.00000000000E+00  0.00000000000E+00  0.12565050714E+04  0.18078683444E+04  0.12998395887E+04 0.  0.
        4    1    3    3  502    0 -0.60280253176E+03 -0.15995970493E+03  0.88257517471E+03  0.10806935511E+04  0.12699999809E+01 0. -1.
       -4    1    3    3    0  502  0.60280253176E+03  0.15995970493E+03  0.37392989671E+03  0.72717479333E+03  0.12699999809E+01 0.  1.
</event>
<event>
 5   0  0.6688086E-05  0.1300453E+04  0.7818609E-02  0.9029206E-01
       -2   -1    0    0    0  501  0.00000000000E+00  0.00000000000E+00  0.45138340921E+03  0.45138340921E+03  0.25500000920E-02 0.  1.
        2   -1    0    0  501    0  0.00000000000E+00  0.00000000000E+00 -0.93666438721E+03  0.93666438721E+03  0.25500000920E-02 0. -1.
    10030    2    1    2    0    0  0.00000000000E+00  0.00000000000E+00 -0.48528097800E+03  0.13880477964E+04  0.13004534046E+04 0.  0.
        5    1    3    3  502    0  0.34768461975E+03  0.20767945666E+03  0.30030465048E+03  0.50420266225E+03  0.46999998093E+01 0.  1.
       -5    1    3    3    0  502 -0.34768461975E+03 -0.20767945666E+03 -0.78558562848E+03  0.88384513417E+03  0.46999998093E+01 0. -1.
</event>
<event>
 5   0  0.3552698E-05  0.1300498E+04  0.7818609E-02  0.9029170E-01
        1   -1    0    0  501    0  0.00000000000E+00  0.00000000000E+00  0.11276626762E+04  0.11276626762E+04  0.50400001928E-02 0. -1.
       -1   -1    0    0    0  501  0.00000000000E+00  0.00000000000E+00 -0.37495604711E+03  0.37495604714E+03  0.50400001928E-02 0.  1.
    10030    2    1    2    0    0  0.00000000000E+00  0.00000000000E+00  0.75270662906E+03  0.15026187233E+04  0.13004982731E+04 0.  0.
        5    1    3    3  502    0  0.60366453866E+02  0.56852860068E+03  0.73422139475E+03  0.93057617907E+03  0.46999998093E+01 0. -1.
       -5    1    3    3    0  502 -0.60366453866E+02 -0.56852860068E+03  0.18485234305E+02  0.57204254425E+03  0.46999998093E+01 0.  1.
</event>
<event>
 5   0  0.3631841E-05  0.1298028E+04  0.7818609E-02  0.9031130E-01
       -1   -1    0    0    0  501  0.00000000000E+00  0.00000000000E+00  0.15770527553E+03  0.15770527561E+03  0.50400001928E-02 0. -1.
        1   -1    0    0  501    0  0.00000000000E+00  0.00000000000E+00 -0.26709265384E+04  0.26709265384E+04  0.50400001928E-02 0.  1.
    10030    2    1    2    0    0  0.00000000000E+00  0.00000000000E+00 -0.25132212629E+04  0.28286318140E+04  0.12980280518E+04 0.  0.
        3    1    3    3  502    0  0.43534209656E+03 -0.45919370277E+03 -0.94204145164E+03  0.11348232041E+04  0.10100000352E+00 0.  1.
       -3    1    3    3    0  502 -0.43534209656E+03  0.45919370277E+03 -0.15711798112E+04  0.16938086099E+04  0.10100000352E+00 0. -1.
</event>
<event>
 5   0  0.6618060E-05  0.1303187E+04  0.7818609E-02  0.9027042E-01
        2   -1    0    0  501    0  0.00000000000E+00  0.00000000000E+00  0.84723787538E+03  0.84723787539E+03  0.25500000920E-02 0. -1.
       -2   -1    0    0    0  501  0.00000000000E+00  0.00000000000E+00 -0.50112728083E+03  0.50112728084E+03  0.25500000920E-02 0.  1.
    10030    2    1    2    0    0  0.00000000000E+00  0.00000000000E+00  0.34611059455E+03  0.13483651562E+04  0.13031868826E+04 0.  0.
        2    1    3    3  502    0  0.25895192936E+03 -0.42340849109E+02  0.79015894725E+03  0.83258633855E+03  0.25500000920E-02 0. -1.
       -2    1    3    3    0  502 -0.25895192936E+03  0.42340849109E+02 -0.44404835269E+03  0.51577881767E+03  0.25500000920E-02 0.  1.
</event>
<event>
 5   0  0.6688086E-05  0.1300221E+04  0.7818609E-02  0.9029390E-01
        2   -1    0    0  501    0  0.00000000000E+00  0.00000000000E+00  0.15774462053E+04  0.15774462053E+04  0.25500000920E-02 0. -1.
       -2   -1    0    0    0  501  0.00000000000E+00  0.00000000000E+00 -0.26792899127E+03  0.26792899128E+03  0.25500000920E-02 0.  1.
    10030    2    1    2    0    0  0.00000000000E+00  0.00000000000E+00  0.13095172140E+04  0.18453751966E+04  0.13002208591E+04 0.  0.
        5    1    3    3  502    0 -0.14769459038E+03 -0.42283656012E+03 -0.13986621374E+02  0.44813186025E+03  0.46999998093E+01 0.  1.
       -5    1    3    3    0  502  0.14769459038E+03  0.42283656012E+03  0.13235038354E+04  0.13972433363E+04  0.46999998093E+01 0. -1.
</event>
<event>
 5   0  0.6671239E-05  0.1300062E+04  0.7818609E-02  0.9029516E-01
       -2   -1    0    0    0  501  0.00000000000E+00  0.00000000000E+00  0.65008058595E+03  0.65008058596E+03  0.25500000920E-02 0.  1.
        2   -1    0    0  501    0  0.00000000000E+00  0.00000000000E+00 -0.64998163556E+03  0.64998163557E+03  0.25500000920E-02 0. -1.
    10030    2    1    2    0    0  0.00000000000E+00  0.00000000000E+00  0.98950394194E-01  0.13000622215E+04  0.13000622178E+04 0.  0.
        1    1    3    3  502    0  0.35085474167E+03 -0.46252773970E+03 -0.29237057069E+03  0.65000885407E+03  0.50400001928E-02 0. -1.
       -1    1    3    3    0  502 -0.35085474167E+03  0.46252773970E+03  0.29246952109E+03  0.65005336745E+03  0.50400001928E-02 0.  1.
</event>
<event>
 5   0  0.6742824E-05  0.1300262E+04  0.7818609E-02  0.9029358E-01
        2   -1    0    0  501    0  0.00000000000E+00  0.00000000000E+00  0.19447569090E+04  0.19447569090E+04  0.25500000920E-02 0. -1.
       -2   -1    0    0    0  501  0.00000000000E+00  0.00000000000E+00 -0.21733828194E+03  0.21733828196E+03  0.25500000920E-02 0.  1.
    10030    2    1    2    0    0  0.00000000000E+00  0.00000000000E+00  0.17274186271E+04  0.21620951910E+04  0.13002617051E+04 0.  0.
        4    1    3    3  502    0  0.11060578424E+03  0.60561916100E+03  0.12111553970E+04  0.13586416806E+04  0.12699999809E+01 0. -1.
       -4    1    3    3    0  502 -0.11060578424E+03 -0.60561916100E+03  0.51626323002E+03  0.80345351033E+03  0.12699999809E+01 0.  1.
</event>
<event>
 5   0  0.6688086E-05  0.1300914E+04  0.7818609E-02  0.9028840E-01
       -2   -1    0    0    0  501  0.00000000000E+00  0.00000000000E+00  0.78332794763E+03  0.78332794763E+03  0.25500000920E-02 0.  1.
        2   -1    0    0  501    0  0.00000000000E+00  0.00000000000E+00 -0.54012428721E+03  0.54012428722E+03  0.25500000920E-02 0. -1.
    10030    2    1    2    0    0  0.00000000000E+00  0.00000000000E+00  0.24320366042E+03  0.13234522348E+04  0.13009142160E+04 0.  0.
        5    1    3    3  502    0  0.48399965014E+03 -0.10266462539E+03  0.55114505384E+03  0.74066095280E+03  0.46999998093E+01 0.  1.
       -5    1    3    3    0  502 -0.48399965014E+03  0.10266462539E+03 -0.30794139342E+03  0.58279128204E+03  0.46999998093E+01 0. -1.
</event>
<event>
 5   0  0.6458698E-05  0.1300213E+04  0.7818609E-02  0.9029396E-01
        2   -1    0    0  501    0  0.00000000000E+00  0.00000000000E+00  0.12202780332E+04  0.12202780332E+04  0.25500000920E-02 0. -1.
       -2   -1    0    0    0  501  0.00000000000E+00  0.00000000000E+00 -0.34634592898E+03  0.34634592899E+03  0.25500000920E-02 0.  1.
    10030    2    1    2    0    0  0.00000000000E+00  0.00000000000E+00  0.87393210420E+03  0.15666239622E+04  0.13002127965E+04 0.  0.
        3    1    3    3  502    0  0.17235258891E+03  0.14918760145E+03  0.11705461520E+04  0.11925353913E+04  0.10100000352E+00 0. -1.
       -3    1    3    3    0  502 -0.17235258891E+03 -0.14918760145E+03 -0.29661404778E+03  0.37408857089E+03  0.10100000352E+00 0.  1.
</event>
<event>
 5   0  0.3718559E-05  0.1299667E+04  0.7818609E-02  0.9029829E-01
        1   -1    0    0  501    0  0.00000000000E+00  0.00000000000E+00  0.52495190906E+03  0.52495190909E+03  0.50400001928E-02 0. -1.
       -1   -1    0    0    0  501  0.00000000000E+00  0.00000000000E+00 -0.80442328596E+03  0.80442328598E+03  0.50400001928E-02 0.  1.
    10030    2    1    2    0    0  0.00000000000E+00  0.00000000000E+00 -0.27947137690E+03  0.13293751951E+04  0.12996669415E+04 0.  0.
        2    1    3    3  502    0 -0.33466405519E+03  0.33370820417E+02  0.42900473912E+03  0.54512265380E+03  0.25500000920E-02 0. -1.
       -2    1    3    3    0  502  0.33466405519E+03 -0.33370820417E+02 -0.70847611602E+03  0.78425254126E+03  0.25500000920E-02 0.  1.
</event>
<event>
 5   0  0.6688086E-05  0.1300530E+04  0.7818609E-02  0.9029145E-01
       -2   -1    0    0    0  501  0.00000000000E+00  0.00000000000E+00  0.62906676773E+03  0.62906676773E+03  0.25500000920E-02 0. -1.
        2   -1    0    0  501    0  0.00000000000E+00  0.00000000000E+00 -0.67217760983E+03  0.67217760984E+03  0.25500000920E-02 0.  1.
    10030    2    1    2    0    0  0.00000000000E+00  0.00000000000E+00 -0.43110842106E+02  0.13012443776E+04  0.13005300402E+04 0.  0.
        5    1    3    3  502    0  0.26082376960E+03  0.15684376516E+03 -0.59649570393E+03  0.66967023247E+03  0.46999998093E+01 0.  1.
       -5    1    3    3    0  502 -0.26082376960E+03 -0.15684376516E+03  0.55338486182E+03  0.63157414509E+03  0.46999998093E+01 0. -1.
</event>
<event>
 5   0  0.3552698E-05  0.1299812E+04  0.7818609E-02  0.9029714E-01
       -1   -1    0    0    0  501  0.00000000000E+00  0.00000000000E+00  0.83180440736E+03  0.83180440737E+03  0.50400001928E-02 0. -1.
        1   -1    0    0  501    0  0.00000000000E+00  0.00000000000E+00 -0.50778510245E+03  0.50778510247E+03  0.50400001928E-02 0.  1.
    10030    2    1    2    0    0  0.00000000000E+00  0.00000000000E+00  0.32401930491E+03  0.13395895098E+04  0.12998121191E+04 0.  0.
        5    1    3    3  502    0  0.24179195650E+03 -0.43707222473E+03 -0.26647848965E+03  0.56615223686E+03  0.46999998093E+01 0.  1.
       -5    1    3    3    0  502 -0.24179195650E+03  0.43707222473E+03  0.59049779456E+03  0.77343727298E+03  0.46999998093E+01 0. -1.
</event>
<event>
 5   0  0.3552698E-05  0.1302113E+04  0.7818609E-02  0.9027891E-01
       -1   -1    0    0    0  501  0.00000000000E+00  0.00000000000E+00  0.40465569275E+03  0.40465569278E+03  0.50400001928E-02 0. -1.
        1   -1    0    0  501    0  0.00000000000E+00  0.00000000000E+00 -0.10474939807E+04  0.10474939807E+04  0.50400001928E-02 0.  1.
    10030    2    1    2    0    0  0.00000000000E+00  0.00000000000E+00 -0.64283828798E+03  0.14521496735E+04  0.13021127485E+04 0.  0.
        5    1    3    3  502    0  0.16671711775E+03 -0.61602354282E+03 -0.17785051495E+03  0.66251980976E+03  0.46999998093E+01 0. -1.
       -5    1    3    3    0  502 -0.16671711775E+03  0.61602354282E+03 -0.46498777304E+03  0.78962986376E+03  0.46999998093E+01 0.  1.
</event>
<event>
 5   0  0.3552698E-05  0.1299333E+04  0.7818609E-02  0.9030095E-01
        1   -1    0    0  501    0  0.00000000000E+00  0.00000000000E+00  0.10336863780E+04  0.10336863780E+04  0.50400001928E-02 0.  1.
       -1   -1    0    0    0  501  0.00000000000E+00  0.00000000000E+00 -0.40831180734E+03  0.40831180737E+03  0.50400001928E-02 0. -1.
    10030    2    1    2    0    0  0.00000000000E+00  0.00000000000E+00  0.62537457068E+03  0.14419981854E+04  0.12993326799E+04 0.  0.
        5    1    3    3  502    0 -0.39773016802E+03  0.34853708579E+03  0.73144621666E+03  0.90260902089E+03  0.46999998093E+01 0.  1.
       -5    1    3    3    0  502  0.39773016802E+03 -0.34853708579E+03 -0.10607164598E+03  0.53938916452E+03  0.46999998093E+01 0. -1.
</event>
<event>
 5   0  0.3551277E-05  0.1301346E+04  0.7818609E-02  0.9028498E-01
        1   -1    0    0  501    0  0.00000000000E+00  0.00000000000E+00  0.18168688050E+04  0.18168688050E+04  0.50400001928E-02 0. -1.
       -1   -1    0    0    0  501  0.00000000000E+00  0.00000000000E+00 -0.23302477970E+03  0.23302477976E+03  0.50400001928E-02 0.  1.
    10030    2    1    2    0    0  0.00000000000E+00  0.00000000000E+00  0.15838440253E+04  0.20498935848E+04  0.13013461540E+04 0.  0.
        4    1    3    3  502    0  0.26128745365E+03  0.53576185613E+03  0.38097044049E+03  0.70742631372E+03  0.12699999809E+01 0.  1.
       -4    1    3    3    0  502 -0.26128745365E+03 -0.53576185613E+03  0.12028735848E+04  0.13424672711E+04  0.12699999809E+01 0. -1.
</event>
<event>
 5   0  0.6458698E-05  0.1300276E+04  0.7818609E-02  0.9029347E-01
       -2   -1    0    0    0  501  0.00000000000E+00  0.00000000000E+00  0.29607273590E+03  0.29607273591E+03  0.25500000920E-02 0. -1.
        2   -1    0    0  501    0  0.00000000000E+00  0.00000000000E+00 -0.14276193540E+04  0.14276193540E+04  0.25500000920E-02 0.  1.
    10030    2    1    2    0    0  0.00000000000E+00  0.00000000000E+00 -0.11315466181E+04  0.17236920899E+04  0.13002756138E+04 0.  0.
        3    1    3    3  502    0 -0.26569833054E+03  0.43732982460E+03 -0.10973949401E+04  0.12108379921E+04  0.10100000352E+00 0.  1.
       -3    1    3    3    0  502  0.26569833054E+03 -0.43732982460E+03 -0.34151677983E+02  0.51285409781E+03  0.10100000352E+00 0. -1.
</event>
<event>
 5   0  0.2512000E-05  0.1299939E+04  0.7818609E-02  0.9029613E-01
       -4   -1    0    0    0  501  0.00000000000E+00  0.00000000000E+00  0.41799159151E+03  0.41799352085E+03  0.12699999809E+01 0. -1.
        4   -1    0    0  501    0  0.00000000000E+00  0.00000000000E+00 -0.10106870244E+04  0.10106878223E+04  0.12699999809E+01 0.  1.
    10030    2    1    2    0    0  0.00000000000E+00  0.00000000000E+00 -0.59269543289E+03  0.14286813432E+04  0.12999394233E+04 0.  0.
        4    1    3    3  502    0  0.32237319319E+03  0.53690676381E+03 -0.48754748617E+03  0.79366082988E+03  0.12699999809E+01 0.  1.
       -4    1    3    3    0  502 -0.32237319319E+03 -0.53690676381E+03 -0.10514794672E+03  0.63502051330E+03  0.12699999809E+01 0. -1.
</event>
<event>
 5   0  0.3551277E-05  0.1299932E+04  0.7818609E-02  0.9029619E-01
       -1   -1    0    0    0  501  0.00000000000E+00  0.00000000000E+00  0.75649572458E+03  0.75649572459E+03  0.50400001928E-02 0. -1.
        1   -1    0    0  501    0  0.00000000000E+00  0.00000000000E+00 -0.55843821226E+03  0.55843821229E+03  0.50400001928E-02 0.  1.
    10030    2    1    2    0    0  0.00000000000E+00  0.00000000000E+00  0.19805751231E+03  0.13149339369E+04  0.12999324906E+04 0.  0.
        4    1    3    3  502    0 -0.37366187060E+03 -0.27706276561E+03  0.55821400297E+03  0.72663020556E+03  0.12699999809E+01 0. -1.
       -4    1    3    3    0  502  0.37366187060E+03  0.27706276561E+03 -0.36015649065E+03  0.58830373132E+03  0.12699999809E+01 0.  1.
</event>
<event>
 5   0  0.6618060E-05  0.1299933E+04  0.7818609E-02  0.9029618E-01
       -2   -1    0    0    0  501  0.00000000000E+00  0.00000000000E+00  0.24775321863E+03  0.24775321864E+03  0.25500000920E-02 0.  1.
        2   -1    0    0  501    0  0.00000000000E+00  0.00000000000E+00 -0.17051500874E+04  0.17051500874E+04  0.25500000920E-02 0. -1.
    10030    2    1    2    0    0  0.00000000000E+00  0.00000000000E+00 -0.14573968688E+04  0.19529033061E+04  0.12999329558E+04 0.  0.
        2    1    3    3  502    0 -0.19168674666E+03 -0.43969471376E+03 -0.69765719756E+02  0.48470868139E+03  0.25500000920E-02 0.  1.
       -2    1    3    3    0  502  0.19168674666E+03  0.43969471376E+03 -0.13876311490E+04  0.14681946247E+04  0.25500000920E-02 0. -1.
</event>
<event>
 5   0  0.6618060E-05  0.1300135E+04  0.7818609E-02  0.9029458E-01
       -2   -1    0    0    0  501  0.00000000000E+00  0.00000000000E+00  0.58359655331E+03  0.58359655331E+03  0.25500000920E-02 0.  1.
        2   -1    0    0  501    0  0.00000000000E+00  0.00000000000E+00 -0.72410903942E+03  0.72410903943E+03  0.25500000920E-02 0. -1.
    10030    2    1    2    0    0  0.00000000000E+00  0.00000000000E+00 -0.14051248611E+03  0.13077055927E+04  0.13001346694E+04 0.  0.
        2    1    3    3  502    0 -0.47737467580E+03 -0.16831826112E+03 -0.48051612208E+03  0.69793506984E+03  0.25500000920E-02 0. -1.
       -2    1    3    3    0  502  0.47737467580E+03  0.16831826112E+03  0.34000363596E+03  0.60977052290E+03  0.25500000920E-02 0.  1.
</event>
<event>
 5   0  0.3551277E-05  0.1300104E+04  0.7818609E-02  0.9029482E-01
       -1   -1    0    0    0  501  0.00000000000E+00  0.00000000000E+00  0.36066883138E+03  0.36066883142E+03  0.50400001928E-02 0.  1.
        1   -1    0    0  501    0  0.00000000000E+00  0.00000000000E+00 -0.11716227361E+04  0.11716227361E+04  0.50400001928E-02 0. -1.
    10030    2    1    2    0    0  0.00000000000E+00  0.00000000000E+00 -0.81095390475E+03  0.15322915676E+04  0.13001043083E+04 0.  0.
        4    1    3    3  502    0 -0.35441976640E+03  0.49145372508E+03 -0.68294961411E+03  0.91299612432E+03  0.12699999809E+01 0. -1.
       -4    1    3    3    0  502  0.35441976640E+03 -0.49145372508E+03 -0.12800429065E+03  0.61929544325E+03  0.12699999809E+01 0.  1.
</event>
<event>
 5   0  0.6688086E-05  0.1299958E+04  0.7818609E-02  0.9029598E-01
       -2   -1    0    0    0  501  0.00000000000E+00  0.00000000000E+00  0.23651283864E+03  0.23651283865E+03  0.25500000920E-02 0. -1.
        2   -1    0    0  501    0  0.00000000000E+00  0.00000000000E+00 -0.17862581446E+04  0.17862581446E+04  0.25500000920E-02 0.  1.
    10030    2    1    2    0    0  0.00000000000E+00  0.00000000000E+00 -0.15497453060E+04  0.20227709833E+04  0.12999584368E+04 0.  0.
        5    1    3    3  502    0 -0.40463729442E+03  0.73364927781E+02 -0.15580618371E+04  0.16114256206E+04  0.46999998093E+01 0.  1.
       -5    1    3    3    0  502  0.40463729442E+03 -0.73364927781E+02  0.83165311180E+01  0.41134536262E+03  0.46999998093E+01 0. -1.
</event>
<event>
 5   0  0.3631841E-05  0.1299544E+04  0.7818609E-02  0.9029927E-01
       -1   -1    0    0    0  501  0.00000000000E+00  0.00000000000E+00  0.69588615431E+03  0.69588615433E+03  0.50400001928E-02 0.  1.
        1   -1    0    0  501    0  0.00000000000E+00  0.00000000000E+00 -0.60671359459E+03  0.60671359461E+03  0.50400001928E-02 0. -1.
    10030    2    1    2    0    0  0.00000000000E+00  0.00000000000E+00  0.89172559723E+02  0.13025997489E+04  0.12995439048E+04 0.  0.
        3    1    3    3  502    0 -0.42806225161E+02  0.25830117693E+03  0.64067089662E+03  0.69210626272E+03  0.10100000352E+00 0.  1.
       -3    1    3    3    0  502  0.42806225161E+02 -0.25830117693E+03 -0.55149833690E+03  0.61049348622E+03  0.10100000352E+00 0. -1.
</event>
<event>
 5   0  0.6742824E-05  0.1300789E+04  0.7818609E-02  0.9028939E-01
       -2   -1    0    0    0  501  0.00000000000E+00  0.00000000000E+00  0.31961162321E+03  0.31961162322E+03  0.25500000920E-02 0. -1.
        2   -1    0    0  501    0  0.00000000000E+00  0.00000000000E+00 -0.13235227687E+04  0.13235227687E+04  0.25500000920E-02 0.  1.
    10030    2    1    2    0    0  0.00000000000E+00  0.00000000000E+00 -0.10039111455E+04  0.16431343919E+04  0.13007893918E+04 0.  0.
        4    1    3    3  502    0 -0.23647325613E+03 -0.50429469994E+03 -0.77746423620E+02  0.56238675708E+03  0.12699999809E+01 0. -1.
       -4    1    3    3    0  502  0.23647325613E+03  0.50429469994E+03 -0.92616472185E+03  0.10807476348E+04  0.12699999809E+01 0.  1.
</event>
<event>
 5   0  0.2512000E-05  0.1299938E+04  0.7818609E-02  0.9029614E-01
        3   -1    0    0  501    0  0.00000000000E+00  0.00000000000E+00  0.59992922604E+03  0.59992923455E+03  0.10100000352E+00 0.  1.
       -3   -1    0    0    0  501  0.00000000000E+00  0.00000000000E+00 -0.70418255209E+03  0.70418255933E+03  0.10100000352E+00 0. -1.
    10030    2    1    2    0    0  0.00000000000E+00  0.00000000000E+00 -0.10425332604E+03  0.13041117939E+04  0.12999380043E+04 0.  0.
        4    1    3    3  502    0  0.29202128334E+03  0.39520196673E+03  0.37467681490E+03  0.61793636643E+03  0.12699999809E+01 0.  1.
       -4    1    3    3    0  502 -0.29202128334E+03 -0.39520196673E+03 -0.47893014095E+03  0.68617542745E+03  0.12699999809E+01 0. -1.
</event>
<event>
 5   0  0.2512000E-05  0.1298593E+04  0.7818609E-02  0.9030681E-01
        4   -1    0    0  501    0  0.00000000000E+00  0.00000000000E+00  0.10350668423E+04  0.10350676214E+04  0.12699999809E+01 0.  1.
       -4   -1    0    0    0  501  0.00000000000E+00  0.00000000000E+00 -0.40730139937E+03  0.40730337935E+03  0.12699999809E+01 0. -1.
    10030    2    1    2    0    0  0.00000000000E+00  0.00000000000E+00  0.62776544289E+03  0.14423710007E+04  0.12985933361E+04 0.  0.
        4    1    3    3  502    0 -0.16122723364E+03  0.89774098699E+02  0.10053267073E+04  0.10221237748E+04  0.12699999809E+01 0.  1.
       -4    1    3    3    0  502  0.16122723364E+03 -0.89774098699E+02 -0.37756126440E+03  0.42024722597E+03  0.12699999809E+01 0. -1.
</event>
<event>
 5   0  0.3689707E-05  0.1299897E+04  0.7818609E-02  0.9029647E-01
       -1   -1    0    0    0  501  0.00000000000E+00  0.00000000000E+00  0.41043279591E+03  0.41043279594E+03  0.50400001928E-02 0.  1.
        1   -1    0    0  501    0  0.00000000000E+00  0.00000000000E+00 -0.10292374962E+04  0.10292374962E+04  0.50400001928E-02 0. -1.
    10030    2    1    2    0    0  0.00000000000E+00  0.00000000000E+00 -0.61880470029E+03  0.14396702921E+04  0.12998966470E+04 0.  0.
        1    1    3    3  502    0  0.36900498689E+02 -0.31934163987E+03  0.31621997948E+03  0.45092771617E+03  0.50400001928E-02 0.  1.
       -1    1    3    3    0  502 -0.36900498689E+02  0.31934163987E+03 -0.93502467977E+03  0.98874257598E+03  0.50400001928E-02 0. -1.
</event>
<event>
 5   0  0.3689707E-05  0.1300179E+04  0.7818609E-02  0.9029423E-01
        1   -1    0    0  501    0  0.00000000000E+00  0.00000000000E+00  0.22879800935E+04  0.22879800935E+04  0.50400001928E-02 0. -1.
       -1   -1    0    0    0  501  0.00000000000E+00  0.00000000000E+00 -0.18471154604E+03  0.18471154611E+03  0.50400001928E-02 0.  1.
    10030    2    1    2    0    0  0.00000000000E+00  0.00000000000E+00  0.21032685474E+04  0.24726916396E+04  0.13001789730E+04 0.  0.
        1    1    3    3  502    0  0.59300381425E+03  0.19324043098E+03  0.70291830997E+03  0.93972843864E+03  0.50400001928E-02 0.  1.
       -1    1    3    3    0  502 -0.59300381425E+03 -0.19324043098E+03  0.14003502375E+04  0.15329632009E+04  0.50400001928E-02 0. -1.
</event>
<event>
 5   0  0.3631841E-05  0.1301449E+04  0.7818609E-02  0.9028417E-01
       -1   -1    0    0    0  501  0.00000000000E+00  0.00000000000E+00  0.38743097943E+03  0.38743097946E+03  0.50400001928E-02 0.  1.
        1   -1    0    0  501    0  0.00000000000E+00  0.00000000000E+00 -0.10929483563E+04  0.10929483563E+04  0.50400001928E-02 0. -1.
    10030    2    1    2    0    0  0.00000000000E+00  0.00000000000E+00 -0.70551737685E+03  0.14803793358E+04  0.13014485040E+04 0.  0.
        3    1    3    3  502    0  0.39369469278E+03 -0.15462046082E+03 -0.91525558500E+03  0.10082637522E+04  0.10100000352E+00 0. -1.
       -3    1    3    3    0  502 -0.39369469278E+03  0.15462046082E+03  0.20973820815E+03  0.47211558350E+03  0.10100000352E+00 0.  1.
</event>
<event>
 5   0  0.6742824E-05  0.1299558E+04  0.7818609E-02  0.9029916E-01
        2   -1    0    0  501    0  0.00000000000E+00  0.00000000000E+00  0.73400944151E+03  0.73400944152E+03  0.25500000920E-02 0. -1.
       -2   -1    0    0    0  501  0.00000000000E+00  0.00000000000E+00 -0.57521393387E+03  0.57521393388E+03  0.25500000920E-02 0.  1.
    10030    2    1    2    0    0  0.00000000000E+00  0.00000000000E+00  0.15879550764E+03  0.13092233754E+04  0.12995575530E+04 0.  0.
        4    1    3    3  502    0 -0.50127461679E+03  0.41186910013E+03  0.11569975599E+03  0.65901475212E+03  0.12699999809E+01 0. -1.
       -4    1    3    3    0  502  0.50127461679E+03 -0.41186910013E+03  0.43095751647E+02  0.65020862328E+03  0.12699999809E+01 0.  1.
</event>
<event>
 5   0  0.6671239E-05  0.1298762E+04  0.7818609E-02  0.9030548E-01
        2   -1    0    0  501    0  0.00000000000E+00  0.00000000000E+00  0.10146245006E+04  0.10146245006E+04  0.25500000920E-02 0.  1.
       -2   -1    0    0    0  501  0.00000000000E+00  0.00000000000E+00 -0.41561721918E+03  0.41561721919E+03  0.25500000920E-02 0. -1.
    10030    2    1    2    0    0  0.00000000000E+00  0.00000000000E+00  0.59900728143E+03  0.14302417198E+04  0.12987615847E+04 0.  0.
        1    1    3    3  502    0 -0.74191960305E+01 -0.40419593626E+03 -0.26014266043E+03  0.48073236126E+03  0.50400001928E-02 0. -1.
       -1    1    3    3    0  502  0.74191960305E+01  0.40419593626E+03  0.85914994186E+03  0.94950935856E+03  0.50400001928E-02 0.  1.
</event>
<event>
 5   0  0.2512000E-05  0.1300176E+04  0.7818609E-02  0.9029425E-01
       -4   -1    0    0    0  501  0.00000000000E+00  0.00000000000E+00  0.12943505651E+04  0.12943511881E+04  0.12699999809E+01 0.  1.
        4   -1    0    0  501    0  0.00000000000E+00  0.00000000000E+00 -0.32650505475E+03  0.32650752469E+03  0.12699999809E+01 0. -1.
    10030    2    1    2    0    0  0.00000000000E+00  0.00000000000E+00  0.96784551031E+03  0.16208587128E+04  0.13001761554E+04 0.  0.
        4    1    3    3  502    0  0.93993788406E+02  0.63066227842E+03  0.64182483177E+03  0.90471568421E+03  0.12699999809E+01 0.  1.
       -4    1    3    3    0  502 -0.93993788406E+02 -0.63066227842E+03  0.32602067853E+03  0.71614302860E+03  0.12699999809E+01 0. -1.
</event>
<event>
 5   0  0.3718559E-05  0.1299750E+04  0.7818609E-02  0.9029763E-01
        1   -1    0    0  501    0  0.00000000000E+00  0.00000000000E+00  0.12024320505E+04  0.12024320505E+04  0.50400001928E-02 0. -1.
       -1   -1    0    0    0  501  0.00000000000E+00  0.00000000000E+00 -0.35123607494E+03  0.35123607497E+03  0.50400001928E-02 0.  1.
    10030    2    1    2    0    0  0.00000000000E+00  0.00000000000E+00  0.85119597556E+03  0.15536681255E+04  0.12997499972E+04 0.  0.
        2    1    3    3  502    0  0.44136161588E+02  0.55964170610E+03  0.34237540801E+02  0.56242248282E+03  0.25500000920E-02 0.  1.
       -2    1    3    3    0  502 -0.44136161588E+02 -0.55964170610E+03  0.81695843476E+03  0.99124564267E+03  0.25500000920E-02 0. -1.
</event>
<event>
 5   0  0.3552698E-05  0.1302615E+04  0.7818609E-02  0.9027494E-01
        1   -1    0    0  501    0  0.00000000000E+00  0.00000000000E+00  0.14628088597E+04  0.14628088598E+04  0.50400001928E-02 0.  1.
       -1   -1    0    0    0  501  0.00000000000E+00  0.00000000000E+00 -0.28999123749E+03  0.28999123753E+03  0.50400001928E-02 0. -1.
    10030    2    1    2    0    0  0.00000000000E+00  0.00000000000E+00  0.11728176223E+04  0.17528000973E+04  0.13026154482E+04 0.  0.
        5    1    3    3  502    0 -0.31025384902E+03 -0.51384047481E+03  0.24628799671E+03  0.64882150990E+03  0.46999998093E+01 0. -1.
       -5    1    3    3    0  502  0.31025384902E+03  0.51384047481E+03  0.92652962555E+03  0.11039785874E+04  0.46999998093E+01 0.  1.
</event>
<event>
 5   0  0.6742824E-05  0.1299399E+04  0.7818609E-02  0.9030042E-01
       -2   -1    0    0    0  501  0.00000000000E+00  0.00000000000E+00  0.11951721300E+04  0.11951721300E+04  0.25500000920E-02 0.  1.
        2   -1    0    0  501    0  0.00000000000E+00  0.00000000000E+00 -0.35317869404E+03  0.35317869405E+03  0.25500000920E-02 0. -1.
    10030    2    1    2    0    0  0.00000000000E+00  0.00000000000E+00  0.84199343593E+03  0.15483508240E+04  0.12993988333E+04 0.  0.
        4    1    3    3  502    0 -0.14072292959E+03  0.51697900294E+03 -0.16882234330E+02  0.53605676484E+03  0.12699999809E+01 0. -1.
       -4    1    3    3    0  502  0.14072292959E+03 -0.51697900294E+03  0.85887567026E+03  0.10122940592E+04  0.12699999809E+01 0.  1.
</event>
<event>
 5   0  0.3631841E-05  0.1299338E+04  0.7818609E-02  0.9030090E-01
       -1   -1    0    0    0  501  0.00000000000E+00  0.00000000000E+00  0.35151888534E+03  0.35151888538E+03  0.50400001928E-02 0.  1.
        1   -1    0    0  501    0  0.00000000000E+00  0.00000000000E+00 -0.12007038805E+04  0.12007038805E+04  0.50400001928E-02 0. -1.
    10030    2    1    2    0    0  0.00000000000E+00  0.00000000000E+00 -0.84918499518E+03  0.15522227659E+04  0.12993384313E+04 0.  0.
        3    1    3    3  502    0  0.20335961133E+03  0.22100533887E+03  0.26361088301E+03  0.39961131011E+03  0.10100000352E+00 0.  1.
       -3    1    3    3    0  502 -0.20335961133E+03 -0.22100533887E+03 -0.11127958782E+04  0.11526114558E+04  0.10100000352E+00 0. -1.
</event>
<event>
 5   0  0.6742824E-05  0.1300034E+04  0.7818609E-02  0.9029538E-01
        2   -1    0    0  501    0  0.00000000000E+00  0.00000000000E+00  0.21380616981E+04  0.21380616981E+04  0.25500000920E-02 0. -1.
       -2   -1    0    0    0  501  0.00000000000E+00  0.00000000000E+00 -0.19761915248E+03  0.19761915250E+03  0.25500000920E-02 0.  1.
    10030    2    1    2    0    0  0.00000000000E+00  0.00000000000E+00  0.19404425456E+04  0.23356808506E+04  0.13000337546E+04 0.  0.
        4    1    3    3  502    0 -0.23968302588E+03  0.54909338914E+03  0.14232032920E+04  0.15441699149E+04  0.12699999809E+01 0. -1.
       -4    1    3    3    0  502  0.23968302588E+03 -0.54909338914E+03  0.51723925360E+03  0.79151093565E+03  0.12699999809E+01 0.  1.
</event>
<event>
 5   0  0.3689707E-05  0.1299842E+04  0.7818609E-02  0.9029691E-01
        1   -1    0    0  501    0  0.00000000000E+00  0.00000000000E+00  0.19229210982E+04  0.19229210982E+04  0.50400001928E-02 0.  1.
       -1   -1    0    0    0  501  0.00000000000E+00  0.00000000000E+00 -0.21966431043E+03  0.21966431049E+03  0.50400001928E-02 0. -1.
    10030    2    1    2    0    0  0.00000000000E+00  0.00000000000E+00  0.17032567878E+04  0.21425854087E+04  0.12998417398E+04 0.  0.
        1    1    3    3  502    0 -0.46072393857E+03 -0.29199701198E+03  0.26915804266E+03  0.60825558323E+03  0.50400001928E-02 0. -1.
       -1    1    3    3    0  502  0.46072393857E+03  0.29199701198E+03  0.14340987451E+04  0.15343298255E+04  0.50400001928E-02 0.  1.
</event>
<event>
 5   0  0.3689707E-05  0.1302203E+04  0.7818609E-02  0.9027820E-01
        1   -1    0    0  501    0  0.00000000000E+00  0.00000000000E+00  0.54860513213E+03  0.54860513216E+03  0.50400001928E-02 0.  1.
       -1   -1    0    0    0  501  0.00000000000E+00  0.00000000000E+00 -0.77274775016E+03  0.77274775018E+03  0.50400001928E-02 0. -1.
    10030    2    1    2    0    0  0.00000000000E+00  0.00000000000E+00 -0.22414261803E+03  0.13213528823E+04  0.13022033353E+04 0.  0.
        1    1    3    3  502    0  0.22789673962E+03 -0.14713767725E+03  0.48853403310E+03  0.55879506218E+03  0.50400001928E-02 0.  1.
       -1    1    3    3    0  502 -0.22789673962E+03  0.14713767725E+03 -0.71267665112E+03  0.76255782015E+03  0.50400001928E-02 0. -1.
</event>
<event>
 5   0  0.6742824E-05  0.1299936E+04  0.7818609E-02  0.9029616E-01
       -2   -1    0    0    0  501  0.00000000000E+00  0.00000000000E+00  0.20883312644E+03  0.20883312645E+03  0.25500000920E-02 0. -1.
        2   -1    0    0  501    0  0.00000000000E+00  0.00000000000E+00 -0.20229466975E+04  0.20229466975E+04  0.25500000920E-02 0.  1.
    10030    2    1    2    0    0  0.00000000000E+00  0.00000000000E+00 -0.18141135711E+04  0.22317798240E+04  0.12999358192E+04 0.  0.
        4    1    3    3  502    0  0.62606443560E+03  0.99994233090E+01 -0.60771574707E+03  0.87256902772E+03  0.12699999809E+01 0. -1.
       -4    1    3    3    0  502 -0.62606443560E+03 -0.99994233090E+01 -0.12063978240E+04  0.13592107963E+04  0.12699999809E+01 0.  1.
</event>
<event>
 5   0  0.6671239E-05  0.1299606E+04  0.7818609E-02  0.9029878E-01
       -2   -1    0    0    0  501  0.00000000000E+00  0.00000000000E+00  0.24641914777E+03  0.24641914778E+03  0.25500000920E-02 0. -1.
        2   -1    0    0  501    0  0.00000000000E+00  0.00000000000E+00 -0.17135196663E+04  0.17135196663E+04  0.25500000920E-02 0.  1.
    10030    2    1    2    0    0  0.00000000000E+00  0.00000000000E+00 -0.14671005185E+04  0.19599388141E+04  0.12996061801E+04 0.  0.
        1    1    3    3  502    0 -0.11551705673E+03  0.55546857339E+03 -0.12112986525E+04  0.13375851195E+04  0.50400001928E-02 0.  1.
       -1    1    3    3    0  502  0.11551705673E+03 -0.55546857339E+03 -0.25580186601E+03  0.62235369453E+03  0.50400001928E-02 0. -1.
</event>
<event>
 5   0  0.6618060E-05  0.1299930E+04  0.7818609E-02  0.9029620E-01
       -2   -1    0    0    0  501  0.00000000000E+00  0.00000000000E+00  0.19978893302E+03  0.19978893303E+03  0.25500000920E-02 0. -1.
        2   -1    0    0  501    0  0.00000000000E+00  0.00000000000E+00 -0.21145055133E+04  0.21145055133E+04  0.25500000920E-02 0.  1.
    10030    2    1    2    0    0  0.00000000000E+00  0.00000000000E+00 -0.19147165803E+04  0.23142944463E+04  0.12999304603E+04 0.  0.
        2    1    3    3  502    0  0.43557694047E+03 -0.30605913985E+03 -0.16212424649E+04  0.17064075123E+04  0.25500000920E-02 0.  1.
       -2    1    3    3    0  502 -0.43557694047E+03  0.30605913985E+03 -0.29347411543E+03  0.60788693405E+03  0.25500000920E-02 0. -1.
</event>
<event>
 5   0  0.6742824E-05  0.1299538E+04  0.7818609E-02  0.9029932E-01
       -2   -1    0    0    0  501  0.00000000000E+00  0.00000000000E+00  0.38885149087E+03  0.38885149087E+03  0.25500000920E-02 0.  1.
        2   -1    0    0  501    0  0.00000000000E+00  0.00000000000E+00 -0.10857608678E+04  0.10857608678E+04  0.25500000920E-02 0. -1.
    10030    2    1    2    0    0  0.00000000000E+00  0.00000000000E+00 -0.69690937689E+03  0.14746123586E+04  0.12995379674E+04 0.  0.
        4    1    3    3  502    0 -0.65103142726E+02  0.40281298778E+03 -0.92224795474E+03  0.10084838250E+04  0.12699999809E+01 0. -1.
       -4    1    3    3    0  502  0.65103142726E+02 -0.40281298778E+03  0.22533857786E+03  0.46612853365E+03  0.12699999809E+01 0.  1.
</event>
<event>
 5   0  0.3689707E-05  0.1300431E+04  0.7818609E-02  0.9029223E-01
       -1   -1    0    0    0  501  0.00000000000E+00  0.00000000000E+00  0.67003493767E+03  0.67003493769E+03  0.50400001928E-02 0.  1.
        1   -1    0    0  501    0  0.00000000000E+00  0.00000000000E+00 -0.63098261288E+03  0.63098261290E+03  0.50400001928E-02 0. -1.
    10030    2    1    2    0    0  0.00000000000E+00  0.00000000000E+00  0.39052324787E+02  0.13010175506E+04  0.13004313065E+04 0.  0.
        1    1    3    3  502    0  0.44327043881E+02 -0.44543116331E+03  0.49133879249E+03  0.66467105932E+03  0.50400001928E-02 0.  1.
       -1    1    3    3    0  502 -0.44327043881E+02  0.44543116331E+03 -0.45228646770E+03  0.63634649128E+03  0.50400001928E-02 0. -1.
</event>
<event>
 5   0  0.3631841E-05  0.1300572E+04  0.7818609E-02  0.9029111E-01
        1   -1    0    0  501    0  0.00000000000E+00  0.00000000000E+00  0.62033038244E+03  0.62033038246E+03  0.50400001928E-02 0.  1.
       -1   -1    0    0    0  501  0.00000000000E+00  0.00000000000E+00 -0.68168855846E+03  0.68168855848E+03  0.50400001928E-02 0. -1.
    10030    2    1    2    0    0  0.00000000000E+00  0.00000000000E+00 -0.61358176022E+02  0.13020189409E+04  0.13005723728E+04 0.  0.
        3    1    3    3  502    0  0.18059856110E+03  0.24391721329E+02  0.59424379142E+03  0.62155972375E+03  0.10100000352E+00 0.  1.
       -3    1    3    3    0  502 -0.18059856110E+03 -0.24391721329E+02 -0.65560196744E+03  0.68045921719E+03  0.10100000352E+00 0. -1.
</event>
<event>
 5   0  0.6618060E-05  0.1300544E+04  0.7818609E-02  0.9029134E-01
       -2   -1    0    0    0  501  0.00000000000E+00  0.00000000000E+00  0.30621324898E+03  0.30621324899E+03  0.25500000920E-02 0. -1.
        2   -1    0    0  501    0  0.00000000000E+00  0.00000000000E+00 -0.13809126271E+04  0.13809126271E+04  0.25500000920E-02 0.  1.
    10030    2    1    2    0    0  0.00000000000E+00  0.00000000000E+00 -0.10746993781E+04  0.16871258761E+04  0.13005441048E+04 0.  0.
        2    1    3    3  502    0 -0.64496017483E+03 -0.73033196640E+02 -0.48633859129E+03  0.81106886287E+03  0.25500000920E-02 0. -1.
       -2    1    3    3    0  502  0.64496017483E+03  0.73033196640E+02 -0.58836078681E+03  0.87605701321E+03  0.25500000920E-02 0.  1.
</event>
<event>
 5   0  0.3718559E-05  0.1300063E+04  0.7818609E-02  0.9029515E-01
        1   -1    0    0  501    0  0.00000000000E+00  0.00000000000E+00  0.89122164190E+03  0.89122164191E+03  0.50400001928E-02 0.  1.
       -1   -1    0    0    0  501  0.00000000000E+00  0.00000000000E+00 -0.47411459828E+03  0.47411459831E+03  0.50400001928E-02 0. -1.
    10030    2    1    2    0    0  0.00000000000E+00  0.00000000000E+00  0.41710704362E+03  0.13653362402E+04  0.13000633688E+04 0.  0.
        2    1    3    3  502    0 -0.25605597379E+03  0.84535820479E+02  0.82971392107E+03  0.87243117635E+03  0.25500000920E-02 0.  1.
       -2    1    3    3    0  502  0.25605597379E+03 -0.84535820479E+02 -0.41260687745E+03  0.49290506387E+03  0.25500000920E-02 0. -1.
</event>
<event>
 5   0  0.3551277E-05  0.1299510E+04  0.7818609E-02  0.9029954E-01
        1   -1    0    0  501    0  0.00000000000E+00  0.00000000000E+00  0.45723942553E+03  0.45723942556E+03  0.50400001928E-02 0.  1.
       -1   -1    0    0    0  501  0.00000000000E+00  0.00000000000E+00 -0.92332703177E+03  0.92332703178E+03  0.50400001928E-02 0. -1.
    10030    2    1    2    0    0  0.00000000000E+00  0.00000000000E+00 -0.46608760624E+03  0.13805664573E+04  0.12995099409E+04 0.  0.
        4    1    3    3  502    0 -0.52927346571E+03  0.20711280788E+03  0.10148412080E+03  0.57734457334E+03  0.12699999809E+01 0.  1.
       -4    1    3    3    0  502  0.52927346571E+03 -0.20711280788E+03 -0.56757172704E+03  0.80322188400E+03  0.12699999809E+01 0. -1.
</event>
<event>
 5   0  0.3551277E-05  0.1300519E+04  0.7818609E-02  0.9029154E-01
        1   -1    0    0  501    0  0.00000000000E+00  0.00000000000E+00  0.13453498265E+04  0.13453498265E+04  0.50400001928E-02 0.  1.
       -1   -1    0    0    0  501  0.00000000000E+00  0.00000000000E+00 -0.31429550843E+03  0.31429550847E+03  0.50400001928E-02 0. -1.
    10030    2    1    2    0    0  0.00000000000E+00  0.00000000000E+00  0.10310543181E+04  0.16596453350E+04  0.13005189853E+04 0.  0.
        4    1    3    3  502    0 -0.18032995238E+03 -0.44102819406E+03  0.10802263619E+04  0.11806419295E+04  0.12699999809E+01 0.  1.
       -4    1    3    3    0  502  0.18032995238E+03  0.44102819406E+03 -0.49172043881E+02  0.47900340550E+03  0.12699999809E+01 0. -1.
</event>
<event>
 5   0  0.6618060E-05  0.1299766E+04  0.7818609E-02  0.9029751E-01
        2   -1    0    0  501    0  0.00000000000E+00  0.00000000000E+00  0.73072183941E+03  0.73072183941E+03  0.25500000920E-02 0.  1.
       -2   -1    0    0    0  501  0.00000000000E+00  0.00000000000E+00 -0.57798739253E+03  0.57798739253E+03  0.25500000920E-02 0. -1.
    10030    2    1    2    0    0  0.00000000000E+00  0.00000000000E+00  0.15273444688E+03  0.13087092319E+04  0.12997661492E+04 0.  0.
        2    1    3    3  502    0 -0.64182105156E+03 -0.25692499368E+02  0.17580728652E+03  0.66595988524E+03  0.25500000920E-02 0. -1.
       -2    1    3    3    0  502  0.64182105156E+03  0.25692499368E+02 -0.23072839635E+02  0.64274934670E+03  0.25500000920E-02 0.  1.
</event>
<event>
 5   0  0.3689707E-05  0.1299933E+04  0.7818609E-02  0.9029618E-01
       -1   -1    0    0    0  501  0.00000000000E+00  0.00000000000E+00  0.66252225445E+03  0.66252225447E+03  0.50400001928E-02 0.  1.
        1   -1    0    0  501    0  0.00000000000E+00  0.00000000000E+00 -0.63764902238E+03  0.63764902240E+03  0.50400001928E-02 0. -1.
    10030    2    1    2    0    0  0.00000000000E+00  0.00000000000E+00  0.24873232076E+02  0.13001712769E+04  0.12999333335E+04 0.  0.
        1    1    3    3  502    0 -0.51597036549E+03  0.34420665646E+03  0.20677356451E+03  0.65380344709E+03  0.50400001928E-02 0.  1.
       -1    1    3    3    0  502  0.51597036549E+03 -0.34420665646E+03 -0.18190033243E+03  0.64636782979E+03  0.50400001928E-02 0. -1.
</event>
<event>
 5   0  0.6618060E-05  0.1301443E+04  0.7818609E-02  0.9028421E-01
        2   -1    0    0  501    0  0.00000000000E+00  0.00000000000E+00  0.60078518297E+03  0.60078518298E+03  0.25500000920E-02 0. -1.
       -2   -1    0    0    0  501  0.00000000000E+00  0.00000000000E+00 -0.70480886540E+03  0.70480886541E+03  0.25500000920E-02 0.  1.
    10030    2    1    2    0    0  0.00000000000E+00  0.00000000000E+00 -0.10402368243E+03  0.13055940484E+04  0.13014433882E+04 0.  0.
        2    1    3    3  502    0  0.92010234910E+02 -0.61567325353E+03  0.13811643914E+03  0.63764848404E+03  0.25500000920E-02 0.  1.
       -2    1    3    3    0  502 -0.92010234910E+02  0.61567325353E+03 -0.24214012157E+03  0.66794556434E+03  0.25500000920E-02 0. -1.
</event>
<event>
 5   0  0.6618060E-05  0.1299726E+04  0.7818609E-02  0.9029783E-01
        2   -1    0    0  501    0  0.00000000000E+00  0.00000000000E+00  0.48395070615E+03  0.48395070615E+03  0.25500000920E-02 0. -1.
       -2   -1    0    0    0  501  0.00000000000E+00  0.00000000000E+00 -0.87265457420E+03  0.87265457420E+03  0.25500000920E-02 0.  1.
    10030    2    1    2    0    0  0.00000000000E+00  0.00000000000E+00 -0.38870386805E+03  0.13566052804E+04  0.12997258133E+04 0.  0.
        2    1    3    3  502    0 -0.23020975473E+03 -0.14945642459E+03  0.42048367713E+03  0.50213571548E+03  0.25500000920E-02 0. -1.
       -2    1    3    3    0  502  0.23020975473E+03  0.14945642459E+03 -0.80918754517E+03  0.85446956487E+03  0.25500000920E-02 0.  1.
</event>
<event>
 5   0  0.6618060E-05  0.1299100E+04  0.7818609E-02  0.9030279E-01
       -2   -1    0    0    0  501  0.00000000000E+00  0.00000000000E+00  0.30186485619E+03  0.30186485620E+03  0.25500000920E-02 0. -1.
        2   -1    0    0  501    0  0.00000000000E+00  0.00000000000E+00 -0.13976961101E+04  0.13976961101E+04  0.25500000920E-02 0.  1.
    10030    2    1    2    0    0  0.00000000000E+00  0.00000000000E+00 -0.10958312539E+04  0.16995609663E+04  0.12991002044E+04 0.  0.
        2    1    3    3  502    0  0.50410874842E+03 -0.24487328110E+03 -0.97750884609E+03  0.11267706502E+04  0.25500000920E-02 0.  1.
       -2    1    3    3    0  502 -0.50410874842E+03  0.24487328110E+03 -0.11832240785E+03  0.57279031611E+03  0.25500000920E-02 0. -1.
</event>
<event>
 5   0  0.6671239E-05  0.1300578E+04  0.7818609E-02  0.9029107E-01
       -2   -1    0    0    0  501  0.00000000000E+00  0.00000000000E+00  0.41408833063E+03  0.41408833064E+03  0.25500000920E-02 0. -1.
        2   -1    0    0  501    0  0.00000000000E+00  0.00000000000E+00 -0.10212214645E+04  0.10212214645E+04  0.25500000920E-02 0.  1.
    10030    2    1    2    0    0  0.00000000000E+00  0.00000000000E+00 -0.60713313386E+03  0.14353097951E+04  0.13005781660E+04 0.  0.
        1    1    3    3  502    0 -0.46301766310E+03  0.45353028695E+03 -0.36197174009E+03  0.74236016742E+03  0.50400001928E-02 0. -1.
       -1    1    3    3    0  502  0.46301766310E+03 -0.45353028695E+03 -0.24516139376E+03  0.69294962771E+03  0.50400001928E-02 0.  1.
</event>
<event>
 5   0  0.3718559E-05  0.1307750E+04  0.7818609E-02  0.9023442E-01
       -1   -1    0    0    0  501  0.00000000000E+00  0.00000000000E+00  0.82965421901E+03  0.82965421902E+03  0.50400001928E-02 0.  1.
        1   -1    0    0  501    0  0.00000000000E+00  0.00000000000E+00 -0.51533799508E+03  0.51533799511E+03  0.50400001928E-02 0. -1.
    10030    2    1    2    0    0  0.00000000000E+00  0.00000000000E+00  0.31431622392E+03  0.13449922141E+04  0.13077497343E+04 0.  0.
        2    1    3    3  502    0  0.17141475618E+03  0.28475232314E+03  0.73629773419E+03  0.80783739549E+03  0.25500000920E-02 0.  1.
       -2    1    3    3    0  502 -0.17141475618E+03 -0.28475232314E+03 -0.42198151027E+03  0.53715481864E+03  0.25500000920E-02 0. -1.
</event>
<event>
 5   0  0.6742824E-05  0.1300552E+04  0.7818609E-02  0.9029128E-01
        2   -1    0    0  501    0  0.00000000000E+00  0.00000000000E+00  0.46031682441E+03  0.46031682442E+03  0.25500000920E-02 0.  1.
       -2   -1    0    0    0  501  0.00000000000E+00  0.00000000000E+00 -0.91862549824E+03  0.91862549824E+03  0.25500000920E-02 0. -1.
    10030    2    1    2    0    0  0.00000000000E+00  0.00000000000E+00 -0.45830867383E+03  0.13789423227E+04  0.13005518401E+04 0.  0.
        4    1    3    3  502    0  0.29503782384E+03 -0.13609063333E+02 -0.84340459669E+03  0.89362489374E+03  0.12699999809E+01 0. -1.
       -4    1    3    3    0  502 -0.29503782384E+03  0.13609063333E+02  0.38509592286E+03  0.48531742891E+03  0.12699999809E+01 0.  1.
</event>
<event>
 5   0  0.6688086E-05  0.1293397E+04  0.7818609E-02  0.9034818E-01
       -2   -1    0    0    0  501  0.00000000000E+00  0.00000000000E+00  0.36182515014E+03  0.36182515015E+03  0.25500000920E-02 0. -1.
        2   -1    0    0  501    0  0.00000000000E+00  0.00000000000E+00 -0.11558590197E+04  0.11558590197E+04  0.25500000920E-02 0.  1.
    10030    2    1    2    0    0  0.00000000000E+00  0.00000000000E+00 -0.79403386954E+03  0.15176841698E+04  0.12933968662E+04 0.  0.
        5    1    3    3  502    0 -0.28871749344E+03  0.13672260727E+03  0.26275431145E+03  0.41365780609E+03  0.46999998093E+01 0. -1.
       -5    1    3    3    0  502  0.28871749344E+03 -0.13672260727E+03 -0.10567881810E+04  0.11040263637E+04  0.46999998093E+01 0.  1.
</event>
<event>
 5   0  0.3631841E-05  0.1299495E+04  0.7818609E-02  0.9029966E-01
       -1   -1    0    0    0  501  0.00000000000E+00  0.00000000000E+00  0.61725877091E+03  0.61725877093E+03  0.50400001928E-02 0. -1.
        1   -1    0    0  501    0  0.00000000000E+00  0.00000000000E+00 -0.68394601465E+03  0.68394601467E+03  0.50400001928E-02 0.  1.
    10030    2    1    2    0    0  0.00000000000E+00  0.00000000000E+00 -0.66687243739E+02  0.13012047856E+04  0.12994947886E+04 0.  0.
        3    1    3    3  502    0 -0.71248582121E+02 -0.62613128423E+03  0.12515212966E+03  0.64247942482E+03  0.10100000352E+00 0. -1.
       -3    1    3    3    0  502  0.71248582121E+02  0.62613128423E+03 -0.19183937340E+03  0.65872536078E+03  0.10100000352E+00 0.  1.
</event>
<event>
 5   0  0.6688086E-05  0.1291676E+04  0.7818609E-02  0.9036193E-01
        2   -1    0    0  501    0  0.00000000000E+00  0.00000000000E+00  0.12434618492E+04  0.12434618492E+04  0.25500000920E-02 0.  1.
       -2   -1    0    0    0  501  0.00000000000E+00  0.00000000000E+00 -0.33543968891E+03  0.33543968892E+03  0.25500000920E-02 0. -1.
    10030    2    1    2    0    0  0.00000000000E+00  0.00000000000E+00  0.90802216028E+03  0.15789015381E+04  0.12916755875E+04 0.  0.
        5    1    3    3  502    0  0.34075483443E+02  0.63989835956E+03  0.35581524084E+03  0.73297859775E+03  0.46999998093E+01 0.  1.
       -5    1    3    3    0  502 -0.34075483443E+02 -0.63989835956E+03  0.55220691944E+03  0.84592294036E+03  0.46999998093E+01 0. -1.
</event>
<event>
 5   0  0.3552698E-05  0.1298880E+04  0.7818609E-02  0.9030454E-01
        1   -1    0    0  501    0  0.00000000000E+00  0.00000000000E+00  0.25466307684E+04  0.25466307684E+04  0.50400001928E-02 0.  1.
       -1   -1    0    0    0  501  0.00000000000E+00  0.00000000000E+00 -0.16561972366E+03  0.16561972374E+03  0.50400001928E-02 0. -1.
    10030    2    1    2    0    0  0.00000000000E+00  0.00000000000E+00  0.23810110447E+04  0.27122504921E+04  0.12988799548E+04 0.  0.
        5    1    3    3  502    0  0.28920009656E+03  0.57724133147E+03  0.10442467044E+04  0.12277286020E+04  0.46999998093E+01 0. -1.
       -5    1    3    3    0  502 -0.28920009656E+03 -0.57724133147E+03  0.13367643403E+04  0.14845218901E+04  0.46999998093E+01 0.  1.
</event>
<event>
 5   0  0.6688086E-05  0.1299537E+04  0.7818609E-02  0.9029932E-01
       -2   -1    0    0    0  501  0.00000000000E+00  0.00000000000E+00  0.25835691922E+03  0.25835691923E+03  0.25500000920E-02 0.  1.
        2   -1    0    0  501    0  0.00000000000E+00  0.00000000000E+00 -0.16341702137E+04  0.16341702137E+04  0.25500000920E-02 0. -1.
    10030    2    1    2    0    0  0.00000000000E+00  0.00000000000E+00 -0.13758132945E+04  0.18925271329E+04  0.12995371205E+04 0.  0.
        5    1    3    3  502    0  0.17109962753E+03  0.31530546957E+03 -0.14768503027E+04  0.15198031215E+04  0.46999998093E+01 0. -1.
       -5    1    3    3    0  502 -0.17109962753E+03 -0.31530546957E+03  0.10103700818E+03  0.37272401143E+03  0.46999998093E+01 0.  1.
</event>
<event>
 5   0  0.6618060E-05  0.1298929E+04  0.7818609E-02  0.9030415E-01
        2   -1    0    0  501    0  0.00000000000E+00  0.00000000000E+00  0.55017150379E+03  0.55017150380E+03  0.25500000920E-02 0. -1.
       -2   -1    0    0    0  501  0.00000000000E+00  0.00000000000E+00 -0.76667705850E+03  0.76667705850E+03  0.25500000920E-02 0.  1.
    10030    2    1    2    0    0  0.00000000000E+00  0.00000000000E+00 -0.21650555471E+03  0.13168485623E+04  0.12989285896E+04 0.  0.
        2    1    3    3  502    0  0.60754869288E+03 -0.22368434778E+03 -0.16047821388E+03  0.66701076363E+03  0.25500000920E-02 0.  1.
       -2    1    3    3    0  502 -0.60754869288E+03  0.22368434778E+03 -0.56027340828E+02  0.64983779867E+03  0.25500000920E-02 0. -1.
</event>
<event>
 5   0  0.3689707E-05  0.1295875E+04  0.7818609E-02  0.9032843E-01
        1   -1    0    0  501    0  0.00000000000E+00  0.00000000000E+00  0.44365005916E+03  0.44365005919E+03  0.50400001928E-02 0. -1.
       -1   -1    0    0    0  501  0.00000000000E+00  0.00000000000E+00 -0.94629353617E+03  0.94629353619E+03  0.50400001928E-02 0.  1.
    10030    2    1    2    0    0  0.00000000000E+00  0.00000000000E+00 -0.50264347701E+03  0.13899435954E+04  0.12958752769E+04 0.  0.
        1    1    3    3  502    0 -0.54303573071E+03 -0.16704647897E+03 -0.58543129321E+03  0.81579539718E+03  0.50400001928E-02 0.  1.
       -1    1    3    3    0  502  0.54303573071E+03  0.16704647897E+03  0.82787816196E+02  0.57414819820E+03  0.50400001928E-02 0. -1.
</event>
<event>
 5   0  0.3689707E-05  0.1299533E+04  0.7818609E-02  0.9029935E-01
        1   -1    0    0  501    0  0.00000000000E+00  0.00000000000E+00  0.86982865185E+03  0.86982865186E+03  0.50400001928E-02 0. -1.
       -1   -1    0    0    0  501  0.00000000000E+00  0.00000000000E+00 -0.48537908131E+03  0.48537908134E+03  0.50400001928E-02 0.  1.
    10030    2    1    2    0    0  0.00000000000E+00  0.00000000000E+00  0.38444957054E+03  0.13552077332E+04  0.12995331961E+04 0.  0.
        1    1    3    3  502    0 -0.33638421048E+03  0.29984929190E+03  0.68039590766E+03  0.81608977821E+03  0.50400001928E-02 0. -1.
       -1    1    3    3    0  502  0.33638421048E+03 -0.29984929190E+03 -0.29594633712E+03  0.53911795499E+03  0.50400001928E-02 0.  1.
</event>
<event>
 5   0  0.6742824E-05  0.1299966E+04  0.7818609E-02  0.9029592E-01
        2   -1    0    0  501    0  0.00000000000E+00  0.00000000000E+00  0.76978893037E+03  0.76978893037E+03  0.25500000920E-02 0. -1.
       -2   -1    0    0    0  501  0.00000000000E+00  0.00000000000E+00 -0.54882305616E+03  0.54882305617E+03  0.25500000920E-02 0.  1.
    10030    2    1    2    0    0  0.00000000000E+00  0.00000000000E+00  0.22096587420E+03  0.13186119865E+04  0.12999660201E+04 0.  0.
        4    1    3    3  502    0 -0.36528409316E+03  0.36813730543E+03 -0.28695172413E+03  0.59270603949E+03  0.12699999809E+01 0.  1.
       -4    1    3    3    0  502  0.36528409316E+03 -0.36813730543E+03  0.50791759834E+03  0.72590594705E+03  0.12699999809E+01 0. -1.
</event>
<event>
 5   0  0.6742824E-05  0.1300797E+04  0.7818609E-02  0.9028933E-01
       -2   -1    0    0    0  501  0.00000000000E+00  0.00000000000E+00  0.38291374733E+03  0.38291374734E+03  0.25500000920E-02 0.  1.
        2   -1    0    0  501    0  0.00000000000E+00  0.00000000000E+00 -0.11047357308E+04  0.11047357308E+04  0.25500000920E-02 0. -1.
    10030    2    1    2    0    0  0.00000000000E+00  0.00000000000E+00 -0.72182198347E+03  0.14876494781E+04  0.13007974454E+04 0.  0.
        4    1    3    3  502    0 -0.49676852205E+03 -0.35076663997E+03 -0.62469566168E+03  0.87181562434E+03  0.12699999809E+01 0. -1.
       -4    1    3    3    0  502  0.49676852205E+03  0.35076663997E+03 -0.97126321792E+02  0.61583385381E+03  0.12699999809E+01 0.  1.
</event>
<event>
 5   0  0.6671239E-05  0.1300442E+04  0.7818609E-02  0.9029215E-01
       -2   -1    0    0    0  501  0.00000000000E+00  0.00000000000E+00  0.11982805024E+04  0.11982805024E+04  0.25500000920E-02 0. -1.
        2   -1    0    0  501    0  0.00000000000E+00  0.00000000000E+00 -0.35282847685E+03  0.35282847685E+03  0.25500000920E-02 0.  1.
    10030    2    1    2    0    0  0.00000000000E+00  0.00000000000E+00  0.84545202554E+03  0.15511089792E+04  0.13004422086E+04 0.  0.
        1    1    3    3  502    0  0.22626251654E+03 -0.53942717569E+03  0.76137409877E+03  0.96013901210E+03  0.50400001928E-02 0. -1.
       -1    1    3    3    0  502 -0.22626251654E+03  0.53942717569E+03  0.84077926772E+02  0.59096996714E+03  0.50400001928E-02 0.  1.
</event>
<event>
 5   0  0.6688086E-05  0.1296529E+04  0.7818609E-02  0.9032323E-01
        2   -1    0    0  501    0  0.00000000000E+00  0.00000000000E+00  0.23502031716E+04  0.23502031716E+04  0.25500000920E-02 0. -1.
       -2   -1    0    0    0  501  0.00000000000E+00  0.00000000000E+00 -0.17881286078E+03  0.17881286080E+03  0.25500000920E-02 0.  1.
    10030    2    1    2    0    0  0.00000000000E+00  0.00000000000E+00  0.21713903108E+04  0.25290160324E+04  0.12965285227E+04 0.  0.
        5    1    3    3  502    0 -0.54116195569E+03 -0.30904477017E+03  0.14338634269E+04  0.15634421477E+04  0.46999998093E+01 0. -1.
       -5    1    3    3    0  502  0.54116195569E+03  0.30904477017E+03  0.73752688388E+03  0.96557388464E+03  0.46999998093E+01 0.  1.
</event>
<event>
 5   0  0.3631841E-05  0.1298880E+04  0.7818609E-02  0.9030454E-01
       -1   -1    0    0    0  501  0.00000000000E+00  0.00000000000E+00  0.30199872326E+03  0.30199872330E+03  0.50400001928E-02 0. -1.
        1   -1    0    0  501    0  0.00000000000E+00  0.00000000000E+00 -0.13966036707E+04  0.13966036707E+04  0.50400001928E-02 0.  1.
    10030    2    1    2    0    0  0.00000000000E+00  0.00000000000E+00 -0.10946049474E+04  0.16986023940E+04  0.12988803263E+04 0.  0.
        3    1    3    3  502    0  0.55633077444E+02  0.62388344823E+03 -0.77171263819E+03  0.99391448447E+03  0.10100000352E+00 0. -1.
       -3    1    3    3    0  502 -0.55633077444E+02 -0.62388344823E+03 -0.32289230923E+03  0.70468790953E+03  0.10100000352E+00 0.  1.
</event>
<event>
 5   0  0.3689707E-05  0.1299531E+04  0.7818609E-02  0.9029937E-01
       -1   -1    0    0    0  501  0.00000000000E+00  0.00000000000E+00  0.24938547970E+03  0.24938547975E+03  0.50400001928E-02 0.  1.
        1   -1    0    0  501    0  0.00000000000E+00  0.00000000000E+00 -0.16929413877E+04  0.16929413877E+04  0.50400001928E-02 0. -1.
    10030    2    1    2    0    0  0.00000000000E+00  0.00000000000E+00 -0.14435559080E+04  0.19423268675E+04  0.12995306847E+04 0.  0.
        1    1    3    3  502    0  0.23295412209E+02 -0.34034932465E+03  0.10476405237E+03  0.35686950797E+03  0.50400001928E-02 0.  1.
       -1    1    3    3    0  502 -0.23295412209E+02  0.34034932465E+03 -0.15483199604E+04  0.15854573595E+04  0.50400001928E-02 0. -1.
</event>
<event>
 5   0  0.6618060E-05  0.1299645E+04  0.7818609E-02  0.9029846E-01
       -2   -1    0    0    0  501  0.00000000000E+00  0.00000000000E+00  0.11426609105E+04  0.11426609105E+04  0.25500000920E-02 0.  1.
        2   -1    0    0  501    0  0.00000000000E+00  0.00000000000E+00 -0.36954923938E+03  0.36954923939E+03  0.25500000920E-02 0. -1.
    10030    2    1    2    0    0  0.00000000000E+00  0.00000000000E+00  0.77311167112E+03  0.15122101499E+04  0.12996452906E+04 0.  0.
        2    1    3    3  502    0 -0.57813592438E+03 -0.10878516085E+03  0.70773548331E+03  0.92030694479E+03  0.25500000920E-02 0. -1.
       -2    1    3    3    0  502  0.57813592438E+03  0.10878516085E+03  0.65376187813E+02  0.59190320511E+03  0.25500000920E-02 0.  1.
</event>
<event>
 5   0  0.3552698E-05  0.1300145E+04  0.7818609E-02  0.9029450E-01
        1   -1    0    0  501    0  0.00000000000E+00  0.00000000000E+00  0.42826519199E+03  0.42826519202E+03  0.50400001928E-02 0. -1.
       -1   -1    0    0    0  501  0.00000000000E+00  0.00000000000E+00 -0.98675874418E+03  0.98675874419E+03  0.50400001928E-02 0.  1.
    10030    2    1    2    0    0  0.00000000000E+00  0.00000000000E+00 -0.55849355220E+03  0.14150239362E+04  0.13001452581E+04 0.  0.
        5    1    3    3  502    0 -0.48727122463E+03 -0.10569429799E+03 -0.73319502827E+03  0.88668008348E+03  0.46999998093E+01 0.  1.
       -5    1    3    3    0  502  0.48727122463E+03  0.10569429799E+03  0.17470147607E+03  0.52834385273E+03  0.46999998093E+01 0. -1.
</event>
<event>
 5   0  0.3689707E-05  0.1299199E+04  0.7818609E-02  0.9030201E-01
        1   -1    0    0  501    0  0.00000000000E+00  0.00000000000E+00  0.12097770436E+04  0.12097770436E+04  0.50400001928E-02 0. -1.
       -1   -1    0    0    0  501  0.00000000000E+00  0.00000000000E+00 -0.34880765905E+03  0.34880765909E+03  0.50400001928E-02 0.  1.
    10030    2    1    2    0    0  0.00000000000E+00  0.00000000000E+00  0.86096938453E+03  0.15585847027E+04  0.12991989818E+04 0.  0.
        1    1    3    3  502    0  0.35791179237E+02  0.46630653362E+03  0.97133512333E+03  0.10780606261E+04  0.50400001928E-02 0. -1.
       -1    1    3    3    0  502 -0.35791179237E+02 -0.46630653362E+03 -0.11036573880E+03  0.48052407654E+03  0.50400001928E-02 0.  1.
</event>
<event>
 5   0  0.3718559E-05  0.1300186E+04  0.7818609E-02  0.9029418E-01
        1   -1    0    0  501    0  0.00000000000E+00  0.00000000000E+00  0.16597398283E+04  0.16597398283E+04  0.50400001928E-02 0. -1.
       -1   -1    0    0    0  501  0.00000000000E+00  0.00000000000E+00 -0.25463074018E+03  0.25463074023E+03  0.50400001928E-02 0.  1.
    10030    2    1    2    0    0  0.00000000000E+00  0.00000000000E+00  0.14051090881E+04  0.19143705685E+04  0.13001858037E+04 0.  0.
        2    1    3    3  502    0 -0.61510709693E+03 -0.16058863106E+02  0.10114256566E+04  0.11838904031E+04  0.25500000920E-02 0. -1.
       -2    1    3    3    0  502  0.61510709693E+03  0.16058863106E+02  0.39368343150E+03  0.73048016539E+03  0.25500000920E-02 0.  1.
</event>
<event>
 5   0  0.6618060E-05  0.1300545E+04  0.7818609E-02  0.9029133E-01
        2   -1    0    0  501    0  0.00000000000E+00  0.00000000000E+00  0.11791405377E+04  0.11791405377E+04  0.25500000920E-02 0.  1.
       -2   -1    0    0    0  501  0.00000000000E+00  0.00000000000E+00 -0.35861242269E+03  0.35861242270E+03  0.25500000920E-02 0. -1.
    10030    2    1    2    0    0  0.00000000000E+00  0.00000000000E+00  0.82052811505E+03  0.15377529604E+04  0.13005451856E+04 0.  0.
        2    1    3    3  502    0  0.51084362093E+03 -0.67154327353E+02 -0.58809309795E+02  0.51858407578E+03  0.25500000920E-02 0. -1.
       -2    1    3    3    0  502 -0.51084362093E+03  0.67154327353E+02  0.87933742485E+03  0.10191688847E+04  0.25500000920E-02 0.  1.
</event>
<event>
 5   0  0.6458698E-05  0.1298149E+04  0.7818609E-02  0.9031034E-01
        2   -1    0    0  501    0  0.00000000000E+00  0.00000000000E+00  0.10571442828E+04  0.10571442828E+04  0.25500000920E-02 0. -1.
       -2   -1    0    0    0  501  0.00000000000E+00  0.00000000000E+00 -0.39852433221E+03  0.39852433222E+03  0.25500000920E-02 0.  1.
    10030    2    1    2    0    0  0.00000000000E+00  0.00000000000E+00  0.65861995056E+03  0.14556686150E+04  0.12981490197E+04 0.  0.
        3    1    3    3  502    0 -0.25100266688E+03  0.26936247254E+03  0.92871848303E+03  0.99903779273E+03  0.10100000352E+00 0. -1.
       -3    1    3    3    0  502  0.25100266688E+03 -0.26936247254E+03 -0.27009853247E+03  0.45663082226E+03  0.10100000352E+00 0.  1.
</event>
<event>
 5   0  0.3552698E-05  0.1300566E+04  0.7818609E-02  0.9029116E-01
       -1   -1    0    0    0  501  0.00000000000E+00  0.00000000000E+00  0.58032917506E+03  0.58032917508E+03  0.50400001928E-02 0.  1.
        1   -1    0    0  501    0  0.00000000000E+00  0.00000000000E+00 -0.72866947059E+03  0.72866947061E+03  0.50400001928E-02 0. -1.
    10030    2    1    2    0    0  0.00000000000E+00  0.00000000000E+00 -0.14834029553E+03  0.13089986457E+04  0.13005662656E+04 0.  0.
        5    1    3    3  502    0  0.12334620814E+03 -0.52206747254E+03  0.29574144821E+03  0.61257964963E+03  0.46999998093E+01 0. -1.
       -5    1    3    3    0  502 -0.12334620814E+03  0.52206747254E+03 -0.44408174375E+03  0.69641899606E+03  0.46999998093E+01 0.  1.
</event>
<event>
 5   0  0.3689707E-05  0.1299977E+04  0.7818609E-02  0.9029583E-01
        1   -1    0    0  501    0  0.00000000000E+00  0.00000000000E+00  0.64744561177E+03  0.64744561179E+03  0.50400001928E-02 0.  1.
       -1   -1    0    0    0  501  0.00000000000E+00  0.00000000000E+00 -0.65254186751E+03  0.65254186753E+03  0.50400001928E-02 0. -1.
    10030    2    1    2    0    0  0.00000000000E+00  0.00000000000E+00 -0.50962557423E+01  0.12999874793E+04  0.12999774900E+04 0.  0.
        1    1    3    3  502    0 -0.14606605306E+03  0.28187028482E+03  0.56464157877E+03  0.64777022301E+03  0.50400001928E-02 0.  1.
       -1    1    3    3    0  502  0.14606605306E+03 -0.28187028482E+03 -0.56973783452E+03  0.65221725630E+03  0.50400001928E-02 0. -1.
</event>
<event>
 5   0  0.3631841E-05  0.1299950E+04  0.7818609E-02  0.9029605E-01
        1   -1    0    0  501    0  0.00000000000E+00  0.00000000000E+00  0.35190452863E+03  0.35190452867E+03  0.50400001928E-02 0.  1.
       -1   -1    0    0    0  501  0.00000000000E+00  0.00000000000E+00 -0.12005172405E+04  0.12005172405E+04  0.50400001928E-02 0. -1.
    10030    2    1    2    0    0  0.00000000000E+00  0.00000000000E+00 -0.84861271185E+03  0.15524217692E+04  0.12999499277E+04 0.  0.
        3    1    3    3  502    0  0.58812506268E+03 -0.42678549397E+02 -0.97791519910E+02  0.59772547169E+03  0.10100000352E+00 0. -1.
       -3    1    3    3    0  502 -0.58812506268E+03  0.42678549397E+02 -0.75082119194E+03  0.95469629747E+03  0.10100000352E+00 0.  1.
</event>
<event>
 5   0  0.6688086E-05  0.1300316E+04  0.7818609E-02  0.9029314E-01
       -2   -1    0    0    0  501  0.00000000000E+00  0.00000000000E+00  0.55116029325E+03  0.55116029325E+03  0.25500000920E-02 0.  1.
        2   -1    0    0  501    0  0.00000000000E+00  0.00000000000E+00 -0.76693787117E+03  0.76693787118E+03  0.25500000920E-02 0. -1.
    10030    2    1    2    0    0  0.00000000000E+00  0.00000000000E+00 -0.21577757793E+03  0.13180981644E+04  0.13003164261E+04 0.  0.
        5    1    3    3  502    0 -0.27703698156E+03 -0.57997367860E+03 -0.20702523837E+03  0.67527808816E+03  0.46999998093E+01 0. -1.
       -5    1    3    3    0  502  0.27703698156E+03  0.57997367860E+03 -0.87523395535E+01  0.64282007628E+03  0.46999998093E+01 0.  1.
</event>
<event>
 5   0  0.3552698E-05  0.1300521E+04  0.7818609E-02  0.9029152E-01
        1   -1    0    0  501    0  0.00000000000E+00  0.00000000000E+00  0.12718466594E+04  0.12718466594E+04  0.50400001928E-02 0.  1.
       -1   -1    0    0    0  501  0.00000000000E+00  0.00000000000E+00 -0.33246056660E+03  0.33246056664E+03  0.50400001928E-02 0. -1.
    10030    2    1    2    0    0  0.00000000000E+00  0.00000000000E+00  0.93938609280E+03  0.16043072260E+04  0.13005212202E+04 0.  0.
        5    1    3    3  502    0 -0.48741703820E+03 -0.30491834598E+03  0.94986376331E+02  0.58274786017E+03  0.46999998093E+01 0. -1.
       -5    1    3    3    0  502  0.48741703820E+03  0.30491834598E+03  0.84439971647E+03  0.10215593659E+04  0.46999998093E+01 0.  1.
</event>
<event>
 5   0  0.6618060E-05  0.1299994E+04  0.7818609E-02  0.9029570E-01
       -2   -1    0    0    0  501  0.00000000000E+00  0.00000000000E+00  0.64578610670E+03  0.64578610671E+03  0.25500000920E-02 0. -1.
        2   -1    0    0  501    0  0.00000000000E+00  0.00000000000E+00 -0.65423578744E+03  0.65423578745E+03  0.25500000920E-02 0.  1.
    10030    2    1    2    0    0  0.00000000000E+00  0.00000000000E+00 -0.84496807425E+01  0.13000218942E+04  0.12999944339E+04 0.  0.
        2    1    3    3  502    0 -0.56607901376E+03 -0.13609915763E+01 -0.32368280506E+03  0.65208731043E+03  0.25500000920E-02 0.  1.
       -2    1    3    3    0  502  0.56607901376E+03  0.13609915763E+01  0.31523312432E+03  0.64793458373E+03  0.25500000920E-02 0. -1.
</event>
<event>
 5   0  0.6618060E-05  0.1300889E+04  0.7818609E-02  0.9028861E-01
        2   -1    0    0  501    0  0.00000000000E+00  0.00000000000E+00  0.17838148200E+04  0.17838148200E+04  0.25500000920E-02 0.  1.
       -2   -1    0    0    0  501  0.00000000000E+00  0.00000000000E+00 -0.23717586674E+03  0.23717586676E+03  0.25500000920E-02 0. -1.
    10030    2    1    2    0    0  0.00000000000E+00  0.00000000000E+00  0.15466389532E+04  0.20209906867E+04  0.13008886594E+04 0.  0.
        2    1    3    3  502    0  0.19296010023E+03 -0.17348807095E+03 -0.15328472991E+03  0.30137670692E+03  0.25500000920E-02 0. -1.
       -2    1    3    3    0  502 -0.19296010023E+03  0.17348807095E+03  0.16999236831E+04  0.17196139798E+04  0.25500000920E-02 0.  1.
</event>
<event>
 5   0  0.6688086E-05  0.1292840E+04  0.7818609E-02  0.9035262E-01
        2   -1    0    0  501    0  0.00000000000E+00  0.00000000000E+00  0.95361294271E+03  0.95361294271E+03  0.25500000920E-02 0.  1.
       -2   -1    0    0    0  501  0.00000000000E+00  0.00000000000E+00 -0.43818507659E+03  0.43818507659E+03  0.25500000920E-02 0. -1.
    10030    2    1    2    0    0  0.00000000000E+00  0.00000000000E+00  0.51542786612E+03  0.13917980193E+04  0.12928402227E+04 0.  0.
        5    1    3    3  502    0 -0.42537769342E+03  0.31878633126E+03  0.65365050954E+03  0.84252714240E+03  0.46999998093E+01 0.  1.
       -5    1    3    3    0  502  0.42537769342E+03 -0.31878633126E+03 -0.13822264342E+03  0.54927087690E+03  0.46999998093E+01 0. -1.
</event>
<event>
 5   0  0.6671239E-05  0.1300221E+04  0.7818609E-02  0.9029390E-01
       -2   -1    0    0    0  501  0.00000000000E+00  0.00000000000E+00  0.34715422675E+03  0.34715422676E+03  0.25500000920E-02 0. -1.
        2   -1    0    0  501    0  0.00000000000E+00  0.00000000000E+00 -0.12174525218E+04  0.12174525218E+04  0.25500000920E-02 0.  1.
    10030    2    1    2    0    0  0.00000000000E+00  0.00000000000E+00 -0.87029829502E+03  0.15646067485E+04  0.13002211947E+04 0.  0.
        1    1    3    3  502    0 -0.17201935230E+03  0.34852551207E+03 -0.10622527961E+04  0.11311240838E+04  0.50400001928E-02 0.  1.
       -1    1    3    3    0  502  0.17201935230E+03 -0.34852551207E+03  0.19195450105E+03  0.43348266474E+03  0.50400001928E-02 0. -1.
</event>
<event>
 5   0  0.6618060E-05  0.1300130E+04  0.7818609E-02  0.9029462E-01
       -2   -1    0    0    0  501  0.00000000000E+00  0.00000000000E+00  0.27594874760E+03  0.27594874761E+03  0.25500000920E-02 0.  1.
        2   -1    0    0  501    0  0.00000000000E+00  0.00000000000E+00 -0.15313881299E+04  0.15313881299E+04  0.25500000920E-02 0. -1.
    10030    2    1    2    0    0  0.00000000000E+00  0.00000000000E+00 -0.12554393823E+04  0.18073368775E+04  0.13001302036E+04 0.  0.
        2    1    3    3  502    0  0.31929376293E+03 -0.50250199030E+03 -0.99055930631E+03  0.11557095209E+04  0.25500000920E-02 0. -1.
       -2    1    3    3    0  502 -0.31929376293E+03  0.50250199030E+03 -0.26488007602E+03  0.65162735668E+03  0.25500000920E-02 0.  1.
</event>
<event>
 5   0  0.6671239E-05  0.1297078E+04  0.7818609E-02  0.9031886E-01
       -2   -1    0    0    0  501  0.00000000000E+00  0.00000000000E+00  0.37582590444E+03  0.37582590445E+03  0.25500000920E-02 0.  1.
        2   -1    0    0  501    0  0.00000000000E+00  0.00000000000E+00 -0.11191424186E+04  0.11191424186E+04  0.25500000920E-02 0. -1.
    10030    2    1    2    0    0  0.00000000000E+00  0.00000000000E+00 -0.74331651412E+03  0.14949683230E+04  0.12970778106E+04 0.  0.
        1    1    3    3  502    0 -0.49310419707E+03 -0.56254265352E+02 -0.85282736326E+03  0.98672731952E+03  0.50400001928E-02 0. -1.
       -1    1    3    3    0  502  0.49310419707E+03  0.56254265352E+02  0.10951084914E+03  0.50824100350E+03  0.50400001928E-02 0.  1.
</event>
<event>
 5   0  0.3551277E-05  0.1298444E+04  0.7818609E-02  0.9030800E-01
        1   -1    0    0  501    0  0.00000000000E+00  0.00000000000E+00  0.98895642937E+03  0.98895642938E+03  0.50400001928E-02 0. -1.
       -1   -1    0    0    0  501  0.00000000000E+00  0.00000000000E+00 -0.42619564377E+03  0.42619564380E+03  0.50400001928E-02 0.  1.
    10030    2    1    2    0    0  0.00000000000E+00  0.00000000000E+00  0.56276078559E+03  0.14151520732E+04  0.12984435638E+04 0.  0.
        4    1    3    3  502    0 -0.24879067927E+03 -0.57442044393E+03  0.46899127692E+03  0.78218289372E+03  0.12699999809E+01 0. -1.
       -4    1    3    3    0  502  0.24879067927E+03  0.57442044393E+03  0.93769508670E+02  0.63296917946E+03  0.12699999809E+01 0.  1.
</event>
<event>
 5   0  0.3551277E-05  0.1297436E+04  0.7818609E-02  0.9031601E-01
        1   -1    0    0  501    0  0.00000000000E+00  0.00000000000E+00  0.21496640624E+04  0.21496640624E+04  0.50400001928E-02 0.  1.
       -1   -1    0    0    0  501  0.00000000000E+00  0.00000000000E+00 -0.19576787026E+03  0.19576787033E+03  0.50400001928E-02 0. -1.
    10030    2    1    2    0    0  0.00000000000E+00  0.00000000000E+00  0.19538961921E+04  0.23454319327E+04  0.12974361724E+04 0.  0.
        4    1    3    3  502    0  0.44033118518E+03  0.22792266505E+02  0.11675366854E+03  0.45611848469E+03  0.12699999809E+01 0. -1.
       -4    1    3    3    0  502 -0.44033118518E+03 -0.22792266505E+02  0.18371425236E+04  0.18893134480E+04  0.12699999809E+01 0.  1.
</event>
<event>
 5   0  0.3551277E-05  0.1299954E+04  0.7818609E-02  0.9029602E-01
       -1   -1    0    0    0  501  0.00000000000E+00  0.00000000000E+00  0.44666037555E+03  0.44666037558E+03  0.50400001928E-02 0. -1.
        1   -1    0    0  501    0  0.00000000000E+00  0.00000000000E+00 -0.94584172027E+03  0.94584172029E+03  0.50400001928E-02 0.  1.
    10030    2    1    2    0    0  0.00000000000E+00  0.00000000000E+00 -0.49918134473E+03  0.13925020959E+04  0.12999538731E+04 0.  0.
        4    1    3    3  502    0  0.50399085487E+02 -0.58272011971E+03 -0.55326145538E+03  0.80511033818E+03  0.12699999809E+01 0.  1.
       -4    1    3    3    0  502 -0.50399085487E+02  0.58272011971E+03  0.54080110655E+02  0.58739175769E+03  0.12699999809E+01 0. -1.
</event>
<event>
 5   0  0.6742824E-05  0.1300282E+04  0.7818609E-02  0.9029342E-01
       -2   -1    0    0    0  501  0.00000000000E+00  0.00000000000E+00  0.36040800884E+03  0.36040800885E+03  0.25500000920E-02 0.  1.
        2   -1    0    0  501    0  0.00000000000E+00  0.00000000000E+00 -0.11727906225E+04  0.11727906225E+04  0.25500000920E-02 0. -1.
    10030    2    1    2    0    0  0.00000000000E+00  0.00000000000E+00 -0.81238261364E+03  0.15331986313E+04  0.13002817126E+04 0.  0.
        4    1    3    3  502    0  0.55591843167E+03 -0.23854950763E+03 -0.68703760207E+03  0.91540889761E+03  0.12699999809E+01 0. -1.
       -4    1    3    3    0  502 -0.55591843167E+03  0.23854950763E+03 -0.12534501156E+03  0.61778973372E+03  0.12699999809E+01 0.  1.
</event>
<event>
 5   0  0.3552698E-05  0.1299925E+04  0.7818609E-02  0.9029625E-01
       -1   -1    0    0    0  501  0.00000000000E+00  0.00000000000E+00  0.34410210517E+03  0.34410210520E+03  0.50400001928E-02 0. -1.
        1   -1    0    0  501    0  0.00000000000E+00  0.00000000000E+00 -0.12276918131E+04  0.12276918131E+04  0.50400001928E-02 0.  1.
    10030    2    1    2    0    0  0.00000000000E+00  0.00000000000E+00 -0.88358970794E+03  0.15717939183E+04  0.12999251323E+04 0.  0.
        5    1    3    3  502    0  0.55677003200E+03 -0.32826617736E+03 -0.35909718905E+03  0.73940816395E+03  0.46999998093E+01 0. -1.
       -5    1    3    3    0  502 -0.55677003200E+03  0.32826617736E+03 -0.52449251889E+03  0.83238575438E+03  0.46999998093E+01 0.  1.
</event>
<event>
 5   0  0.3718559E-05  0.1301608E+04  0.7818609E-02  0.9028291E-01
       -1   -1    0    0    0  501  0.00000000000E+00  0.00000000000E+00  0.22957384643E+03  0.22957384648E+03  0.50400001928E-02 0. -1.
        1   -1    0    0  501    0  0.00000000000E+00  0.00000000000E+00 -0.18449217573E+04  0.18449217573E+04  0.50400001928E-02 0.  1.
    10030    2    1    2    0    0  0.00000000000E+00  0.00000000000E+00 -0.16153479108E+04  0.20744956038E+04  0.13016079045E+04 0.  0.
        2    1    3    3  502    0  0.20821207830E+03 -0.38501101735E+03 -0.40066965664E+02  0.43953511211E+03  0.25500000920E-02 0. -1.
       -2    1    3    3    0  502 -0.20821207830E+03  0.38501101735E+03 -0.15752809452E+04  0.16349604917E+04  0.25500000920E-02 0.  1.
</event>
<event>
 5   0  0.3551277E-05  0.1300582E+04  0.7818609E-02  0.9029104E-01
        1   -1    0    0  501    0  0.00000000000E+00  0.00000000000E+00  0.14544844676E+04  0.14544844676E+04  0.50400001928E-02 0.  1.
       -1   -1    0    0    0  501  0.00000000000E+00  0.00000000000E+00 -0.29074103921E+03  0.29074103925E+03  0.50400001928E-02 0. -1.
    10030    2    1    2    0    0  0.00000000000E+00  0.00000000000E+00  0.11637434284E+04  0.17452255069E+04  0.13005819093E+04 0.  0.
        4    1    3    3  502    0  0.34793634374E+03 -0.54900772460E+03  0.60896081561E+03  0.89067618628E+03  0.12699999809E+01 0.  1.
       -4    1    3    3    0  502 -0.34793634374E+03  0.54900772460E+03  0.55478261281E+03  0.85454932060E+03  0.12699999809E+01 0. -1.
</event>
<event>
 5   0  0.3551277E-05  0.1299878E+04  0.7818609E-02  0.9029662E-01
       -1   -1    0    0    0  501  0.00000000000E+00  0.00000000000E+00  0.68316837641E+03  0.68316837642E+03  0.50400001928E-02 0.  1.
        1   -1    0    0  501    0  0.00000000000E+00  0.00000000000E+00 -0.61832598458E+03  0.61832598460E+03  0.50400001928E-02 0. -1.
    10030    2    1    2    0    0  0.00000000000E+00  0.00000000000E+00  0.64842391831E+02  0.13014943610E+04  0.12998780850E+04 0.  0.
        4    1    3    3  502    0  0.17364052983E+03 -0.25717073098E+03  0.60421036949E+03  0.67923457066E+03  0.12699999809E+01 0.  1.
       -4    1    3    3    0  502 -0.17364052983E+03  0.25717073098E+03 -0.53936797766E+03  0.62225979036E+03  0.12699999809E+01 0. -1.
</event>
<event>
 5   0  0.6458698E-05  0.1300004E+04  0.7818609E-02  0.9029562E-01
        2   -1    0    0  501    0  0.00000000000E+00  0.00000000000E+00  0.38454005399E+03  0.38454005400E+03  0.25500000920E-02 0.  1.
       -2   -1    0    0    0  501  0.00000000000E+00  0.00000000000E+00 -0.10987227044E+04  0.10987227044E+04  0.25500000920E-02 0. -1.
    10030    2    1    2    0    0  0.00000000000E+00  0.00000000000E+00 -0.71418265042E+03  0.14832627584E+04  0.13000044432E+04 0.  0.
        3    1    3    3  502    0  0.15869414342E+03  0.22361763794E+03  0.31531923457E+03  0.41786948805E+03  0.10100000352E+00 0.  1.
       -3    1    3    3    0  502 -0.15869414342E+03 -0.22361763794E+03 -0.10295018850E+04  0.10653932704E+04  0.10100000352E+00 0. -1.
</event>
<event>
 5   0  0.3718559E-05  0.1300315E+04  0.7818609E-02  0.9029315E-01
        1   -1    0    0  501    0  0.00000000000E+00  0.00000000000E+00  0.10641131809E+04  0.10641131809E+04  0.50400001928E-02 0.  1.
       -1   -1    0    0    0  501  0.00000000000E+00  0.00000000000E+00 -0.39723678032E+03  0.39723678035E+03  0.50400001928E-02 0. -1.
    10030    2    1    2    0    0  0.00000000000E+00  0.00000000000E+00  0.66687640059E+03  0.14613499613E+04  0.13003151832E+04 0.  0.
        2    1    3    3  502    0  0.36974075879E+03  0.41911211301E+03 -0.39876797500E+02  0.56031540311E+03  0.25500000920E-02 0. -1.
       -2    1    3    3    0  502 -0.36974075879E+03 -0.41911211301E+03  0.70675319809E+03  0.90103455816E+03  0.25500000920E-02 0.  1.
</event>
<event>
 5   0  0.6458698E-05  0.1299935E+04  0.7818609E-02  0.9029617E-01
        2   -1    0    0  501    0  0.00000000000E+00  0.00000000000E+00  0.92464335181E+03  0.92464335182E+03  0.25500000920E-02 0.  1.
       -2   -1    0    0    0  501  0.00000000000E+00  0.00000000000E+00 -0.45688729515E+03  0.45688729516E+03  0.25500000920E-02 0. -1.
    10030    2    1    2    0    0  0.00000000000E+00  0.00000000000E+00  0.46775605666E+03  0.13815306470E+04  0.12999350753E+04 0.  0.
        3    1    3    3  502    0 -0.37108765053E+03  0.41213476565E+03 -0.12636252565E+03  0.56879575202E+03  0.10100000352E+00 0. -1.
       -3    1    3    3    0  502  0.37108765053E+03 -0.41213476565E+03  0.59411858231E+03  0.81273489495E+03  0.10100000352E+00 0.  1.
</event>
<event>
 5   0  0.3552698E-05  0.1300023E+04  0.7818609E-02  0.9029547E-01
        1   -1    0    0  501    0  0.00000000000E+00  0.00000000000E+00  0.14623281071E+04  0.14623281071E+04  0.50400001928E-02 0. -1.
       -1   -1    0    0    0  501  0.00000000000E+00  0.00000000000E+00 -0.28893315052E+03  0.28893315057E+03  0.50400001928E-02 0.  1.
    10030    2    1    2    0    0  0.00000000000E+00  0.00000000000E+00  0.11733949566E+04  0.17512612577E+04  0.13000231800E+04 0.  0.
        5    1    3    3  502    0 -0.35856221467E+03  0.22291365636E+03  0.12524370051E+04  0.13216950865E+04  0.46999998093E+01 0. -1.
       -5    1    3    3    0  502  0.35856221467E+03 -0.22291365636E+03 -0.79042048508E+02  0.42956617117E+03  0.46999998093E+01 0.  1.
</event>
<event>
 5   0  0.6458698E-05  0.1298017E+04  0.7818609E-02  0.9031139E-01
       -2   -1    0    0    0  501  0.00000000000E+00  0.00000000000E+00  0.22131870215E+03  0.22131870216E+03  0.25500000920E-02 0.  1.
        2   -1    0    0  501    0  0.00000000000E+00  0.00000000000E+00 -0.19031922410E+04  0.19031922410E+04  0.25500000920E-02 0. -1.
    10030    2    1    2    0    0  0.00000000000E+00  0.00000000000E+00 -0.16818735388E+04  0.21245109431E+04  0.12980170056E+04 0.  0.
        3    1    3    3  502    0 -0.63914158880E+02 -0.22458985251E+03  0.15018267037E+03  0.27763369074E+03  0.10100000352E+00 0.  1.
       -3    1    3    3    0  502  0.63914158880E+02  0.22458985251E+03 -0.18320562092E+04  0.18468772524E+04  0.10100000352E+00 0. -1.
</event>
<event>
 5   0  0.3631841E-05  0.1300058E+04  0.7818609E-02  0.9029519E-01
       -1   -1    0    0    0  501  0.00000000000E+00  0.00000000000E+00  0.35297437628E+03  0.35297437631E+03  0.50400001928E-02 0. -1.
        1   -1    0    0  501    0  0.00000000000E+00  0.00000000000E+00 -0.11970782685E+04  0.11970782685E+04  0.50400001928E-02 0.  1.
    10030    2    1    2    0    0  0.00000000000E+00  0.00000000000E+00 -0.84410389222E+03  0.15500526448E+04  0.13000583913E+04 0.  0.
        3    1    3    3  502    0 -0.15787944666E+02  0.60660355333E+02 -0.11934665813E+04  0.11951114713E+04  0.10100000352E+00 0.  1.
       -3    1    3    3    0  502  0.15787944666E+02 -0.60660355333E+02  0.34936268911E+03  0.35494117351E+03  0.10100000352E+00 0. -1.
</event>
<event>
 5   0  0.3552698E-05  0.1299381E+04  0.7818609E-02  0.9030056E-01
       -1   -1    0    0    0  501  0.00000000000E+00  0.00000000000E+00  0.24221823244E+03  0.24221823249E+03  0.50400001928E-02 0. -1.
        1   -1    0    0  501    0  0.00000000000E+00  0.00000000000E+00 -0.17426351974E+04  0.17426351974E+04  0.50400001928E-02 0.  1.
    10030    2    1    2    0    0  0.00000000000E+00  0.00000000000E+00 -0.15004169649E+04  0.19848534299E+04  0.12993814180E+04 0.  0.
        5    1    3    3  502    0 -0.32647200860E+03 -0.11195455261E+03 -0.15909898878E+04  0.16280014457E+04  0.46999998093E+01 0.  1.
       -5    1    3    3    0  502  0.32647200860E+03  0.11195455261E+03  0.90572922839E+02  0.35685198416E+03  0.46999998093E+01 0. -1.
</event>
<event>
 5   0  0.6688086E-05  0.1299781E+04  0.7818609E-02  0.9029739E-01
        2   -1    0    0  501    0  0.00000000000E+00  0.00000000000E+00  0.51942640061E+03  0.51942640061E+03  0.25500000920E-02 0. -1.
       -2   -1    0    0    0  501  0.00000000000E+00  0.00000000000E+00 -0.81312322325E+03  0.81312322326E+03  0.25500000920E-02 0.  1.
    10030    2    1    2    0    0  0.00000000000E+00  0.00000000000E+00 -0.29369682264E+03  0.13325496239E+04  0.12997810110E+04 0.  0.
        5    1    3    3  502    0 -0.17473173393E+03 -0.17694077519E+03  0.46870202930E+03  0.53060616189E+03  0.46999998093E+01 0. -1.
       -5    1    3    3    0  502  0.17473173393E+03  0.17694077519E+03 -0.76239885194E+03  0.80194346198E+03  0.46999998093E+01 0.  1.
</event>
<event>
 5   0  0.3689707E-05  0.1294842E+04  0.7818609E-02  0.9033666E-01
        1   -1    0    0  501    0  0.00000000000E+00  0.00000000000E+00  0.11059092706E+04  0.11059092706E+04  0.50400001928E-02 0.  1.
       -1   -1    0    0    0  501  0.00000000000E+00  0.00000000000E+00 -0.37901277985E+03  0.37901277988E+03  0.50400001928E-02 0. -1.
    10030    2    1    2    0    0  0.00000000000E+00  0.00000000000E+00  0.72689649079E+03  0.14849220505E+04  0.12948416845E+04 0.  0.
        1    1    3    3  502    0 -0.57439853415E+03  0.16533862568E+02  0.70546856612E+03  0.90988622501E+03  0.50400001928E-02 0.  1.
       -1    1    3    3    0  502  0.57439853415E+03 -0.16533862568E+02  0.21427924668E+02  0.57503582552E+03  0.50400001928E-02 0. -1.
</event>
<event>
 5   0  0.3718559E-05  0.1300037E+04  0.7818609E-02  0.9029536E-01
       -1   -1    0    0    0  501  0.00000000000E+00  0.00000000000E+00  0.46072174260E+03  0.46072174262E+03  0.50400001928E-02 0. -1.
        1   -1    0    0  501    0  0.00000000000E+00  0.00000000000E+00 -0.91709209954E+03  0.91709209956E+03  0.50400001928E-02 0.  1.
    10030    2    1    2    0    0  0.00000000000E+00  0.00000000000E+00 -0.45637035695E+03  0.13778138422E+04  0.13000373383E+04 0.  0.
        2    1    3    3  502    0  0.51696825841E+03  0.28432341458E+03  0.60951858759E+02  0.59313667343E+03  0.25500000920E-02 0. -1.
       -2    1    3    3    0  502 -0.51696825841E+03 -0.28432341458E+03 -0.51732221571E+03  0.78467716875E+03  0.25500000920E-02 0.  1.
</event>
<event>
 5   0  0.6618060E-05  0.1298855E+04  0.7818609E-02  0.9030474E-01
        2   -1    0    0  501    0  0.00000000000E+00  0.00000000000E+00  0.14412289780E+04  0.14412289780E+04  0.25500000920E-02 0.  1.
       -2   -1    0    0    0  501  0.00000000000E+00  0.00000000000E+00 -0.29263627853E+03  0.29263627854E+03  0.25500000920E-02 0. -1.
    10030    2    1    2    0    0  0.00000000000E+00  0.00000000000E+00  0.11485926995E+04  0.17338652566E+04  0.12988547026E+04 0.  0.
        2    1    3    3  502    0 -0.15352504427E+03 -0.57943840977E+03  0.90785794854E+03  0.10878992898E+04  0.25500000920E-02 0.  1.
       -2    1    3    3    0  502  0.15352504427E+03  0.57943840977E+03  0.24073475096E+03  0.64596596680E+03  0.25500000920E-02 0. -1.
</event>
<event>
 5   0  0.6618060E-05  0.1299614E+04  0.7818609E-02  0.9029871E-01
        2   -1    0    0  501    0  0.00000000000E+00  0.00000000000E+00  0.10434115495E+04  0.10434115495E+04  0.25500000920E-02 0.  1.
       -2   -1    0    0    0  501  0.00000000000E+00  0.00000000000E+00 -0.40468153643E+03  0.40468153644E+03  0.25500000920E-02 0. -1.
    10030    2    1    2    0    0  0.00000000000E+00  0.00000000000E+00  0.63873001311E+03  0.14480930860E+04  0.12996143874E+04 0.  0.
        2    1    3    3  502    0 -0.21016194515E+03  0.49890309767E+03 -0.81109285291E+02  0.54740392784E+03  0.25500000920E-02 0. -1.
       -2    1    3    3    0  502  0.21016194515E+03 -0.49890309767E+03  0.71983929840E+03  0.90068915813E+03  0.25500000920E-02 0.  1.
</event>
<event>
 5   0  0.6742824E-05  0.1299681E+04  0.7818609E-02  0.9029819E-01
        2   -1    0    0  501    0  0.00000000000E+00  0.00000000000E+00  0.15273775118E+04  0.15273775118E+04  0.25500000920E-02 0.  1.
       -2   -1    0    0    0  501  0.00000000000E+00  0.00000000000E+00 -0.27648197647E+03  0.27648197648E+03  0.25500000920E-02 0. -1.
    10030    2    1    2    0    0  0.00000000000E+00  0.00000000000E+00  0.12508955354E+04  0.18038594883E+04  0.12996805043E+04 0.  0.
        4    1    3    3  502    0 -0.59548032661E+03  0.25888177616E+03  0.66148433384E+03  0.92691948422E+03  0.12699999809E+01 0.  1.
       -4    1    3    3    0  502  0.59548032661E+03 -0.25888177616E+03  0.58941120153E+03  0.87694000411E+03  0.12699999809E+01 0. -1.
</event>
<event>
 5   0  0.6671239E-05  0.1304266E+04  0.7818609E-02  0.9026189E-01
       -2   -1    0    0    0  501  0.00000000000E+00  0.00000000000E+00  0.54467093979E+03  0.54467093980E+03  0.25500000920E-02 0.  1.
        2   -1    0    0  501    0  0.00000000000E+00  0.00000000000E+00 -0.78079736853E+03  0.78079736854E+03  0.25500000920E-02 0. -1.
    10030    2    1    2    0    0  0.00000000000E+00  0.00000000000E+00 -0.23612642874E+03  0.13254683083E+04  0.13042662865E+04 0.  0.
        1    1    3    3  502    0  0.61847769926E+03  0.18215600497E+03 -0.21754299783E+03  0.68045604601E+03  0.50400001928E-02 0.  1.
       -1    1    3    3    0  502 -0.61847769926E+03 -0.18215600497E+03 -0.18583430911E+02  0.64501226233E+03  0.50400001928E-02 0. -1.
</event>
<event>
 5   0  0.2512000E-05  0.1299075E+04  0.7818609E-02  0.9030299E-01
       -4   -1    0    0    0  501  0.00000000000E+00  0.00000000000E+00  0.16499327680E+04  0.16499332568E+04  0.12699999809E+01 0.  1.
        4   -1    0    0  501    0  0.00000000000E+00  0.00000000000E+00 -0.25570484962E+03  0.25570800343E+03  0.12699999809E+01 0. -1.
    10030    2    1    2    0    0  0.00000000000E+00  0.00000000000E+00  0.13942279184E+04  0.19056412603E+04  0.12990754883E+04 0.  0.
        4    1    3    3  502    0  0.36496896491E+03  0.44859016146E+03  0.26328660465E+03  0.63541870243E+03  0.12699999809E+01 0. -1.
       -4    1    3    3    0  502 -0.36496896491E+03 -0.44859016146E+03  0.11309413138E+04  0.12702225578E+04  0.12699999809E+01 0.  1.
</event>
<event>
 5   0  0.6742824E-05  0.1300420E+04  0.7818609E-02  0.9029232E-01
        2   -1    0    0  501    0  0.00000000000E+00  0.00000000000E+00  0.53344157771E+03  0.53344157771E+03  0.25500000920E-02 0. -1.
       -2   -1    0    0    0  501  0.00000000000E+00  0.00000000000E+00 -0.79253911320E+03  0.79253911320E+03  0.25500000920E-02 0.  1.
    10030    2    1    2    0    0  0.00000000000E+00  0.00000000000E+00 -0.25909753549E+03  0.13259806909E+04  0.13004204165E+04 0.  0.
        4    1    3    3  502    0  0.40260272463E+03  0.13669578750E+03  0.37205226326E+03  0.56497716033E+03  0.12699999809E+01 0. -1.
       -4    1    3    3    0  502 -0.40260272463E+03 -0.13669578750E+03 -0.63114979875E+03  0.76100353058E+03  0.12699999809E+01 0.  1.
</event>
<event>
 5   0  0.6458698E-05  0.1299852E+04  0.7818609E-02  0.9029682E-01
       -2   -1    0    0    0  501  0.00000000000E+00  0.00000000000E+00  0.50772336672E+03  0.50772336673E+03  0.25500000920E-02 0.  1.
        2   -1    0    0  501    0  0.00000000000E+00  0.00000000000E+00 -0.83195714742E+03  0.83195714742E+03  0.25500000920E-02 0. -1.
    10030    2    1    2    0    0  0.00000000000E+00  0.00000000000E+00 -0.32423378069E+03  0.13396805142E+04  0.12998524283E+04 0.  0.
        3    1    3    3  502    0  0.55264271970E+03 -0.11988574112E+03  0.16803814155E+03  0.58993507590E+03  0.10100000352E+00 0.  1.
       -3    1    3    3    0  502 -0.55264271970E+03  0.11988574112E+03 -0.49227192224E+03  0.74974543826E+03  0.10100000352E+00 0. -1.
</event>
<event>
 5   0  0.2512000E-05  0.1307158E+04  0.7818609E-02  0.9023908E-01
       -3   -1    0    0    0  501  0.00000000000E+00  0.00000000000E+00  0.10319320537E+04  0.10319320586E+04  0.10100000352E+00 0. -1.
        3   -1    0    0  501    0  0.00000000000E+00  0.00000000000E+00 -0.41394701740E+03  0.41394702972E+03  0.10100000352E+00 0.  1.
    10030    2    1    2    0    0  0.00000000000E+00  0.00000000000E+00  0.61798503628E+03  0.14458790884E+04  0.13071575395E+04 0.  0.
        2    1    3    3  502    0  0.47803430006E+03 -0.54699791885E+02  0.79826525526E+03  0.93206023251E+03  0.25500000920E-02 0. -1.
       -2    1    3    3    0  502 -0.47803430006E+03  0.54699791885E+02 -0.18028021897E+03  0.51381885585E+03  0.25500000920E-02 0.  1.
</event>
<event>
 5   0  0.2512000E-05  0.1300318E+04  0.7818609E-02  0.9029313E-01
        3   -1    0    0  501    0  0.00000000000E+00  0.00000000000E+00  0.27396715540E+04  0.27396715559E+04  0.10100000352E+00 0.  1.
       -3   -1    0    0    0  501  0.00000000000E+00  0.00000000000E+00 -0.15429104343E+03  0.15429107649E+03  0.10100000352E+00 0. -1.
    10030    2    1    2    0    0  0.00000000000E+00  0.00000000000E+00  0.25853805106E+04  0.28939626323E+04  0.13003181661E+04 0.  0.
        2    1    3    3  502    0  0.47873128993E+03  0.20655987298E+03  0.21571103957E+04  0.22192286697E+04  0.25500000920E-02 0.  1.
       -2    1    3    3    0  502 -0.47873128993E+03 -0.20655987298E+03  0.42827011486E+03  0.67473396267E+03  0.25500000920E-02 0. -1.
</event>
<event>
 5   0  0.3631841E-05  0.1300372E+04  0.7818609E-02  0.9029270E-01
        1   -1    0    0  501    0  0.00000000000E+00  0.00000000000E+00  0.11960156311E+04  0.11960156311E+04  0.50400001928E-02 0. -1.
       -1   -1    0    0    0  501  0.00000000000E+00  0.00000000000E+00 -0.35345848905E+03  0.35345848908E+03  0.50400001928E-02 0.  1.
    10030    2    1    2    0    0  0.00000000000E+00  0.00000000000E+00  0.84255714203E+03  0.15494741202E+04  0.13003720666E+04 0.  0.
        3    1    3    3  502    0 -0.64076908572E+03  0.90351130569E+02  0.34597863478E+03  0.73379123321E+03  0.10100000352E+00 0. -1.
       -3    1    3    3    0  502  0.64076908572E+03 -0.90351130569E+02  0.49657850725E+03  0.81568288696E+03  0.10100000352E+00 0.  1.
</event>
<event>
 5   0  0.6688086E-05  0.1299438E+04  0.7818609E-02  0.9030011E-01
        2   -1    0    0  501    0  0.00000000000E+00  0.00000000000E+00  0.73454832283E+03  0.73454832283E+03  0.25500000920E-02 0. -1.
       -2   -1    0    0    0  501  0.00000000000E+00  0.00000000000E+00 -0.57468614164E+03  0.57468614165E+03  0.25500000920E-02 0.  1.
    10030    2    1    2    0    0  0.00000000000E+00  0.00000000000E+00  0.15986218118E+03  0.13092344645E+04  0.12994379423E+04 0.  0.
        5    1    3    3  502    0 -0.12348713493E+03  0.24888529214E+03  0.67165740006E+03  0.72686911765E+03  0.46999998093E+01 0. -1.
       -5    1    3    3    0  502  0.12348713493E+03 -0.24888529214E+03 -0.51179521887E+03  0.58236534684E+03  0.46999998093E+01 0.  1.
</event>
<event>
 5   0  0.3551277E-05  0.1299464E+04  0.7818609E-02  0.9029991E-01
       -1   -1    0    0    0  501  0.00000000000E+00  0.00000000000E+00  0.42426795468E+03  0.42426795471E+03  0.50400001928E-02 0.  1.
        1   -1    0    0  501    0  0.00000000000E+00  0.00000000000E+00 -0.99501115472E+03  0.99501115473E+03  0.50400001928E-02 0. -1.
    10030    2    1    2    0    0  0.00000000000E+00  0.00000000000E+00 -0.57074320004E+03  0.14192791094E+04  0.12994635009E+04 0.  0.
        4    1    3    3  502    0 -0.91736808357E+01  0.23154861590E+03 -0.94834100449E+03  0.97624340799E+03  0.12699999809E+01 0. -1.
       -4    1    3    3    0  502  0.91736808357E+01 -0.23154861590E+03  0.37759780444E+03  0.44303570145E+03  0.12699999809E+01 0.  1.
</event>
<event>
 5   0  0.6671239E-05  0.1299811E+04  0.7818609E-02  0.9029715E-01
       -2   -1    0    0    0  501  0.00000000000E+00  0.00000000000E+00  0.76242764828E+03  0.76242764828E+03  0.25500000920E-02 0.  1.
        2   -1    0    0  501    0  0.00000000000E+00  0.00000000000E+00 -0.55398962966E+03  0.55398962966E+03  0.25500000920E-02 0. -1.
    10030    2    1    2    0    0  0.00000000000E+00  0.00000000000E+00  0.20843801862E+03  0.13164172779E+04  0.12998107716E+04 0.  0.
        1    1    3    3  502    0  0.10191227325E+03  0.63891436080E+03  0.41957256295E+02  0.64835027822E+03  0.50400001928E-02 0. -1.
       -1    1    3    3    0  502 -0.10191227325E+03 -0.63891436080E+03  0.16648076232E+03  0.66806699973E+03  0.50400001928E-02 0.  1.
</event>
<event>
 5   0  0.2512000E-05  0.1299955E+04  0.7818609E-02  0.9029601E-01
        3   -1    0    0  501    0  0.00000000000E+00  0.00000000000E+00  0.10794466887E+04  0.10794466934E+04  0.10100000352E+00 0.  1.
       -3   -1    0    0    0  501  0.00000000000E+00  0.00000000000E+00 -0.39137717802E+03  0.39137719106E+03  0.10100000352E+00 0. -1.
    10030    2    1    2    0    0  0.00000000000E+00  0.00000000000E+00  0.68806951066E+03  0.14708238845E+04  0.12999550945E+04 0.  0.
        3    1    3    3  502    0 -0.18632116630E+03 -0.58268573307E+03  0.59252107582E+03  0.85165690042E+03  0.10100000352E+00 0.  1.
       -3    1    3    3    0  502  0.18632116630E+03  0.58268573307E+03  0.95548434842E+02  0.61916698405E+03  0.10100000352E+00 0. -1.
</event>
<event>
 5   0  0.6618060E-05  0.1302444E+04  0.7818609E-02  0.9027629E-01
       -2   -1    0    0    0  501  0.00000000000E+00  0.00000000000E+00  0.73780772238E+03  0.73780772238E+03  0.25500000920E-02 0. -1.
        2   -1    0    0  501    0  0.00000000000E+00  0.00000000000E+00 -0.57479758875E+03  0.57479758876E+03  0.25500000920E-02 0.  1.
    10030    2    1    2    0    0  0.00000000000E+00  0.00000000000E+00  0.16301013363E+03  0.13126053111E+04  0.13024440100E+04 0.  0.
        2    1    3    3  502    0 -0.12048216188E+02  0.13116062316E+03  0.72424386180E+03  0.73612325051E+03  0.25500000920E-02 0. -1.
       -2    1    3    3    0  502  0.12048216188E+02 -0.13116062316E+03 -0.56123372818E+03  0.57648206063E+03  0.25500000920E-02 0.  1.
</event>
<event>
 5   0  0.3552698E-05  0.1300775E+04  0.7818609E-02  0.9028951E-01
       -1   -1    0    0    0  501  0.00000000000E+00  0.00000000000E+00  0.33899962668E+03  0.33899962672E+03  0.50400001928E-02 0. -1.
        1   -1    0    0  501    0  0.00000000000E+00  0.00000000000E+00 -0.12478005612E+04  0.12478005612E+04  0.50400001928E-02 0.  1.
    10030    2    1    2    0    0  0.00000000000E+00  0.00000000000E+00 -0.90880093454E+03  0.15868001880E+04  0.13007750374E+04 0.  0.
        5    1    3    3  502    0 -0.60069832960E+03 -0.78569851344E+02 -0.16579921838E+03  0.62811079877E+03  0.46999998093E+01 0. -1.
       -5    1    3    3    0  502  0.60069832960E+03  0.78569851344E+02 -0.74300171616E+03  0.95868938918E+03  0.46999998093E+01 0.  1.
</event>
<event>
 5   0  0.6742824E-05  0.1299922E+04  0.7818609E-02  0.9029627E-01
        2   -1    0    0  501    0  0.00000000000E+00  0.00000000000E+00  0.87963921957E+03  0.87963921957E+03  0.25500000920E-02 0. -1.
       -2   -1    0    0    0  501  0.00000000000E+00  0.00000000000E+00 -0.48025305252E+03  0.48025305253E+03  0.25500000920E-02 0.  1.
    10030    2    1    2    0    0  0.00000000000E+00  0.00000000000E+00  0.39938616704E+03  0.13598922721E+04  0.12999221828E+04 0.  0.
        4    1    3    3  502    0 -0.24400495859E+03 -0.16322543161E+03  0.80633047589E+03  0.85810920668E+03  0.12699999809E+01 0. -1.
       -4    1    3    3    0  502  0.24400495859E+03  0.16322543161E+03 -0.40694430884E+03  0.50178306542E+03  0.12699999809E+01 0.  1.
</event>
<event>
 5   0  0.6688086E-05  0.1299974E+04  0.7818609E-02  0.9029586E-01
       -2   -1    0    0    0  501  0.00000000000E+00  0.00000000000E+00  0.27288106447E+03  0.27288106449E+03  0.25500000920E-02 0. -1.
        2   -1    0    0  501    0  0.00000000000E+00  0.00000000000E+00 -0.15482312933E+04  0.15482312933E+04  0.25500000920E-02 0.  1.
    10030    2    1    2    0    0  0.00000000000E+00  0.00000000000E+00 -0.12753502288E+04  0.18211123578E+04  0.12999738511E+04 0.  0.
        5    1    3    3  502    0 -0.18755937858E+03 -0.68118911638E+02  0.22888473151E+03  0.30369230635E+03  0.46999998093E+01 0. -1.
       -5    1    3    3    0  502  0.18755937858E+03  0.68118911638E+02 -0.15042349603E+04  0.15174200514E+04  0.46999998093E+01 0.  1.
</event>
<event>
 5   0  0.3551277E-05  0.1300350E+04  0.7818609E-02  0.9029288E-01
       -1   -1    0    0    0  501  0.00000000000E+00  0.00000000000E+00  0.10536149274E+04  0.10536149274E+04  0.50400001928E-02 0. -1.
        1   -1    0    0  501    0  0.00000000000E+00  0.00000000000E+00 -0.40121621725E+03  0.40121621728E+03  0.50400001928E-02 0.  1.
    10030    2    1    2    0    0  0.00000000000E+00  0.00000000000E+00  0.65239871017E+03  0.14548311447E+04  0.13003497924E+04 0.  0.
        4    1    3    3  502    0 -0.45788982721E+03 -0.45874650442E+03  0.26899449914E+03  0.70176285357E+03  0.12699999809E+01 0.  1.
       -4    1    3    3    0  502  0.45788982721E+03  0.45874650442E+03  0.38340421102E+03  0.75306829114E+03  0.12699999809E+01 0. -1.
</event>
<event>
 5   0  0.6458698E-05  0.1299697E+04  0.7818609E-02  0.9029805E-01
       -2   -1    0    0    0  501  0.00000000000E+00  0.00000000000E+00  0.25406523027E+03  0.25406523028E+03  0.25500000920E-02 0.  1.
        2   -1    0    0  501    0  0.00000000000E+00  0.00000000000E+00 -0.16621844649E+04  0.16621844649E+04  0.25500000920E-02 0. -1.
    10030    2    1    2    0    0  0.00000000000E+00  0.00000000000E+00 -0.14081192346E+04  0.19162496951E+04  0.12996973168E+04 0.  0.
        3    1    3    3  502    0 -0.79567651001E+02 -0.38357431427E+02 -0.16532922269E+04  0.16556501748E+04  0.10100000352E+00 0. -1.
       -3    1    3    3    0  502  0.79567651001E+02  0.38357431427E+02  0.24517299231E+03  0.26059952032E+03  0.10100000352E+00 0.  1.
</event>
<event>
 5   0  0.3552698E-05  0.1300431E+04  0.7818609E-02  0.9029224E-01
       -1   -1    0    0    0  501  0.00000000000E+00  0.00000000000E+00  0.41311226914E+03  0.41311226917E+03  0.50400001928E-02 0. -1.
        1   -1    0    0  501    0  0.00000000000E+00  0.00000000000E+00 -0.10234019216E+04  0.10234019216E+04  0.50400001928E-02 0.  1.
    10030    2    1    2    0    0  0.00000000000E+00  0.00000000000E+00 -0.61028965242E+03  0.14365141907E+04  0.13004305288E+04 0.  0.
        5    1    3    3  502    0 -0.47703700291E+03 -0.27941389668E+03  0.72897859888E+02  0.55764918701E+03  0.46999998093E+01 0. -1.
       -5    1    3    3    0  502  0.47703700291E+03  0.27941389668E+03 -0.68318751230E+03  0.87886500372E+03  0.46999998093E+01 0.  1.
</event>
<event>
 5   0  0.3631841E-05  0.1300112E+04  0.7818609E-02  0.9029476E-01
       -1   -1    0    0    0  501  0.00000000000E+00  0.00000000000E+00  0.51675022152E+03  0.51675022154E+03  0.50400001928E-02 0. -1.
        1   -1    0    0  501    0  0.00000000000E+00  0.00000000000E+00 -0.81775044489E+03  0.81775044491E+03  0.50400001928E-02 0.  1.
    10030    2    1    2    0    0  0.00000000000E+00  0.00000000000E+00 -0.30100022338E+03  0.13345006665E+04  0.13001118776E+04 0.  0.
        3    1    3    3  502    0  0.62456845555E+03 -0.14395295984E+03 -0.39166867952E+02  0.64213881993E+03  0.10100000352E+00 0. -1.
       -3    1    3    3    0  502 -0.62456845555E+03  0.14395295984E+03 -0.26183335542E+03  0.69236184653E+03  0.10100000352E+00 0.  1.
</event>
<event>
 5   0  0.3631841E-05  0.1299516E+04  0.7818609E-02  0.9029949E-01
       -1   -1    0    0    0  501  0.00000000000E+00  0.00000000000E+00  0.17386080129E+04  0.17386080129E+04  0.50400001928E-02 0.  1.
        1   -1    0    0  501    0  0.00000000000E+00  0.00000000000E+00 -0.24282953237E+03  0.24282953242E+03  0.50400001928E-02 0. -1.
    10030    2    1    2    0    0  0.00000000000E+00  0.00000000000E+00  0.14957784805E+04  0.19814375453E+04  0.12995158649E+04 0.  0.
        3    1    3    3  502    0 -0.12668763611E+03  0.18052691114E+03  0.16797920833E+04  0.16942081266E+04  0.10100000352E+00 0.  1.
       -3    1    3    3    0  502  0.12668763611E+03 -0.18052691114E+03 -0.18401360279E+03  0.28722941876E+03  0.10100000352E+00 0. -1.
</event>
<event>
 5   0  0.3551277E-05  0.1298735E+04  0.7818609E-02  0.9030569E-01
       -1   -1    0    0    0  501  0.00000000000E+00  0.00000000000E+00  0.71400361713E+03  0.71400361715E+03  0.50400001928E-02 0.  1.
        1   -1    0    0  501    0  0.00000000000E+00  0.00000000000E+00 -0.59058245648E+03  0.59058245650E+03  0.50400001928E-02 0. -1.
    10030    2    1    2    0    0  0.00000000000E+00  0.00000000000E+00  0.12342116065E+03  0.13045860736E+04  0.12987347846E+04 0.  0.
        4    1    3    3  502    0  0.25263323525E+03  0.33789520657E+03  0.55757382632E+03  0.69920448144E+03  0.12699999809E+01 0.  1.
       -4    1    3    3    0  502 -0.25263323525E+03 -0.33789520657E+03 -0.43415266566E+03  0.60538159221E+03  0.12699999809E+01 0. -1.
</event>
<event>
 5   0  0.6458698E-05  0.1300272E+04  0.7818609E-02  0.9029350E-01
        2   -1    0    0  501    0  0.00000000000E+00  0.00000000000E+00  0.11088269240E+04  0.11088269240E+04  0.25500000920E-02 0. -1.
       -2   -1    0    0    0  501  0.00000000000E+00  0.00000000000E+00 -0.38119273130E+03  0.38119273130E+03  0.25500000920E-02 0.  1.
    10030    2    1    2    0    0  0.00000000000E+00  0.00000000000E+00  0.72763419266E+03  0.14900196553E+04  0.13002719157E+04 0.  0.
        3    1    3    3  502    0 -0.15328412398E+03  0.40722644982E+03 -0.18973595744E+03  0.47468847452E+03  0.10100000352E+00 0.  1.
       -3    1    3    3    0  502  0.15328412398E+03 -0.40722644982E+03  0.91737015010E+03  0.10153311807E+04  0.10100000352E+00 0. -1.
</event>
<event>
 5   0  0.3552698E-05  0.1299391E+04  0.7818609E-02  0.9030048E-01
       -1   -1    0    0    0  501  0.00000000000E+00  0.00000000000E+00  0.25044128602E+03  0.25044128607E+03  0.50400001928E-02 0.  1.
        1   -1    0    0  501    0  0.00000000000E+00  0.00000000000E+00 -0.16854432113E+04  0.16854432113E+04  0.50400001928E-02 0. -1.
    10030    2    1    2    0    0  0.00000000000E+00  0.00000000000E+00 -0.14350019253E+04  0.19358844974E+04  0.12993914967E+04 0.  0.
        5    1    3    3  502    0  0.13489525563E+03  0.50198198068E+03 -0.13684609004E+03  0.53752356347E+03  0.46999998093E+01 0.  1.
       -5    1    3    3    0  502 -0.13489525563E+03 -0.50198198068E+03 -0.12981558352E+04  0.13983609339E+04  0.46999998093E+01 0. -1.
</event>
<event>
 5   0  0.6458698E-05  0.1298949E+04  0.7818609E-02  0.9030399E-01
       -2   -1    0    0    0  501  0.00000000000E+00  0.00000000000E+00  0.70186202501E+03  0.70186202501E+03  0.25500000920E-02 0.  1.
        2   -1    0    0  501    0  0.00000000000E+00  0.00000000000E+00 -0.60099675838E+03  0.60099675839E+03  0.25500000920E-02 0. -1.
    10030    2    1    2    0    0  0.00000000000E+00  0.00000000000E+00  0.10086526662E+03  0.13028587834E+04  0.12989485007E+04 0.  0.
        3    1    3    3  502    0 -0.39743609294E+03  0.16295439361E+02  0.56539401006E+03  0.69129688711E+03  0.10100000352E+00 0.  1.
       -3    1    3    3    0  502  0.39743609294E+03 -0.16295439361E+02 -0.46452874344E+03  0.61156189629E+03  0.10100000352E+00 0. -1.
</event>
<event>
 5   0  0.6688086E-05  0.1300723E+04  0.7818609E-02  0.9028992E-01
       -2   -1    0    0    0  501  0.00000000000E+00  0.00000000000E+00  0.76549138662E+03  0.76549138663E+03  0.25500000920E-02 0.  1.
        2   -1    0    0  501    0  0.00000000000E+00  0.00000000000E+00 -0.55254695785E+03  0.55254695786E+03  0.25500000920E-02 0. -1.
    10030    2    1    2    0    0  0.00000000000E+00  0.00000000000E+00  0.21294442877E+03  0.13180383445E+04  0.13007227790E+04 0.  0.
        5    1    3    3  502    0 -0.44918897233E+03 -0.41245990326E+03  0.33543133091E+03  0.69601018126E+03  0.46999998093E+01 0. -1.
       -5    1    3    3    0  502  0.44918897233E+03  0.41245990326E+03 -0.12248690214E+03  0.62202816323E+03  0.46999998093E+01 0.  1.
</event>
<event>
 5   0  0.3718559E-05  0.1294511E+04  0.7818609E-02  0.9033929E-01
       -1   -1    0    0    0  501  0.00000000000E+00  0.00000000000E+00  0.64006848802E+03  0.64006848804E+03  0.50400001928E-02 0. -1.
        1   -1    0    0  501    0  0.00000000000E+00  0.00000000000E+00 -0.65452324803E+03  0.65452324805E+03  0.50400001928E-02 0.  1.
    10030    2    1    2    0    0  0.00000000000E+00  0.00000000000E+00 -0.14454760009E+02  0.12945917361E+04  0.12945110363E+04 0.  0.
        2    1    3    3  502    0 -0.32731681670E+03 -0.39298825118E+03  0.38948821385E+03  0.64286634132E+03  0.25500000920E-02 0. -1.
       -2    1    3    3    0  502  0.32731681670E+03  0.39298825118E+03 -0.40394297386E+03  0.65172539478E+03  0.25500000920E-02 0.  1.
</event>
<event>
 5   0  0.3551277E-05  0.1300412E+04  0.7818609E-02  0.9029239E-01
       -1   -1    0    0    0  501  0.00000000000E+00  0.00000000000E+00  0.59490194145E+03  0.59490194147E+03  0.50400001928E-02 0.  1.
        1   -1    0    0  501    0  0.00000000000E+00  0.00000000000E+00 -0.71065078786E+03  0.71065078788E+03  0.50400001928E-02 0. -1.
    10030    2    1    2    0    0  0.00000000000E+00  0.00000000000E+00 -0.11574884641E+03  0.13055527293E+04  0.13004115247E+04 0.  0.
        4    1    3    3  502    0 -0.28475660403E+03 -0.36698781307E+03 -0.51464518813E+03  0.69327315038E+03  0.12699999809E+01 0. -1.
       -4    1    3    3    0  502  0.28475660403E+03  0.36698781307E+03  0.39889634172E+03  0.61227957896E+03  0.12699999809E+01 0.  1.
</event>
<event>
 5   0  0.6618060E-05  0.1298406E+04  0.7818609E-02  0.9030830E-01
        2   -1    0    0  501    0  0.00000000000E+00  0.00000000000E+00  0.87583285210E+03  0.87583285211E+03  0.25500000920E-02 0. -1.
       -2   -1    0    0    0  501  0.00000000000E+00  0.00000000000E+00 -0.48121577872E+03  0.48121577873E+03  0.25500000920E-02 0.  1.
    10030    2    1    2    0    0  0.00000000000E+00  0.00000000000E+00  0.39461707338E+03  0.13570486308E+04  0.12984060813E+04 0.  0.
        2    1    3    3  502    0 -0.56467682898E+03 -0.31941145777E+03  0.17211621278E+03  0.67119862280E+03  0.25500000920E-02 0. -1.
       -2    1    3    3    0  502  0.56467682898E+03  0.31941145777E+03  0.22250086060E+03  0.68585000803E+03  0.25500000920E-02 0.  1.
</event>
<event>
 5   0  0.6458698E-05  0.1299930E+04  0.7818609E-02  0.9029621E-01
       -2   -1    0    0    0  501  0.00000000000E+00  0.00000000000E+00  0.43923263950E+03  0.43923263951E+03  0.25500000920E-02 0.  1.
        2   -1    0    0  501    0  0.00000000000E+00  0.00000000000E+00 -0.96180138960E+03  0.96180138960E+03  0.25500000920E-02 0. -1.
    10030    2    1    2    0    0  0.00000000000E+00  0.00000000000E+00 -0.52256875009E+03  0.14010340291E+04  0.12999300951E+04 0.  0.
        3    1    3    3  502    0 -0.45362214042E+03 -0.41851701565E+03 -0.41658461957E+02  0.61859920492E+03  0.10100000352E+00 0.  1.
       -3    1    3    3    0  502  0.45362214042E+03  0.41851701565E+03 -0.48091028814E+03  0.78243482419E+03  0.10100000352E+00 0. -1.
</event>
<event>
 5   0  0.3689707E-05  0.1300444E+04  0.7818609E-02  0.9029213E-01
        1   -1    0    0  501    0  0.00000000000E+00  0.00000000000E+00  0.19703041876E+04  0.19703041876E+04  0.50400001928E-02 0. -1.
       -1   -1    0    0    0  501  0.00000000000E+00  0.00000000000E+00 -0.21458031804E+03  0.21458031810E+03  0.50400001928E-02 0.  1.
    10030    2    1    2    0    0  0.00000000000E+00  0.00000000000E+00  0.17557238695E+04  0.21848845057E+04  0.13004437693E+04 0.  0.
        1    1    3    3  502    0  0.37843497886E+02 -0.63332633013E+03  0.11169697036E+04  0.12845838585E+04  0.50400001928E-02 0.  1.
       -1    1    3    3    0  502 -0.37843497886E+02  0.63332633013E+03  0.63875416592E+03  0.90030064715E+03  0.50400001928E-02 0. -1.
</event>
<event>
 5   0  0.6688086E-05  0.1300304E+04  0.7818609E-02  0.9029324E-01
       -2   -1    0    0    0  501  0.00000000000E+00  0.00000000000E+00  0.37382937209E+03  0.37382937210E+03  0.25500000920E-02 0. -1.
        2   -1    0    0  501    0  0.00000000000E+00  0.00000000000E+00 -0.11307234563E+04  0.11307234563E+04  0.25500000920E-02 0.  1.
    10030    2    1    2    0    0  0.00000000000E+00  0.00000000000E+00 -0.75689408424E+03  0.15045528284E+04  0.13003040255E+04 0.  0.
        5    1    3    3  502    0  0.10305569519E+03 -0.27157715128E+03 -0.10514455891E+04  0.10908412085E+04  0.46999998093E+01 0.  1.
       -5    1    3    3    0  502 -0.10305569519E+03  0.27157715128E+03  0.29455150487E+03  0.41371161988E+03  0.46999998093E+01 0. -1.
</event>
<event>
 5   0  0.3551277E-05  0.1300522E+04  0.7818609E-02  0.9029151E-01
        1   -1    0    0  501    0  0.00000000000E+00  0.00000000000E+00  0.10170196552E+04  0.10170196552E+04  0.50400001928E-02 0. -1.
       -1   -1    0    0    0  501  0.00000000000E+00  0.00000000000E+00 -0.41576337993E+03  0.41576337996E+03  0.50400001928E-02 0.  1.
    10030    2    1    2    0    0  0.00000000000E+00  0.00000000000E+00  0.60125627525E+03  0.14327830351E+04  0.13005222479E+04 0.  0.
        4    1    3    3  502    0 -0.93991743982E+02 -0.29261409194E+02 -0.40750525056E+03  0.41922883982E+03  0.12699999809E+01 0.  1.
       -4    1    3    3    0  502  0.93991743982E+02  0.29261409194E+02  0.10087615258E+04  0.10135541953E+04  0.12699999809E+01 0. -1.
</event>
<event>
 5   0  0.3552698E-05  0.1299910E+04  0.7818609E-02  0.9029637E-01
        1   -1    0    0  501    0  0.00000000000E+00  0.00000000000E+00  0.34484064192E+03  0.34484064196E+03  0.50400001928E-02 0. -1.
       -1   -1    0    0    0  501  0.00000000000E+00  0.00000000000E+00 -0.12250334503E+04  0.12250334503E+04  0.50400001928E-02 0.  1.
    10030    2    1    2    0    0  0.00000000000E+00  0.00000000000E+00 -0.88019280834E+03  0.15698740922E+04  0.12999097221E+04 0.  0.
        5    1    3    3  502    0 -0.40869235306E+03 -0.47156046789E+03 -0.22064237177E+03  0.66189414603E+03  0.46999998093E+01 0. -1.
       -5    1    3    3    0  502  0.40869235306E+03  0.47156046789E+03 -0.65955043656E+03  0.90797994620E+03  0.46999998093E+01 0.  1.
</event>
<event>
 5   0  0.6618060E-05  0.1300014E+04  0.7818609E-02  0.9029554E-01
       -2   -1    0    0    0  501  0.00000000000E+00  0.00000000000E+00  0.57030168228E+03  0.57030168228E+03  0.25500000920E-02 0. -1.
        2   -1    0    0  501    0  0.00000000000E+00  0.00000000000E+00 -0.74085228252E+03  0.74085228253E+03  0.25500000920E-02 0.  1.
    10030    2    1    2    0    0  0.00000000000E+00  0.00000000000E+00 -0.17055060025E+03  0.13111539648E+04  0.13000143123E+04 0.  0.
        2    1    3    3  502    0 -0.49954472197E+03 -0.17562968203E+03  0.29494123671E+03  0.60611966441E+03  0.25500000920E-02 0. -1.
       -2    1    3    3    0  502  0.49954472197E+03  0.17562968203E+03 -0.46549183696E+03  0.70503430040E+03  0.25500000920E-02 0.  1.
</event>
<event>
 5   0  0.3689707E-05  0.1299755E+04  0.7818609E-02  0.9029760E-01
       -1   -1    0    0    0  501  0.00000000000E+00  0.00000000000E+00  0.58920269132E+03  0.58920269134E+03  0.50400001928E-02 0.  1.
        1   -1    0    0  501    0  0.00000000000E+00  0.00000000000E+00 -0.71679997495E+03  0.71679997496E+03  0.50400001928E-02 0. -1.
    10030    2    1    2    0    0  0.00000000000E+00  0.00000000000E+00 -0.12759728362E+03  0.13060026663E+04  0.12997545528E+04 0.  0.
        1    1    3    3  502    0 -0.49999779557E+02  0.57569185788E+03  0.23498474909E+03  0.62381000755E+03  0.50400001928E-02 0.  1.
       -1    1    3    3    0  502  0.49999779557E+02 -0.57569185788E+03 -0.36258203271E+03  0.68219265876E+03  0.50400001928E-02 0. -1.
</event>
<event>
 5   0  0.3718559E-05  0.1300251E+04  0.7818609E-02  0.9029366E-01
        1   -1    0    0  501    0  0.00000000000E+00  0.00000000000E+00  0.12232897519E+04  0.12232897519E+04  0.50400001928E-02 0. -1.
       -1   -1    0    0    0  501  0.00000000000E+00  0.00000000000E+00 -0.34551377348E+03  0.34551377352E+03  0.50400001928E-02 0.  1.
    10030    2    1    2    0    0  0.00000000000E+00  0.00000000000E+00  0.87777597838E+03  0.15688035254E+04  0.13002514499E+04 0.  0.
        2    1    3    3  502    0 -0.12226615164E+03 -0.41696851905E+03  0.10223485110E+04  0.11108592330E+04  0.25500000920E-02 0. -1.
       -2    1    3    3    0  502  0.12226615164E+03  0.41696851905E+03 -0.14457253260E+03  0.45794429236E+03  0.25500000920E-02 0.  1.
</event>
<event>
 5   0  0.6688086E-05  0.1300210E+04  0.7818609E-02  0.9029399E-01
        2   -1    0    0  501    0  0.00000000000E+00  0.00000000000E+00  0.65853040612E+03  0.65853040612E+03  0.25500000920E-02 0. -1.
       -2   -1    0    0    0  501  0.00000000000E+00  0.00000000000E+00 -0.64178743373E+03  0.64178743373E+03  0.25500000920E-02 0.  1.
    10030    2    1    2    0    0  0.00000000000E+00  0.00000000000E+00  0.16742972390E+02  0.13003178399E+04  0.13002100436E+04 0.  0.
        5    1    3    3  502    0 -0.45814797369E+03 -0.14315970498E+03  0.44683705667E+03  0.65580462955E+03  0.46999998093E+01 0. -1.
       -5    1    3    3    0  502  0.45814797369E+03  0.14315970498E+03 -0.43009408428E+03  0.64451321031E+03  0.46999998093E+01 0.  1.
</event>
<event>
 5   0  0.6742824E-05  0.1300328E+04  0.7818609E-02  0.9029305E-01
        2   -1    0    0  501    0  0.00000000000E+00  0.00000000000E+00  0.63043168257E+03  0.63043168258E+03  0.25500000920E-02 0.  1.
       -2   -1    0    0    0  501  0.00000000000E+00  0.00000000000E+00 -0.67051411131E+03  0.67051411131E+03  0.25500000920E-02 0. -1.
    10030    2    1    2    0    0  0.00000000000E+00  0.00000000000E+00 -0.40082428736E+02  0.13009457939E+04  0.13003281730E+04 0.  0.
        4    1    3    3  502    0  0.18973814697E+03  0.45678874479E+02  0.60043445955E+03  0.63135590368E+03  0.12699999809E+01 0.  1.
       -4    1    3    3    0  502 -0.18973814697E+03 -0.45678874479E+02 -0.64051688829E+03  0.66958989021E+03  0.12699999809E+01 0. -1.
</event>
<event>
 5   0  0.3718559E-05  0.1298426E+04  0.7818609E-02  0.9030814E-01
        1   -1    0    0  501    0  0.00000000000E+00  0.00000000000E+00  0.29092355996E+03  0.29092356000E+03  0.50400001928E-02 0.  1.
       -1   -1    0    0    0  501  0.00000000000E+00  0.00000000000E+00 -0.14487579399E+04  0.14487579399E+04  0.50400001928E-02 0. -1.
    10030    2    1    2    0    0  0.00000000000E+00  0.00000000000E+00 -0.11578343799E+04  0.17396814999E+04  0.12984264591E+04 0.  0.
        2    1    3    3  502    0  0.28066631311E+03 -0.48803898036E+02 -0.13605407959E+04  0.13900455594E+04  0.25500000920E-02 0. -1.
       -2    1    3    3    0  502 -0.28066631311E+03  0.48803898036E+02  0.20270641602E+03  0.34963594049E+03  0.25500000920E-02 0.  1.
</event>
<event>
 5   0  0.3631841E-05  0.1300024E+04  0.7818609E-02  0.9029546E-01
       -1   -1    0    0    0  501  0.00000000000E+00  0.00000000000E+00  0.55293021876E+03  0.55293021878E+03  0.50400001928E-02 0.  1.
        1   -1    0    0  501    0  0.00000000000E+00  0.00000000000E+00 -0.76413938187E+03  0.76413938189E+03  0.50400001928E-02 0. -1.
    10030    2    1    2    0    0  0.00000000000E+00  0.00000000000E+00 -0.21120916312E+03  0.13170696007E+04  0.13000242392E+04 0.  0.
        3    1    3    3  502    0 -0.16017775512E+03 -0.21601498074E+03  0.49392841446E+03  0.56239192202E+03  0.10100000352E+00 0.  1.
       -3    1    3    3    0  502  0.16017775512E+03  0.21601498074E+03 -0.70513757758E+03  0.75467767865E+03  0.10100000352E+00 0. -1.
</event>
<event>
 5   0  0.3718559E-05  0.1300438E+04  0.7818609E-02  0.9029218E-01
       -1   -1    0    0    0  501  0.00000000000E+00  0.00000000000E+00  0.20619589353E+03  0.20619589359E+03  0.50400001928E-02 0.  1.
        1   -1    0    0  501    0  0.00000000000E+00  0.00000000000E+00 -0.20504027173E+04  0.20504027173E+04  0.50400001928E-02 0. -1.
    10030    2    1    2    0    0  0.00000000000E+00  0.00000000000E+00 -0.18442068237E+04  0.22565986109E+04  0.13004378039E+04 0.  0.
        2    1    3    3  502    0  0.37262721131E+03  0.22161140450E+03 -0.17629835443E+04  0.18155091932E+04  0.25500000920E-02 0. -1.
       -2    1    3    3    0  502 -0.37262721131E+03 -0.22161140450E+03 -0.81223279430E+02  0.44108941763E+03  0.25500000920E-02 0.  1.
</event>
<event>
 5   0  0.6458698E-05  0.1300201E+04  0.7818609E-02  0.9029406E-01
       -2   -1    0    0    0  501  0.00000000000E+00  0.00000000000E+00  0.72404347041E+03  0.72404347042E+03  0.25500000920E-02 0. -1.
        2   -1    0    0  501    0  0.00000000000E+00  0.00000000000E+00 -0.58370853957E+03  0.58370853957E+03  0.25500000920E-02 0.  1.
    10030    2    1    2    0    0  0.00000000000E+00  0.00000000000E+00  0.14033493085E+03  0.13077520100E+04  0.13002005333E+04 0.  0.
        3    1    3    3  502    0  0.14002571432E+02  0.61393832052E+03  0.28474666523E+03  0.67690250921E+03  0.10100000352E+00 0. -1.
       -3    1    3    3    0  502 -0.14002571432E+02 -0.61393832052E+03 -0.14441173438E+03  0.63084950078E+03  0.10100000352E+00 0.  1.
</event>
<event>
 5   0  0.3552698E-05  0.1300446E+04  0.7818609E-02  0.9029212E-01
        1   -1    0    0  501    0  0.00000000000E+00  0.00000000000E+00  0.17024749136E+04  0.17024749136E+04  0.50400001928E-02 0.  1.
       -1   -1    0    0    0  501  0.00000000000E+00  0.00000000000E+00 -0.24833834173E+03  0.24833834178E+03  0.50400001928E-02 0. -1.
    10030    2    1    2    0    0  0.00000000000E+00  0.00000000000E+00  0.14541365718E+04  0.19508132553E+04  0.13004457650E+04 0.  0.
        5    1    3    3  502    0  0.62923511022E+02  0.23798762836E+03 -0.17570734222E+03  0.30247750264E+03  0.46999998093E+01 0. -1.
       -5    1    3    3    0  502 -0.62923511022E+02 -0.23798762836E+03  0.16298439140E+04  0.16483357527E+04  0.46999998093E+01 0.  1.
</event>
<event>
 5   0  0.3551277E-05  0.1300532E+04  0.7818609E-02  0.9029143E-01
        1   -1    0    0  501    0  0.00000000000E+00  0.00000000000E+00  0.74394201661E+03  0.74394201663E+03  0.50400001928E-02 0.  1.
       -1   -1    0    0    0  501  0.00000000000E+00  0.00000000000E+00 -0.56838591989E+03  0.56838591991E+03  0.50400001928E-02 0. -1.
    10030    2    1    2    0    0  0.00000000000E+00  0.00000000000E+00  0.17555609673E+03  0.13123279365E+04  0.13005324563E+04 0.  0.
        4    1    3    3  502    0  0.15783631568E+03  0.49237534110E+03 -0.31013177953E+03  0.60293375478E+03  0.12699999809E+01 0. -1.
       -4    1    3    3    0  502 -0.15783631568E+03 -0.49237534110E+03  0.48568787626E+03  0.70939418176E+03  0.12699999809E+01 0.  1.
</event>
<event>
 5   0  0.3631841E-05  0.1300082E+04  0.7818609E-02  0.9029500E-01
        1   -1    0    0  501    0  0.00000000000E+00  0.00000000000E+00  0.96610851299E+03  0.96610851300E+03  0.50400001928E-02 0.  1.
       -1   -1    0    0    0  501  0.00000000000E+00  0.00000000000E+00 -0.43737652506E+03  0.43737652509E+03  0.50400001928E-02 0. -1.
    10030    2    1    2    0    0  0.00000000000E+00  0.00000000000E+00  0.52873198793E+03  0.14034850381E+04  0.13000818194E+04 0.  0.
        3    1    3    3  502    0 -0.19068702772E+03 -0.25882905632E+03  0.87427910035E+03  0.93151381012E+03  0.10100000352E+00 0.  1.
       -3    1    3    3    0  502  0.19068702772E+03  0.25882905632E+03 -0.34554711242E+03  0.47197122797E+03  0.10100000352E+00 0. -1.
</event>
<event>
 5   0  0.6671239E-05  0.1299932E+04  0.7818609E-02  0.9029619E-01
        2   -1    0    0  501    0  0.00000000000E+00  0.00000000000E+00  0.13356840561E+04  0.13356840561E+04  0.25500000920E-02 0. -1.
       -2   -1    0    0    0  501  0.00000000000E+00  0.00000000000E+00 -0.31628429425E+03  0.31628429426E+03  0.25500000920E-02 0.  1.
    10030    2    1    2    0    0  0.00000000000E+00  0.00000000000E+00  0.10193997618E+04  0.16519683504E+04  0.12999321352E+04 0.  0.
        1    1    3    3  502    0  0.48183333402E+03  0.31786452748E+03  0.88936134263E+03  0.10602663898E+04  0.50400001928E-02 0. -1.
       -1    1    3    3    0  502 -0.48183333402E+03 -0.31786452748E+03  0.13003841922E+03  0.59170196054E+03  0.50400001928E-02 0.  1.
</event>
<event>
 5   0  0.3689707E-05  0.1299855E+04  0.7818609E-02  0.9029680E-01
        1   -1    0    0  501    0  0.00000000000E+00  0.00000000000E+00  0.47910212980E+03  0.47910212983E+03  0.50400001928E-02 0. -1.
       -1   -1    0    0    0  501  0.00000000000E+00  0.00000000000E+00 -0.88166178458E+03  0.88166178460E+03  0.50400001928E-02 0.  1.
    10030    2    1    2    0    0  0.00000000000E+00  0.00000000000E+00 -0.40255965478E+03  0.13607639144E+04  0.12998554362E+04 0.  0.
        1    1    3    3  502    0  0.34915915305E+03  0.15675909301E+03  0.34861511101E+03  0.51770457121E+03  0.50400001928E-02 0. -1.
       -1    1    3    3    0  502 -0.34915915305E+03 -0.15675909301E+03 -0.75117476580E+03  0.84305934322E+03  0.50400001928E-02 0.  1.
</event>
<event>
 5   0  0.6458698E-05  0.1299607E+04  0.7818609E-02  0.9029877E-01
       -2   -1    0    0    0  501  0.00000000000E+00  0.00000000000E+00  0.15213086222E+03  0.15213086224E+03  0.25500000920E-02 0.  1.
        2   -1    0    0  501    0  0.00000000000E+00  0.00000000000E+00 -0.27755335987E+04  0.27755335987E+04  0.25500000920E-02 0. -1.
    10030    2    1    2    0    0  0.00000000000E+00  0.00000000000E+00 -0.26234027364E+04  0.29276644609E+04  0.12996065859E+04 0.  0.
        3    1    3    3  502    0 -0.29312621516E+03 -0.56268639937E+03 -0.16279301854E+04  0.17471965147E+04  0.10100000352E+00 0. -1.
       -3    1    3    3    0  502  0.29312621516E+03  0.56268639937E+03 -0.99547255100E+03  0.11804679462E+04  0.10100000352E+00 0.  1.
</event>
<event>
 5   0  0.6458698E-05  0.1300166E+04  0.7818609E-02  0.9029433E-01
       -2   -1    0    0    0  501  0.00000000000E+00  0.00000000000E+00  0.29987932322E+03  0.29987932323E+03  0.25500000920E-02 0.  1.
        2   -1    0    0  501    0  0.00000000000E+00  0.00000000000E+00 -0.14092606033E+04  0.14092606033E+04  0.25500000920E-02 0. -1.
    10030    2    1    2    0    0  0.00000000000E+00  0.00000000000E+00 -0.11093812801E+04  0.17091399265E+04  0.13001663216E+04 0.  0.
        3    1    3    3  502    0  0.23760278079E+03 -0.22007519402E+03  0.18627989556E+03  0.37361528629E+03  0.10100000352E+00 0.  1.
       -3    1    3    3    0  502 -0.23760278079E+03  0.22007519402E+03 -0.12956611756E+04  0.13355246402E+04  0.10100000352E+00 0. -1.
</event>
<event>
 5   0  0.6742824E-05  0.1299346E+04  0.7818609E-02  0.9030084E-01
       -2   -1    0    0    0  501  0.00000000000E+00  0.00000000000E+00  0.41726536686E+03  0.41726536687E+03  0.25500000920E-02 0. -1.
        2   -1    0    0  501    0  0.00000000000E+00  0.00000000000E+00 -0.10115260021E+04  0.10115260021E+04  0.25500000920E-02 0.  1.
    10030    2    1    2    0    0  0.00000000000E+00  0.00000000000E+00 -0.59426063526E+03  0.14287913690E+04  0.12993456328E+04 0.  0.
        4    1    3    3  502    0 -0.16617801743E+03 -0.41500188542E+03 -0.81550871406E+03  0.92999880322E+03  0.12699999809E+01 0.  1.
       -4    1    3    3    0  502  0.16617801743E+03  0.41500188542E+03  0.22124807881E+03  0.49879256576E+03  0.12699999809E+01 0. -1.
</event>
<event>
 5   0  0.3631841E-05  0.1299950E+04  0.7818609E-02  0.9029605E-01
       -1   -1    0    0    0  501  0.00000000000E+00  0.00000000000E+00  0.29114432535E+03  0.29114432539E+03  0.50400001928E-02 0. -1.
        1   -1    0    0  501    0  0.00000000000E+00  0.00000000000E+00 -0.14510594839E+04  0.14510594839E+04  0.50400001928E-02 0.  1.
    10030    2    1    2    0    0  0.00000000000E+00  0.00000000000E+00 -0.11599151586E+04  0.17422038093E+04  0.12999503599E+04 0.  0.
        3    1    3    3  502    0 -0.46289379379E+03  0.25950971611E+03 -0.10829406183E+04  0.12059752693E+04  0.10100000352E+00 0.  1.
       -3    1    3    3    0  502  0.46289379379E+03 -0.25950971611E+03 -0.76974540226E+02  0.53622854002E+03  0.10100000352E+00 0. -1.
</event>
<event>
 5   0  0.6742824E-05  0.1299141E+04  0.7818609E-02  0.9030247E-01
        2   -1    0    0  501    0  0.00000000000E+00  0.00000000000E+00  0.32636747990E+03  0.32636747991E+03  0.25500000920E-02 0. -1.
       -2   -1    0    0    0  501  0.00000000000E+00  0.00000000000E+00 -0.12928427615E+04  0.12928427615E+04  0.25500000920E-02 0.  1.
    10030    2    1    2    0    0  0.00000000000E+00  0.00000000000E+00 -0.96647528161E+03  0.16192102414E+04  0.12991409993E+04 0.  0.
        4    1    3    3  502    0  0.25499022750E+03 -0.25635174989E+03 -0.11558202140E+04  0.12110566526E+04  0.12699999809E+01 0.  1.
       -4    1    3    3    0  502 -0.25499022750E+03  0.25635174989E+03  0.18934493236E+03  0.40815358886E+03  0.12699999809E+01 0. -1.
</event>
<event>
 5   0  0.3552698E-05  0.1299695E+04  0.7818609E-02  0.9029807E-01
       -1   -1    0    0    0  501  0.00000000000E+00  0.00000000000E+00  0.47327666586E+03  0.47327666589E+03  0.50400001928E-02 0.  1.
        1   -1    0    0  501    0  0.00000000000E+00  0.00000000000E+00 -0.89229401210E+03  0.89229401211E+03  0.50400001928E-02 0. -1.
    10030    2    1    2    0    0  0.00000000000E+00  0.00000000000E+00 -0.41901734624E+03  0.13655706780E+04  0.12996952490E+04 0.  0.
        5    1    3    3  502    0  0.47800339807E+03 -0.43993157870E+03 -0.19280302352E+03  0.67765930849E+03  0.46999998093E+01 0. -1.
       -5    1    3    3    0  502 -0.47800339807E+03  0.43993157870E+03 -0.22621432272E+03  0.68791136951E+03  0.46999998093E+01 0.  1.
</event>
<event>
 5   0  0.6671239E-05  0.1299649E+04  0.7818609E-02  0.9029844E-01
        2   -1    0    0  501    0  0.00000000000E+00  0.00000000000E+00  0.85619648816E+03  0.85619648816E+03  0.25500000920E-02 0.  1.
       -2   -1    0    0    0  501  0.00000000000E+00  0.00000000000E+00 -0.49319484066E+03  0.49319484067E+03  0.25500000920E-02 0. -1.
    10030    2    1    2    0    0  0.00000000000E+00  0.00000000000E+00  0.36300164750E+03  0.13493913288E+04  0.12996487072E+04 0.  0.
        1    1    3    3  502    0 -0.34063770753E+03  0.45639369541E+03  0.50643649463E+03  0.76210706342E+03  0.50400001928E-02 0.  1.
       -1    1    3    3    0  502  0.34063770753E+03 -0.45639369541E+03 -0.14343484714E+03  0.58728426541E+03  0.50400001928E-02 0. -1.
</event>
<event>
 5   0  0.3718559E-05  0.1299860E+04  0.7818609E-02  0.9029676E-01
        1   -1    0    0  501    0  0.00000000000E+00  0.00000000000E+00  0.14634132093E+04  0.14634132093E+04  0.50400001928E-02 0.  1.
       -1   -1    0    0    0  501  0.00000000000E+00  0.00000000000E+00 -0.28864634734E+03  0.28864634738E+03  0.50400001928E-02 0. -1.
    10030    2    1    2    0    0  0.00000000000E+00  0.00000000000E+00  0.11747668619E+04  0.17520595567E+04  0.12998598040E+04 0.  0.
        2    1    3    3  502    0  0.20223095183E+03  0.57468526672E+03  0.89251866113E+03  0.10806248536E+04  0.25500000920E-02 0. -1.
       -2    1    3    3    0  502 -0.20223095183E+03 -0.57468526672E+03  0.28224820080E+03  0.67143470310E+03  0.25500000920E-02 0.  1.
</event>
<event>
 5   0  0.6688086E-05  0.1299424E+04  0.7818609E-02  0.9030022E-01
        2   -1    0    0  501    0  0.00000000000E+00  0.00000000000E+00  0.71930402921E+03  0.71930402922E+03  0.25500000920E-02 0. -1.
       -2   -1    0    0    0  501  0.00000000000E+00  0.00000000000E+00 -0.58685305800E+03  0.58685305800E+03  0.25500000920E-02 0.  1.
    10030    2    1    2    0    0  0.00000000000E+00  0.00000000000E+00  0.13245097122E+03  0.13061570872E+04  0.12994241327E+04 0.  0.
        5    1    3    3  502    0  0.31259859328E+03  0.29469334044E+03  0.55613328400E+03  0.70275768583E+03  0.46999998093E+01 0. -1.
       -5    1    3    3    0  502 -0.31259859328E+03 -0.29469334044E+03 -0.42368231279E+03  0.60339940138E+03  0.46999998093E+01 0.  1.
</event>
<event>
 5   0  0.3631841E-05  0.1300735E+04  0.7818609E-02  0.9028983E-01
       -1   -1    0    0    0  501  0.00000000000E+00  0.00000000000E+00  0.41344724889E+03  0.41344724892E+03  0.50400001928E-02 0. -1.
        1   -1    0    0  501    0  0.00000000000E+00  0.00000000000E+00 -0.10230509824E+04  0.10230509824E+04  0.50400001928E-02 0.  1.
    10030    2    1    2    0    0  0.00000000000E+00  0.00000000000E+00 -0.60960373350E+03  0.14364982313E+04  0.13007345835E+04 0.  0.
        3    1    3    3  502    0 -0.89171401245E+02  0.59136127515E+03 -0.58705094983E+03  0.83802656548E+03  0.10100000352E+00 0.  1.
       -3    1    3    3    0  502  0.89171401245E+02 -0.59136127515E+03 -0.22552783666E+02  0.59847166583E+03  0.10100000352E+00 0. -1.
</event>
<event>
 5   0  0.3631841E-05  0.1299046E+04  0.7818609E-02  0.9030322E-01
        1   -1    0    0  501    0  0.00000000000E+00  0.00000000000E+00  0.56577115454E+03  0.56577115456E+03  0.50400001928E-02 0. -1.
       -1   -1    0    0    0  501  0.00000000000E+00  0.00000000000E+00 -0.74567276610E+03  0.74567276612E+03  0.50400001928E-02 0.  1.
    10030    2    1    2    0    0  0.00000000000E+00  0.00000000000E+00 -0.17990161156E+03  0.13114439207E+04  0.12990460220E+04 0.  0.
        3    1    3    3  502    0  0.22403500047E+03  0.29975801205E+03 -0.62589745368E+03  0.72924219567E+03  0.10100000352E+00 0.  1.
       -3    1    3    3    0  502 -0.22403500047E+03 -0.29975801205E+03  0.44599584212E+03  0.58220172501E+03  0.10100000352E+00 0. -1.
</event>
<event>
 5   0  0.2512000E-05  0.1301429E+04  0.7818609E-02  0.9028433E-01
        3   -1    0    0  501    0  0.00000000000E+00  0.00000000000E+00  0.76573196409E+03  0.76573197075E+03  0.10100000352E+00 0. -1.
       -3   -1    0    0    0  501  0.00000000000E+00  0.00000000000E+00 -0.55297324307E+03  0.55297325229E+03  0.10100000352E+00 0.  1.
    10030    2    1    2    0    0  0.00000000000E+00  0.00000000000E+00  0.21275872103E+03  0.13187052230E+04  0.13014289039E+04 0.  0.
        2    1    3    3  502    0 -0.53695223798E+03  0.34906085702E+03  0.22309574161E+03  0.67818352804E+03  0.25500000920E-02 0. -1.
       -2    1    3    3    0  502  0.53695223798E+03 -0.34906085702E+03 -0.10337020583E+02  0.64052169501E+03  0.25500000920E-02 0.  1.
</event>
<event>
 5   0  0.3689707E-05  0.1296039E+04  0.7818609E-02  0.9032712E-01
       -1   -1    0    0    0  501  0.00000000000E+00  0.00000000000E+00  0.24882191566E+03  0.24882191571E+03  0.50400001928E-02 0.  1.
        1   -1    0    0  501    0  0.00000000000E+00  0.00000000000E+00 -0.16876696140E+04  0.16876696140E+04  0.50400001928E-02 0. -1.
    10030    2    1    2    0    0  0.00000000000E+00  0.00000000000E+00 -0.14388476984E+04  0.19364915298E+04  0.12960388673E+04 0.  0.
        1    1    3    3  502    0  0.65562941297E+02  0.18817433680E+03  0.20190715533E+03  0.28368041825E+03  0.50400001928E-02 0.  1.
       -1    1    3    3    0  502 -0.65562941297E+02 -0.18817433680E+03 -0.16407548537E+04  0.16528111115E+04  0.50400001928E-02 0. -1.
</event>
<event>
 5   0  0.3718559E-05  0.1301544E+04  0.7818609E-02  0.9028342E-01
       -1   -1    0    0    0  501  0.00000000000E+00  0.00000000000E+00  0.22466778882E+03  0.22466778887E+03  0.50400001928E-02 0. -1.
        1   -1    0    0  501    0  0.00000000000E+00  0.00000000000E+00 -0.18850228705E+04  0.18850228706E+04  0.50400001928E-02 0.  1.
    10030    2    1    2    0    0  0.00000000000E+00  0.00000000000E+00 -0.16603550817E+04  0.21096906594E+04  0.13015435763E+04 0.  0.
        2    1    3    3  502    0 -0.41260336132E+02  0.61787076531E+03 -0.50584387066E+03  0.79959034477E+03  0.25500000920E-02 0. -1.
       -2    1    3    3    0  502  0.41260336132E+02 -0.61787076531E+03 -0.11545112111E+04  0.13101003146E+04  0.25500000920E-02 0.  1.
</event>
<event>
 5   0  0.3552698E-05  0.1300518E+04  0.7818609E-02  0.9029155E-01
       -1   -1    0    0    0  501  0.00000000000E+00  0.00000000000E+00  0.31959296333E+03  0.31959296337E+03  0.50400001928E-02 0. -1.
        1   -1    0    0  501    0  0.00000000000E+00  0.00000000000E+00 -0.13230469345E+04  0.13230469345E+04  0.50400001928E-02 0.  1.
    10030    2    1    2    0    0  0.00000000000E+00  0.00000000000E+00 -0.10034539712E+04  0.16426398979E+04  0.13005175746E+04 0.  0.
        5    1    3    3  502    0  0.62323664933E+03 -0.18305883492E+03 -0.53919435958E+03  0.84420797528E+03  0.46999998093E+01 0. -1.
       -5    1    3    3    0  502 -0.62323664933E+03  0.18305883492E+03 -0.46425961162E+03  0.79843192264E+03  0.46999998093E+01 0.  1.
</event>
<event>
 5   0  0.6688086E-05  0.1300315E+04  0.7818609E-02  0.9029315E-01
        2   -1    0    0  501    0  0.00000000000E+00  0.00000000000E+00  0.73713464513E+03  0.73713464513E+03  0.25500000920E-02 0. -1.
       -2   -1    0    0    0  501  0.00000000000E+00  0.00000000000E+00 -0.57344315789E+03  0.57344315789E+03  0.25500000920E-02 0.  1.
    10030    2    1    2    0    0  0.00000000000E+00  0.00000000000E+00  0.16369148724E+03  0.13105778030E+04  0.13003150675E+04 0.  0.
        5    1    3    3  502    0 -0.53630342947E+02  0.38726832857E+03  0.60539691308E+03  0.72068057027E+03  0.46999998093E+01 0. -1.
       -5    1    3    3    0  502  0.53630342947E+02 -0.38726832857E+03 -0.44170542584E+03  0.58989723275E+03  0.46999998093E+01 0.  1.
</event>
<event>
 5   0  0.3552698E-05  0.1299863E+04  0.7818609E-02  0.9029674E-01
        1   -1    0    0  501    0  0.00000000000E+00  0.00000000000E+00  0.32449756457E+03  0.32449756461E+03  0.50400001928E-02 0. -1.
       -1   -1    0    0    0  501  0.00000000000E+00  0.00000000000E+00 -0.13017374515E+04  0.13017374515E+04  0.50400001928E-02 0.  1.
    10030    2    1    2    0    0  0.00000000000E+00  0.00000000000E+00 -0.97723988690E+03  0.16262350161E+04  0.12998625047E+04 0.  0.
        5    1    3    3  502    0 -0.43401784444E+03 -0.12192296786E+03  0.97057442724E+02  0.46117126598E+03  0.46999998093E+01 0. -1.
       -5    1    3    3    0  502  0.43401784444E+03  0.12192296786E+03 -0.10742973296E+04  0.11650637501E+04  0.46999998093E+01 0.  1.
</event>
<event>
 5   0  0.6671239E-05  0.1300867E+04  0.7818609E-02  0.9028878E-01
       -2   -1    0    0    0  501  0.00000000000E+00  0.00000000000E+00  0.33450806764E+03  0.33450806765E+03  0.25500000920E-02 0.  1.
        2   -1    0    0  501    0  0.00000000000E+00  0.00000000000E+00 -0.12647333036E+04  0.12647333036E+04  0.25500000920E-02 0. -1.
    10030    2    1    2    0    0  0.00000000000E+00  0.00000000000E+00 -0.93022523593E+03  0.15992413712E+04  0.13008666242E+04 0.  0.
        1    1    3    3  502    0  0.94233861150E+01 -0.36731711996E+03 -0.11249202207E+04  0.11834087078E+04  0.50400001928E-02 0. -1.
       -1    1    3    3    0  502 -0.94233861150E+01  0.36731711996E+03  0.19469498476E+03  0.41583266339E+03  0.50400001928E-02 0.  1.
</event>
<event>
 5   0  0.3689707E-05  0.1309457E+04  0.7818609E-02  0.9022099E-01
        1   -1    0    0  501    0  0.00000000000E+00  0.00000000000E+00  0.12372954836E+04  0.12372954837E+04  0.50400001928E-02 0. -1.
       -1   -1    0    0    0  501  0.00000000000E+00  0.00000000000E+00 -0.34645679815E+03  0.34645679819E+03  0.50400001928E-02 0.  1.
    10030    2    1    2    0    0  0.00000000000E+00  0.00000000000E+00  0.89083868549E+03  0.15837522818E+04  0.13094570351E+04 0.  0.
        1    1    3    3  502    0  0.15686498554E+03  0.20088430467E+03  0.11748308472E+04  0.12021599923E+04  0.50400001928E-02 0. -1.
       -1    1    3    3    0  502 -0.15686498554E+03 -0.20088430467E+03 -0.28399216166E+03  0.38159228958E+03  0.50400001928E-02 0.  1.
</event>
<event>
 5   0  0.6742824E-05  0.1300099E+04  0.7818609E-02  0.9029487E-01
       -2   -1    0    0    0  501  0.00000000000E+00  0.00000000000E+00  0.36006001150E+03  0.36006001151E+03  0.25500000920E-02 0. -1.
        2   -1    0    0  501    0  0.00000000000E+00  0.00000000000E+00 -0.11735944004E+04  0.11735944004E+04  0.25500000920E-02 0.  1.
    10030    2    1    2    0    0  0.00000000000E+00  0.00000000000E+00 -0.81353438890E+03  0.15336544119E+04  0.13000990936E+04 0.  0.
        4    1    3    3  502    0  0.27516417427E+03 -0.39621026715E+03 -0.92077935926E+03  0.10394874410E+04  0.12699999809E+01 0.  1.
       -4    1    3    3    0  502 -0.27516417427E+03  0.39621026715E+03  0.10724497036E+03  0.49416697094E+03  0.12699999809E+01 0. -1.
</event>
<event>
 5   0  0.6458698E-05  0.1300786E+04  0.7818609E-02  0.9028942E-01
        2   -1    0    0  501    0  0.00000000000E+00  0.00000000000E+00  0.15495956135E+04  0.15495956135E+04  0.25500000920E-02 0.  1.
       -2   -1    0    0    0  501  0.00000000000E+00  0.00000000000E+00 -0.27298173951E+03  0.27298173952E+03  0.25500000920E-02 0. -1.
    10030    2    1    2    0    0  0.00000000000E+00  0.00000000000E+00  0.12766138740E+04  0.18225773531E+04  0.13007863870E+04 0.  0.
        3    1    3    3  502    0  0.47698122479E+02 -0.87252641042E+02  0.15388816708E+04  0.15420910937E+04  0.10100000352E+00 0.  1.
       -3    1    3    3    0  502 -0.47698122479E+02  0.87252641042E+02 -0.26226779679E+03  0.28048625936E+03  0.10100000352E+00 0. -1.
</event>
<event>
 5   0  0.3631841E-05  0.1300317E+04  0.7818609E-02  0.9029314E-01
        1   -1    0    0  501    0  0.00000000000E+00  0.00000000000E+00  0.17834447864E+04  0.17834447864E+04  0.50400001928E-02 0.  1.
       -1   -1    0    0    0  501  0.00000000000E+00  0.00000000000E+00 -0.23701676694E+03  0.23701676700E+03  0.50400001928E-02 0. -1.
    10030    2    1    2    0    0  0.00000000000E+00  0.00000000000E+00  0.15464280194E+04  0.20204615534E+04  0.13003173726E+04 0.  0.
        3    1    3    3  502    0  0.57543705494E+03  0.29123995827E+03  0.90094714165E+03  0.11079956136E+04  0.10100000352E+00 0.  1.
       -3    1    3    3    0  502 -0.57543705494E+03 -0.29123995827E+03  0.64548087779E+03  0.91246593980E+03  0.10100000352E+00 0. -1.
</event>
<event>
 5   0  0.3552698E-05  0.1299991E+04  0.7818609E-02  0.9029573E-01
       -1   -1    0    0    0  501  0.00000000000E+00  0.00000000000E+00  0.34475883572E+03  0.34475883576E+03  0.50400001928E-02 0. -1.
        1   -1    0    0  501    0  0.00000000000E+00  0.00000000000E+00 -0.12254768198E+04  0.12254768199E+04  0.50400001928E-02 0.  1.
    10030    2    1    2    0    0  0.00000000000E+00  0.00000000000E+00 -0.88071798412E+03  0.15702356556E+04  0.12999907102E+04 0.  0.
        5    1    3    3  502    0  0.48501379438E+03 -0.28942485527E+03 -0.51828617047E+02  0.56719786947E+03  0.46999998093E+01 0. -1.
       -5    1    3    3    0  502 -0.48501379438E+03  0.28942485527E+03 -0.82888936708E+03  0.10030377861E+04  0.46999998093E+01 0.  1.
</event>
<event>
 5   0  0.2512000E-05  0.1299940E+04  0.7818609E-02  0.9029613E-01
        3   -1    0    0  501    0  0.00000000000E+00  0.00000000000E+00  0.91944882124E+03  0.91944882679E+03  0.10100000352E+00 0.  1.
       -3   -1    0    0    0  501  0.00000000000E+00  0.00000000000E+00 -0.45947195210E+03  0.45947196320E+03  0.10100000352E+00 0. -1.
    10030    2    1    2    0    0  0.00000000000E+00  0.00000000000E+00  0.45997686915E+03  0.13789207900E+04  0.12999399313E+04 0.  0.
        4    1    3    3  502    0  0.14632861210E+03  0.60146749349E+03  0.44023292889E+03  0.75959321550E+03  0.12699999809E+01 0.  1.
       -4    1    3    3    0  502 -0.14632861210E+03 -0.60146749349E+03  0.19743940257E+02  0.61932757449E+03  0.12699999809E+01 0. -1.
</event>
<event>
 5   0  0.3718559E-05  0.1303803E+04  0.7818609E-02  0.9026555E-01
        1   -1    0    0  501    0  0.00000000000E+00  0.00000000000E+00  0.70489247346E+03  0.70489247348E+03  0.50400001928E-02 0.  1.
       -1   -1    0    0    0  501  0.00000000000E+00  0.00000000000E+00 -0.60289392900E+03  0.60289392903E+03  0.50400001928E-02 0. -1.
    10030    2    1    2    0    0  0.00000000000E+00  0.00000000000E+00  0.10199854445E+03  0.13077864025E+04  0.13038027349E+04 0.  0.
        2    1    3    3  502    0  0.29862451967E+03  0.42893662912E+03  0.44182055492E+03  0.68437463300E+03  0.25500000920E-02 0.  1.
       -2    1    3    3    0  502 -0.29862451967E+03 -0.42893662912E+03 -0.33982201046E+03  0.62341176950E+03  0.25500000920E-02 0. -1.
</event>
<event>
 5   0  0.6688086E-05  0.1300283E+04  0.7818609E-02  0.9029340E-01
        2   -1    0    0  501    0  0.00000000000E+00  0.00000000000E+00  0.49133194930E+03  0.49133194931E+03  0.25500000920E-02 0. -1.
       -2   -1    0    0    0  501  0.00000000000E+00  0.00000000000E+00 -0.86028245316E+03  0.86028245316E+03  0.25500000920E-02 0.  1.
    10030    2    1    2    0    0  0.00000000000E+00  0.00000000000E+00 -0.36895050385E+03  0.13516144025E+04  0.13002834378E+04 0.  0.
        5    1    3    3  502    0 -0.27430493299E+03 -0.19960722991E+03  0.39201364521E+03  0.51844289032E+03  0.46999998093E+01 0. -1.
       -5    1    3    3    0  502  0.27430493299E+03  0.19960722991E+03 -0.76096414906E+03  0.83317151215E+03  0.46999998093E+01 0.  1.
</event>
<event>
 5   0  0.6618060E-05  0.1299083E+04  0.7818609E-02  0.9030292E-01
       -2   -1    0    0    0  501  0.00000000000E+00  0.00000000000E+00  0.12487241976E+04  0.12487241976E+04  0.25500000920E-02 0. -1.
        2   -1    0    0  501    0  0.00000000000E+00  0.00000000000E+00 -0.33786835411E+03  0.33786835412E+03  0.25500000920E-02 0.  1.
    10030    2    1    2    0    0  0.00000000000E+00  0.00000000000E+00  0.91085584345E+03  0.15865925517E+04  0.12990833528E+04 0.  0.
        2    1    3    3  502    0  0.49754380051E+03 -0.39012022837E+03  0.63723917133E+03  0.89767331891E+03  0.25500000920E-02 0. -1.
       -2    1    3    3    0  502 -0.49754380051E+03  0.39012022837E+03  0.27361667213E+03  0.68891923277E+03  0.25500000920E-02 0.  1.
</event>
<event>
 5   0  0.6458698E-05  0.1303411E+04  0.7818609E-02  0.9026864E-01
       -2   -1    0    0    0  501  0.00000000000E+00  0.00000000000E+00  0.99170505439E+03  0.99170505440E+03  0.25500000920E-02 0.  1.
        2   -1    0    0  501    0  0.00000000000E+00  0.00000000000E+00 -0.42827269751E+03  0.42827269751E+03  0.25500000920E-02 0. -1.
    10030    2    1    2    0    0  0.00000000000E+00  0.00000000000E+00  0.56343235689E+03  0.14199777519E+04  0.13034112149E+04 0.  0.
        3    1    3    3  502    0 -0.11485182273E+03  0.38989389233E+03 -0.27326570817E+03  0.48977785365E+03  0.10100000352E+00 0. -1.
       -3    1    3    3    0  502  0.11485182273E+03 -0.38989389233E+03  0.83669806506E+03  0.93019989827E+03  0.10100000352E+00 0.  1.
</event>
<event>
 5   0  0.6618060E-05  0.1298696E+04  0.7818609E-02  0.9030600E-01
        2   -1    0    0  501    0  0.00000000000E+00  0.00000000000E+00  0.72036211546E+03  0.72036211547E+03  0.25500000920E-02 0.  1.
       -2   -1    0    0    0  501  0.00000000000E+00  0.00000000000E+00 -0.58533463987E+03  0.58533463988E+03  0.25500000920E-02 0. -1.
    10030    2    1    2    0    0  0.00000000000E+00  0.00000000000E+00  0.13502747559E+03  0.13056967553E+04  0.12986961145E+04 0.  0.
        2    1    3    3  502    0 -0.46768033194E+03 -0.73008355912E+02  0.51442965372E+03  0.69906579200E+03  0.25500000920E-02 0.  1.
       -2    1    3    3    0  502  0.46768033194E+03  0.73008355912E+02 -0.37940217813E+03  0.60663096334E+03  0.25500000920E-02 0. -1.
</event>
<event>
 5   0  0.6458698E-05  0.1299971E+04  0.7818609E-02  0.9029589E-01
        2   -1    0    0  501    0  0.00000000000E+00  0.00000000000E+00  0.15926040504E+04  0.15926040504E+04  0.25500000920E-02 0.  1.
       -2   -1    0    0    0  501  0.00000000000E+00  0.00000000000E+00 -0.26527675383E+03  0.26527675384E+03  0.25500000920E-02 0. -1.
    10030    2    1    2    0    0  0.00000000000E+00  0.00000000000E+00  0.13273272966E+04  0.18578808042E+04  0.12999705114E+04 0.  0.
        3    1    3    3  502    0  0.28225185527E+03 -0.27521741519E+02  0.14995240610E+04  0.15261048377E+04  0.10100000352E+00 0.  1.
       -3    1    3    3    0  502 -0.28225185527E+03  0.27521741519E+02 -0.17219676443E+03  0.33177596650E+03  0.10100000352E+00 0. -1.
</event>
<event>
 5   0  0.6688086E-05  0.1292918E+04  0.7818609E-02  0.9035200E-01
        2   -1    0    0  501    0  0.00000000000E+00  0.00000000000E+00  0.14448827263E+04  0.14448827263E+04  0.25500000920E-02 0.  1.
       -2   -1    0    0    0  501  0.00000000000E+00  0.00000000000E+00 -0.28923384087E+03  0.28923384088E+03  0.25500000920E-02 0. -1.
    10030    2    1    2    0    0  0.00000000000E+00  0.00000000000E+00  0.11556488855E+04  0.17341165672E+04  0.12929176007E+04 0.  0.
        5    1    3    3  502    0 -0.46200630895E+03 -0.44439109019E+03  0.46598038452E+03  0.79252323581E+03  0.46999998093E+01 0.  1.
       -5    1    3    3    0  502  0.46200630895E+03  0.44439109019E+03  0.68966850096E+03  0.94159333142E+03  0.46999998093E+01 0. -1.
</event>
<event>
 5   0  0.6742824E-05  0.1297876E+04  0.7818609E-02  0.9031251E-01
        2   -1    0    0  501    0  0.00000000000E+00  0.00000000000E+00  0.12258625563E+04  0.12258625563E+04  0.25500000920E-02 0.  1.
       -2   -1    0    0    0  501  0.00000000000E+00  0.00000000000E+00 -0.34353020548E+03  0.34353020549E+03  0.25500000920E-02 0. -1.
    10030    2    1    2    0    0  0.00000000000E+00  0.00000000000E+00  0.88233235082E+03  0.15693927618E+04  0.12978764438E+04 0.  0.
        4    1    3    3  502    0 -0.43240529269E+02  0.44838352352E+03  0.10060086351E+04  0.11022579165E+04  0.12699999809E+01 0.  1.
       -4    1    3    3    0  502  0.43240529269E+02 -0.44838352352E+03 -0.12367628431E+03  0.46713484534E+03  0.12699999809E+01 0. -1.
</event>
<event>
 5   0  0.6742824E-05  0.1302667E+04  0.7818609E-02  0.9027453E-01
       -2   -1    0    0    0  501  0.00000000000E+00  0.00000000000E+00  0.23980421170E+03  0.23980421172E+03  0.25500000920E-02 0. -1.
        2   -1    0    0  501    0  0.00000000000E+00  0.00000000000E+00 -0.17690895138E+04  0.17690895138E+04  0.25500000920E-02 0.  1.
    10030    2    1    2    0    0  0.00000000000E+00  0.00000000000E+00 -0.15292853021E+04  0.20088937255E+04  0.13026666746E+04 0.  0.
        4    1    3    3  502    0  0.38141727443E+03  0.38950469220E+03 -0.13143033549E+04  0.14228801651E+04  0.12699999809E+01 0.  1.
       -4    1    3    3    0  502 -0.38141727443E+03 -0.38950469220E+03 -0.21498194712E+03  0.58601356040E+03  0.12699999809E+01 0. -1.
</event>
<event>
 5   0  0.3689707E-05  0.1301098E+04  0.7818609E-02  0.9028695E-01
       -1   -1    0    0    0  501  0.00000000000E+00  0.00000000000E+00  0.39796369886E+03  0.39796369889E+03  0.50400001928E-02 0.  1.
        1   -1    0    0  501    0  0.00000000000E+00  0.00000000000E+00 -0.10634494118E+04  0.10634494118E+04  0.50400001928E-02 0. -1.
    10030    2    1    2    0    0  0.00000000000E+00  0.00000000000E+00 -0.66548571293E+03  0.14614131107E+04  0.13010983998E+04 0.  0.
        1    1    3    3  502    0 -0.59376398742E+03 -0.13743434444E+03 -0.58830914939E+03  0.84708413223E+03  0.50400001928E-02 0.  1.
       -1    1    3    3    0  502  0.59376398742E+03  0.13743434444E+03 -0.77176563539E+02  0.61432897846E+03  0.50400001928E-02 0. -1.
</event>
<event>
 5   0  0.6618060E-05  0.1300055E+04  0.7818609E-02  0.9029522E-01
       -2   -1    0    0    0  501  0.00000000000E+00  0.00000000000E+00  0.14271247936E+04  0.14271247936E+04  0.25500000920E-02 0. -1.
        2   -1    0    0  501    0  0.00000000000E+00  0.00000000000E+00 -0.29607473308E+03  0.29607473309E+03  0.25500000920E-02 0.  1.
    10030    2    1    2    0    0  0.00000000000E+00  0.00000000000E+00  0.11310500606E+04  0.17231995267E+04  0.13000547563E+04 0.  0.
        2    1    3    3  502    0 -0.31292889026E+03  0.47703817569E+03  0.15260872946E+03  0.59057542765E+03  0.25500000920E-02 0.  1.
       -2    1    3    3    0  502  0.31292889026E+03 -0.47703817569E+03  0.97844133110E+03  0.11326240991E+04  0.25500000920E-02 0. -1.
</event>
<event>
 5   0  0.3552698E-05  0.1299530E+04  0.7818609E-02  0.9029938E-01
       -1   -1    0    0    0  501  0.00000000000E+00  0.00000000000E+00  0.66731404446E+03  0.66731404448E+03  0.50400001928E-02 0.  1.
        1   -1    0    0  501    0  0.00000000000E+00  0.00000000000E+00 -0.63267778816E+03  0.63267778818E+03  0.50400001928E-02 0. -1.
    10030    2    1    2    0    0  0.00000000000E+00  0.00000000000E+00  0.34636256298E+02  0.12999918327E+04  0.12995303362E+04 0.  0.
        5    1    3    3  502    0  0.84413635880E+00  0.29808350312E+03 -0.56022405901E+03  0.63460820487E+03  0.46999998093E+01 0. -1.
       -5    1    3    3    0  502 -0.84413635880E+00 -0.29808350312E+03  0.59486031531E+03  0.66538362779E+03  0.46999998093E+01 0.  1.
</event>
<event>
 5   0  0.3551277E-05  0.1299878E+04  0.7818609E-02  0.9029662E-01
        1   -1    0    0  501    0  0.00000000000E+00  0.00000000000E+00  0.77724040783E+03  0.77724040785E+03  0.50400001928E-02 0.  1.
       -1   -1    0    0    0  501  0.00000000000E+00  0.00000000000E+00 -0.54348815836E+03  0.54348815838E+03  0.50400001928E-02 0. -1.
    10030    2    1    2    0    0  0.00000000000E+00  0.00000000000E+00  0.23375224947E+03  0.13207285662E+04  0.12998783911E+04 0.  0.
        4    1    3    3  502    0 -0.41799639988E+03 -0.41603817646E+03  0.39440685951E+03  0.70948371250E+03  0.12699999809E+01 0.  1.
       -4    1    3    3    0  502  0.41799639988E+03  0.41603817646E+03 -0.16065461003E+03  0.61124485373E+03  0.12699999809E+01 0. -1.
</event>
<event>
 5   0  0.3552698E-05  0.1300505E+04  0.7818609E-02  0.9029165E-01
        1   -1    0    0  501    0  0.00000000000E+00  0.00000000000E+00  0.15534425022E+04  0.15534425022E+04  0.50400001928E-02 0. -1.
       -1   -1    0    0    0  501  0.00000000000E+00  0.00000000000E+00 -0.27218793782E+03  0.27218793786E+03  0.50400001928E-02 0.  1.
    10030    2    1    2    0    0  0.00000000000E+00  0.00000000000E+00  0.12812545644E+04  0.18256304401E+04  0.13005049961E+04 0.  0.
        5    1    3    3  502    0  0.50394837584E+03  0.11718593209E+03  0.11934938653E+04  0.13008252015E+04  0.46999998093E+01 0. -1.
       -5    1    3    3    0  502 -0.50394837584E+03 -0.11718593209E+03  0.87760699076E+02  0.52480523863E+03  0.46999998093E+01 0.  1.
</event>
<event>
 5   0  0.6671239E-05  0.1300298E+04  0.7818609E-02  0.9029329E-01
        2   -1    0    0  501    0  0.00000000000E+00  0.00000000000E+00  0.16334398606E+04  0.16334398606E+04  0.25500000920E-02 0. -1.
       -2   -1    0    0    0  501  0.00000000000E+00  0.00000000000E+00 -0.25877536336E+03  0.25877536337E+03  0.25500000920E-02 0.  1.
    10030    2    1    2    0    0  0.00000000000E+00  0.00000000000E+00  0.13746644973E+04  0.18922152240E+04  0.13002984172E+04 0.  0.
        1    1    3    3  502    0  0.44021698590E+03  0.46879041834E+03  0.54821980964E+03  0.84504462054E+03  0.50400001928E-02 0. -1.
       -1    1    3    3    0  502 -0.44021698590E+03 -0.46879041834E+03  0.82644468765E+03  0.10471706035E+04  0.50400001928E-02 0.  1.
</event>
<event>
 5   0  0.6458698E-05  0.1301587E+04  0.7818609E-02  0.9028308E-01
        2   -1    0    0  501    0  0.00000000000E+00  0.00000000000E+00  0.41757424078E+03  0.41757424079E+03  0.25500000920E-02 0.  1.
       -2   -1    0    0    0  501  0.00000000000E+00  0.00000000000E+00 -0.10142671979E+04  0.10142671979E+04  0.25500000920E-02 0. -1.
    10030    2    1    2    0    0  0.00000000000E+00  0.00000000000E+00 -0.59669295708E+03  0.14318414387E+04  0.13015865013E+04 0.  0.
        3    1    3    3  502    0 -0.20430768947E+03  0.58465301278E+03 -0.51828169000E+03  0.80757457718E+03  0.10100000352E+00 0. -1.
       -3    1    3    3    0  502  0.20430768947E+03 -0.58465301278E+03 -0.78411267081E+02  0.62426686147E+03  0.10100000352E+00 0.  1.
</event>
<event>
 5   0  0.6688086E-05  0.1300059E+04  0.7818609E-02  0.9029518E-01
       -2   -1    0    0    0  501  0.00000000000E+00  0.00000000000E+00  0.56530227455E+03  0.56530227456E+03  0.25500000920E-02 0. -1.
        2   -1    0    0  501    0  0.00000000000E+00  0.00000000000E+00 -0.74745549294E+03  0.74745549294E+03  0.25500000920E-02 0.  1.
    10030    2    1    2    0    0  0.00000000000E+00  0.00000000000E+00 -0.18215321839E+03  0.13127577675E+04  0.13000589068E+04 0.  0.
        5    1    3    3  502    0 -0.52306745422E+03 -0.38584514123E+03 -0.97476148998E+02  0.65726685928E+03  0.46999998093E+01 0.  1.
       -5    1    3    3    0  502  0.52306745422E+03  0.38584514123E+03 -0.84677069389E+02  0.65549090822E+03  0.46999998093E+01 0. -1.
</event>
<event>
 5   0  0.3552698E-05  0.1300260E+04  0.7818609E-02  0.9029359E-01
       -1   -1    0    0    0  501  0.00000000000E+00  0.00000000000E+00  0.13190233827E+04  0.13190233827E+04  0.50400001928E-02 0.  1.
        1   -1    0    0  501    0  0.00000000000E+00  0.00000000000E+00 -0.32044071146E+03  0.32044071150E+03  0.50400001928E-02 0. -1.
    10030    2    1    2    0    0  0.00000000000E+00  0.00000000000E+00  0.99858267126E+03  0.16394640942E+04  0.13002596529E+04 0.  0.
        5    1    3    3  502    0  0.63752707800E+03  0.12727793112E+03  0.49613806584E+03  0.81781141916E+03  0.46999998093E+01 0.  1.
       -5    1    3    3    0  502 -0.63752707800E+03 -0.12727793112E+03  0.50244460542E+03  0.82165267507E+03  0.46999998093E+01 0. -1.
</event>
<event>
 5   0  0.6458698E-05  0.1300884E+04  0.7818609E-02  0.9028865E-01
       -2   -1    0    0    0  501  0.00000000000E+00  0.00000000000E+00  0.45519762056E+03  0.45519762057E+03  0.25500000920E-02 0. -1.
        2   -1    0    0  501    0  0.00000000000E+00  0.00000000000E+00 -0.92943062709E+03  0.92943062710E+03  0.25500000920E-02 0.  1.
    10030    2    1    2    0    0  0.00000000000E+00  0.00000000000E+00 -0.47423300653E+03  0.13846282477E+04  0.13008837149E+04 0.  0.
        3    1    3    3  502    0  0.22902253280E+03  0.64633837399E+02 -0.88143344772E+03  0.91299166832E+03  0.10100000352E+00 0.  1.
       -3    1    3    3    0  502 -0.22902253280E+03 -0.64633837399E+02  0.40720044119E+03  0.47163657934E+03  0.10100000352E+00 0. -1.
</event>
<event>
 5   0  0.6742824E-05  0.1299994E+04  0.7818609E-02  0.9029570E-01
       -2   -1    0    0    0  501  0.00000000000E+00  0.00000000000E+00  0.13034290210E+04  0.13034290210E+04  0.25500000920E-02 0.  1.
        2   -1    0    0  501    0  0.00000000000E+00  0.00000000000E+00 -0.32414208943E+03  0.32414208944E+03  0.25500000920E-02 0. -1.
    10030    2    1    2    0    0  0.00000000000E+00  0.00000000000E+00  0.97928693154E+03  0.16275711104E+04  0.12999941635E+04 0.  0.
        4    1    3    3  502    0  0.26414173519E+02  0.44746942808E+03  0.10789646930E+04  0.11683719525E+04  0.12699999809E+01 0.  1.
       -4    1    3    3    0  502 -0.26414173519E+02 -0.44746942808E+03 -0.99677761474E+02  0.45919915795E+03  0.12699999809E+01 0. -1.
</event>
<event>
 5   0  0.6688086E-05  0.1299804E+04  0.7818609E-02  0.9029721E-01
       -2   -1    0    0    0  501  0.00000000000E+00  0.00000000000E+00  0.44022782910E+03  0.44022782911E+03  0.25500000920E-02 0. -1.
        2   -1    0    0  501    0  0.00000000000E+00  0.00000000000E+00 -0.95944063275E+03  0.95944063275E+03  0.25500000920E-02 0.  1.
    10030    2    1    2    0    0  0.00000000000E+00  0.00000000000E+00 -0.51921280365E+03  0.13996684619E+04  0.12998037804E+04 0.  0.
        5    1    3    3  502    0  0.42607449013E+03 -0.16199686046E+03 -0.75841023217E+03  0.88486757438E+03  0.46999998093E+01 0.  1.
       -5    1    3    3    0  502 -0.42607449013E+03  0.16199686046E+03  0.23919742852E+03  0.51480088747E+03  0.46999998093E+01 0. -1.
</event>
<event>
 5   0  0.3552698E-05  0.1300529E+04  0.7818609E-02  0.9029146E-01
       -1   -1    0    0    0  501  0.00000000000E+00  0.00000000000E+00  0.29678484999E+03  0.29678485003E+03  0.50400001928E-02 0.  1.
        1   -1    0    0  501    0  0.00000000000E+00  0.00000000000E+00 -0.14247483797E+04  0.14247483797E+04  0.50400001928E-02 0. -1.
    10030    2    1    2    0    0  0.00000000000E+00  0.00000000000E+00 -0.11279635297E+04  0.17215332297E+04  0.13005287143E+04 0.  0.
        5    1    3    3  502    0 -0.42949679578E+03 -0.15582513545E+03  0.48475910149E+02  0.45947902486E+03  0.46999998093E+01 0.  1.
       -5    1    3    3    0  502  0.42949679578E+03  0.15582513545E+03 -0.11764394398E+04  0.12620542049E+04  0.46999998093E+01 0. -1.
</event>
<event>
 5   0  0.6458698E-05  0.1301695E+04  0.7818609E-02  0.9028222E-01
       -2   -1    0    0    0  501  0.00000000000E+00  0.00000000000E+00  0.38285973440E+03  0.38285973440E+03  0.25500000920E-02 0.  1.
        2   -1    0    0  501    0  0.00000000000E+00  0.00000000000E+00 -0.11064162247E+04  0.11064162247E+04  0.25500000920E-02 0. -1.
    10030    2    1    2    0    0  0.00000000000E+00  0.00000000000E+00 -0.72355649031E+03  0.14892759591E+04  0.13016946215E+04 0.  0.
        3    1    3    3  502    0  0.61027537994E+03  0.14864478742E+03 -0.16670608029E+03  0.64986324684E+03  0.10100000352E+00 0.  1.
       -3    1    3    3    0  502 -0.61027537994E+03 -0.14864478742E+03 -0.55685041002E+03  0.83941271227E+03  0.10100000352E+00 0. -1.
</event>
<event>
 5   0  0.6671239E-05  0.1300120E+04  0.7818609E-02  0.9029470E-01
        2   -1    0    0  501    0  0.00000000000E+00  0.00000000000E+00  0.25947180888E+04  0.25947180888E+04  0.25500000920E-02 0.  1.
       -2   -1    0    0    0  501  0.00000000000E+00  0.00000000000E+00 -0.16286095568E+03  0.16286095570E+03  0.25500000920E-02 0. -1.
    10030    2    1    2    0    0  0.00000000000E+00  0.00000000000E+00  0.24318571331E+04  0.27575790444E+04  0.13001204062E+04 0.  0.
        1    1    3    3  502    0  0.14693024410E+03 -0.82490083712E+01  0.25589229311E+04  0.25631510119E+04  0.50400001928E-02 0.  1.
       -1    1    3    3    0  502 -0.14693024410E+03  0.82490083712E+01 -0.12706579802E+03  0.19442803250E+03  0.50400001928E-02 0. -1.
</event>
<event>
 5   0  0.6742824E-05  0.1299999E+04  0.7818609E-02  0.9029566E-01
        2   -1    0    0  501    0  0.00000000000E+00  0.00000000000E+00  0.16155415792E+04  0.16155415792E+04  0.25500000920E-02 0. -1.
       -2   -1    0    0    0  501  0.00000000000E+00  0.00000000000E+00 -0.26152198952E+03  0.26152198953E+03  0.25500000920E-02 0.  1.
    10030    2    1    2    0    0  0.00000000000E+00  0.00000000000E+00  0.13540195897E+04  0.18770635688E+04  0.12999994584E+04 0.  0.
        4    1    3    3  502    0 -0.31791259066E+03 -0.27121875616E+03 -0.41855964556E+02  0.41997805140E+03  0.12699999809E+01 0.  1.
       -4    1    3    3    0  502  0.31791259066E+03  0.27121875616E+03  0.13958755543E+04  0.14570855173E+04  0.12699999809E+01 0. -1.
</event>
<event>
 5   0  0.6671239E-05  0.1299572E+04  0.7818609E-02  0.9029904E-01
       -2   -1    0    0    0  501  0.00000000000E+00  0.00000000000E+00  0.42482272991E+03  0.42482272991E+03  0.25500000920E-02 0.  1.
        2   -1    0    0  501    0  0.00000000000E+00  0.00000000000E+00 -0.99387809571E+03  0.99387809571E+03  0.25500000920E-02 0. -1.
    10030    2    1    2    0    0  0.00000000000E+00  0.00000000000E+00 -0.56905536580E+03  0.14187008256E+04  0.12995722463E+04 0.  0.
        1    1    3    3  502    0  0.52425323389E+03  0.33780723219E+03 -0.85416304140E+02  0.62948480871E+03  0.50400001928E-02 0. -1.
       -1    1    3    3    0  502 -0.52425323389E+03 -0.33780723219E+03 -0.48363906166E+03  0.78921601691E+03  0.50400001928E-02 0.  1.
</event>
<event>
 5   0  0.6458698E-05  0.1300178E+04  0.7818609E-02  0.9029424E-01
        2   -1    0    0  501    0  0.00000000000E+00  0.00000000000E+00  0.16863263592E+04  0.16863263592E+04  0.25500000920E-02 0.  1.
       -2   -1    0    0    0  501  0.00000000000E+00  0.00000000000E+00 -0.25061310185E+03  0.25061310186E+03  0.25500000920E-02 0. -1.
    10030    2    1    2    0    0  0.00000000000E+00  0.00000000000E+00  0.14357132573E+04  0.19369394610E+04  0.13001776488E+04 0.  0.
        3    1    3    3  502    0  0.27070897366E+03  0.21034578401E+03  0.15407149023E+04  0.15783951082E+04  0.10100000352E+00 0.  1.
       -3    1    3    3    0  502 -0.27070897366E+03 -0.21034578401E+03 -0.10500164500E+03  0.35854435280E+03  0.10100000352E+00 0. -1.
</event>
<event>
 5   0  0.6618060E-05  0.1297748E+04  0.7818609E-02  0.9031353E-01
       -2   -1    0    0    0  501  0.00000000000E+00  0.00000000000E+00  0.20595766704E+03  0.20595766705E+03  0.25500000920E-02 0. -1.
        2   -1    0    0  501    0  0.00000000000E+00  0.00000000000E+00 -0.20442898079E+04  0.20442898079E+04  0.25500000920E-02 0.  1.
    10030    2    1    2    0    0  0.00000000000E+00  0.00000000000E+00 -0.18383321408E+04  0.22502474749E+04  0.12977475249E+04 0.  0.
        2    1    3    3  502    0 -0.33417860607E+03  0.41592849137E+03 -0.27885350553E+03  0.60202253134E+03  0.25500000920E-02 0. -1.
       -2    1    3    3    0  502  0.33417860607E+03 -0.41592849137E+03 -0.15594786353E+04  0.16482249436E+04  0.25500000920E-02 0.  1.
</event>
<event>
 5   0  0.6671239E-05  0.1300946E+04  0.7818609E-02  0.9028816E-01
       -2   -1    0    0    0  501  0.00000000000E+00  0.00000000000E+00  0.47890425563E+03  0.47890425564E+03  0.25500000920E-02 0. -1.
        2   -1    0    0  501    0  0.00000000000E+00  0.00000000000E+00 -0.88350617297E+03  0.88350617298E+03  0.25500000920E-02 0.  1.
    10030    2    1    2    0    0  0.00000000000E+00  0.00000000000E+00 -0.40460191734E+03  0.13624104286E+04  0.13009456040E+04 0.  0.
        1    1    3    3  502    0 -0.57913420420E+03  0.17758061058E+03 -0.45053050475E+03  0.75492319839E+03  0.50400001928E-02 0.  1.
       -1    1    3    3    0  502  0.57913420420E+03 -0.17758061058E+03  0.45928587405E+02  0.60748723023E+03  0.50400001928E-02 0. -1.
</event>
<event>
 5   0  0.6618060E-05  0.1299692E+04  0.7818609E-02  0.9029809E-01
        2   -1    0    0  501    0  0.00000000000E+00  0.00000000000E+00  0.18362433071E+04  0.18362433071E+04  0.25500000920E-02 0. -1.
       -2   -1    0    0    0  501  0.00000000000E+00  0.00000000000E+00 -0.22998041503E+03  0.22998041504E+03  0.25500000920E-02 0.  1.
    10030    2    1    2    0    0  0.00000000000E+00  0.00000000000E+00  0.16062628921E+04  0.20662237222E+04  0.12996922680E+04 0.  0.
        2    1    3    3  502    0 -0.22577441472E+03  0.88382430179E+02 -0.15538076973E+03  0.28797347780E+03  0.25500000920E-02 0.  1.
       -2    1    3    3    0  502  0.22577441472E+03 -0.88382430179E+02  0.17616436618E+04  0.17782502444E+04  0.25500000920E-02 0. -1.
</event>
<event>
 5   0  0.3689707E-05  0.1299977E+04  0.7818609E-02  0.9029584E-01
        1   -1    0    0  501    0  0.00000000000E+00  0.00000000000E+00  0.19818645662E+03  0.19818645669E+03  0.50400001928E-02 0.  1.
       -1   -1    0    0    0  501  0.00000000000E+00  0.00000000000E+00 -0.21317540596E+04  0.21317540596E+04  0.50400001928E-02 0. -1.
    10030    2    1    2    0    0  0.00000000000E+00  0.00000000000E+00 -0.19335676029E+04  0.23299405163E+04  0.12999765898E+04 0.  0.
        1    1    3    3  502    0 -0.35168590717E+03  0.49783643447E+03 -0.13713848044E+04  0.15007399423E+04  0.50400001928E-02 0.  1.
       -1    1    3    3    0  502  0.35168590717E+03 -0.49783643447E+03 -0.56218279859E+03  0.82920057395E+03  0.50400001928E-02 0. -1.
</event>
<event>
 5   0  0.3718559E-05  0.1299789E+04  0.7818609E-02  0.9029732E-01
        1   -1    0    0  501    0  0.00000000000E+00  0.00000000000E+00  0.98739212229E+03  0.98739212230E+03  0.50400001928E-02 0.  1.
       -1   -1    0    0    0  501  0.00000000000E+00  0.00000000000E+00 -0.42775624187E+03  0.42775624190E+03  0.50400001928E-02 0. -1.
    10030    2    1    2    0    0  0.00000000000E+00  0.00000000000E+00  0.55963588042E+03  0.14151483642E+04  0.12997894345E+04 0.  0.
        2    1    3    3  502    0  0.16811034157E+03  0.45482709458E+03  0.75092732835E+03  0.89387953628E+03  0.25500000920E-02 0.  1.
       -2    1    3    3    0  502 -0.16811034157E+03 -0.45482709458E+03 -0.19129144792E+03  0.52126882792E+03  0.25500000920E-02 0. -1.
</event>
<event>
 5   0  0.3551277E-05  0.1299479E+04  0.7818609E-02  0.9029978E-01
       -1   -1    0    0    0  501  0.00000000000E+00  0.00000000000E+00  0.22432470785E+03  0.22432470791E+03  0.50400001928E-02 0. -1.
        1   -1    0    0  501    0  0.00000000000E+00  0.00000000000E+00 -0.18819222301E+04  0.18819222301E+04  0.50400001928E-02 0.  1.
    10030    2    1    2    0    0  0.00000000000E+00  0.00000000000E+00 -0.16575975223E+04  0.21062469380E+04  0.12994793643E+04 0.  0.
        4    1    3    3  502    0 -0.28789493519E+03 -0.57370231165E+03 -0.66556645990E+03  0.92466110632E+03  0.12699999809E+01 0.  1.
       -4    1    3    3    0  502  0.28789493519E+03  0.57370231165E+03 -0.99203106236E+03  0.11815858317E+04  0.12699999809E+01 0. -1.
</event>
<event>
 5   0  0.3552698E-05  0.1298643E+04  0.7818609E-02  0.9030642E-01
        1   -1    0    0  501    0  0.00000000000E+00  0.00000000000E+00  0.54411450473E+03  0.54411450475E+03  0.50400001928E-02 0. -1.
       -1   -1    0    0    0  501  0.00000000000E+00  0.00000000000E+00 -0.77487021525E+03  0.77487021526E+03  0.50400001928E-02 0.  1.
    10030    2    1    2    0    0  0.00000000000E+00  0.00000000000E+00 -0.23075571052E+03  0.13189847200E+04  0.12986425581E+04 0.  0.
        5    1    3    3  502    0 -0.27024956282E+02 -0.43848109205E+03  0.37023286160E+03  0.57453501038E+03  0.46999998093E+01 0. -1.
       -5    1    3    3    0  502  0.27024956282E+02  0.43848109205E+03 -0.60098857212E+03  0.74444970963E+03  0.46999998093E+01 0.  1.
</event>
<event>
 5   0  0.6458698E-05  0.1300319E+04  0.7818609E-02  0.9029312E-01
       -2   -1    0    0    0  501  0.00000000000E+00  0.00000000000E+00  0.38231837869E+03  0.38231837869E+03  0.25500000920E-02 0.  1.
        2   -1    0    0  501    0  0.00000000000E+00  0.00000000000E+00 -0.11056424112E+04  0.11056424112E+04  0.25500000920E-02 0. -1.
    10030    2    1    2    0    0  0.00000000000E+00  0.00000000000E+00 -0.72332403252E+03  0.14879607899E+04  0.13003190594E+04 0.  0.
        3    1    3    3  502    0  0.11784712491E+03 -0.47408014383E+03  0.12927987083E+03  0.50532486860E+03  0.10100000352E+00 0.  1.
       -3    1    3    3    0  502 -0.11784712491E+03  0.47408014383E+03 -0.85260390335E+03  0.98263592131E+03  0.10100000352E+00 0. -1.
</event>
<event>
 5   0  0.2512000E-05  0.1300060E+04  0.7818609E-02  0.9029517E-01
       -3   -1    0    0    0  501  0.00000000000E+00  0.00000000000E+00  0.42438532670E+03  0.42438533872E+03  0.10100000352E+00 0.  1.
        3   -1    0    0  501    0  0.00000000000E+00  0.00000000000E+00 -0.99564989997E+03  0.99564990509E+03  0.10100000352E+00 0. -1.
    10030    2    1    2    0    0  0.00000000000E+00  0.00000000000E+00 -0.57126457327E+03  0.14200352438E+04  0.13000603374E+04 0.  0.
        4    1    3    3  502    0  0.49768509932E+03 -0.22699470740E+03  0.97945407857E+02  0.55570853070E+03  0.12699999809E+01 0.  1.
       -4    1    3    3    0  502 -0.49768509932E+03  0.22699470740E+03 -0.66920998112E+03  0.86432671312E+03  0.12699999809E+01 0. -1.
</event>
<event>
 5   0  0.6458698E-05  0.1299961E+04  0.7818609E-02  0.9029596E-01
       -2   -1    0    0    0  501  0.00000000000E+00  0.00000000000E+00  0.33865178942E+03  0.33865178943E+03  0.25500000920E-02 0. -1.
        2   -1    0    0  501    0  0.00000000000E+00  0.00000000000E+00 -0.12475187070E+04  0.12475187070E+04  0.25500000920E-02 0.  1.
    10030    2    1    2    0    0  0.00000000000E+00  0.00000000000E+00 -0.90886691756E+03  0.15861704964E+04  0.12999606801E+04 0.  0.
        3    1    3    3  502    0  0.30381759894E+03  0.49210888803E+03 -0.81638997563E+03  0.10004843295E+04  0.10100000352E+00 0.  1.
       -3    1    3    3    0  502 -0.30381759894E+03 -0.49210888803E+03 -0.92476941930E+02  0.58568616690E+03  0.10100000352E+00 0. -1.
</event>
<event>
 5   0  0.3631841E-05  0.1300169E+04  0.7818609E-02  0.9029431E-01
       -1   -1    0    0    0  501  0.00000000000E+00  0.00000000000E+00  0.63866358197E+03  0.63866358199E+03  0.50400001928E-02 0. -1.
        1   -1    0    0  501    0  0.00000000000E+00  0.00000000000E+00 -0.66170940386E+03  0.66170940388E+03  0.50400001928E-02 0.  1.
    10030    2    1    2    0    0  0.00000000000E+00  0.00000000000E+00 -0.23045821889E+02  0.13003729859E+04  0.13001687554E+04 0.  0.
        3    1    3    3  502    0 -0.43662353676E+03 -0.41287778197E+03 -0.25955685026E+03  0.65458226711E+03  0.10100000352E+00 0. -1.
       -3    1    3    3    0  502  0.43662353676E+03  0.41287778197E+03  0.23651102837E+03  0.64579071876E+03  0.10100000352E+00 0.  1.
</event>
<event>
 5   0  0.3551277E-05  0.1300840E+04  0.7818609E-02  0.9028899E-01
        1   -1    0    0  501    0  0.00000000000E+00  0.00000000000E+00  0.58402721588E+03  0.58402721590E+03  0.50400001928E-02 0.  1.
       -1   -1    0    0    0  501  0.00000000000E+00  0.00000000000E+00 -0.72436026473E+03  0.72436026474E+03  0.50400001928E-02 0. -1.
    10030    2    1    2    0    0  0.00000000000E+00  0.00000000000E+00 -0.14033304885E+03  0.13083874806E+04  0.13008398960E+04 0.  0.
        4    1    3    3  502    0 -0.42003799725E+03 -0.14968260091E+03 -0.54641959584E+03  0.70527497316E+03  0.12699999809E+01 0. -1.
       -4    1    3    3    0  502  0.42003799725E+03  0.14968260091E+03  0.40608654699E+03  0.60311250749E+03  0.12699999809E+01 0.  1.
</event>
<event>
 5   0  0.3552698E-05  0.1300268E+04  0.7818609E-02  0.9029352E-01
        1   -1    0    0  501    0  0.00000000000E+00  0.00000000000E+00  0.35987372825E+03  0.35987372828E+03  0.50400001928E-02 0.  1.
       -1   -1    0    0    0  501  0.00000000000E+00  0.00000000000E+00 -0.11745076777E+04  0.11745076777E+04  0.50400001928E-02 0. -1.
    10030    2    1    2    0    0  0.00000000000E+00  0.00000000000E+00 -0.81463394943E+03  0.15343814060E+04  0.13002683675E+04 0.  0.
        5    1    3    3  502    0 -0.48045004812E+03 -0.15225732156E+03  0.77276796183E+02  0.50991012338E+03  0.46999998093E+01 0.  1.
       -5    1    3    3    0  502  0.48045004812E+03  0.15225732156E+03 -0.89191074562E+03  0.10244712826E+04  0.46999998093E+01 0. -1.
</event>
<event>
 5   0  0.6742824E-05  0.1299342E+04  0.7818609E-02  0.9030087E-01
        2   -1    0    0  501    0  0.00000000000E+00  0.00000000000E+00  0.13519155971E+04  0.13519155971E+04  0.25500000920E-02 0.  1.
       -2   -1    0    0    0  501  0.00000000000E+00  0.00000000000E+00 -0.31220317529E+03  0.31220317530E+03  0.25500000920E-02 0. -1.
    10030    2    1    2    0    0  0.00000000000E+00  0.00000000000E+00  0.10397124218E+04  0.16641187724E+04  0.12993418983E+04 0.  0.
        4    1    3    3  502    0 -0.57946216077E+01 -0.76040582726E+02 -0.30644920415E+03  0.31579815624E+03  0.12699999809E+01 0. -1.
       -4    1    3    3    0  502  0.57946216077E+01  0.76040582726E+02  0.13461616260E+04  0.13483206162E+04  0.12699999809E+01 0.  1.
</event>
<event>
 5   0  0.6742824E-05  0.1299985E+04  0.7818609E-02  0.9029577E-01
        2   -1    0    0  501    0  0.00000000000E+00  0.00000000000E+00  0.50735500840E+03  0.50735500841E+03  0.25500000920E-02 0.  1.
       -2   -1    0    0    0  501  0.00000000000E+00  0.00000000000E+00 -0.83273117686E+03  0.83273117687E+03  0.25500000920E-02 0. -1.
    10030    2    1    2    0    0  0.00000000000E+00  0.00000000000E+00 -0.32537616846E+03  0.13400861853E+04  0.12999851280E+04 0.  0.
        4    1    3    3  502    0 -0.66322956008E+02 -0.63928111816E+03 -0.62692505168E+02  0.64576392408E+03  0.12699999809E+01 0.  1.
       -4    1    3    3    0  502  0.66322956008E+02  0.63928111816E+03 -0.26268366329E+03  0.69432226120E+03  0.12699999809E+01 0. -1.
</event>
<event>
 5   0  0.6458698E-05  0.1299904E+04  0.7818609E-02  0.9029641E-01
        2   -1    0    0  501    0  0.00000000000E+00  0.00000000000E+00  0.21640121265E+04  0.21640121265E+04  0.25500000920E-02 0. -1.
       -2   -1    0    0    0  501  0.00000000000E+00  0.00000000000E+00 -0.19521030602E+03  0.19521030603E+03  0.25500000920E-02 0.  1.
    10030    2    1    2    0    0  0.00000000000E+00  0.00000000000E+00  0.19688018205E+04  0.23592224325E+04  0.12999037956E+04 0.  0.
        3    1    3    3  502    0  0.27347388547E+03 -0.40759711426E+03  0.17576382951E+04  0.18248878761E+04  0.10100000352E+00 0. -1.
       -3    1    3    3    0  502 -0.27347388547E+03  0.40759711426E+03  0.21116352537E+03  0.53433455647E+03  0.10100000352E+00 0.  1.
</event>
<event>
 5   0  0.3689707E-05  0.1300038E+04  0.7818609E-02  0.9029535E-01
        1   -1    0    0  501    0  0.00000000000E+00  0.00000000000E+00  0.70969681104E+03  0.70969681106E+03  0.50400001928E-02 0. -1.
       -1   -1    0    0    0  501  0.00000000000E+00  0.00000000000E+00 -0.59535923339E+03  0.59535923341E+03  0.50400001928E-02 0.  1.
    10030    2    1    2    0    0  0.00000000000E+00  0.00000000000E+00  0.11433757765E+03  0.13050560445E+04  0.13000377677E+04 0.  0.
        1    1    3    3  502    0  0.60591624818E+02 -0.34808795866E+02 -0.59157773488E+03  0.59569053518E+03  0.50400001928E-02 0.  1.
       -1    1    3    3    0  502 -0.60591624818E+02  0.34808795866E+02  0.70591531253E+03  0.70936550928E+03  0.50400001928E-02 0. -1.
</event>
<event>
 5   0  0.6742824E-05  0.1300367E+04  0.7818609E-02  0.9029274E-01
        2   -1    0    0  501    0  0.00000000000E+00  0.00000000000E+00  0.11583537168E+04  0.11583537168E+04  0.25500000920E-02 0. -1.
       -2   -1    0    0    0  501  0.00000000000E+00  0.00000000000E+00 -0.36494777802E+03  0.36494777803E+03  0.25500000920E-02 0.  1.
    10030    2    1    2    0    0  0.00000000000E+00  0.00000000000E+00  0.79340593874E+03  0.15233014948E+04  0.13003670483E+04 0.  0.
        4    1    3    3  502    0  0.55958901615E+02  0.13363757888E+03  0.11392022171E+04  0.11483787291E+04  0.12699999809E+01 0. -1.
       -4    1    3    3    0  502 -0.55958901615E+02 -0.13363757888E+03 -0.34579627838E+03  0.37492276565E+03  0.12699999809E+01 0.  1.
</event>
<event>
 5   0  0.3551277E-05  0.1301067E+04  0.7818609E-02  0.9028720E-01
       -1   -1    0    0    0  501  0.00000000000E+00  0.00000000000E+00  0.38045129156E+03  0.38045129160E+03  0.50400001928E-02 0.  1.
        1   -1    0    0  501    0  0.00000000000E+00  0.00000000000E+00 -0.11123461583E+04  0.11123461583E+04  0.50400001928E-02 0. -1.
    10030    2    1    2    0    0  0.00000000000E+00  0.00000000000E+00 -0.73189486676E+03  0.14927974499E+04  0.13010665358E+04 0.  0.
        4    1    3    3  502    0  0.50170129959E+03  0.23493995670E+03 -0.75721542665E+03  0.93823120419E+03  0.12699999809E+01 0. -1.
       -4    1    3    3    0  502 -0.50170129959E+03 -0.23493995670E+03  0.25320559892E+02  0.55456624574E+03  0.12699999809E+01 0.  1.
</event>
<event>
 5   0  0.6671239E-05  0.1294943E+04  0.7818609E-02  0.9033585E-01
        2   -1    0    0  501    0  0.00000000000E+00  0.00000000000E+00  0.53850232613E+03  0.53850232613E+03  0.25500000920E-02 0. -1.
       -2   -1    0    0    0  501  0.00000000000E+00  0.00000000000E+00 -0.77849116524E+03  0.77849116524E+03  0.25500000920E-02 0.  1.
    10030    2    1    2    0    0  0.00000000000E+00  0.00000000000E+00 -0.23998883911E+03  0.13169934914E+04  0.12949429383E+04 0.  0.
        1    1    3    3  502    0  0.49731468965E+03  0.28013563733E+03  0.19085942756E+03  0.60185147417E+03  0.50400001928E-02 0. -1.
       -1    1    3    3    0  502 -0.49731468965E+03 -0.28013563733E+03 -0.43084826667E+03  0.71514201720E+03  0.50400001928E-02 0.  1.
</event>
<event>
 5   0  0.6688086E-05  0.1300959E+04  0.7818609E-02  0.9028805E-01
        2   -1    0    0  501    0  0.00000000000E+00  0.00000000000E+00  0.10108400034E+04  0.10108400034E+04  0.25500000920E-02 0.  1.
       -2   -1    0    0    0  501  0.00000000000E+00  0.00000000000E+00 -0.41858608554E+03  0.41858608555E+03  0.25500000920E-02 0. -1.
    10030    2    1    2    0    0  0.00000000000E+00  0.00000000000E+00  0.59225391781E+03  0.14294260889E+04  0.13009589696E+04 0.  0.
        5    1    3    3  502    0 -0.41883188376E+03  0.31534398194E+03 -0.12691171285E+03  0.53943548888E+03  0.46999998093E+01 0.  1.
       -5    1    3    3    0  502  0.41883188376E+03 -0.31534398194E+03  0.71916563066E+03  0.88999060002E+03  0.46999998093E+01 0. -1.
</event>
<event>
 5   0  0.3551277E-05  0.1306644E+04  0.7818609E-02  0.9024313E-01
       -1   -1    0    0    0  501  0.00000000000E+00  0.00000000000E+00  0.72572561299E+03  0.72572561300E+03  0.50400001928E-02 0.  1.
        1   -1    0    0  501    0  0.00000000000E+00  0.00000000000E+00 -0.58814205766E+03  0.58814205768E+03  0.50400001928E-02 0. -1.
    10030    2    1    2    0    0  0.00000000000E+00  0.00000000000E+00  0.13758355533E+03  0.13138676707E+04  0.13066441832E+04 0.  0.
        4    1    3    3  502    0 -0.41774800402E+03 -0.47566507094E+03  0.23110748892E+03  0.67393096004E+03  0.12699999809E+01 0.  1.
       -4    1    3    3    0  502  0.41774800402E+03  0.47566507094E+03 -0.93523933595E+02  0.63993671064E+03  0.12699999809E+01 0. -1.
</event>
<event>
 5   0  0.3689707E-05  0.1299390E+04  0.7818609E-02  0.9030049E-01
        1   -1    0    0  501    0  0.00000000000E+00  0.00000000000E+00  0.16111728054E+04  0.16111728054E+04  0.50400001928E-02 0. -1.
       -1   -1    0    0    0  501  0.00000000000E+00  0.00000000000E+00 -0.26198522316E+03  0.26198522321E+03  0.50400001928E-02 0.  1.
    10030    2    1    2    0    0  0.00000000000E+00  0.00000000000E+00  0.13491875822E+04  0.18731580286E+04  0.12993898061E+04 0.  0.
        1    1    3    3  502    0 -0.62181975532E+03  0.14939468263E+03  0.50944220051E+03  0.81762456849E+03  0.50400001928E-02 0. -1.
       -1    1    3    3    0  502  0.62181975532E+03 -0.14939468263E+03  0.83974538172E+03  0.10555334601E+04  0.50400001928E-02 0.  1.
</event>
<event>
 5   0  0.3551277E-05  0.1300465E+04  0.7818609E-02  0.9029196E-01
        1   -1    0    0  501    0  0.00000000000E+00  0.00000000000E+00  0.75133716270E+03  0.75133716272E+03  0.50400001928E-02 0. -1.
       -1   -1    0    0    0  501  0.00000000000E+00  0.00000000000E+00 -0.56273324141E+03  0.56273324143E+03  0.50400001928E-02 0.  1.
    10030    2    1    2    0    0  0.00000000000E+00  0.00000000000E+00  0.18860392130E+03  0.13140704042E+04  0.13004651429E+04 0.  0.
        4    1    3    3  502    0  0.18748389525E+03  0.11464917966E+01  0.72343051488E+03  0.74733181933E+03  0.12699999809E+01 0. -1.
       -4    1    3    3    0  502 -0.18748389525E+03 -0.11464917966E+01 -0.53482659359E+03  0.56673858482E+03  0.12699999809E+01 0.  1.
</event>
<event>
 5   0  0.6742824E-05  0.1300079E+04  0.7818609E-02  0.9029502E-01
        2   -1    0    0  501    0  0.00000000000E+00  0.00000000000E+00  0.75747816021E+03  0.75747816022E+03  0.25500000920E-02 0. -1.
       -2   -1    0    0    0  501  0.00000000000E+00  0.00000000000E+00 -0.55783975138E+03  0.55783975139E+03  0.25500000920E-02 0.  1.
    10030    2    1    2    0    0  0.00000000000E+00  0.00000000000E+00  0.19963840883E+03  0.13153179116E+04  0.13000791185E+04 0.  0.
        4    1    3    3  502    0 -0.23705154504E+03  0.14018008414E+03 -0.49589997554E+03  0.56724094495E+03  0.12699999809E+01 0.  1.
       -4    1    3    3    0  502  0.23705154504E+03 -0.14018008414E+03  0.69553838437E+03  0.74807696665E+03  0.12699999809E+01 0. -1.
</event>
<event>
 5   0  0.3689707E-05  0.1300078E+04  0.7818609E-02  0.9029503E-01
        1   -1    0    0  501    0  0.00000000000E+00  0.00000000000E+00  0.56628686551E+03  0.56628686553E+03  0.50400001928E-02 0. -1.
       -1   -1    0    0    0  501  0.00000000000E+00  0.00000000000E+00 -0.74617767034E+03  0.74617767036E+03  0.50400001928E-02 0.  1.
    10030    2    1    2    0    0  0.00000000000E+00  0.00000000000E+00 -0.17989080484E+03  0.13124645359E+04  0.13000778655E+04 0.  0.
        1    1    3    3  502    0  0.58854152148E+03 -0.22245854419E+03 -0.25484699916E+03  0.67883423558E+03  0.50400001928E-02 0.  1.
       -1    1    3    3    0  502 -0.58854152148E+03  0.22245854419E+03  0.74956194317E+02  0.63363030031E+03  0.50400001928E-02 0. -1.
</event>
<event>
 5   0  0.6671239E-05  0.1299958E+04  0.7818609E-02  0.9029599E-01
        2   -1    0    0  501    0  0.00000000000E+00  0.00000000000E+00  0.12310077820E+04  0.12310077820E+04  0.25500000920E-02 0. -1.
       -2   -1    0    0    0  501  0.00000000000E+00  0.00000000000E+00 -0.34319240749E+03  0.34319240750E+03  0.25500000920E-02 0.  1.
    10030    2    1    2    0    0  0.00000000000E+00  0.00000000000E+00  0.88781537446E+03  0.15742001895E+04  0.12999577291E+04 0.  0.
        1    1    3    3  502    0 -0.15544449217E+03 -0.62977995348E+03  0.39417346130E+03  0.75905105070E+03  0.50400001928E-02 0.  1.
       -1    1    3    3    0  502  0.15544449217E+03  0.62977995348E+03  0.49364191316E+03  0.81514913875E+03  0.50400001928E-02 0. -1.
</event>
<event>
 5   0  0.2512000E-05  0.1299706E+04  0.7818609E-02  0.9029799E-01
        3   -1    0    0  501    0  0.00000000000E+00  0.00000000000E+00  0.18990499643E+04  0.18990499670E+04  0.10100000352E+00 0. -1.
       -3   -1    0    0    0  501  0.00000000000E+00  0.00000000000E+00 -0.22237894234E+03  0.22237896528E+03  0.10100000352E+00 0.  1.
    10030    2    1    2    0    0  0.00000000000E+00  0.00000000000E+00  0.16766710219E+04  0.21214289322E+04  0.12997057354E+04 0.  0.
        2    1    3    3  502    0 -0.23906429825E+03 -0.56387642850E+03  0.11929497905E+04  0.13409838060E+04  0.25500000920E-02 0. -1.
       -2    1    3    3    0  502  0.23906429825E+03  0.56387642850E+03  0.48372123147E+03  0.78044512626E+03  0.25500000920E-02 0.  1.
</event>
<event>
 5   0  0.3552698E-05  0.1299838E+04  0.7818609E-02  0.9029694E-01
       -1   -1    0    0    0  501  0.00000000000E+00  0.00000000000E+00  0.60075736217E+03  0.60075736219E+03  0.50400001928E-02 0. -1.
        1   -1    0    0  501    0  0.00000000000E+00  0.00000000000E+00 -0.70310336064E+03  0.70310336066E+03  0.50400001928E-02 0.  1.
    10030    2    1    2    0    0  0.00000000000E+00  0.00000000000E+00 -0.10234599848E+03  0.13038607229E+04  0.12998377134E+04 0.  0.
        5    1    3    3  502    0  0.22220274260E+03  0.28388582857E+03  0.49124751540E+03  0.60935329150E+03  0.46999998093E+01 0. -1.
       -5    1    3    3    0  502 -0.22220274260E+03 -0.28388582857E+03 -0.59359351387E+03  0.69450743135E+03  0.46999998093E+01 0.  1.
</event>
<event>
 5   0  0.6458698E-05  0.1300771E+04  0.7818609E-02  0.9028954E-01
        2   -1    0    0  501    0  0.00000000000E+00  0.00000000000E+00  0.11453748269E+04  0.11453748269E+04  0.25500000920E-02 0. -1.
       -2   -1    0    0    0  501  0.00000000000E+00  0.00000000000E+00 -0.36931280617E+03  0.36931280617E+03  0.25500000920E-02 0.  1.
    10030    2    1    2    0    0  0.00000000000E+00  0.00000000000E+00  0.77606202069E+03  0.15146876330E+04  0.13007714502E+04 0.  0.
        3    1    3    3  502    0  0.35426210437E+03 -0.42696604276E+03 -0.71974508905E+01  0.55484543231E+03  0.10100000352E+00 0.  1.
       -3    1    3    3    0  502 -0.35426210437E+03  0.42696604276E+03  0.78325947158E+03  0.95984220072E+03  0.10100000352E+00 0. -1.
</event>
<event>
 5   0  0.3689707E-05  0.1300084E+04  0.7818609E-02  0.9029498E-01
        1   -1    0    0  501    0  0.00000000000E+00  0.00000000000E+00  0.10936756198E+04  0.10936756198E+04  0.50400001928E-02 0. -1.
       -1   -1    0    0    0  501  0.00000000000E+00  0.00000000000E+00 -0.38636205479E+03  0.38636205482E+03  0.50400001928E-02 0.  1.
    10030    2    1    2    0    0  0.00000000000E+00  0.00000000000E+00  0.70731356499E+03  0.14800376746E+04  0.13000842431E+04 0.  0.
        1    1    3    3  502    0  0.55686177891E+03  0.12681835738E+03  0.23966596776E+00  0.57111994716E+03  0.50400001928E-02 0.  1.
       -1    1    3    3    0  502 -0.55686177891E+03 -0.12681835738E+03  0.70707389903E+03  0.90891772746E+03  0.50400001928E-02 0. -1.
</event>
<event>
 5   0  0.3552698E-05  0.1299607E+04  0.7818609E-02  0.9029877E-01
       -1   -1    0    0    0  501  0.00000000000E+00  0.00000000000E+00  0.12615817600E+04  0.12615817600E+04  0.50400001928E-02 0.  1.
        1   -1    0    0  501    0  0.00000000000E+00  0.00000000000E+00 -0.33469473061E+03  0.33469473065E+03  0.50400001928E-02 0. -1.
    10030    2    1    2    0    0  0.00000000000E+00  0.00000000000E+00  0.92688702939E+03  0.15962764907E+04  0.12996072750E+04 0.  0.
        5    1    3    3  502    0 -0.14974783420E+03 -0.11540210841E+03 -0.30014580024E+03  0.35475576369E+03  0.46999998093E+01 0. -1.
       -5    1    3    3    0  502  0.14974783420E+03  0.11540210841E+03  0.12270328296E+04  0.12415207270E+04  0.46999998093E+01 0.  1.
</event>
<event>
 5   0  0.2512000E-05  0.1299557E+04  0.7818609E-02  0.9029916E-01
        3   -1    0    0  501    0  0.00000000000E+00  0.00000000000E+00  0.65333675521E+03  0.65333676302E+03  0.10100000352E+00 0.  1.
       -3   -1    0    0    0  501  0.00000000000E+00  0.00000000000E+00 -0.64623965726E+03  0.64623966515E+03  0.10100000352E+00 0. -1.
    10030    2    1    2    0    0  0.00000000000E+00  0.00000000000E+00  0.70970979525E+01  0.12995764282E+04  0.12995570491E+04 0.  0.
        1    1    3    3  502    0  0.25432543159E+03 -0.21142723741E+03 -0.55577117979E+03  0.64673372124E+03  0.50400001928E-02 0. -1.
       -1    1    3    3    0  502 -0.25432543159E+03  0.21142723741E+03  0.56286827775E+03  0.65284270693E+03  0.50400001928E-02 0.  1.
</event>
<event>
 5   0  0.6688086E-05  0.1298038E+04  0.7818609E-02  0.9031122E-01
       -2   -1    0    0    0  501  0.00000000000E+00  0.00000000000E+00  0.38577317968E+03  0.38577317969E+03  0.25500000920E-02 0. -1.
        2   -1    0    0  501    0  0.00000000000E+00  0.00000000000E+00 -0.10919001947E+04  0.10919001947E+04  0.25500000920E-02 0.  1.
    10030    2    1    2    0    0  0.00000000000E+00  0.00000000000E+00 -0.70612701501E+03  0.14776733744E+04  0.12980382275E+04 0.  0.
        5    1    3    3  502    0 -0.20756657697E+03  0.58687050179E+03 -0.14407409711E+03  0.63896815664E+03  0.46999998093E+01 0. -1.
       -5    1    3    3    0  502  0.20756657697E+03 -0.58687050179E+03 -0.56205291790E+03  0.83870521774E+03  0.46999998093E+01 0.  1.
</event>
<event>
 5   0  0.3689707E-05  0.1299866E+04  0.7818609E-02  0.9029671E-01
        1   -1    0    0  501    0  0.00000000000E+00  0.00000000000E+00  0.12899418645E+04  0.12899418645E+04  0.50400001928E-02 0.  1.
       -1   -1    0    0    0  501  0.00000000000E+00  0.00000000000E+00 -0.32746663581E+03  0.32746663585E+03  0.50400001928E-02 0. -1.
    10030    2    1    2    0    0  0.00000000000E+00  0.00000000000E+00  0.96247522870E+03  0.16174085004E+04  0.12998660282E+04 0.  0.
        1    1    3    3  502    0 -0.47339199035E+03 -0.22037200773E+01 -0.72866459610E+02  0.47897218486E+03  0.50400001928E-02 0. -1.
       -1    1    3    3    0  502  0.47339199035E+03  0.22037200773E+01  0.10353416883E+04  0.11384363155E+04  0.50400001928E-02 0.  1.
</event>
<event>
 5   0  0.3552698E-05  0.1298890E+04  0.7818609E-02  0.9030446E-01
       -1   -1    0    0    0  501  0.00000000000E+00  0.00000000000E+00  0.25295286041E+03  0.25295286046E+03  0.50400001928E-02 0.  1.
        1   -1    0    0  501    0  0.00000000000E+00  0.00000000000E+00 -0.16674195223E+04  0.16674195224E+04  0.50400001928E-02 0. -1.
    10030    2    1    2    0    0  0.00000000000E+00  0.00000000000E+00 -0.14144666619E+04  0.19203723828E+04  0.12988895838E+04 0.  0.
        5    1    3    3  502    0 -0.27746104072E+03 -0.49918032174E+03 -0.11643439628E+04  0.12968749270E+04  0.46999998093E+01 0.  1.
       -5    1    3    3    0  502  0.27746104072E+03  0.49918032174E+03 -0.25012269915E+03  0.62349745577E+03  0.46999998093E+01 0. -1.
</event>
<event>
 5   0  0.3631841E-05  0.1300471E+04  0.7818609E-02  0.9029192E-01
       -1   -1    0    0    0  501  0.00000000000E+00  0.00000000000E+00  0.17999860395E+03  0.17999860402E+03  0.50400001928E-02 0.  1.
        1   -1    0    0  501    0  0.00000000000E+00  0.00000000000E+00 -0.23489420266E+04  0.23489420267E+04  0.50400001928E-02 0. -1.
    10030    2    1    2    0    0  0.00000000000E+00  0.00000000000E+00 -0.21689434227E+04  0.25289406307E+04  0.13004711233E+04 0.  0.
        3    1    3    3  502    0  0.34377142355E+03 -0.13725548643E+02 -0.11500349603E+02  0.34423749153E+03  0.10100000352E+00 0.  1.
       -3    1    3    3    0  502 -0.34377142355E+03  0.13725548643E+02 -0.21574430731E+04  0.21847031391E+04  0.10100000352E+00 0. -1.
</event>
<event>
 5   0  0.6742824E-05  0.1299907E+04  0.7818609E-02  0.9029639E-01
        2   -1    0    0  501    0  0.00000000000E+00  0.00000000000E+00  0.10956688484E+04  0.10956688484E+04  0.25500000920E-02 0.  1.
       -2   -1    0    0    0  501  0.00000000000E+00  0.00000000000E+00 -0.38555406615E+03  0.38555406616E+03  0.25500000920E-02 0. -1.
    10030    2    1    2    0    0  0.00000000000E+00  0.00000000000E+00  0.71011478223E+03  0.14812229145E+04  0.12999070423E+04 0.  0.
        4    1    3    3  502    0  0.48120487333E+03  0.18355393368E+03  0.80682753828E+03  0.95719510348E+03  0.12699999809E+01 0.  1.
       -4    1    3    3    0  502 -0.48120487333E+03 -0.18355393368E+03 -0.96712756048E+02  0.52402781107E+03  0.12699999809E+01 0. -1.
</event>
<event>
 5   0  0.3718559E-05  0.1300219E+04  0.7818609E-02  0.9029392E-01
        1   -1    0    0  501    0  0.00000000000E+00  0.00000000000E+00  0.41528513746E+03  0.41528513749E+03  0.50400001928E-02 0. -1.
       -1   -1    0    0    0  501  0.00000000000E+00  0.00000000000E+00 -0.10177156977E+04  0.10177156977E+04  0.50400001928E-02 0.  1.
    10030    2    1    2    0    0  0.00000000000E+00  0.00000000000E+00 -0.60243056022E+03  0.14330008352E+04  0.13002187561E+04 0.  0.
        2    1    3    3  502    0 -0.21303911164E+03 -0.18769526158E+03 -0.94577065005E+03  0.98747014983E+03  0.25500000920E-02 0.  1.
       -2    1    3    3    0  502  0.21303911164E+03  0.18769526158E+03  0.34334008982E+03  0.44553068536E+03  0.25500000920E-02 0. -1.
</event>
<event>
 5   0  0.3552698E-05  0.1299913E+04  0.7818609E-02  0.9029634E-01
        1   -1    0    0  501    0  0.00000000000E+00  0.00000000000E+00  0.10885043652E+04  0.10885043652E+04  0.50400001928E-02 0. -1.
       -1   -1    0    0    0  501  0.00000000000E+00  0.00000000000E+00 -0.38809519993E+03  0.38809519996E+03  0.50400001928E-02 0.  1.
    10030    2    1    2    0    0  0.00000000000E+00  0.00000000000E+00  0.70040916523E+03  0.14765995651E+04  0.12999127959E+04 0.  0.
        5    1    3    3  502    0 -0.13060242734E+02 -0.55697316751E+02 -0.38521037550E+03  0.38946358549E+03  0.46999998093E+01 0.  1.
       -5    1    3    3    0  502  0.13060242734E+02  0.55697316751E+02  0.10856195407E+04  0.10871359796E+04  0.46999998093E+01 0. -1.
</event>
<event>
 5   0  0.6671239E-05  0.1300107E+04  0.7818609E-02  0.9029481E-01
        2   -1    0    0  501    0  0.00000000000E+00  0.00000000000E+00  0.64733530643E+03  0.64733530643E+03  0.25500000920E-02 0.  1.
       -2   -1    0    0    0  501  0.00000000000E+00  0.00000000000E+00 -0.65278277621E+03  0.65278277622E+03  0.25500000920E-02 0. -1.
    10030    2    1    2    0    0  0.00000000000E+00  0.00000000000E+00 -0.54474697822E+01  0.13001180827E+04  0.13001066702E+04 0.  0.
        1    1    3    3  502    0 -0.34051302045E+03 -0.24604663912E+03  0.49334641438E+03  0.64798051693E+03  0.50400001928E-02 0.  1.
       -1    1    3    3    0  502  0.34051302045E+03  0.24604663912E+03 -0.49879388416E+03  0.65213756572E+03  0.50400001928E-02 0. -1.
</event>
<event>
 5   0  0.6742824E-05  0.1299201E+04  0.7818609E-02  0.9030199E-01
       -2   -1    0    0    0  501  0.00000000000E+00  0.00000000000E+00  0.13976194272E+04  0.13976194272E+04  0.25500000920E-02 0. -1.
        2   -1    0    0  501    0  0.00000000000E+00  0.00000000000E+00 -0.30192827982E+03  0.30192827984E+03  0.25500000920E-02 0.  1.
    10030    2    1    2    0    0  0.00000000000E+00  0.00000000000E+00  0.10956911474E+04  0.16995477070E+04  0.12992010307E+04 0.  0.
        4    1    3    3  502    0  0.48145433644E+03 -0.17824846972E+03  0.27195257112E+02  0.51411281830E+03  0.12699999809E+01 0.  1.
       -4    1    3    3    0  502 -0.48145433644E+03  0.17824846972E+03  0.10684958903E+04  0.11854348887E+04  0.12699999809E+01 0. -1.
</event>
<event>
 5   0  0.6742824E-05  0.1297536E+04  0.7818609E-02  0.9031522E-01
       -2   -1    0    0    0  501  0.00000000000E+00  0.00000000000E+00  0.84549364395E+03  0.84549364395E+03  0.25500000920E-02 0.  1.
        2   -1    0    0  501    0  0.00000000000E+00  0.00000000000E+00 -0.49781528642E+03  0.49781528643E+03  0.25500000920E-02 0. -1.
    10030    2    1    2    0    0  0.00000000000E+00  0.00000000000E+00  0.34767835753E+03  0.13433089304E+04  0.12975356034E+04 0.  0.
        4    1    3    3  502    0 -0.27373570789E+03 -0.28207754934E+02 -0.43439924532E+03  0.51422877443E+03  0.12699999809E+01 0. -1.
       -4    1    3    3    0  502  0.27373570789E+03  0.28207754934E+02  0.78207760285E+03  0.82908015595E+03  0.12699999809E+01 0.  1.
</event>
<event>
 5   0  0.6618060E-05  0.1299939E+04  0.7818609E-02  0.9029614E-01
       -2   -1    0    0    0  501  0.00000000000E+00  0.00000000000E+00  0.32061452350E+03  0.32061452351E+03  0.25500000920E-02 0. -1.
        2   -1    0    0  501    0  0.00000000000E+00  0.00000000000E+00 -0.13176574770E+04  0.13176574770E+04  0.25500000920E-02 0.  1.
    10030    2    1    2    0    0  0.00000000000E+00  0.00000000000E+00 -0.99704295352E+03  0.16382720005E+04  0.12999386511E+04 0.  0.
        2    1    3    3  502    0  0.79708156392E+02 -0.63648479426E+03 -0.36638039118E+03  0.73871569265E+03  0.25500000920E-02 0.  1.
       -2    1    3    3    0  502 -0.79708156392E+02  0.63648479426E+03 -0.63066256234E+03  0.89955630789E+03  0.25500000920E-02 0. -1.
</event>
<event>
 5   0  0.6458698E-05  0.1300206E+04  0.7818609E-02  0.9029402E-01
       -2   -1    0    0    0  501  0.00000000000E+00  0.00000000000E+00  0.22739742459E+04  0.22739742459E+04  0.25500000920E-02 0.  1.
        2   -1    0    0  501    0  0.00000000000E+00  0.00000000000E+00 -0.18585690156E+03  0.18585690158E+03  0.25500000920E-02 0. -1.
    10030    2    1    2    0    0  0.00000000000E+00  0.00000000000E+00  0.20881173444E+04  0.24598311475E+04  0.13002058415E+04 0.  0.
        3    1    3    3  502    0 -0.49984021640E+03 -0.63125999079E+02  0.18213620403E+04  0.18897578749E+04  0.10100000352E+00 0.  1.
       -3    1    3    3    0  502  0.49984021640E+03  0.63125999079E+02  0.26675530407E+03  0.57007327261E+03  0.10100000352E+00 0. -1.
</event>
<event>
 5   0  0.3631841E-05  0.1299743E+04  0.7818609E-02  0.9029769E-01
       -1   -1    0    0    0  501  0.00000000000E+00  0.00000000000E+00  0.67137087517E+03  0.67137087519E+03  0.50400001928E-02 0.  1.
        1   -1    0    0  501    0  0.00000000000E+00  0.00000000000E+00 -0.62906030634E+03  0.62906030636E+03  0.50400001928E-02 0. -1.
    10030    2    1    2    0    0  0.00000000000E+00  0.00000000000E+00  0.42310568835E+02  0.13004311815E+04  0.12997426952E+04 0.  0.
        3    1    3    3  502    0  0.25364564533E+03  0.34831535405E+03  0.50790353702E+03  0.66605233457E+03  0.10100000352E+00 0.  1.
       -3    1    3    3    0  502 -0.25364564533E+03 -0.34831535405E+03 -0.46559296819E+03  0.63437884698E+03  0.10100000352E+00 0. -1.
</event>
<event>
 5   0  0.3551277E-05  0.1300749E+04  0.7818609E-02  0.9028971E-01
       -1   -1    0    0    0  501  0.00000000000E+00  0.00000000000E+00  0.29690612101E+03  0.29690612105E+03  0.50400001928E-02 0.  1.
        1   -1    0    0  501    0  0.00000000000E+00  0.00000000000E+00 -0.14246490172E+04  0.14246490172E+04  0.50400001928E-02 0. -1.
    10030    2    1    2    0    0  0.00000000000E+00  0.00000000000E+00 -0.11277428962E+04  0.17215551383E+04  0.13007490358E+04 0.  0.
        4    1    3    3  502    0  0.24237777235E+03 -0.57548646640E+03 -0.32324810963E+03  0.70315191162E+03  0.12699999809E+01 0.  1.
       -4    1    3    3    0  502 -0.24237777235E+03  0.57548646640E+03 -0.80449478655E+03  0.10184032266E+04  0.12699999809E+01 0. -1.
</event>
<event>
 5   0  0.6458698E-05  0.1299921E+04  0.7818609E-02  0.9029628E-01
        2   -1    0    0  501    0  0.00000000000E+00  0.00000000000E+00  0.49009303877E+03  0.49009303878E+03  0.25500000920E-02 0.  1.
       -2   -1    0    0    0  501  0.00000000000E+00  0.00000000000E+00 -0.86197647281E+03  0.86197647282E+03  0.25500000920E-02 0. -1.
    10030    2    1    2    0    0  0.00000000000E+00  0.00000000000E+00 -0.37188343404E+03  0.13520695116E+04  0.12999210267E+04 0.  0.
        3    1    3    3  502    0  0.51781886233E+03  0.19546288217E+02 -0.59402049147E+03  0.78827583120E+03  0.10100000352E+00 0. -1.
       -3    1    3    3    0  502 -0.51781886233E+03 -0.19546288217E+02  0.22213705743E+03  0.56379368039E+03  0.10100000352E+00 0.  1.
</event>
<event>
 5   0  0.6618060E-05  0.1300010E+04  0.7818609E-02  0.9029557E-01
        2   -1    0    0  501    0  0.00000000000E+00  0.00000000000E+00  0.47567487079E+03  0.47567487080E+03  0.25500000920E-02 0. -1.
       -2   -1    0    0    0  501  0.00000000000E+00  0.00000000000E+00 -0.88822551744E+03  0.88822551745E+03  0.25500000920E-02 0.  1.
    10030    2    1    2    0    0  0.00000000000E+00  0.00000000000E+00 -0.41255064665E+03  0.13639003882E+04  0.13000100896E+04 0.  0.
        2    1    3    3  502    0 -0.27876178525E+02 -0.49151522416E+03 -0.65156613637E+03  0.81664112496E+03  0.25500000920E-02 0.  1.
       -2    1    3    3    0  502  0.27876178525E+02  0.49151522416E+03  0.23901548972E+03  0.54725926328E+03  0.25500000920E-02 0. -1.
</event>
<event>
 5   0  0.3689707E-05  0.1298708E+04  0.7818609E-02  0.9030590E-01
       -1   -1    0    0    0  501  0.00000000000E+00  0.00000000000E+00  0.43500605947E+03  0.43500605949E+03  0.50400001928E-02 0.  1.
        1   -1    0    0  501    0  0.00000000000E+00  0.00000000000E+00 -0.96932177315E+03  0.96932177316E+03  0.50400001928E-02 0. -1.
    10030    2    1    2    0    0  0.00000000000E+00  0.00000000000E+00 -0.53431571368E+03  0.14043278327E+04  0.12987083505E+04 0.  0.
        1    1    3    3  502    0 -0.49959009735E+03 -0.32027733207E+03  0.17896335126E+02  0.59370709415E+03  0.50400001928E-02 0.  1.
       -1    1    3    3    0  502  0.49959009735E+03  0.32027733207E+03 -0.55221204881E+03  0.81062073850E+03  0.50400001928E-02 0. -1.
</event>
<event>
 5   0  0.6671239E-05  0.1300495E+04  0.7818609E-02  0.9029173E-01
        2   -1    0    0  501    0  0.00000000000E+00  0.00000000000E+00  0.22419455090E+04  0.22419455090E+04  0.25500000920E-02 0. -1.
       -2   -1    0    0    0  501  0.00000000000E+00  0.00000000000E+00 -0.18859585793E+03  0.18859585794E+03  0.25500000920E-02 0.  1.
    10030    2    1    2    0    0  0.00000000000E+00  0.00000000000E+00  0.20533496511E+04  0.24305413669E+04  0.13004947316E+04 0.  0.
        1    1    3    3  502    0 -0.49874395229E+03 -0.19374550018E+03  0.33608139701E+03  0.63184931291E+03  0.50400001928E-02 0.  1.
       -1    1    3    3    0  502  0.49874395229E+03  0.19374550018E+03  0.17172682541E+04  0.17986920540E+04  0.50400001928E-02 0. -1.
</event>
<event>
 5   0  0.3718559E-05  0.1300686E+04  0.7818609E-02  0.9029021E-01
        1   -1    0    0  501    0  0.00000000000E+00  0.00000000000E+00  0.10693056016E+04  0.10693056016E+04  0.50400001928E-02 0. -1.
       -1   -1    0    0    0  501  0.00000000000E+00  0.00000000000E+00 -0.39553330871E+03  0.39553330874E+03  0.50400001928E-02 0.  1.
    10030    2    1    2    0    0  0.00000000000E+00  0.00000000000E+00  0.67377229288E+03  0.14648389103E+04  0.13006859462E+04 0.  0.
        2    1    3    3  502    0  0.13833188815E+02  0.40185532733E+03  0.91253763729E+03  0.99719807495E+03  0.25500000920E-02 0. -1.
       -2    1    3    3    0  502 -0.13833188815E+02 -0.40185532733E+03 -0.23876534441E+03  0.46764083538E+03  0.25500000920E-02 0.  1.
</event>
<event>
 5   0  0.6688086E-05  0.1299561E+04  0.7818609E-02  0.9029913E-01
       -2   -1    0    0    0  501  0.00000000000E+00  0.00000000000E+00  0.21245180427E+03  0.21245180428E+03  0.25500000920E-02 0.  1.
        2   -1    0    0  501    0  0.00000000000E+00  0.00000000000E+00 -0.19873447239E+04  0.19873447239E+04  0.25500000920E-02 0. -1.
    10030    2    1    2    0    0  0.00000000000E+00  0.00000000000E+00 -0.17748929196E+04  0.21997965281E+04  0.12995614219E+04 0.  0.
        5    1    3    3  502    0  0.30197959446E+03  0.11605750388E+03 -0.18412948633E+04  0.18695052509E+04  0.46999998093E+01 0. -1.
       -5    1    3    3    0  502 -0.30197959446E+03 -0.11605750388E+03  0.66401943699E+02  0.33029127721E+03  0.46999998093E+01 0.  1.
</event>
<event>
 5   0  0.3718559E-05  0.1299645E+04  0.7818609E-02  0.9029847E-01
        1   -1    0    0  501    0  0.00000000000E+00  0.00000000000E+00  0.10188039683E+04  0.10188039683E+04  0.50400001928E-02 0.  1.
       -1   -1    0    0    0  501  0.00000000000E+00  0.00000000000E+00 -0.41447567454E+03  0.41447567457E+03  0.50400001928E-02 0. -1.
    10030    2    1    2    0    0  0.00000000000E+00  0.00000000000E+00  0.60432829371E+03  0.14332796428E+04  0.12996452778E+04 0.  0.
        2    1    3    3  502    0 -0.59429650289E+03  0.17723492146E+03  0.88122820553E+02  0.62639139701E+03  0.25500000920E-02 0.  1.
       -2    1    3    3    0  502  0.59429650289E+03 -0.17723492146E+03  0.51620547316E+03  0.80688824583E+03  0.25500000920E-02 0. -1.
</event>
<event>
 5   0  0.3631841E-05  0.1300102E+04  0.7818609E-02  0.9029485E-01
       -1   -1    0    0    0  501  0.00000000000E+00  0.00000000000E+00  0.51612878837E+03  0.51612878840E+03  0.50400001928E-02 0.  1.
        1   -1    0    0  501    0  0.00000000000E+00  0.00000000000E+00 -0.81872201636E+03  0.81872201637E+03  0.50400001928E-02 0. -1.
    10030    2    1    2    0    0  0.00000000000E+00  0.00000000000E+00 -0.30259322799E+03  0.13348508048E+04  0.13001015381E+04 0.  0.
        3    1    3    3  502    0 -0.31343408505E+03 -0.49949172111E+03 -0.43216462975E+03  0.73109450999E+03  0.10100000352E+00 0. -1.
       -3    1    3    3    0  502  0.31343408505E+03  0.49949172111E+03  0.12957140177E+03  0.60375629478E+03  0.10100000352E+00 0.  1.
</event>
<event>
 5   0  0.3552698E-05  0.1300357E+04  0.7818609E-02  0.9029282E-01
       -1   -1    0    0    0  501  0.00000000000E+00  0.00000000000E+00  0.26812006296E+03  0.26812006300E+03  0.50400001928E-02 0.  1.
        1   -1    0    0  501    0  0.00000000000E+00  0.00000000000E+00 -0.15766512746E+04  0.15766512746E+04  0.50400001928E-02 0. -1.
    10030    2    1    2    0    0  0.00000000000E+00  0.00000000000E+00 -0.13085312116E+04  0.18447713376E+04  0.13003566266E+04 0.  0.
        5    1    3    3  502    0 -0.63705979912E+03 -0.80427121924E+02 -0.79891413666E+03  0.10249876084E+04  0.46999998093E+01 0. -1.
       -5    1    3    3    0  502  0.63705979912E+03  0.80427121924E+02 -0.50961707499E+03  0.81978372923E+03  0.46999998093E+01 0.  1.
</event>
<event>
 5   0  0.6671239E-05  0.1300511E+04  0.7818609E-02  0.9029160E-01
       -2   -1    0    0    0  501  0.00000000000E+00  0.00000000000E+00  0.30019298703E+03  0.30019298704E+03  0.25500000920E-02 0. -1.
        2   -1    0    0  501    0  0.00000000000E+00  0.00000000000E+00 -0.14085349247E+04  0.14085349247E+04  0.25500000920E-02 0.  1.
    10030    2    1    2    0    0  0.00000000000E+00  0.00000000000E+00 -0.11083419377E+04  0.17087279118E+04  0.13005111401E+04 0.  0.
        1    1    3    3  502    0  0.45945476909E+03  0.17558243123E+03  0.46638269447E+01  0.49188375283E+03  0.50400001928E-02 0. -1.
       -1    1    3    3    0  502 -0.45945476909E+03 -0.17558243123E+03 -0.11130057646E+04  0.12168441589E+04  0.50400001928E-02 0.  1.
</event>
<event>
 5   0  0.3631841E-05  0.1299917E+04  0.7818609E-02  0.9029631E-01
       -1   -1    0    0    0  501  0.00000000000E+00  0.00000000000E+00  0.97497621898E+03  0.97497621900E+03  0.50400001928E-02 0.  1.
        1   -1    0    0  501    0  0.00000000000E+00  0.00000000000E+00 -0.43328883665E+03  0.43328883668E+03  0.50400001928E-02 0. -1.
    10030    2    1    2    0    0  0.00000000000E+00  0.00000000000E+00  0.54168738234E+03  0.14082650557E+04  0.12999174000E+04 0.  0.
        3    1    3    3  502    0  0.57962718885E+03 -0.20055377143E+03  0.50384398957E+03  0.79375579955E+03  0.10100000352E+00 0. -1.
       -3    1    3    3    0  502 -0.57962718885E+03  0.20055377143E+03  0.37843392772E+02  0.61450925613E+03  0.10100000352E+00 0.  1.
</event>
<event>
 5   0  0.6618060E-05  0.1306646E+04  0.7818609E-02  0.9024311E-01
       -2   -1    0    0    0  501  0.00000000000E+00  0.00000000000E+00  0.79919327087E+03  0.79919327087E+03  0.25500000920E-02 0.  1.
        2   -1    0    0  501    0  0.00000000000E+00  0.00000000000E+00 -0.53407750119E+03  0.53407750120E+03  0.25500000920E-02 0. -1.
    10030    2    1    2    0    0  0.00000000000E+00  0.00000000000E+00  0.26511576968E+03  0.13332707721E+04  0.13066463103E+04 0.  0.
        2    1    3    3  502    0 -0.37450848978E+03  0.67114393562E+02  0.67448254139E+03  0.77439502154E+03  0.25500000920E-02 0.  1.
       -2    1    3    3    0  502  0.37450848978E+03 -0.67114393562E+02 -0.40936677172E+03  0.55887575053E+03  0.25500000920E-02 0. -1.
</event>
<event>
 5   0  0.3551277E-05  0.1298724E+04  0.7818609E-02  0.9030578E-01
       -1   -1    0    0    0  501  0.00000000000E+00  0.00000000000E+00  0.25346270848E+03  0.25346270853E+03  0.50400001928E-02 0. -1.
        1   -1    0    0  501    0  0.00000000000E+00  0.00000000000E+00 -0.16636407420E+04  0.16636407420E+04  0.50400001928E-02 0.  1.
    10030    2    1    2    0    0  0.00000000000E+00  0.00000000000E+00 -0.14101780335E+04  0.19171034506E+04  0.12987238174E+04 0.  0.
        4    1    3    3  502    0  0.47676321544E+03  0.43341158012E+03 -0.82428720818E+03  0.10462312248E+04  0.12699999809E+01 0. -1.
       -4    1    3    3    0  502 -0.47676321544E+03 -0.43341158012E+03 -0.58589082536E+03  0.87087222571E+03  0.12699999809E+01 0.  1.
</event>
<event>
 5   0  0.3552698E-05  0.1299664E+04  0.7818609E-02  0.9029832E-01
        1   -1    0    0  501    0  0.00000000000E+00  0.00000000000E+00  0.80301910464E+03  0.80301910466E+03  0.50400001928E-02 0. -1.
       -1   -1    0    0    0  501  0.00000000000E+00  0.00000000000E+00 -0.52586729292E+03  0.52586729295E+03  0.50400001928E-02 0.  1.
    10030    2    1    2    0    0  0.00000000000E+00  0.00000000000E+00  0.27715181172E+03  0.13288863976E+04  0.12996637761E+04 0.  0.
        5    1    3    3  502    0  0.14336959716E+03  0.53155765218E+03  0.49151983192E+03  0.73805298871E+03  0.46999998093E+01 0. -1.
       -5    1    3    3    0  502 -0.14336959716E+03 -0.53155765218E+03 -0.21436802020E+03  0.59083340889E+03  0.46999998093E+01 0.  1.
</event>
<event>
 5   0  0.6688086E-05  0.1300265E+04  0.7818609E-02  0.9029355E-01
        2   -1    0    0  501    0  0.00000000000E+00  0.00000000000E+00  0.10889999993E+04  0.10889999993E+04  0.25500000920E-02 0.  1.
       -2   -1    0    0    0  501  0.00000000000E+00  0.00000000000E+00 -0.38812889738E+03  0.38812889739E+03  0.25500000920E-02 0. -1.
    10030    2    1    2    0    0  0.00000000000E+00  0.00000000000E+00  0.70087110189E+03  0.14771288967E+04  0.13002651560E+04 0.  0.
        5    1    3    3  502    0 -0.15611213457E+03 -0.49982886143E+03  0.78813614954E+03  0.94624551227E+03  0.46999998093E+01 0.  1.
       -5    1    3    3    0  502  0.15611213457E+03  0.49982886143E+03 -0.87265047648E+02  0.53088338439E+03  0.46999998093E+01 0. -1.
</event>
<event>
 5   0  0.3552698E-05  0.1300178E+04  0.7818609E-02  0.9029424E-01
        1   -1    0    0  501    0  0.00000000000E+00  0.00000000000E+00  0.94851202291E+03  0.94851202293E+03  0.50400001928E-02 0.  1.
       -1   -1    0    0    0  501  0.00000000000E+00  0.00000000000E+00 -0.44555661964E+03  0.44555661966E+03  0.50400001928E-02 0. -1.
    10030    2    1    2    0    0  0.00000000000E+00  0.00000000000E+00  0.50295540328E+03  0.13940686426E+04  0.13001781580E+04 0.  0.
        5    1    3    3  502    0 -0.31811130343E+03  0.28880371692E+03 -0.27159476791E+03  0.50831899062E+03  0.46999998093E+01 0. -1.
       -5    1    3    3    0  502  0.31811130343E+03 -0.28880371692E+03  0.77455017119E+03  0.88574965197E+03  0.46999998093E+01 0.  1.
</event>
<event>
 5   0  0.3718559E-05  0.1302924E+04  0.7818609E-02  0.9027250E-01
        1   -1    0    0  501    0  0.00000000000E+00  0.00000000000E+00  0.64115770536E+03  0.64115770538E+03  0.50400001928E-02 0.  1.
       -1   -1    0    0    0  501  0.00000000000E+00  0.00000000000E+00 -0.66193143489E+03  0.66193143491E+03  0.50400001928E-02 0. -1.
    10030    2    1    2    0    0  0.00000000000E+00  0.00000000000E+00 -0.20773729528E+02  0.13030891403E+04  0.13029235433E+04 0.  0.
        2    1    3    3  502    0 -0.29362232797E+03 -0.43671323983E+03  0.37368006012E+03  0.64542180987E+03  0.25500000920E-02 0.  1.
       -2    1    3    3    0  502  0.29362232797E+03  0.43671323983E+03 -0.39445378965E+03  0.65766733042E+03  0.25500000920E-02 0. -1.
</event>
<event>
 5   0  0.6671239E-05  0.1300453E+04  0.7818609E-02  0.9029206E-01
       -2   -1    0    0    0  501  0.00000000000E+00  0.00000000000E+00  0.14455828054E+04  0.14455828054E+04  0.25500000920E-02 0.  1.
        2   -1    0    0  501    0  0.00000000000E+00  0.00000000000E+00 -0.29247331459E+03  0.29247331460E+03  0.25500000920E-02 0. -1.
    10030    2    1    2    0    0  0.00000000000E+00  0.00000000000E+00  0.11531094909E+04  0.17380561200E+04  0.13004528360E+04 0.  0.
        1    1    3    3  502    0 -0.14563754679E+03 -0.39601732477E+03  0.12377571491E+04  0.13077013331E+04  0.50400001928E-02 0.  1.
       -1    1    3    3    0  502  0.14563754679E+03  0.39601732477E+03 -0.84647658227E+02  0.43035478692E+03  0.50400001928E-02 0. -1.
</event>
<event>
 5   0  0.3551277E-05  0.1300039E+04  0.7818609E-02  0.9029534E-01
       -1   -1    0    0    0  501  0.00000000000E+00  0.00000000000E+00  0.51216644621E+03  0.51216644623E+03  0.50400001928E-02 0.  1.
        1   -1    0    0  501    0  0.00000000000E+00  0.00000000000E+00 -0.82497723140E+03  0.82497723142E+03  0.50400001928E-02 0. -1.
    10030    2    1    2    0    0  0.00000000000E+00  0.00000000000E+00 -0.31281078520E+03  0.13371436776E+04  0.13000394715E+04 0.  0.
        4    1    3    3  502    0 -0.48715349243E+03 -0.41436385948E+03 -0.27594693152E+03  0.69653733219E+03  0.12699999809E+01 0.  1.
       -4    1    3    3    0  502  0.48715349243E+03  0.41436385948E+03 -0.36863853681E+02  0.64060634545E+03  0.12699999809E+01 0. -1.
</event>
<event>
 5   0  0.6671239E-05  0.1299409E+04  0.7818609E-02  0.9030034E-01
       -2   -1    0    0    0  501  0.00000000000E+00  0.00000000000E+00  0.17760609878E+03  0.17760609880E+03  0.25500000920E-02 0.  1.
        2   -1    0    0  501    0  0.00000000000E+00  0.00000000000E+00 -0.23766977586E+04  0.23766977586E+04  0.25500000920E-02 0. -1.
    10030    2    1    2    0    0  0.00000000000E+00  0.00000000000E+00 -0.21990916598E+04  0.25543038574E+04  0.12994091225E+04 0.  0.
        1    1    3    3  502    0  0.31030586020E+03 -0.51229597509E+03 -0.15944256716E+04  0.17032117059E+04  0.50400001928E-02 0. -1.
       -1    1    3    3    0  502 -0.31030586020E+03  0.51229597509E+03 -0.60466598826E+03  0.85109215150E+03  0.50400001928E-02 0.  1.
</event>
<event>
 5   0  0.6671239E-05  0.1299913E+04  0.7818609E-02  0.9029634E-01
        2   -1    0    0  501    0  0.00000000000E+00  0.00000000000E+00  0.60874325195E+03  0.60874325195E+03  0.25500000920E-02 0.  1.
       -2   -1    0    0    0  501  0.00000000000E+00  0.00000000000E+00 -0.69395977222E+03  0.69395977222E+03  0.25500000920E-02 0. -1.
    10030    2    1    2    0    0  0.00000000000E+00  0.00000000000E+00 -0.85216520273E+02  0.13027030242E+04  0.12999128101E+04 0.  0.
        1    1    3    3  502    0  0.63286383793E+03 -0.13093514987E+03 -0.11191360859E+03  0.65588513220E+03  0.50400001928E-02 0. -1.
       -1    1    3    3    0  502 -0.63286383793E+03  0.13093514987E+03  0.26697088319E+02  0.64681789197E+03  0.50400001928E-02 0.  1.
</event>
<event>
 5   0  0.3551277E-05  0.1300139E+04  0.7818609E-02  0.9029455E-01
        1   -1    0    0  501    0  0.00000000000E+00  0.00000000000E+00  0.75947343286E+03  0.75947343288E+03  0.50400001928E-02 0. -1.
       -1   -1    0    0    0  501  0.00000000000E+00  0.00000000000E+00 -0.55642546530E+03  0.55642546532E+03  0.50400001928E-02 0.  1.
    10030    2    1    2    0    0  0.00000000000E+00  0.00000000000E+00  0.20304796757E+03  0.13158988982E+04  0.13001390053E+04 0.  0.
        4    1    3    3  502    0  0.47110590561E+03  0.17716524119E+03 -0.31487578446E+03  0.59369745622E+03  0.12699999809E+01 0.  1.
       -4    1    3    3    0  502 -0.47110590561E+03 -0.17716524119E+03  0.51792375202E+03  0.72220144198E+03  0.12699999809E+01 0. -1.
</event>
<event>
 5   0  0.3631841E-05  0.1299884E+04  0.7818609E-02  0.9029658E-01
       -1   -1    0    0    0  501  0.00000000000E+00  0.00000000000E+00  0.49554266496E+03  0.49554266499E+03  0.50400001928E-02 0. -1.
        1   -1    0    0  501    0  0.00000000000E+00  0.00000000000E+00 -0.85244790167E+03  0.85244790169E+03  0.50400001928E-02 0.  1.
    10030    2    1    2    0    0  0.00000000000E+00  0.00000000000E+00 -0.35690523671E+03  0.13479905667E+04  0.12998835409E+04 0.  0.
        3    1    3    3  502    0 -0.37556703727E+03  0.84344478455E+02  0.36462688215E+03  0.53020502065E+03  0.10100000352E+00 0. -1.
       -3    1    3    3    0  502  0.37556703727E+03 -0.84344478455E+02 -0.72153211886E+03  0.81778554602E+03  0.10100000352E+00 0.  1.
</event>
<event>
 5   0  0.6742824E-05  0.1299724E+04  0.7818609E-02  0.9029784E-01
        2   -1    0    0  501    0  0.00000000000E+00  0.00000000000E+00  0.18074156725E+04  0.18074156725E+04  0.25500000920E-02 0.  1.
       -2   -1    0    0    0  501  0.00000000000E+00  0.00000000000E+00 -0.23366007284E+03  0.23366007285E+03  0.25500000920E-02 0. -1.
    10030    2    1    2    0    0  0.00000000000E+00  0.00000000000E+00  0.15737555996E+04  0.20410757453E+04  0.12997243980E+04 0.  0.
        4    1    3    3  502    0  0.25644003937E+03 -0.36379610384E+03  0.43284444331E+02  0.44719599169E+03  0.12699999809E+01 0. -1.
       -4    1    3    3    0  502 -0.25644003937E+03  0.36379610384E+03  0.15304711553E+04  0.15938797536E+04  0.12699999809E+01 0.  1.
</event>
<event>
 5   0  0.3551277E-05  0.1300077E+04  0.7818609E-02  0.9029504E-01
       -1   -1    0    0    0  501  0.00000000000E+00  0.00000000000E+00  0.79769104136E+03  0.79769104137E+03  0.50400001928E-02 0. -1.
        1   -1    0    0  501    0  0.00000000000E+00  0.00000000000E+00 -0.52971626722E+03  0.52971626724E+03  0.50400001928E-02 0.  1.
    10030    2    1    2    0    0  0.00000000000E+00  0.00000000000E+00  0.26797477414E+03  0.13274073086E+04  0.13000767990E+04 0.  0.
        4    1    3    3  502    0  0.39418239184E+03 -0.40516678373E+03  0.46168371492E+03  0.72985844257E+03  0.12699999809E+01 0. -1.
       -4    1    3    3    0  502 -0.39418239184E+03  0.40516678373E+03 -0.19370894078E+03  0.59754886605E+03  0.12699999809E+01 0.  1.
</event>
<event>
 5   0  0.3689707E-05  0.1299017E+04  0.7818609E-02  0.9030345E-01
       -1   -1    0    0    0  501  0.00000000000E+00  0.00000000000E+00  0.11013826104E+04  0.11013826104E+04  0.50400001928E-02 0.  1.
        1   -1    0    0  501    0  0.00000000000E+00  0.00000000000E+00 -0.38302893933E+03  0.38302893936E+03  0.50400001928E-02 0. -1.
    10030    2    1    2    0    0  0.00000000000E+00  0.00000000000E+00  0.71835367104E+03  0.14844115497E+04  0.12990171871E+04 0.  0.
        1    1    3    3  502    0  0.44197064336E+02  0.41223809561E+03  0.93049949431E+03  0.10186868689E+04  0.50400001928E-02 0.  1.
       -1    1    3    3    0  502 -0.44197064336E+02 -0.41223809561E+03 -0.21214582327E+03  0.46572468082E+03  0.50400001928E-02 0. -1.
</event>
<event>
 5   0  0.3552698E-05  0.1299997E+04  0.7818609E-02  0.9029567E-01
       -1   -1    0    0    0  501  0.00000000000E+00  0.00000000000E+00  0.67496795140E+03  0.67496795141E+03  0.50400001928E-02 0. -1.
        1   -1    0    0  501    0  0.00000000000E+00  0.00000000000E+00 -0.62595303537E+03  0.62595303539E+03  0.50400001928E-02 0.  1.
    10030    2    1    2    0    0  0.00000000000E+00  0.00000000000E+00  0.49014916024E+02  0.13009209868E+04  0.12999972892E+04 0.  0.
        5    1    3    3  502    0 -0.13016062457E+03 -0.25910087176E+03 -0.55762840469E+03  0.62852730859E+03  0.46999998093E+01 0.  1.
       -5    1    3    3    0  502  0.13016062457E+03  0.25910087176E+03  0.60664332072E+03  0.67239367821E+03  0.46999998093E+01 0. -1.
</event>
<event>
 5   0  0.6742824E-05  0.1299379E+04  0.7818609E-02  0.9030058E-01
       -2   -1    0    0    0  501  0.00000000000E+00  0.00000000000E+00  0.45652424382E+03  0.45652424383E+03  0.25500000920E-02 0.  1.
        2   -1    0    0  501    0  0.00000000000E+00  0.00000000000E+00 -0.92458667864E+03  0.92458667865E+03  0.25500000920E-02 0. -1.
    10030    2    1    2    0    0  0.00000000000E+00  0.00000000000E+00 -0.46806243482E+03  0.13811109225E+04  0.12993786736E+04 0.  0.
        4    1    3    3  502    0  0.20285650583E+03 -0.44255823817E+03 -0.69130856378E+03  0.84552805949E+03  0.12699999809E+01 0. -1.
       -4    1    3    3    0  502 -0.20285650583E+03  0.44255823817E+03  0.22324612895E+03  0.53558286299E+03  0.12699999809E+01 0.  1.
</event>
<event>
 5   0  0.6618060E-05  0.1299431E+04  0.7818609E-02  0.9030016E-01
       -2   -1    0    0    0  501  0.00000000000E+00  0.00000000000E+00  0.54812323832E+03  0.54812323833E+03  0.25500000920E-02 0. -1.
        2   -1    0    0  501    0  0.00000000000E+00  0.00000000000E+00 -0.77013747809E+03  0.77013747810E+03  0.25500000920E-02 0.  1.
    10030    2    1    2    0    0  0.00000000000E+00  0.00000000000E+00 -0.22201423977E+03  0.13182607164E+04  0.12994310270E+04 0.  0.
        2    1    3    3  502    0  0.33455872864E+03  0.38797157532E+03 -0.51639583683E+03  0.72740370254E+03  0.25500000920E-02 0.  1.
       -2    1    3    3    0  502 -0.33455872864E+03 -0.38797157532E+03  0.29438159706E+03  0.59085701389E+03  0.25500000920E-02 0. -1.
</event>
<event>
 5   0  0.3552698E-05  0.1300348E+04  0.7818609E-02  0.9029289E-01
        1   -1    0    0  501    0  0.00000000000E+00  0.00000000000E+00  0.69140508774E+03  0.69140508776E+03  0.50400001928E-02 0.  1.
       -1   -1    0    0    0  501  0.00000000000E+00  0.00000000000E+00 -0.61140148796E+03  0.61140148798E+03  0.50400001928E-02 0. -1.
    10030    2    1    2    0    0  0.00000000000E+00  0.00000000000E+00  0.80003599785E+02  0.13028065757E+04  0.13003477988E+04 0.  0.
        5    1    3    3  502    0 -0.16549619210E+03  0.22850390558E+03 -0.54685399521E+03  0.61536526270E+03  0.46999998093E+01 0. -1.
       -5    1    3    3    0  502  0.16549619210E+03 -0.22850390558E+03  0.62685759499E+03  0.68744131303E+03  0.46999998093E+01 0.  1.
</event>
<event>
 5   0  0.3689707E-05  0.1299654E+04  0.7818609E-02  0.9029839E-01
        1   -1    0    0  501    0  0.00000000000E+00  0.00000000000E+00  0.38009402011E+03  0.38009402014E+03  0.50400001928E-02 0. -1.
       -1   -1    0    0    0  501  0.00000000000E+00  0.00000000000E+00 -0.11109762587E+04  0.11109762587E+04  0.50400001928E-02 0.  1.
    10030    2    1    2    0    0  0.00000000000E+00  0.00000000000E+00 -0.73088223855E+03  0.14910702788E+04  0.12996544655E+04 0.  0.
        1    1    3    3  502    0  0.61331405217E+02  0.58942207183E+03 -0.59532788315E+02  0.59558716653E+03  0.50400001928E-02 0. -1.
       -1    1    3    3    0  502 -0.61331405217E+02 -0.58942207183E+03 -0.67134945023E+03  0.89548311228E+03  0.50400001928E-02 0.  1.
</event>
<event>
 5   0  0.6458698E-05  0.1299681E+04  0.7818609E-02  0.9029818E-01
       -2   -1    0    0    0  501  0.00000000000E+00  0.00000000000E+00  0.39675805773E+03  0.39675805774E+03  0.25500000920E-02 0. -1.
        2   -1    0    0  501    0  0.00000000000E+00  0.00000000000E+00 -0.10643580245E+04  0.10643580245E+04  0.25500000920E-02 0.  1.
    10030    2    1    2    0    0  0.00000000000E+00  0.00000000000E+00 -0.66759996674E+03  0.14611160822E+04  0.12996809186E+04 0.  0.
        3    1    3    3  502    0  0.44098667807E+03 -0.26770921558E+03  0.11044866727E+03  0.52757595912E+03  0.10100000352E+00 0. -1.
       -3    1    3    3    0  502 -0.44098667807E+03  0.26770921558E+03 -0.77804863400E+03  0.93354012309E+03  0.10100000352E+00 0.  1.
</event>
<event>
 5   0  0.6742824E-05  0.1299220E+04  0.7818609E-02  0.9030184E-01
        2   -1    0    0  501    0  0.00000000000E+00  0.00000000000E+00  0.92086837506E+03  0.92086837507E+03  0.25500000920E-02 0.  1.
       -2   -1    0    0    0  501  0.00000000000E+00  0.00000000000E+00 -0.45825589827E+03  0.45825589827E+03  0.25500000920E-02 0. -1.
    10030    2    1    2    0    0  0.00000000000E+00  0.00000000000E+00  0.46261247680E+03  0.13791242733E+04  0.12992203268E+04 0.  0.
        4    1    3    3  502    0 -0.98867598130E+02  0.61711501524E+03  0.41936286133E+03  0.75264371807E+03  0.12699999809E+01 0. -1.
       -4    1    3    3    0  502  0.98867598130E+02 -0.61711501524E+03  0.43249615469E+02  0.62648055527E+03  0.12699999809E+01 0.  1.
</event>
<event>
 5   0  0.6742824E-05  0.1299891E+04  0.7818609E-02  0.9029651E-01
        2   -1    0    0  501    0  0.00000000000E+00  0.00000000000E+00  0.81610980591E+03  0.81610980592E+03  0.25500000920E-02 0. -1.
       -2   -1    0    0    0  501  0.00000000000E+00  0.00000000000E+00 -0.51761346345E+03  0.51761346346E+03  0.25500000920E-02 0.  1.
    10030    2    1    2    0    0  0.00000000000E+00  0.00000000000E+00  0.29849634246E+03  0.13337232694E+04  0.12998914158E+04 0.  0.
        4    1    3    3  502    0 -0.22982941080E+02  0.19826950337E+03  0.78388427934E+03  0.80889751380E+03  0.12699999809E+01 0. -1.
       -4    1    3    3    0  502  0.22982941080E+02 -0.19826950337E+03 -0.48538793687E+03  0.52482575557E+03  0.12699999809E+01 0.  1.
</event>
<event>
 5   0  0.3631841E-05  0.1299996E+04  0.7818609E-02  0.9029568E-01
        1   -1    0    0  501    0  0.00000000000E+00  0.00000000000E+00  0.49870344016E+03  0.49870344019E+03  0.50400001928E-02 0.  1.
       -1   -1    0    0    0  501  0.00000000000E+00  0.00000000000E+00 -0.84719191298E+03  0.84719191300E+03  0.50400001928E-02 0. -1.
    10030    2    1    2    0    0  0.00000000000E+00  0.00000000000E+00 -0.34848847282E+03  0.13458953532E+04  0.12999961869E+04 0.  0.
        3    1    3    3  502    0 -0.58802699457E+03 -0.50532611985E+02  0.10770968794E+03  0.59994222913E+03  0.10100000352E+00 0.  1.
       -3    1    3    3    0  502  0.58802699457E+03  0.50532611985E+02 -0.45619816076E+03  0.74595312406E+03  0.10100000352E+00 0. -1.
</event>
<event>
 5   0  0.3631841E-05  0.1298572E+04  0.7818609E-02  0.9030699E-01
       -1   -1    0    0    0  501  0.00000000000E+00  0.00000000000E+00  0.42431236574E+03  0.42431236577E+03  0.50400001928E-02 0.  1.
        1   -1    0    0  501    0  0.00000000000E+00  0.00000000000E+00 -0.99354177430E+03  0.99354177431E+03  0.50400001928E-02 0. -1.
    10030    2    1    2    0    0  0.00000000000E+00  0.00000000000E+00 -0.56922940856E+03  0.14178541401E+04  0.12985716164E+04 0.  0.
        3    1    3    3  502    0  0.38575087573E+03 -0.49372091180E+03 -0.47057676318E+03  0.78358571779E+03  0.10100000352E+00 0. -1.
       -3    1    3    3    0  502 -0.38575087573E+03  0.49372091180E+03 -0.98652645381E+02  0.63426842229E+03  0.10100000352E+00 0.  1.
</event>
<event>
 5   0  0.3689707E-05  0.1300747E+04  0.7818609E-02  0.9028973E-01
       -1   -1    0    0    0  501  0.00000000000E+00  0.00000000000E+00  0.47107161835E+03  0.47107161837E+03  0.50400001928E-02 0. -1.
        1   -1    0    0  501    0  0.00000000000E+00  0.00000000000E+00 -0.89792263162E+03  0.89792263163E+03  0.50400001928E-02 0.  1.
    10030    2    1    2    0    0  0.00000000000E+00  0.00000000000E+00 -0.42685101327E+03  0.13689942500E+04  0.13007472733E+04 0.  0.
        1    1    3    3  502    0 -0.64200070572E+03  0.98925393743E+02 -0.24728041998E+03  0.69505305251E+03  0.50400001928E-02 0. -1.
       -1    1    3    3    0  502  0.64200070572E+03 -0.98925393743E+02 -0.17957059329E+03  0.67394119749E+03  0.50400001928E-02 0.  1.
</event>
<event>
 5   0  0.3718559E-05  0.1300236E+04  0.7818609E-02  0.9029378E-01
       -1   -1    0    0    0  501  0.00000000000E+00  0.00000000000E+00  0.24906361870E+03  0.24906361875E+03  0.50400001928E-02 0. -1.
        1   -1    0    0  501    0  0.00000000000E+00  0.00000000000E+00 -0.16969699211E+04  0.16969699211E+04  0.50400001928E-02 0.  1.
    10030    2    1    2    0    0  0.00000000000E+00  0.00000000000E+00 -0.14479063024E+04  0.19460335398E+04  0.13002360854E+04 0.  0.
        2    1    3    3  502    0  0.74912945313E+01 -0.53617404008E+03 -0.17380521880E+03  0.56369049560E+03  0.25500000920E-02 0. -1.
       -2    1    3    3    0  502 -0.74912945313E+01  0.53617404008E+03 -0.12741010836E+04  0.13823430442E+04  0.25500000920E-02 0.  1.
</event>
<event>
 5   0  0.6458698E-05  0.1300050E+04  0.7818609E-02  0.9029525E-01
        2   -1    0    0  501    0  0.00000000000E+00  0.00000000000E+00  0.42327722059E+03  0.42327722060E+03  0.25500000920E-02 0.  1.
       -2   -1    0    0    0  501  0.00000000000E+00  0.00000000000E+00 -0.99824112383E+03  0.99824112384E+03  0.25500000920E-02 0. -1.
    10030    2    1    2    0    0  0.00000000000E+00  0.00000000000E+00 -0.57496390324E+03  0.14215183444E+04  0.13000503504E+04 0.  0.
        3    1    3    3  502    0  0.15829962531E+03 -0.18982084230E+03  0.36989065255E+03  0.44487057510E+03  0.10100000352E+00 0.  1.
       -3    1    3    3    0  502 -0.15829962531E+03  0.18982084230E+03 -0.94485455579E+03  0.97664776933E+03  0.10100000352E+00 0. -1.
</event>
<event>
 5   0  0.6458698E-05  0.1294220E+04  0.7818609E-02  0.9034161E-01
       -2   -1    0    0    0  501  0.00000000000E+00  0.00000000000E+00  0.26886896883E+03  0.26886896884E+03  0.25500000920E-02 0. -1.
        2   -1    0    0  501    0  0.00000000000E+00  0.00000000000E+00 -0.15574556156E+04  0.15574556156E+04  0.25500000920E-02 0.  1.
    10030    2    1    2    0    0  0.00000000000E+00  0.00000000000E+00 -0.12885866467E+04  0.18263245844E+04  0.12942202059E+04 0.  0.
        3    1    3    3  502    0 -0.23413836193E+03  0.16919945783E+03 -0.14614174253E+04  0.14896946433E+04  0.10100000352E+00 0.  1.
       -3    1    3    3    0  502  0.23413836193E+03 -0.16919945783E+03  0.17283077855E+03  0.33662994114E+03  0.10100000352E+00 0. -1.
</event>
<event>
 5   0  0.3631841E-05  0.1293363E+04  0.7818609E-02  0.9034845E-01
       -1   -1    0    0    0  501  0.00000000000E+00  0.00000000000E+00  0.69283839749E+03  0.69283839751E+03  0.50400001928E-02 0. -1.
        1   -1    0    0  501    0  0.00000000000E+00  0.00000000000E+00 -0.60359992063E+03  0.60359992065E+03  0.50400001928E-02 0.  1.
    10030    2    1    2    0    0  0.00000000000E+00  0.00000000000E+00  0.89238476861E+02  0.12964383182E+04  0.12933633701E+04 0.  0.
        3    1    3    3  502    0 -0.35020040236E+03 -0.45132186166E+03  0.34843296934E+03  0.66913174259E+03  0.10100000352E+00 0. -1.
       -3    1    3    3    0  502  0.35020040236E+03  0.45132186166E+03 -0.25919449248E+03  0.62730657557E+03  0.10100000352E+00 0.  1.
</event>
<event>
 5   0  0.6618060E-05  0.1299540E+04  0.7818609E-02  0.9029930E-01
        2   -1    0    0  501    0  0.00000000000E+00  0.00000000000E+00  0.15078225979E+04  0.15078225979E+04  0.25500000920E-02 0.  1.
       -2   -1    0    0    0  501  0.00000000000E+00  0.00000000000E+00 -0.28000706167E+03  0.28000706168E+03  0.25500000920E-02 0. -1.
    10030    2    1    2    0    0  0.00000000000E+00  0.00000000000E+00  0.12278155362E+04  0.17878296596E+04  0.12995398804E+04 0.  0.
        2    1    3    3  502    0 -0.59287687283E+03 -0.35415102018E+02  0.97644543698E+03  0.11428923428E+04  0.25500000920E-02 0.  1.
       -2    1    3    3    0  502  0.59287687283E+03  0.35415102018E+02  0.25137009926E+03  0.64493731680E+03  0.25500000920E-02 0. -1.
</event>
<event>
 5   0  0.6671239E-05  0.1300278E+04  0.7818609E-02  0.9029345E-01
        2   -1    0    0  501    0  0.00000000000E+00  0.00000000000E+00  0.82480864648E+03  0.82480864648E+03  0.25500000920E-02 0. -1.
       -2   -1    0    0    0  501  0.00000000000E+00  0.00000000000E+00 -0.51245917231E+03  0.51245917232E+03  0.25500000920E-02 0.  1.
    10030    2    1    2    0    0  0.00000000000E+00  0.00000000000E+00  0.31234947417E+03  0.13372678188E+04  0.13002780569E+04 0.  0.
        1    1    3    3  502    0  0.54979162758E+03 -0.10609889738E+03 -0.18360689002E+03  0.58927014168E+03  0.50400001928E-02 0. -1.
       -1    1    3    3    0  502 -0.54979162758E+03  0.10609889738E+03  0.49595636418E+03  0.74799767713E+03  0.50400001928E-02 0.  1.
</event>
<event>
 5   0  0.6742824E-05  0.1301447E+04  0.7818609E-02  0.9028418E-01
       -2   -1    0    0    0  501  0.00000000000E+00  0.00000000000E+00  0.27470315798E+03  0.27470315799E+03  0.25500000920E-02 0.  1.
        2   -1    0    0  501    0  0.00000000000E+00  0.00000000000E+00 -0.15414495450E+04  0.15414495450E+04  0.25500000920E-02 0. -1.
    10030    2    1    2    0    0  0.00000000000E+00  0.00000000000E+00 -0.12667463870E+04  0.18161527030E+04  0.13014469761E+04 0.  0.
        4    1    3    3  502    0 -0.30204142510E+03  0.22597100018E+03 -0.13733072531E+04  0.14241721595E+04  0.12699999809E+01 0. -1.
       -4    1    3    3    0  502  0.30204142510E+03 -0.22597100018E+03  0.10656086613E+03  0.39198054351E+03  0.12699999809E+01 0.  1.
</event>
<event>
 5   0  0.3552698E-05  0.1300463E+04  0.7818609E-02  0.9029198E-01
       -1   -1    0    0    0  501  0.00000000000E+00  0.00000000000E+00  0.36567331948E+03  0.36567331951E+03  0.50400001928E-02 0.  1.
        1   -1    0    0  501    0  0.00000000000E+00  0.00000000000E+00 -0.11562255899E+04  0.11562255899E+04  0.50400001928E-02 0. -1.
    10030    2    1    2    0    0  0.00000000000E+00  0.00000000000E+00 -0.79055227041E+03  0.15218989094E+04  0.13004627631E+04 0.  0.
        5    1    3    3  502    0 -0.89410945467E+01  0.79119945573E+02  0.35992651279E+03  0.36865850535E+03  0.46999998093E+01 0.  1.
       -5    1    3    3    0  502  0.89410945467E+01 -0.79119945573E+02 -0.11504787832E+04  0.11532404041E+04  0.46999998093E+01 0. -1.
</event>
<event>
 5   0  0.6671239E-05  0.1300646E+04  0.7818609E-02  0.9029053E-01
        2   -1    0    0  501    0  0.00000000000E+00  0.00000000000E+00  0.19639280220E+04  0.19639280220E+04  0.25500000920E-02 0.  1.
       -2   -1    0    0    0  501  0.00000000000E+00  0.00000000000E+00 -0.21534387663E+03  0.21534387665E+03  0.25500000920E-02 0. -1.
    10030    2    1    2    0    0  0.00000000000E+00  0.00000000000E+00  0.17485841454E+04  0.21792718987E+04  0.13006457991E+04 0.  0.
        1    1    3    3  502    0  0.20753362609E+03 -0.77606519274E+02 -0.15015057149E+03  0.26765308131E+03  0.50400001928E-02 0. -1.
       -1    1    3    3    0  502 -0.20753362609E+03  0.77606519274E+02  0.18987347169E+04  0.19116188173E+04  0.50400001928E-02 0.  1.
</event>
<event>
 5   0  0.6458698E-05  0.1300212E+04  0.7818609E-02  0.9029397E-01
        2   -1    0    0  501    0  0.00000000000E+00  0.00000000000E+00  0.11023223710E+04  0.11023223710E+04  0.25500000920E-02 0.  1.
       -2   -1    0    0    0  501  0.00000000000E+00  0.00000000000E+00 -0.38340666817E+03  0.38340666818E+03  0.25500000920E-02 0. -1.
    10030    2    1    2    0    0  0.00000000000E+00  0.00000000000E+00  0.71891570282E+03  0.14857290392E+04  0.13002119020E+04 0.  0.
        3    1    3    3  502    0 -0.62253036392E+03 -0.17637387597E+03  0.43160028852E+03  0.77777285718E+03  0.10100000352E+00 0. -1.
       -3    1    3    3    0  502  0.62253036392E+03  0.17637387597E+03  0.28731541430E+03  0.70795618199E+03  0.10100000352E+00 0.  1.
</event>
<event>
 5   0  0.3551277E-05  0.1299831E+04  0.7818609E-02  0.9029699E-01
       -1   -1    0    0    0  501  0.00000000000E+00  0.00000000000E+00  0.50571559639E+03  0.50571559642E+03  0.50400001928E-02 0. -1.
        1   -1    0    0  501    0  0.00000000000E+00  0.00000000000E+00 -0.83523323346E+03  0.83523323348E+03  0.50400001928E-02 0.  1.
    10030    2    1    2    0    0  0.00000000000E+00  0.00000000000E+00 -0.32951763707E+03  0.13409488299E+04  0.12998314857E+04 0.  0.
        4    1    3    3  502    0  0.45576682651E+03  0.22240097863E+03 -0.58406809013E+03  0.77351324633E+03  0.12699999809E+01 0.  1.
       -4    1    3    3    0  502 -0.45576682651E+03 -0.22240097863E+03  0.25455045306E+03  0.56743558357E+03  0.12699999809E+01 0. -1.
</event>
<event>
 5   0  0.6688086E-05  0.1300363E+04  0.7818609E-02  0.9029278E-01
       -2   -1    0    0    0  501  0.00000000000E+00  0.00000000000E+00  0.29510379126E+03  0.29510379128E+03  0.25500000920E-02 0. -1.
        2   -1    0    0  501    0  0.00000000000E+00  0.00000000000E+00 -0.14324985275E+04  0.14324985275E+04  0.25500000920E-02 0.  1.
    10030    2    1    2    0    0  0.00000000000E+00  0.00000000000E+00 -0.11373947363E+04  0.17276023188E+04  0.13003626363E+04 0.  0.
        5    1    3    3  502    0  0.12475612036E+03 -0.53180799220E+03 -0.10371513767E+04  0.11722153805E+04  0.46999998093E+01 0.  1.
       -5    1    3    3    0  502 -0.12475612036E+03  0.53180799220E+03 -0.10024335963E+03  0.55538693835E+03  0.46999998093E+01 0. -1.
</event>
<event>
 5   0  0.6618060E-05  0.1299808E+04  0.7818609E-02  0.9029718E-01
        2   -1    0    0  501    0  0.00000000000E+00  0.00000000000E+00  0.63728522862E+03  0.63728522863E+03  0.25500000920E-02 0. -1.
       -2   -1    0    0    0  501  0.00000000000E+00  0.00000000000E+00 -0.66277215291E+03  0.66277215291E+03  0.25500000920E-02 0.  1.
    10030    2    1    2    0    0  0.00000000000E+00  0.00000000000E+00 -0.25486924286E+02  0.13000573815E+04  0.12998075288E+04 0.  0.
        2    1    3    3  502    0 -0.41307575485E+03 -0.13858117826E+03 -0.49505869913E+03  0.65948422104E+03  0.25500000920E-02 0.  1.
       -2    1    3    3    0  502  0.41307575485E+03  0.13858117826E+03  0.46957177484E+03  0.64057316050E+03  0.25500000920E-02 0. -1.
</event>
<event>
 5   0  0.6618060E-05  0.1297928E+04  0.7818609E-02  0.9031210E-01
        2   -1    0    0  501    0  0.00000000000E+00  0.00000000000E+00  0.22385044541E+04  0.22385044541E+04  0.25500000920E-02 0. -1.
       -2   -1    0    0    0  501  0.00000000000E+00  0.00000000000E+00 -0.18814081149E+03  0.18814081151E+03  0.25500000920E-02 0.  1.
    10030    2    1    2    0    0  0.00000000000E+00  0.00000000000E+00  0.20503636426E+04  0.24266452656E+04  0.12979276475E+04 0.  0.
        2    1    3    3  502    0 -0.26766158932E+03  0.54601620731E+03  0.14489641078E+04  0.15713921887E+04  0.25500000920E-02 0.  1.
       -2    1    3    3    0  502  0.26766158932E+03 -0.54601620731E+03  0.60139953475E+03  0.85525307684E+03  0.25500000920E-02 0. -1.
</event>
<event>
 5   0  0.3631841E-05  0.1299476E+04  0.7818609E-02  0.9029981E-01
       -1   -1    0    0    0  501  0.00000000000E+00  0.00000000000E+00  0.27871268960E+03  0.27871268964E+03  0.50400001928E-02 0. -1.
        1   -1    0    0  501    0  0.00000000000E+00  0.00000000000E+00 -0.15146761297E+04  0.15146761297E+04  0.50400001928E-02 0.  1.
    10030    2    1    2    0    0  0.00000000000E+00  0.00000000000E+00 -0.12359634401E+04  0.17933888194E+04  0.12994759837E+04 0.  0.
        3    1    3    3  502    0  0.49550306635E+03  0.54796704654E+02 -0.42908775974E+02  0.50036700616E+03  0.10100000352E+00 0. -1.
       -3    1    3    3    0  502 -0.49550306635E+03 -0.54796704654E+02 -0.11930546642E+04  0.12930218132E+04  0.10100000352E+00 0.  1.
</event>
<event>
 5   0  0.3718559E-05  0.1300224E+04  0.7818609E-02  0.9029387E-01
        1   -1    0    0  501    0  0.00000000000E+00  0.00000000000E+00  0.11249038515E+04  0.11249038515E+04  0.50400001928E-02 0.  1.
       -1   -1    0    0    0  501  0.00000000000E+00  0.00000000000E+00 -0.37571718948E+03  0.37571718951E+03  0.50400001928E-02 0. -1.
    10030    2    1    2    0    0  0.00000000000E+00  0.00000000000E+00  0.74918666205E+03  0.15006210411E+04  0.13002241554E+04 0.  0.
        2    1    3    3  502    0  0.54229602834E+03 -0.35676952462E+03  0.33336283571E+03  0.72972615158E+03  0.25500000920E-02 0. -1.
       -2    1    3    3    0  502 -0.54229602834E+03  0.35676952462E+03  0.41582382634E+03  0.77089488947E+03  0.25500000920E-02 0.  1.
</event>
<event>
 5   0  0.6671239E-05  0.1300192E+04  0.7818609E-02  0.9029413E-01
        2   -1    0    0  501    0  0.00000000000E+00  0.00000000000E+00  0.87736728235E+03  0.87736728235E+03  0.25500000920E-02 0.  1.
       -2   -1    0    0    0  501  0.00000000000E+00  0.00000000000E+00 -0.48169625540E+03  0.48169625540E+03  0.25500000920E-02 0. -1.
    10030    2    1    2    0    0  0.00000000000E+00  0.00000000000E+00  0.39567102695E+03  0.13590635378E+04  0.13001915775E+04 0.  0.
        1    1    3    3  502    0 -0.98342183920E+02 -0.47137028375E+03  0.65437668128E+03  0.81244690323E+03  0.50400001928E-02 0.  1.
       -1    1    3    3    0  502  0.98342183920E+02  0.47137028375E+03 -0.25870565432E+03  0.54661663453E+03  0.50400001928E-02 0. -1.
</event>
<event>
 5   0  0.2512000E-05  0.1299861E+04  0.7818609E-02  0.9029675E-01
        4   -1    0    0  501    0  0.00000000000E+00  0.00000000000E+00  0.98741008231E+03  0.98741089904E+03  0.12699999809E+01 0. -1.
       -4   -1    0    0    0  501  0.00000000000E+00  0.00000000000E+00 -0.42779376148E+03  0.42779564661E+03  0.12699999809E+01 0.  1.
    10030    2    1    2    0    0  0.00000000000E+00  0.00000000000E+00  0.55961632083E+03  0.14152065456E+04  0.12998612004E+04 0.  0.
        5    1    3    3  502    0 -0.46339202064E+03 -0.90254678077E+02 -0.20649240255E+03  0.51530503007E+03  0.46999998093E+01 0.  1.
       -5    1    3    3    0  502  0.46339202064E+03  0.90254678077E+02  0.76610872338E+03  0.89990151558E+03  0.46999998093E+01 0. -1.
</event>
<event>
 5   0  0.3552698E-05  0.1299627E+04  0.7818609E-02  0.9029861E-01
       -1   -1    0    0    0  501  0.00000000000E+00  0.00000000000E+00  0.17164913853E+03  0.17164913860E+03  0.50400001928E-02 0.  1.
        1   -1    0    0  501    0  0.00000000000E+00  0.00000000000E+00 -0.24600037666E+04  0.24600037666E+04  0.50400001928E-02 0. -1.
    10030    2    1    2    0    0  0.00000000000E+00  0.00000000000E+00 -0.22883546281E+04  0.26316529052E+04  0.12996269117E+04 0.  0.
        5    1    3    3  502    0 -0.24934508255E+03 -0.19015290571E+03  0.82626126815E+01  0.31372194458E+03  0.46999998093E+01 0.  1.
       -5    1    3    3    0  502  0.24934508255E+03  0.19015290571E+03 -0.22966172407E+04  0.23179309606E+04  0.46999998093E+01 0. -1.
</event>
<event>
 5   0  0.6688086E-05  0.1300169E+04  0.7818609E-02  0.9029431E-01
        2   -1    0    0  501    0  0.00000000000E+00  0.00000000000E+00  0.53710658576E+03  0.53710658577E+03  0.25500000920E-02 0.  1.
       -2   -1    0    0    0  501  0.00000000000E+00  0.00000000000E+00 -0.78682693192E+03  0.78682693193E+03  0.25500000920E-02 0. -1.
    10030    2    1    2    0    0  0.00000000000E+00  0.00000000000E+00 -0.24972034616E+03  0.13239335177E+04  0.13001691075E+04 0.  0.
        5    1    3    3  502    0  0.10380633531E+03  0.23009298818E+03 -0.73486670764E+03  0.77702619418E+03  0.46999998093E+01 0. -1.
       -5    1    3    3    0  502 -0.10380633531E+03 -0.23009298818E+03  0.48514636147E+03  0.54690732351E+03  0.46999998093E+01 0.  1.
</event>
<event>
 5   0  0.3718559E-05  0.1300166E+04  0.7818609E-02  0.9029434E-01
       -1   -1    0    0    0  501  0.00000000000E+00  0.00000000000E+00  0.53374977061E+03  0.53374977063E+03  0.50400001928E-02 0.  1.
        1   -1    0    0  501    0  0.00000000000E+00  0.00000000000E+00 -0.79177144019E+03  0.79177144020E+03  0.50400001928E-02 0. -1.
    10030    2    1    2    0    0  0.00000000000E+00  0.00000000000E+00 -0.25802166957E+03  0.13255212108E+04  0.13001658734E+04 0.  0.
        2    1    3    3  502    0 -0.39697366295E+03  0.11288397728E+03 -0.64107772911E+03  0.76243789004E+03  0.25500000920E-02 0. -1.
       -2    1    3    3    0  502  0.39697366295E+03 -0.11288397728E+03  0.38305605954E+03  0.56308332079E+03  0.25500000920E-02 0.  1.
</event>
<event>
 5   0  0.3631841E-05  0.1299040E+04  0.7818609E-02  0.9030327E-01
        1   -1    0    0  501    0  0.00000000000E+00  0.00000000000E+00  0.79425140609E+03  0.79425140610E+03  0.50400001928E-02 0.  1.
       -1   -1    0    0    0  501  0.00000000000E+00  0.00000000000E+00 -0.53116202498E+03  0.53116202500E+03  0.50400001928E-02 0. -1.
    10030    2    1    2    0    0  0.00000000000E+00  0.00000000000E+00  0.26308938111E+03  0.13254134311E+04  0.12990399305E+04 0.  0.
        3    1    3    3  502    0 -0.34329272482E+03 -0.35462807670E+03  0.56233126573E+03  0.74821616551E+03  0.10100000352E+00 0.  1.
       -3    1    3    3    0  502  0.34329272482E+03  0.35462807670E+03 -0.29924188463E+03  0.57719726560E+03  0.10100000352E+00 0. -1.
</event>
<event>
 5   0  0.3631841E-05  0.1299224E+04  0.7818609E-02  0.9030180E-01
        1   -1    0    0  501    0  0.00000000000E+00  0.00000000000E+00  0.31779970453E+03  0.31779970457E+03  0.50400001928E-02 0. -1.
       -1   -1    0    0    0  501  0.00000000000E+00  0.00000000000E+00 -0.13278677650E+04  0.13278677650E+04  0.50400001928E-02 0.  1.
    10030    2    1    2    0    0  0.00000000000E+00  0.00000000000E+00 -0.10100680604E+04  0.16456674695E+04  0.12992243585E+04 0.  0.
        3    1    3    3  502    0  0.35259440817E+03  0.40712254040E+03 -0.44967665417E+02  0.54045691846E+03  0.10100000352E+00 0. -1.
       -3    1    3    3    0  502 -0.35259440817E+03 -0.40712254040E+03 -0.96510039502E+03  0.11052105511E+04  0.10100000352E+00 0.  1.
</event>
<event>
 5   0  0.6618060E-05  0.1298430E+04  0.7818609E-02  0.9030811E-01
        2   -1    0    0  501    0  0.00000000000E+00  0.00000000000E+00  0.14323603699E+04  0.14323603699E+04  0.25500000920E-02 0.  1.
       -2   -1    0    0    0  501  0.00000000000E+00  0.00000000000E+00 -0.29425563036E+03  0.29425563037E+03  0.25500000920E-02 0. -1.
    10030    2    1    2    0    0  0.00000000000E+00  0.00000000000E+00  0.11381047395E+04  0.17266160003E+04  0.12984299805E+04 0.  0.
        2    1    3    3  502    0 -0.35064440308E+03 -0.19256610647E+03  0.12489898406E+04  0.13114910692E+04  0.25500000920E-02 0.  1.
       -2    1    3    3    0  502  0.35064440308E+03  0.19256610647E+03 -0.11088510100E+03  0.41512493108E+03  0.25500000920E-02 0. -1.
</event>
<event>
 5   0  0.6458698E-05  0.1307644E+04  0.7818609E-02  0.9023525E-01
       -2   -1    0    0    0  501  0.00000000000E+00  0.00000000000E+00  0.43043753725E+03  0.43043753725E+03  0.25500000920E-02 0. -1.
        2   -1    0    0  501    0  0.00000000000E+00  0.00000000000E+00 -0.99313687709E+03  0.99313687710E+03  0.25500000920E-02 0.  1.
    10030    2    1    2    0    0  0.00000000000E+00  0.00000000000E+00 -0.56269933985E+03  0.14235744144E+04  0.13076442812E+04 0.  0.
        3    1    3    3  502    0  0.11450452934E+03  0.39950470687E+03 -0.83084380946E+03  0.92898694500E+03  0.10100000352E+00 0.  1.
       -3    1    3    3    0  502 -0.11450452934E+03 -0.39950470687E+03  0.26814446962E+03  0.49458746935E+03  0.10100000352E+00 0. -1.
</event>
<event>
 5   0  0.3689707E-05  0.1300039E+04  0.7818609E-02  0.9029534E-01
        1   -1    0    0  501    0  0.00000000000E+00  0.00000000000E+00  0.10193293344E+04  0.10193293344E+04  0.50400001928E-02 0. -1.
       -1   -1    0    0    0  501  0.00000000000E+00  0.00000000000E+00 -0.41451327086E+03  0.41451327090E+03  0.50400001928E-02 0.  1.
    10030    2    1    2    0    0  0.00000000000E+00  0.00000000000E+00  0.60481606352E+03  0.14338426053E+04  0.13000392864E+04 0.  0.
        1    1    3    3  502    0  0.21354597979E+03  0.44426599687E+03 -0.16493887438E+03  0.51978745056E+03  0.50400001928E-02 0.  1.
       -1    1    3    3    0  502 -0.21354597979E+03 -0.44426599687E+03  0.76975493790E+03  0.91405515474E+03  0.50400001928E-02 0. -1.
</event>
<event>
 5   0  0.6671239E-05  0.1304400E+04  0.7818609E-02  0.9026083E-01
        2   -1    0    0  501    0  0.00000000000E+00  0.00000000000E+00  0.11019668007E+04  0.11019668007E+04  0.25500000920E-02 0. -1.
       -2   -1    0    0    0  501  0.00000000000E+00  0.00000000000E+00 -0.38600525233E+03  0.38600525234E+03  0.25500000920E-02 0.  1.
    10030    2    1    2    0    0  0.00000000000E+00  0.00000000000E+00  0.71596154837E+03  0.14879720530E+04  0.13044002039E+04 0.  0.
        1    1    3    3  502    0  0.81418183117E+02  0.22965211995E+03 -0.33213516777E+03  0.41192570499E+03  0.50400001928E-02 0.  1.
       -1    1    3    3    0  502 -0.81418183117E+02 -0.22965211995E+03  0.10480967161E+04  0.10760463480E+04  0.50400001928E-02 0. -1.
</event>
<event>
 5   0  0.6671239E-05  0.1299643E+04  0.7818609E-02  0.9029849E-01
       -2   -1    0    0    0  501  0.00000000000E+00  0.00000000000E+00  0.33427073160E+03  0.33427073161E+03  0.25500000920E-02 0.  1.
        2   -1    0    0  501    0  0.00000000000E+00  0.00000000000E+00 -0.12632509298E+04  0.12632509298E+04  0.25500000920E-02 0. -1.
    10030    2    1    2    0    0  0.00000000000E+00  0.00000000000E+00 -0.92898019822E+03  0.15975216614E+04  0.12996427394E+04 0.  0.
        1    1    3    3  502    0 -0.29795266604E+03 -0.56079851214E+03 -0.29506963995E+03  0.70024056928E+03  0.50400001928E-02 0.  1.
       -1    1    3    3    0  502  0.29795266604E+03  0.56079851214E+03 -0.63391055827E+03  0.89728109215E+03  0.50400001928E-02 0. -1.
</event>
<event>
 5   0  0.6688086E-05  0.1299881E+04  0.7818609E-02  0.9029659E-01
        2   -1    0    0  501    0  0.00000000000E+00  0.00000000000E+00  0.48034516073E+03  0.48034516073E+03  0.25500000920E-02 0.  1.
       -2   -1    0    0    0  501  0.00000000000E+00  0.00000000000E+00 -0.87941517751E+03  0.87941517751E+03  0.25500000920E-02 0. -1.
    10030    2    1    2    0    0  0.00000000000E+00  0.00000000000E+00 -0.39907001678E+03  0.13597603382E+04  0.12998812635E+04 0.  0.
        5    1    3    3  502    0  0.18801436900E+03 -0.33744039949E+03  0.34721318368E+03  0.51941747283E+03  0.46999998093E+01 0.  1.
       -5    1    3    3    0  502 -0.18801436900E+03  0.33744039949E+03 -0.74628320047E+03  0.84034286542E+03  0.46999998093E+01 0. -1.
</event>
<event>
 5   0  0.6458698E-05  0.1300333E+04  0.7818609E-02  0.9029302E-01
       -2   -1    0    0    0  501  0.00000000000E+00  0.00000000000E+00  0.29615282536E+03  0.29615282537E+03  0.25500000920E-02 0.  1.
        2   -1    0    0  501    0  0.00000000000E+00  0.00000000000E+00 -0.14273582257E+04  0.14273582257E+04  0.25500000920E-02 0. -1.
    10030    2    1    2    0    0  0.00000000000E+00  0.00000000000E+00 -0.11312054004E+04  0.17235110511E+04  0.13003325288E+04 0.  0.
        3    1    3    3  502    0  0.64183079898E+03 -0.58584478750E+02 -0.45206863965E+03  0.78723883341E+03  0.10100000352E+00 0. -1.
       -3    1    3    3    0  502 -0.64183079898E+03  0.58584478750E+02 -0.67913676073E+03  0.93627221771E+03  0.10100000352E+00 0.  1.
</event>
<event>
 5   0  0.3689707E-05  0.1299997E+04  0.7818609E-02  0.9029568E-01
       -1   -1    0    0    0  501  0.00000000000E+00  0.00000000000E+00  0.32627730196E+03  0.32627730199E+03  0.50400001928E-02 0. -1.
        1   -1    0    0  501    0  0.00000000000E+00  0.00000000000E+00 -0.12949048121E+04  0.12949048121E+04  0.50400001928E-02 0.  1.
    10030    2    1    2    0    0  0.00000000000E+00  0.00000000000E+00 -0.96862751013E+03  0.16211821141E+04  0.12999969976E+04 0.  0.
        1    1    3    3  502    0 -0.47787955152E+03 -0.43130091704E+03 -0.59660996879E+03  0.87768604962E+03  0.50400001928E-02 0. -1.
       -1    1    3    3    0  502  0.47787955152E+03  0.43130091704E+03 -0.37201754134E+03  0.74349606448E+03  0.50400001928E-02 0.  1.
</event>
<event>
 5   0  0.3689707E-05  0.1300285E+04  0.7818609E-02  0.9029340E-01
       -1   -1    0    0    0  501  0.00000000000E+00  0.00000000000E+00  0.46145862496E+03  0.46145862499E+03  0.50400001928E-02 0. -1.
        1   -1    0    0  501    0  0.00000000000E+00  0.00000000000E+00 -0.91597595467E+03  0.91597595469E+03  0.50400001928E-02 0.  1.
    10030    2    1    2    0    0  0.00000000000E+00  0.00000000000E+00 -0.45451732972E+03  0.13774345797E+04  0.13002845913E+04 0.  0.
        1    1    3    3  502    0  0.48357289528E+03 -0.38742906858E+03 -0.43576432359E+03  0.75751869546E+03  0.50400001928E-02 0.  1.
       -1    1    3    3    0  502 -0.48357289528E+03  0.38742906858E+03 -0.18753006127E+02  0.61991588421E+03  0.50400001928E-02 0. -1.
</event>
<event>
 5   0  0.3689707E-05  0.1299571E+04  0.7818609E-02  0.9029906E-01
        1   -1    0    0  501    0  0.00000000000E+00  0.00000000000E+00  0.12688351396E+04  0.12688351396E+04  0.50400001928E-02 0.  1.
       -1   -1    0    0    0  501  0.00000000000E+00  0.00000000000E+00 -0.33276271736E+03  0.33276271740E+03  0.50400001928E-02 0. -1.
    10030    2    1    2    0    0  0.00000000000E+00  0.00000000000E+00  0.93607242225E+03  0.16015978570E+04  0.12995707429E+04 0.  0.
        1    1    3    3  502    0  0.77743794998E+02  0.64168495080E+03  0.38612662811E+03  0.75292592378E+03  0.50400001928E-02 0. -1.
       -1    1    3    3    0  502 -0.77743794998E+02 -0.64168495080E+03  0.54994579414E+03  0.84867193324E+03  0.50400001928E-02 0.  1.
</event>
<event>
 5   0  0.6688086E-05  0.1300253E+04  0.7818609E-02  0.9029365E-01
        2   -1    0    0  501    0  0.00000000000E+00  0.00000000000E+00  0.13376821613E+04  0.13376821613E+04  0.25500000920E-02 0.  1.
       -2   -1    0    0    0  501  0.00000000000E+00  0.00000000000E+00 -0.31596778697E+03  0.31596778698E+03  0.25500000920E-02 0. -1.
    10030    2    1    2    0    0  0.00000000000E+00  0.00000000000E+00  0.10217143744E+04  0.16536499483E+04  0.13002530095E+04 0.  0.
        5    1    3    3  502    0 -0.23537309441E+03 -0.26605098964E+03 -0.18160786103E+03  0.39898261597E+03  0.46999998093E+01 0. -1.
       -5    1    3    3    0  502  0.23537309441E+03  0.26605098964E+03  0.12033222354E+04  0.12546673323E+04  0.46999998093E+01 0.  1.
</event>
<event>
 5   0  0.6671239E-05  0.1300170E+04  0.7818609E-02  0.9029430E-01
       -2   -1    0    0    0  501  0.00000000000E+00  0.00000000000E+00  0.42203830203E+03  0.42203830204E+03  0.25500000920E-02 0. -1.
        2   -1    0    0  501    0  0.00000000000E+00  0.00000000000E+00 -0.10013559758E+04  0.10013559758E+04  0.25500000920E-02 0.  1.
    10030    2    1    2    0    0  0.00000000000E+00  0.00000000000E+00 -0.57931767374E+03  0.14233942778E+04  0.13001701054E+04 0.  0.
        1    1    3    3  502    0 -0.54840681031E+03  0.17467143681E+03 -0.62054632846E+03  0.84636746524E+03  0.50400001928E-02 0.  1.
       -1    1    3    3    0  502  0.54840681031E+03 -0.17467143681E+03  0.41228654729E+02  0.57702681257E+03  0.50400001928E-02 0. -1.
</event>
<event>
 5   0  0.3552698E-05  0.1300061E+04  0.7818609E-02  0.9029517E-01
       -1   -1    0    0    0  501  0.00000000000E+00  0.00000000000E+00  0.22633400750E+03  0.22633400755E+03  0.50400001928E-02 0.  1.
        1   -1    0    0  501    0  0.00000000000E+00  0.00000000000E+00 -0.18668860102E+04  0.18668860102E+04  0.50400001928E-02 0. -1.
    10030    2    1    2    0    0  0.00000000000E+00  0.00000000000E+00 -0.16405520027E+04  0.20932200178E+04  0.13000612175E+04 0.  0.
        5    1    3    3  502    0 -0.11703991154E+02 -0.27972907548E+03 -0.17648018221E+04  0.17868779758E+04  0.46999998093E+01 0. -1.
       -5    1    3    3    0  502  0.11703991154E+02  0.27972907548E+03  0.12424981937E+03  0.30634204199E+03  0.46999998093E+01 0.  1.
</event>
<event>
 5   0  0.3631841E-05  0.1300084E+04  0.7818609E-02  0.9029499E-01
        1   -1    0    0  501    0  0.00000000000E+00  0.00000000000E+00  0.10669956229E+04  0.10669956229E+04  0.50400001928E-02 0. -1.
       -1   -1    0    0    0  501  0.00000000000E+00  0.00000000000E+00 -0.39602269801E+03  0.39602269804E+03  0.50400001928E-02 0.  1.
    10030    2    1    2    0    0  0.00000000000E+00  0.00000000000E+00  0.67097292492E+03  0.14630183210E+04  0.13000838210E+04 0.  0.
        3    1    3    3  502    0  0.40016850302E+03 -0.20533157357E+02  0.91149301922E+03  0.99567865080E+03  0.10100000352E+00 0. -1.
       -3    1    3    3    0  502 -0.40016850302E+03  0.20533157357E+02 -0.24052009430E+03  0.46733967018E+03  0.10100000352E+00 0.  1.
</event>
<event>
 5   0  0.6671239E-05  0.1301615E+04  0.7818609E-02  0.9028285E-01
        2   -1    0    0  501    0  0.00000000000E+00  0.00000000000E+00  0.44646919301E+03  0.44646919302E+03  0.25500000920E-02 0. -1.
       -2   -1    0    0    0  501  0.00000000000E+00  0.00000000000E+00 -0.94866657318E+03  0.94866657319E+03  0.25500000920E-02 0.  1.
    10030    2    1    2    0    0  0.00000000000E+00  0.00000000000E+00 -0.50219738017E+03  0.13951357662E+04  0.13016149959E+04 0.  0.
        1    1    3    3  502    0  0.42501863543E+03 -0.49007147783E+03 -0.30719961457E+03  0.71776214519E+03  0.50400001928E-02 0.  1.
       -1    1    3    3    0  502 -0.42501863543E+03  0.49007147783E+03 -0.19499776560E+03  0.67737362102E+03  0.50400001928E-02 0. -1.
</event>
<event>
 5   0  0.3689707E-05  0.1300113E+04  0.7818609E-02  0.9029475E-01
        1   -1    0    0  501    0  0.00000000000E+00  0.00000000000E+00  0.20727267734E+04  0.20727267734E+04  0.50400001928E-02 0. -1.
       -1   -1    0    0    0  501  0.00000000000E+00  0.00000000000E+00 -0.20387322927E+03  0.20387322933E+03  0.50400001928E-02 0.  1.
    10030    2    1    2    0    0  0.00000000000E+00  0.00000000000E+00  0.18688535441E+04  0.22766000027E+04  0.13001130732E+04 0.  0.
        1    1    3    3  502    0  0.19003374181E+03  0.59660156114E+03  0.62847745815E+03  0.88714720380E+03  0.50400001928E-02 0.  1.
       -1    1    3    3    0  502 -0.19003374181E+03 -0.59660156114E+03  0.12403760860E+04  0.13894527989E+04  0.50400001928E-02 0. -1.
</event>
<event>
 5   0  0.3718559E-05  0.1299258E+04  0.7818609E-02  0.9030153E-01
       -1   -1    0    0    0  501  0.00000000000E+00  0.00000000000E+00  0.65416315755E+03  0.65416315757E+03  0.50400001928E-02 0.  1.
        1   -1    0    0  501    0  0.00000000000E+00  0.00000000000E+00 -0.64512666565E+03  0.64512666567E+03  0.50400001928E-02 0. -1.
    10030    2    1    2    0    0  0.00000000000E+00  0.00000000000E+00  0.90364919085E+01  0.12992898232E+04  0.12992583987E+04 0.  0.
        2    1    3    3  502    0 -0.23443641960E+03  0.14793214472E+03 -0.58301085092E+03  0.64555867787E+03  0.25500000920E-02 0. -1.
       -2    1    3    3    0  502  0.23443641960E+03 -0.14793214472E+03  0.59204734282E+03  0.65373114537E+03  0.25500000920E-02 0.  1.
</event>
<event>
 5   0  0.3551277E-05  0.1300901E+04  0.7818609E-02  0.9028851E-01
        1   -1    0    0  501    0  0.00000000000E+00  0.00000000000E+00  0.14544948284E+04  0.14544948284E+04  0.50400001928E-02 0.  1.
       -1   -1    0    0    0  501  0.00000000000E+00  0.00000000000E+00 -0.29088150563E+03  0.29088150568E+03  0.50400001928E-02 0. -1.
    10030    2    1    2    0    0  0.00000000000E+00  0.00000000000E+00  0.11636133228E+04  0.17453763341E+04  0.13009006813E+04 0.  0.
        4    1    3    3  502    0 -0.54408393606E+03 -0.32322229635E+03  0.78343234802E+03  0.10071086531E+04  0.12699999809E+01 0.  1.
       -4    1    3    3    0  502  0.54408393606E+03  0.32322229635E+03  0.38018097477E+03  0.73826768100E+03  0.12699999809E+01 0. -1.
</event>
<event>
 5   0  0.3551277E-05  0.1301724E+04  0.7818609E-02  0.9028199E-01
       -1   -1    0    0    0  501  0.00000000000E+00  0.00000000000E+00  0.29967252729E+03  0.29967252734E+03  0.50400001928E-02 0.  1.
        1   -1    0    0  501    0  0.00000000000E+00  0.00000000000E+00 -0.14136146573E+04  0.14136146573E+04  0.50400001928E-02 0. -1.
    10030    2    1    2    0    0  0.00000000000E+00  0.00000000000E+00 -0.11139421300E+04  0.17132871846E+04  0.13017242058E+04 0.  0.
        4    1    3    3  502    0  0.35773512277E+03  0.17913833041E+03  0.11871776101E+03  0.41732538764E+03  0.12699999809E+01 0.  1.
       -4    1    3    3    0  502 -0.35773512277E+03 -0.17913833041E+03 -0.12326598910E+04  0.12959617970E+04  0.12699999809E+01 0. -1.
</event>
<event>
 5   0  0.3689707E-05  0.1301617E+04  0.7818609E-02  0.9028284E-01
        1   -1    0    0  501    0  0.00000000000E+00  0.00000000000E+00  0.73004325993E+03  0.73004325995E+03  0.50400001928E-02 0.  1.
       -1   -1    0    0    0  501  0.00000000000E+00  0.00000000000E+00 -0.58017343496E+03  0.58017343498E+03  0.50400001928E-02 0. -1.
    10030    2    1    2    0    0  0.00000000000E+00  0.00000000000E+00  0.14986982497E+03  0.13102166949E+04  0.13016170033E+04 0.  0.
        1    1    3    3  502    0 -0.63056347414E+03 -0.43595775786E+02 -0.81140519927E+02  0.63725557713E+03  0.50400001928E-02 0. -1.
       -1    1    3    3    0  502  0.63056347414E+03  0.43595775786E+02  0.23101034490E+03  0.67296111780E+03  0.50400001928E-02 0.  1.
</event>
<event>
 5   0  0.3631841E-05  0.1300217E+04  0.7818609E-02  0.9029393E-01
       -1   -1    0    0    0  501  0.00000000000E+00  0.00000000000E+00  0.45225955091E+03  0.45225955093E+03  0.50400001928E-02 0.  1.
        1   -1    0    0  501    0  0.00000000000E+00  0.00000000000E+00 -0.93450944215E+03  0.93450944217E+03  0.50400001928E-02 0. -1.
    10030    2    1    2    0    0  0.00000000000E+00  0.00000000000E+00 -0.48224989125E+03  0.13867689931E+04  0.13002166291E+04 0.  0.
        3    1    3    3  502    0 -0.14895132429E+03 -0.56514199717E+03  0.62554485014E+02  0.58777976128E+03  0.10100000352E+00 0.  1.
       -3    1    3    3    0  502  0.14895132429E+03  0.56514199717E+03 -0.54480437626E+03  0.79898923182E+03  0.10100000352E+00 0. -1.
</event>
<event>
 5   0  0.3551277E-05  0.1299673E+04  0.7818609E-02  0.9029825E-01
        1   -1    0    0  501    0  0.00000000000E+00  0.00000000000E+00  0.15848388935E+04  0.15848388935E+04  0.50400001928E-02 0. -1.
       -1   -1    0    0    0  501  0.00000000000E+00  0.00000000000E+00 -0.26645443382E+03  0.26645443387E+03  0.50400001928E-02 0.  1.
    10030    2    1    2    0    0  0.00000000000E+00  0.00000000000E+00  0.13183844597E+04  0.18512933274E+04  0.12996728052E+04 0.  0.
        4    1    3    3  502    0  0.55333420032E+02  0.51022578866E+03  0.12269909365E+04  0.13300001932E+04  0.12699999809E+01 0. -1.
       -4    1    3    3    0  502 -0.55333420032E+02 -0.51022578866E+03  0.91393523228E+02  0.52129313421E+03  0.12699999809E+01 0.  1.
</event>
<event>
 5   0  0.6458698E-05  0.1300631E+04  0.7818609E-02  0.9029065E-01
        2   -1    0    0  501    0  0.00000000000E+00  0.00000000000E+00  0.92886966474E+03  0.92886966475E+03  0.25500000920E-02 0. -1.
       -2   -1    0    0    0  501  0.00000000000E+00  0.00000000000E+00 -0.45529588450E+03  0.45529588451E+03  0.25500000920E-02 0.  1.
    10030    2    1    2    0    0  0.00000000000E+00  0.00000000000E+00  0.47357378024E+03  0.13841655493E+04  0.13006314399E+04 0.  0.
        3    1    3    3  502    0 -0.11359888363E+03  0.14049528946E+03 -0.42804928636E+03  0.46461794464E+03  0.10100000352E+00 0.  1.
       -3    1    3    3    0  502  0.11359888363E+03 -0.14049528946E+03  0.90162306660E+03  0.91954760462E+03  0.10100000352E+00 0. -1.
</event>
<event>
 5   0  0.3718559E-05  0.1299947E+04  0.7818609E-02  0.9029607E-01
       -1   -1    0    0    0  501  0.00000000000E+00  0.00000000000E+00  0.34320130765E+03  0.34320130769E+03  0.50400001928E-02 0.  1.
        1   -1    0    0  501    0  0.00000000000E+00  0.00000000000E+00 -0.12309555983E+04  0.12309555984E+04  0.50400001928E-02 0. -1.
    10030    2    1    2    0    0  0.00000000000E+00  0.00000000000E+00 -0.88775429069E+03  0.15741569060E+04  0.12999470313E+04 0.  0.
        2    1    3    3  502    0 -0.43847517463E+02 -0.59672635360E+03 -0.13643059881E+03  0.61369231229E+03  0.25500000920E-02 0.  1.
       -2    1    3    3    0  502  0.43847517463E+02  0.59672635360E+03 -0.75132369188E+03  0.96046459375E+03  0.25500000920E-02 0. -1.
</event>
<event>
 5   0  0.3631841E-05  0.1299733E+04  0.7818609E-02  0.9029777E-01
       -1   -1    0    0    0  501  0.00000000000E+00  0.00000000000E+00  0.59412710670E+03  0.59412710672E+03  0.50400001928E-02 0. -1.
        1   -1    0    0  501    0  0.00000000000E+00  0.00000000000E+00 -0.71083561141E+03  0.71083561143E+03  0.50400001928E-02 0.  1.
    10030    2    1    2    0    0  0.00000000000E+00  0.00000000000E+00 -0.11670850472E+03  0.13049627181E+04  0.12997333652E+04 0.  0.
        3    1    3    3  502    0 -0.48030287539E+03 -0.13027480073E+03 -0.47796435347E+03  0.69000891966E+03  0.10100000352E+00 0.  1.
       -3    1    3    3    0  502  0.48030287539E+03  0.13027480073E+03  0.36125584875E+03  0.61495379849E+03  0.10100000352E+00 0. -1.
</event>
<event>
 5   0  0.3718559E-05  0.1300494E+04  0.7818609E-02  0.9029174E-01
        1   -1    0    0  501    0  0.00000000000E+00  0.00000000000E+00  0.89418593559E+03  0.89418593560E+03  0.50400001928E-02 0.  1.
       -1   -1    0    0    0  501  0.00000000000E+00  0.00000000000E+00 -0.47285577134E+03  0.47285577137E+03  0.50400001928E-02 0. -1.
    10030    2    1    2    0    0  0.00000000000E+00  0.00000000000E+00  0.42133016424E+03  0.13670417070E+04  0.13004937221E+04 0.  0.
        2    1    3    3  502    0 -0.18936672117E+03  0.86196819829E+02 -0.43692072620E+03  0.48393116022E+03  0.25500000920E-02 0. -1.
       -2    1    3    3    0  502  0.18936672117E+03 -0.86196819829E+02  0.85825089045E+03  0.88311054676E+03  0.25500000920E-02 0.  1.
</event>
<event>
 5   0  0.6671239E-05  0.1300363E+04  0.7818609E-02  0.9029277E-01
       -2   -1    0    0    0  501  0.00000000000E+00  0.00000000000E+00  0.21926753363E+03  0.21926753364E+03  0.25500000920E-02 0. -1.
        2   -1    0    0  501    0  0.00000000000E+00  0.00000000000E+00 -0.19279469910E+04  0.19279469910E+04  0.25500000920E-02 0.  1.
    10030    2    1    2    0    0  0.00000000000E+00  0.00000000000E+00 -0.17086794574E+04  0.21472145246E+04  0.13003633057E+04 0.  0.
        1    1    3    3  502    0 -0.27986574787E+03 -0.57073464047E+03 -0.62869694848E+03  0.89404849964E+03  0.50400001928E-02 0. -1.
       -1    1    3    3    0  502  0.27986574787E+03  0.57073464047E+03 -0.10799825089E+04  0.12531660250E+04  0.50400001928E-02 0.  1.
</event>
<event>
 5   0  0.3689707E-05  0.1300784E+04  0.7818609E-02  0.9028944E-01
       -1   -1    0    0    0  501  0.00000000000E+00  0.00000000000E+00  0.61950265952E+03  0.61950265954E+03  0.50400001928E-02 0. -1.
        1   -1    0    0  501    0  0.00000000000E+00  0.00000000000E+00 -0.68282111845E+03  0.68282111847E+03  0.50400001928E-02 0.  1.
    10030    2    1    2    0    0  0.00000000000E+00  0.00000000000E+00 -0.63318458930E+02  0.13023237780E+04  0.13007836083E+04 0.  0.
        1    1    3    3  502    0 -0.37954771084E+03 -0.24928421704E+03 -0.49783960033E+03  0.67382739137E+03  0.50400001928E-02 0.  1.
       -1    1    3    3    0  502  0.37954771084E+03  0.24928421704E+03  0.43452114140E+03  0.62849638664E+03  0.50400001928E-02 0. -1.
</event>
<event>
 5   0  0.6618060E-05  0.1300810E+04  0.7818609E-02  0.9028923E-01
        2   -1    0    0  501    0  0.00000000000E+00  0.00000000000E+00  0.15415619473E+04  0.15415619473E+04  0.25500000920E-02 0. -1.
       -2   -1    0    0    0  501  0.00000000000E+00  0.00000000000E+00 -0.27441445794E+03  0.27441445795E+03  0.25500000920E-02 0.  1.
    10030    2    1    2    0    0  0.00000000000E+00  0.00000000000E+00  0.12671474894E+04  0.18159764053E+04  0.13008103416E+04 0.  0.
        2    1    3    3  502    0  0.41748761567E+03  0.40590697107E+03  0.10381120122E+04  0.11902659066E+04  0.25500000920E-02 0.  1.
       -2    1    3    3    0  502 -0.41748761567E+03 -0.40590697107E+03  0.22903547715E+03  0.62571049871E+03  0.25500000920E-02 0. -1.
</event>
<event>
 5   0  0.3552698E-05  0.1301940E+04  0.7818609E-02  0.9028028E-01
        1   -1    0    0  501    0  0.00000000000E+00  0.00000000000E+00  0.11779576072E+04  0.11779576072E+04  0.50400001928E-02 0.  1.
       -1   -1    0    0    0  501  0.00000000000E+00  0.00000000000E+00 -0.35974277646E+03  0.35974277649E+03  0.50400001928E-02 0. -1.
    10030    2    1    2    0    0  0.00000000000E+00  0.00000000000E+00  0.81821483074E+03  0.15377003837E+04  0.13019396917E+04 0.  0.
        5    1    3    3  502    0 -0.15913743630E+03 -0.54670621116E+03  0.36499696666E+02  0.57058454483E+03  0.46999998093E+01 0.  1.
       -5    1    3    3    0  502  0.15913743630E+03  0.54670621116E+03  0.78171513408E+03  0.96711583887E+03  0.46999998093E+01 0. -1.
</event>
<event>
 5   0  0.3551277E-05  0.1299064E+04  0.7818609E-02  0.9030308E-01
        1   -1    0    0  501    0  0.00000000000E+00  0.00000000000E+00  0.15993469131E+04  0.15993469132E+04  0.50400001928E-02 0. -1.
       -1   -1    0    0    0  501  0.00000000000E+00  0.00000000000E+00 -0.26378988911E+03  0.26378988916E+03  0.50400001928E-02 0.  1.
    10030    2    1    2    0    0  0.00000000000E+00  0.00000000000E+00  0.13355570240E+04  0.18631368023E+04  0.12990635780E+04 0.  0.
        4    1    3    3  502    0 -0.17681899920E+02  0.64898799663E+03  0.63938747354E+03  0.91121678188E+03  0.12699999809E+01 0. -1.
       -4    1    3    3    0  502  0.17681899920E+02 -0.64898799663E+03  0.69616955050E+03  0.95192002043E+03  0.12699999809E+01 0.  1.
</event>
<event>
 5   0  0.3631841E-05  0.1299248E+04  0.7818609E-02  0.9030162E-01
        1   -1    0    0  501    0  0.00000000000E+00  0.00000000000E+00  0.92014565660E+03  0.92014565662E+03  0.50400001928E-02 0.  1.
       -1   -1    0    0    0  501  0.00000000000E+00  0.00000000000E+00 -0.45863509324E+03  0.45863509326E+03  0.50400001928E-02 0. -1.
    10030    2    1    2    0    0  0.00000000000E+00  0.00000000000E+00  0.46151056337E+03  0.13787807499E+04  0.12992476116E+04 0.  0.
        3    1    3    3  502    0  0.27083383715E+03  0.66553621069E+02 -0.39187193541E+03  0.48098230299E+03  0.10100000352E+00 0. -1.
       -3    1    3    3    0  502 -0.27083383715E+03 -0.66553621069E+02  0.85338249878E+03  0.89779844690E+03  0.10100000352E+00 0.  1.
</event>
<event>
 5   0  0.2512000E-05  0.1292612E+04  0.7818609E-02  0.9035445E-01
       -3   -1    0    0    0  501  0.00000000000E+00  0.00000000000E+00  0.29936247903E+03  0.29936249607E+03  0.10100000352E+00 0.  1.
        3   -1    0    0  501    0  0.00000000000E+00  0.00000000000E+00 -0.13953362030E+04  0.13953362067E+04  0.10100000352E+00 0. -1.
    10030    2    1    2    0    0  0.00000000000E+00  0.00000000000E+00 -0.10959737240E+04  0.16946987027E+04  0.12926118092E+04 0.  0.
        1    1    3    3  502    0  0.31896128673E+03 -0.33037759858E+03  0.48260663276E+02  0.46175182915E+03  0.50400001928E-02 0.  1.
       -1    1    3    3    0  502 -0.31896128673E+03  0.33037759858E+03 -0.11442343873E+04  0.12329468736E+04  0.50400001928E-02 0. -1.
</event>
<event>
 5   0  0.6458698E-05  0.1300161E+04  0.7818609E-02  0.9029437E-01
       -2   -1    0    0    0  501  0.00000000000E+00  0.00000000000E+00  0.18843622721E+03  0.18843622723E+03  0.25500000920E-02 0.  1.
        2   -1    0    0  501    0  0.00000000000E+00  0.00000000000E+00 -0.22426934610E+04  0.22426934610E+04  0.25500000920E-02 0. -1.
    10030    2    1    2    0    0  0.00000000000E+00  0.00000000000E+00 -0.20542572338E+04  0.24311296882E+04  0.13001610586E+04 0.  0.
        3    1    3    3  502    0  0.24464061734E+03 -0.35255106873E+03 -0.11402127355E+03  0.44400692420E+03  0.10100000352E+00 0.  1.
       -3    1    3    3    0  502 -0.24464061734E+03  0.35255106873E+03 -0.19402359602E+04  0.19871227640E+04  0.10100000352E+00 0. -1.
</event>
<event>
 5   0  0.6742824E-05  0.1299018E+04  0.7818609E-02  0.9030344E-01
       -2   -1    0    0    0  501  0.00000000000E+00  0.00000000000E+00  0.29351486918E+03  0.29351486919E+03  0.25500000920E-02 0. -1.
        2   -1    0    0  501    0  0.00000000000E+00  0.00000000000E+00 -0.14372755624E+04  0.14372755624E+04  0.25500000920E-02 0.  1.
    10030    2    1    2    0    0  0.00000000000E+00  0.00000000000E+00 -0.11437606932E+04  0.17307904316E+04  0.12990177038E+04 0.  0.
        4    1    3    3  502    0 -0.77043405862E+02 -0.49767827279E+03 -0.25374188215E+02  0.50424677681E+03  0.12699999809E+01 0. -1.
       -4    1    3    3    0  502  0.77043405862E+02  0.49767827279E+03 -0.11183865050E+04  0.12265436548E+04  0.12699999809E+01 0.  1.
</event>
<event>
 5   0  0.3551277E-05  0.1299317E+04  0.7818609E-02  0.9030107E-01
        1   -1    0    0  501    0  0.00000000000E+00  0.00000000000E+00  0.14323922153E+04  0.14323922153E+04  0.50400001928E-02 0.  1.
       -1   -1    0    0    0  501  0.00000000000E+00  0.00000000000E+00 -0.29465136650E+03  0.29465136654E+03  0.50400001928E-02 0. -1.
    10030    2    1    2    0    0  0.00000000000E+00  0.00000000000E+00  0.11377408488E+04  0.17270435819E+04  0.12993172417E+04 0.  0.
        4    1    3    3  502    0 -0.31490763678E+02 -0.36756569060E+03 -0.14191678657E+03  0.39526977156E+03  0.12699999809E+01 0. -1.
       -4    1    3    3    0  502  0.31490763678E+02  0.36756569060E+03  0.12796576354E+04  0.13317738103E+04  0.12699999809E+01 0.  1.
</event>
<event>
 5   0  0.3552698E-05  0.1299576E+04  0.7818609E-02  0.9029901E-01
        1   -1    0    0  501    0  0.00000000000E+00  0.00000000000E+00  0.32955348106E+03  0.32955348110E+03  0.50400001928E-02 0. -1.
       -1   -1    0    0    0  501  0.00000000000E+00  0.00000000000E+00 -0.12812017733E+04  0.12812017733E+04  0.50400001928E-02 0.  1.
    10030    2    1    2    0    0  0.00000000000E+00  0.00000000000E+00 -0.95164829224E+03  0.16107552544E+04  0.12995760915E+04 0.  0.
        5    1    3    3  502    0 -0.58532599130E+03  0.21143694418E+03 -0.24430852433E+03  0.66859617298E+03  0.46999998093E+01 0. -1.
       -5    1    3    3    0  502  0.58532599130E+03 -0.21143694418E+03 -0.70733976792E+03  0.94215908144E+03  0.46999998093E+01 0.  1.
</event>
<event>
 5   0  0.6458698E-05  0.1300524E+04  0.7818609E-02  0.9029150E-01
        2   -1    0    0  501    0  0.00000000000E+00  0.00000000000E+00  0.59624124300E+03  0.59624124301E+03  0.25500000920E-02 0.  1.
       -2   -1    0    0    0  501  0.00000000000E+00  0.00000000000E+00 -0.70917697022E+03  0.70917697022E+03  0.25500000920E-02 0. -1.
    10030    2    1    2    0    0  0.00000000000E+00  0.00000000000E+00 -0.11293572721E+03  0.13054182132E+04  0.13005238302E+04 0.  0.
        3    1    3    3  502    0 -0.58926748489E+03  0.23151436008E+03 -0.20536857749E+03  0.66559096335E+03  0.10100000352E+00 0.  1.
       -3    1    3    3    0  502  0.58926748489E+03 -0.23151436008E+03  0.92432850279E+02  0.63982724988E+03  0.10100000352E+00 0. -1.
</event>
<event>
 5   0  0.3551277E-05  0.1299823E+04  0.7818609E-02  0.9029706E-01
        1   -1    0    0  501    0  0.00000000000E+00  0.00000000000E+00  0.12796781946E+04  0.12796781946E+04  0.50400001928E-02 0.  1.
       -1   -1    0    0    0  501  0.00000000000E+00  0.00000000000E+00 -0.33007115053E+03  0.33007115057E+03  0.50400001928E-02 0. -1.
    10030    2    1    2    0    0  0.00000000000E+00  0.00000000000E+00  0.94960704408E+03  0.16097493452E+04  0.12998228403E+04 0.  0.
        4    1    3    3  502    0 -0.10092519960E+03 -0.63478224419E+03  0.59390520740E+03  0.87513393359E+03  0.12699999809E+01 0.  1.
       -4    1    3    3    0  502  0.10092519960E+03  0.63478224419E+03  0.35570183668E+03  0.73461541160E+03  0.12699999809E+01 0. -1.
</event>
<event>
 5   0  0.6458698E-05  0.1300625E+04  0.7818609E-02  0.9029070E-01
        2   -1    0    0  501    0  0.00000000000E+00  0.00000000000E+00  0.98263369865E+03  0.98263369865E+03  0.25500000920E-02 0.  1.
       -2   -1    0    0    0  501  0.00000000000E+00  0.00000000000E+00 -0.43038021003E+03  0.43038021004E+03  0.25500000920E-02 0. -1.
    10030    2    1    2    0    0  0.00000000000E+00  0.00000000000E+00  0.55225348862E+03  0.14130139087E+04  0.13006246155E+04 0.  0.
        3    1    3    3  502    0 -0.15792506493E+03 -0.38775771563E+03 -0.26447607709E+03  0.49522114021E+03  0.10100000352E+00 0. -1.
       -3    1    3    3    0  502  0.15792506493E+03  0.38775771563E+03  0.81672956571E+03  0.91779276848E+03  0.10100000352E+00 0.  1.
</event>
<event>
 5   0  0.3552698E-05  0.1299630E+04  0.7818609E-02  0.9029858E-01
        1   -1    0    0  501    0  0.00000000000E+00  0.00000000000E+00  0.89896310159E+03  0.89896310160E+03  0.50400001928E-02 0. -1.
       -1   -1    0    0    0  501  0.00000000000E+00  0.00000000000E+00 -0.46971856115E+03  0.46971856118E+03  0.50400001928E-02 0.  1.
    10030    2    1    2    0    0  0.00000000000E+00  0.00000000000E+00  0.42924454044E+03  0.13686816628E+04  0.12996301853E+04 0.  0.
        5    1    3    3  502    0 -0.33833996547E+03 -0.17488470022E+03 -0.33982825658E+03  0.51045462538E+03  0.46999998093E+01 0.  1.
       -5    1    3    3    0  502  0.33833996547E+03  0.17488470022E+03  0.76907279702E+03  0.85822703740E+03  0.46999998093E+01 0. -1.
</event>
<event>
 5   0  0.3718559E-05  0.1299502E+04  0.7818609E-02  0.9029961E-01
        1   -1    0    0  501    0  0.00000000000E+00  0.00000000000E+00  0.66306344140E+03  0.66306344142E+03  0.50400001928E-02 0. -1.
       -1   -1    0    0    0  501  0.00000000000E+00  0.00000000000E+00 -0.63670539195E+03  0.63670539197E+03  0.50400001928E-02 0.  1.
    10030    2    1    2    0    0  0.00000000000E+00  0.00000000000E+00  0.26358049451E+02  0.12997688334E+04  0.12995015481E+04 0.  0.
        2    1    3    3  502    0  0.10921606364E+03  0.38497495213E+03 -0.49882684668E+03  0.63950143494E+03  0.25500000920E-02 0.  1.
       -2    1    3    3    0  502 -0.10921606364E+03 -0.38497495213E+03  0.52518489613E+03  0.66026739845E+03  0.25500000920E-02 0. -1.
</event>
<event>
 5   0  0.6688086E-05  0.1299516E+04  0.7818609E-02  0.9029949E-01
        2   -1    0    0  501    0  0.00000000000E+00  0.00000000000E+00  0.29188278538E+04  0.29188278538E+04  0.25500000920E-02 0.  1.
       -2   -1    0    0    0  501  0.00000000000E+00  0.00000000000E+00 -0.14464210278E+03  0.14464210280E+03  0.25500000920E-02 0. -1.
    10030    2    1    2    0    0  0.00000000000E+00  0.00000000000E+00  0.27741857510E+04  0.30634699566E+04  0.12995159075E+04 0.  0.
        5    1    3    3  502    0 -0.22938959802E+03 -0.77882751270E+02  0.28083448762E+04  0.28187778103E+04  0.46999998093E+01 0.  1.
       -5    1    3    3    0  502  0.22938959802E+03  0.77882751270E+02 -0.34159125110E+02  0.24469214629E+03  0.46999998093E+01 0. -1.
</event>
<event>
 5   0  0.3689707E-05  0.1299343E+04  0.7818609E-02  0.9030086E-01
        1   -1    0    0  501    0  0.00000000000E+00  0.00000000000E+00  0.65585838265E+03  0.65585838267E+03  0.50400001928E-02 0. -1.
       -1   -1    0    0    0  501  0.00000000000E+00  0.00000000000E+00 -0.64354304309E+03  0.64354304311E+03  0.50400001928E-02 0.  1.
    10030    2    1    2    0    0  0.00000000000E+00  0.00000000000E+00  0.12315339562E+02  0.12994014258E+04  0.12993430639E+04 0.  0.
        1    1    3    3  502    0 -0.34329313222E+03  0.51517669393E+03  0.20318402800E+03  0.65156807001E+03  0.50400001928E-02 0. -1.
       -1    1    3    3    0  502  0.34329313222E+03 -0.51517669393E+03 -0.19086868844E+03  0.64783335577E+03  0.50400001928E-02 0.  1.
</event>
<event>
 5   0  0.3689707E-05  0.1299218E+04  0.7818609E-02  0.9030185E-01
       -1   -1    0    0    0  501  0.00000000000E+00  0.00000000000E+00  0.56321103712E+03  0.56321103715E+03  0.50400001928E-02 0.  1.
        1   -1    0    0  501    0  0.00000000000E+00  0.00000000000E+00 -0.74926070923E+03  0.74926070925E+03  0.50400001928E-02 0. -1.
    10030    2    1    2    0    0  0.00000000000E+00  0.00000000000E+00 -0.18604967211E+03  0.13124717464E+04  0.12992180743E+04 0.  0.
        1    1    3    3  502    0 -0.96792945270E+02  0.82248449789E+02 -0.73659378536E+03  0.74746510714E+03  0.50400001928E-02 0. -1.
       -1    1    3    3    0  502  0.96792945270E+02 -0.82248449789E+02  0.55054411325E+03  0.56500663926E+03  0.50400001928E-02 0.  1.
</event>
<event>
 5   0  0.6458698E-05  0.1299306E+04  0.7818609E-02  0.9030116E-01
        2   -1    0    0  501    0  0.00000000000E+00  0.00000000000E+00  0.50746515964E+03  0.50746515965E+03  0.25500000920E-02 0. -1.
       -2   -1    0    0    0  501  0.00000000000E+00  0.00000000000E+00 -0.83168032405E+03  0.83168032406E+03  0.25500000920E-02 0.  1.
    10030    2    1    2    0    0  0.00000000000E+00  0.00000000000E+00 -0.32421516441E+03  0.13391454837E+04  0.12993056429E+04 0.  0.
        3    1    3    3  502    0  0.66845197679E+02 -0.55717700875E+03 -0.49945754092E+03  0.75124719296E+03  0.10100000352E+00 0.  1.
       -3    1    3    3    0  502 -0.66845197679E+02  0.55717700875E+03  0.17524237651E+03  0.58789829075E+03  0.10100000352E+00 0. -1.
</event>
<event>
 5   0  0.3551277E-05  0.1299149E+04  0.7818609E-02  0.9030240E-01
        1   -1    0    0  501    0  0.00000000000E+00  0.00000000000E+00  0.12006356886E+04  0.12006356887E+04  0.50400001928E-02 0.  1.
       -1   -1    0    0    0  501  0.00000000000E+00  0.00000000000E+00 -0.35143646697E+03  0.35143646700E+03  0.50400001928E-02 0. -1.
    10030    2    1    2    0    0  0.00000000000E+00  0.00000000000E+00  0.84919922168E+03  0.15520721557E+04  0.12991492055E+04 0.  0.
        4    1    3    3  502    0  0.34908397844E+03  0.51817094400E+03  0.21227910296E+03  0.65986724549E+03  0.12699999809E+01 0. -1.
       -4    1    3    3    0  502 -0.34908397844E+03 -0.51817094400E+03  0.63692011872E+03  0.89220491017E+03  0.12699999809E+01 0.  1.
</event>
<event>
 5   0  0.3689707E-05  0.1299855E+04  0.7818609E-02  0.9029680E-01
        1   -1    0    0  501    0  0.00000000000E+00  0.00000000000E+00  0.58206754290E+03  0.58206754292E+03  0.50400001928E-02 0.  1.
       -1   -1    0    0    0  501  0.00000000000E+00  0.00000000000E+00 -0.72569852695E+03  0.72569852696E+03  0.50400001928E-02 0. -1.
    10030    2    1    2    0    0  0.00000000000E+00  0.00000000000E+00 -0.14363098404E+03  0.13077660699E+04  0.12998546973E+04 0.  0.
        1    1    3    3  502    0  0.53075868750E+03 -0.26516539590E+02  0.30462438772E+03  0.61253892027E+03  0.50400001928E-02 0.  1.
       -1    1    3    3    0  502 -0.53075868750E+03  0.26516539590E+02 -0.44825537177E+03  0.69522714962E+03  0.50400001928E-02 0. -1.
</event>
<event>
 5   0  0.6688086E-05  0.1299990E+04  0.7818609E-02  0.9029573E-01
       -2   -1    0    0    0  501  0.00000000000E+00  0.00000000000E+00  0.58655904067E+03  0.58655904068E+03  0.25500000920E-02 0.  1.
        2   -1    0    0  501    0  0.00000000000E+00  0.00000000000E+00 -0.72029140552E+03  0.72029140552E+03  0.25500000920E-02 0. -1.
    10030    2    1    2    0    0  0.00000000000E+00  0.00000000000E+00 -0.13373236484E+03  0.13068504462E+04  0.12999899012E+04 0.  0.
        5    1    3    3  502    0  0.10487643206E+03  0.50234672916E+03  0.33413749594E+03  0.61238979294E+03  0.46999998093E+01 0.  1.
       -5    1    3    3    0  502 -0.10487643206E+03 -0.50234672916E+03 -0.46786986079E+03  0.69446065326E+03  0.46999998093E+01 0. -1.
</event>
<event>
 5   0  0.3552698E-05  0.1299646E+04  0.7818609E-02  0.9029846E-01
        1   -1    0    0  501    0  0.00000000000E+00  0.00000000000E+00  0.11323677422E+04  0.11323677422E+04  0.50400001928E-02 0. -1.
       -1   -1    0    0    0  501  0.00000000000E+00  0.00000000000E+00 -0.37290882486E+03  0.37290882490E+03  0.50400001928E-02 0.  1.
    10030    2    1    2    0    0  0.00000000000E+00  0.00000000000E+00  0.75945891730E+03  0.15052765671E+04  0.12996459888E+04 0.  0.
        5    1    3    3  502    0  0.24397006389E+03 -0.19571939990E+03  0.10394276298E+04  0.10854765604E+04  0.46999998093E+01 0. -1.
       -5    1    3    3    0  502 -0.24397006389E+03  0.19571939990E+03 -0.27996871255E+03  0.41980000664E+03  0.46999998093E+01 0.  1.
</event>
<event>
 5   0  0.6458698E-05  0.1300258E+04  0.7818609E-02  0.9029361E-01
        2   -1    0    0  501    0  0.00000000000E+00  0.00000000000E+00  0.82644299188E+03  0.82644299188E+03  0.25500000920E-02 0.  1.
       -2   -1    0    0    0  501  0.00000000000E+00  0.00000000000E+00 -0.51143003007E+03  0.51143003007E+03  0.25500000920E-02 0. -1.
    10030    2    1    2    0    0  0.00000000000E+00  0.00000000000E+00  0.31501296181E+03  0.13378730220E+04  0.13002580731E+04 0.  0.
        3    1    3    3  502    0 -0.57454757215E+03 -0.11358971629E+03 -0.13289985133E+03  0.60055800469E+03  0.10100000352E+00 0.  1.
       -3    1    3    3    0  502  0.57454757215E+03  0.11358971629E+03  0.44791281314E+03  0.73731501727E+03  0.10100000352E+00 0. -1.
</event>
<event>
 5   0  0.3718559E-05  0.1299664E+04  0.7818609E-02  0.9029832E-01
       -1   -1    0    0    0  501  0.00000000000E+00  0.00000000000E+00  0.68019015443E+03  0.68019015445E+03  0.50400001928E-02 0.  1.
        1   -1    0    0  501    0  0.00000000000E+00  0.00000000000E+00 -0.62082850036E+03  0.62082850038E+03  0.50400001928E-02 0. -1.
    10030    2    1    2    0    0  0.00000000000E+00  0.00000000000E+00  0.59361654068E+02  0.13010186548E+04  0.12996637004E+04 0.  0.
        2    1    3    3  502    0 -0.40970146897E+02 -0.22198268129E+03 -0.58032017356E+03  0.62267677617E+03  0.25500000920E-02 0. -1.
       -2    1    3    3    0  502  0.40970146897E+02  0.22198268129E+03  0.63968182763E+03  0.67834187866E+03  0.25500000920E-02 0.  1.
</event>
<event>
 5   0  0.3551277E-05  0.1300132E+04  0.7818609E-02  0.9029461E-01
        1   -1    0    0  501    0  0.00000000000E+00  0.00000000000E+00  0.81921667716E+03  0.81921667717E+03  0.50400001928E-02 0.  1.
       -1   -1    0    0    0  501  0.00000000000E+00  0.00000000000E+00 -0.51584093664E+03  0.51584093666E+03  0.50400001928E-02 0. -1.
    10030    2    1    2    0    0  0.00000000000E+00  0.00000000000E+00  0.30337574052E+03  0.13350576138E+04  0.13001315289E+04 0.  0.
        4    1    3    3  502    0  0.32526834558E+03  0.26880407497E+03  0.65947032233E+03  0.78291624475E+03  0.12699999809E+01 0.  1.
       -4    1    3    3    0  502 -0.32526834558E+03 -0.26880407497E+03 -0.35609458181E+03  0.55214136908E+03  0.12699999809E+01 0. -1.
</event>
<event>
 5   0  0.3689707E-05  0.1299586E+04  0.7818609E-02  0.9029893E-01
       -1   -1    0    0    0  501  0.00000000000E+00  0.00000000000E+00  0.26627437164E+03  0.26627437169E+03  0.50400001928E-02 0.  1.
        1   -1    0    0  501    0  0.00000000000E+00  0.00000000000E+00 -0.15856991569E+04  0.15856991569E+04  0.50400001928E-02 0. -1.
    10030    2    1    2    0    0  0.00000000000E+00  0.00000000000E+00 -0.13194247853E+04  0.18519735286E+04  0.12995861598E+04 0.  0.
        1    1    3    3  502    0 -0.43596065875E+03  0.10320838241E+03 -0.13304205690E+04  0.14038278230E+04  0.50400001928E-02 0. -1.
       -1    1    3    3    0  502  0.43596065875E+03 -0.10320838241E+03  0.10995783721E+02  0.44814570562E+03  0.50400001928E-02 0.  1.
</event>
<event>
 5   0  0.3551277E-05  0.1301401E+04  0.7818609E-02  0.9028455E-01
        1   -1    0    0  501    0  0.00000000000E+00  0.00000000000E+00  0.11315817691E+04  0.11315817691E+04  0.50400001928E-02 0. -1.
       -1   -1    0    0    0  501  0.00000000000E+00  0.00000000000E+00 -0.37417655233E+03  0.37417655237E+03  0.50400001928E-02 0.  1.
    10030    2    1    2    0    0  0.00000000000E+00  0.00000000000E+00  0.75740521675E+03  0.15057583215E+04  0.13014013448E+04 0.  0.
        4    1    3    3  502    0  0.17063931386E+03 -0.44873606164E+03 -0.12950547207E+03  0.49724753257E+03  0.12699999809E+01 0.  1.
       -4    1    3    3    0  502 -0.17063931386E+03  0.44873606164E+03  0.88691068882E+03  0.10085107889E+04  0.12699999809E+01 0. -1.
</event>
<event>
 5   0  0.6618060E-05  0.1300315E+04  0.7818609E-02  0.9029315E-01
       -2   -1    0    0    0  501  0.00000000000E+00  0.00000000000E+00  0.43886268883E+03  0.43886268883E+03  0.25500000920E-02 0. -1.
        2   -1    0    0  501    0  0.00000000000E+00  0.00000000000E+00 -0.96318252535E+03  0.96318252535E+03  0.25500000920E-02 0.  1.
    10030    2    1    2    0    0  0.00000000000E+00  0.00000000000E+00 -0.52431983652E+03  0.14020452142E+04  0.13003151509E+04 0.  0.
        2    1    3    3  502    0 -0.33388117777E+03 -0.21449277894E+03 -0.81744680283E+03  0.90868205031E+03  0.25500000920E-02 0.  1.
       -2    1    3    3    0  502  0.33388117777E+03  0.21449277894E+03  0.29312696631E+03  0.49336316388E+03  0.25500000920E-02 0. -1.
</event>
<event>
 5   0  0.6671239E-05  0.1310056E+04  0.7818609E-02  0.9021628E-01
       -2   -1    0    0    0  501  0.00000000000E+00  0.00000000000E+00  0.30065377072E+03  0.30065377073E+03  0.25500000920E-02 0. -1.
        2   -1    0    0  501    0  0.00000000000E+00  0.00000000000E+00 -0.14270959091E+04  0.14270959091E+04  0.25500000920E-02 0.  1.
    10030    2    1    2    0    0  0.00000000000E+00  0.00000000000E+00 -0.11264421384E+04  0.17277496799E+04  0.13100561305E+04 0.  0.
        1    1    3    3  502    0  0.78654765576E+02 -0.47907354865E+03 -0.11431548727E+04  0.12419746777E+04  0.50400001928E-02 0.  1.
       -1    1    3    3    0  502 -0.78654765576E+02  0.47907354865E+03  0.16712734297E+02  0.48577500211E+03  0.50400001928E-02 0. -1.
</event>
<event>
 5   0  0.6458698E-05  0.1299839E+04  0.7818609E-02  0.9029693E-01
       -2   -1    0    0    0  501  0.00000000000E+00  0.00000000000E+00  0.66783700064E+03  0.66783700064E+03  0.25500000920E-02 0. -1.
        2   -1    0    0  501    0  0.00000000000E+00  0.00000000000E+00 -0.63248311278E+03  0.63248311278E+03  0.25500000920E-02 0.  1.
    10030    2    1    2    0    0  0.00000000000E+00  0.00000000000E+00  0.35353887860E+02  0.13003201134E+04  0.12998394132E+04 0.  0.
        3    1    3    3  502    0  0.13126703293E+03  0.56195605764E+03 -0.28138171770E+03  0.64202906937E+03  0.10100000352E+00 0.  1.
       -3    1    3    3    0  502 -0.13126703293E+03 -0.56195605764E+03  0.31673560556E+03  0.65829104406E+03  0.10100000352E+00 0. -1.
</event>
<event>
 5   0  0.6671239E-05  0.1299709E+04  0.7818609E-02  0.9029796E-01
       -2   -1    0    0    0  501  0.00000000000E+00  0.00000000000E+00  0.20712290761E+03  0.20712290763E+03  0.25500000920E-02 0. -1.
        2   -1    0    0  501    0  0.00000000000E+00  0.00000000000E+00 -0.20389374036E+04  0.20389374036E+04  0.25500000920E-02 0.  1.
    10030    2    1    2    0    0  0.00000000000E+00  0.00000000000E+00 -0.18318144960E+04  0.22460603113E+04  0.12997086497E+04 0.  0.
        1    1    3    3  502    0 -0.56622083223E+03 -0.31783816355E+03 -0.87072693411E+03  0.10861825458E+04  0.50400001928E-02 0. -1.
       -1    1    3    3    0  502  0.56622083223E+03  0.31783816355E+03 -0.96108756190E+03  0.11598777654E+04  0.50400001928E-02 0.  1.
</event>
<event>
 5   0  0.6742824E-05  0.1304383E+04  0.7818609E-02  0.9026097E-01
       -2   -1    0    0    0  501  0.00000000000E+00  0.00000000000E+00  0.27666608430E+03  0.27666608431E+03  0.25500000920E-02 0. -1.
        2   -1    0    0  501    0  0.00000000000E+00  0.00000000000E+00 -0.15374258237E+04  0.15374258237E+04  0.25500000920E-02 0.  1.
    10030    2    1    2    0    0  0.00000000000E+00  0.00000000000E+00 -0.12607597394E+04  0.18140919080E+04  0.13043827392E+04 0.  0.
        4    1    3    3  502    0  0.21037354842E+03  0.79218997108E+02 -0.14818417508E+04  0.14987959390E+04  0.12699999809E+01 0.  1.
       -4    1    3    3    0  502 -0.21037354842E+03 -0.79218997108E+02  0.22108201145E+03  0.31529596899E+03  0.12699999809E+01 0. -1.
</event>
<event>
 5   0  0.3631841E-05  0.1299762E+04  0.7818609E-02  0.9029754E-01
       -1   -1    0    0    0  501  0.00000000000E+00  0.00000000000E+00  0.37978763718E+03  0.37978763721E+03  0.50400001928E-02 0. -1.
        1   -1    0    0  501    0  0.00000000000E+00  0.00000000000E+00 -0.11120561715E+04  0.11120561715E+04  0.50400001928E-02 0.  1.
    10030    2    1    2    0    0  0.00000000000E+00  0.00000000000E+00 -0.73226853434E+03  0.14918438087E+04  0.12997618025E+04 0.  0.
        3    1    3    3  502    0  0.48368293753E+02  0.64495977168E+03 -0.29324712802E+03  0.71014539865E+03  0.10100000352E+00 0. -1.
       -3    1    3    3    0  502 -0.48368293753E+02 -0.64495977168E+03 -0.43902140632E+03  0.78169841009E+03  0.10100000352E+00 0.  1.
</event>
<event>
 5   0  0.3689707E-05  0.1299750E+04  0.7818609E-02  0.9029763E-01
        1   -1    0    0  501    0  0.00000000000E+00  0.00000000000E+00  0.82354146830E+03  0.82354146831E+03  0.50400001928E-02 0. -1.
       -1   -1    0    0    0  501  0.00000000000E+00  0.00000000000E+00 -0.51283108115E+03  0.51283108118E+03  0.50400001928E-02 0.  1.
    10030    2    1    2    0    0  0.00000000000E+00  0.00000000000E+00  0.31071038715E+03  0.13363725495E+04  0.12997502246E+04 0.  0.
        1    1    3    3  502    0  0.43383059095E+03 -0.21842659987E+03 -0.28857240961E+03  0.56497185486E+03  0.50400001928E-02 0.  1.
       -1    1    3    3    0  502 -0.43383059095E+03  0.21842659987E+03  0.59928279675E+03  0.77140069463E+03  0.50400001928E-02 0. -1.
</event>
<event>
 5   0  0.3552698E-05  0.1300145E+04  0.7818609E-02  0.9029451E-01
       -1   -1    0    0    0  501  0.00000000000E+00  0.00000000000E+00  0.39180362326E+03  0.39180362330E+03  0.50400001928E-02 0. -1.
        1   -1    0    0  501    0  0.00000000000E+00  0.00000000000E+00 -0.10785861430E+04  0.10785861431E+04  0.50400001928E-02 0.  1.
    10030    2    1    2    0    0  0.00000000000E+00  0.00000000000E+00 -0.68678251977E+03  0.14703897663E+04  0.13001445441E+04 0.  0.
        5    1    3    3  502    0  0.61206118787E+03 -0.21178762902E+03 -0.40634907033E+03  0.76460091189E+03  0.46999998093E+01 0. -1.
       -5    1    3    3    0  502 -0.61206118787E+03  0.21178762902E+03 -0.28043344945E+03  0.70578885446E+03  0.46999998093E+01 0.  1.
</event>
<event>
 5   0  0.3689707E-05  0.1299958E+04  0.7818609E-02  0.9029598E-01
        1   -1    0    0  501    0  0.00000000000E+00  0.00000000000E+00  0.15803462741E+04  0.15803462741E+04  0.50400001928E-02 0. -1.
       -1   -1    0    0    0  501  0.00000000000E+00  0.00000000000E+00 -0.26732929359E+03  0.26732929364E+03  0.50400001928E-02 0.  1.
    10030    2    1    2    0    0  0.00000000000E+00  0.00000000000E+00  0.13130169805E+04  0.18476755677E+04  0.12999582349E+04 0.  0.
        1    1    3    3  502    0 -0.53204434900E+03  0.36687976203E+03  0.75499070991E+03  0.99382237908E+03  0.50400001928E-02 0. -1.
       -1    1    3    3    0  502  0.53204434900E+03 -0.36687976203E+03  0.55802627058E+03  0.85385318866E+03  0.50400001928E-02 0.  1.
</event>
<event>
 5   0  0.3551277E-05  0.1300461E+04  0.7818609E-02  0.9029200E-01
       -1   -1    0    0    0  501  0.00000000000E+00  0.00000000000E+00  0.80202877853E+03  0.80202877854E+03  0.50400001928E-02 0. -1.
        1   -1    0    0  501    0  0.00000000000E+00  0.00000000000E+00 -0.52716272360E+03  0.52716272362E+03  0.50400001928E-02 0.  1.
    10030    2    1    2    0    0  0.00000000000E+00  0.00000000000E+00  0.27486605493E+03  0.13291915022E+04  0.13004609572E+04 0.  0.
        4    1    3    3  502    0 -0.29021585623E+03  0.28640799936E+03  0.65512395838E+03  0.77165004960E+03  0.12699999809E+01 0. -1.
       -4    1    3    3    0  502  0.29021585623E+03 -0.28640799936E+03 -0.38025790345E+03  0.55754145257E+03  0.12699999809E+01 0.  1.
</event>
<event>
 5   0  0.3631841E-05  0.1298380E+04  0.7818609E-02  0.9030851E-01
       -1   -1    0    0    0  501  0.00000000000E+00  0.00000000000E+00  0.95969627133E+03  0.95969627134E+03  0.50400001928E-02 0.  1.
        1   -1    0    0  501    0  0.00000000000E+00  0.00000000000E+00 -0.43914687410E+03  0.43914687413E+03  0.50400001928E-02 0. -1.
    10030    2    1    2    0    0  0.00000000000E+00  0.00000000000E+00  0.52054939722E+03  0.13988431455E+04  0.12983799408E+04 0.  0.
        3    1    3    3  502    0 -0.89838061931E+02 -0.64287014286E+03  0.24978980525E+03  0.69551984513E+03  0.10100000352E+00 0.  1.
       -3    1    3    3    0  502  0.89838061931E+02  0.64287014286E+03  0.27075959197E+03  0.70332330034E+03  0.10100000352E+00 0. -1.
</event>
<event>
 5   0  0.6742824E-05  0.1303844E+04  0.7818609E-02  0.9026522E-01
        2   -1    0    0  501    0  0.00000000000E+00  0.00000000000E+00  0.71908196141E+03  0.71908196142E+03  0.25500000920E-02 0.  1.
       -2   -1    0    0    0  501  0.00000000000E+00  0.00000000000E+00 -0.59103465737E+03  0.59103465737E+03  0.25500000920E-02 0. -1.
    10030    2    1    2    0    0  0.00000000000E+00  0.00000000000E+00  0.12804730404E+03  0.13101166188E+04  0.13038441022E+04 0.  0.
        4    1    3    3  502    0 -0.10933848900E+03 -0.59041972274E+03 -0.19106848720E+03  0.63012628408E+03  0.12699999809E+01 0. -1.
       -4    1    3    3    0  502  0.10933848900E+03  0.59041972274E+03  0.31911579125E+03  0.67999033471E+03  0.12699999809E+01 0.  1.
</event>
<event>
 5   0  0.3718559E-05  0.1301880E+04  0.7818609E-02  0.9028075E-01
        1   -1    0    0  501    0  0.00000000000E+00  0.00000000000E+00  0.77994179474E+03  0.77994179476E+03  0.50400001928E-02 0.  1.
       -1   -1    0    0    0  501  0.00000000000E+00  0.00000000000E+00 -0.54327533805E+03  0.54327533807E+03  0.50400001928E-02 0. -1.
    10030    2    1    2    0    0  0.00000000000E+00  0.00000000000E+00  0.23666645669E+03  0.13232171328E+04  0.13018803973E+04 0.  0.
        2    1    3    3  502    0  0.54015907102E+03 -0.23959565963E+03  0.39583770058E+03  0.71124214395E+03  0.25500000920E-02 0.  1.
       -2    1    3    3    0  502 -0.54015907102E+03  0.23959565963E+03 -0.15917124388E+03  0.61197498888E+03  0.25500000920E-02 0. -1.
</event>
<event>
 5   0  0.3631841E-05  0.1300271E+04  0.7818609E-02  0.9029350E-01
       -1   -1    0    0    0  501  0.00000000000E+00  0.00000000000E+00  0.73190915103E+03  0.73190915105E+03  0.50400001928E-02 0.  1.
        1   -1    0    0  501    0  0.00000000000E+00  0.00000000000E+00 -0.57749804381E+03  0.57749804383E+03  0.50400001928E-02 0. -1.
    10030    2    1    2    0    0  0.00000000000E+00  0.00000000000E+00  0.15441110723E+03  0.13094071949E+04  0.13002708995E+04 0.  0.
        3    1    3    3  502    0  0.30280540196E+03 -0.40384464621E+03 -0.33542282444E+03  0.60604462796E+03  0.10100000352E+00 0. -1.
       -3    1    3    3    0  502 -0.30280540196E+03  0.40384464621E+03  0.48983393167E+03  0.70336256692E+03  0.10100000352E+00 0.  1.
</event>
<event>
 5   0  0.6688086E-05  0.1299797E+04  0.7818609E-02  0.9029726E-01
       -2   -1    0    0    0  501  0.00000000000E+00  0.00000000000E+00  0.11738857464E+04  0.11738857464E+04  0.25500000920E-02 0.  1.
        2   -1    0    0  501    0  0.00000000000E+00  0.00000000000E+00 -0.35980330165E+03  0.35980330166E+03  0.25500000920E-02 0. -1.
    10030    2    1    2    0    0  0.00000000000E+00  0.00000000000E+00  0.81408244476E+03  0.15336890481E+04  0.12997968569E+04 0.  0.
        5    1    3    3  502    0 -0.10504942151E+03  0.14407524745E+03 -0.33035638234E+03  0.37543373215E+03  0.46999998093E+01 0. -1.
       -5    1    3    3    0  502  0.10504942151E+03 -0.14407524745E+03  0.11444388271E+04  0.11582553159E+04  0.46999998093E+01 0.  1.
</event>
<event>
 5   0  0.3718559E-05  0.1301897E+04  0.7818609E-02  0.9028062E-01
        1   -1    0    0  501    0  0.00000000000E+00  0.00000000000E+00  0.26019096603E+03  0.26019096608E+03  0.50400001928E-02 0.  1.
       -1   -1    0    0    0  501  0.00000000000E+00  0.00000000000E+00 -0.16285497959E+04  0.16285497959E+04  0.50400001928E-02 0. -1.
    10030    2    1    2    0    0  0.00000000000E+00  0.00000000000E+00 -0.13683588298E+04  0.18887407619E+04  0.13018969923E+04 0.  0.
        2    1    3    3  502    0  0.38551911587E+03 -0.39925331923E+03 -0.11776635410E+04  0.13018907855E+04  0.25500000920E-02 0. -1.
       -2    1    3    3    0  502 -0.38551911587E+03  0.39925331923E+03 -0.19069528879E+03  0.58684997639E+03  0.25500000920E-02 0.  1.
</event>
<event>
 5   0  0.3631841E-05  0.1299105E+04  0.7818609E-02  0.9030275E-01
        1   -1    0    0  501    0  0.00000000000E+00  0.00000000000E+00  0.25780841848E+04  0.25780841848E+04  0.50400001928E-02 0. -1.
       -1   -1    0    0    0  501  0.00000000000E+00  0.00000000000E+00 -0.16365586161E+03  0.16365586169E+03  0.50400001928E-02 0.  1.
    10030    2    1    2    0    0  0.00000000000E+00  0.00000000000E+00  0.24144283232E+04  0.27417400465E+04  0.12991052131E+04 0.  0.
        3    1    3    3  502    0 -0.19411403024E+03  0.32402585251E+03  0.23224715139E+04  0.23529868153E+04  0.10100000352E+00 0. -1.
       -3    1    3    3    0  502  0.19411403024E+03 -0.32402585251E+03  0.91956809345E+02  0.38875323126E+03  0.10100000352E+00 0.  1.
</event>
<event>
 5   0  0.3552698E-05  0.1301668E+04  0.7818609E-02  0.9028243E-01
        1   -1    0    0  501    0  0.00000000000E+00  0.00000000000E+00  0.13486465641E+04  0.13486465641E+04  0.50400001928E-02 0.  1.
       -1   -1    0    0    0  501  0.00000000000E+00  0.00000000000E+00 -0.31408164104E+03  0.31408164108E+03  0.50400001928E-02 0. -1.
    10030    2    1    2    0    0  0.00000000000E+00  0.00000000000E+00  0.10345649231E+04  0.16627282052E+04  0.13016683542E+04 0.  0.
        5    1    3    3  502    0  0.24923695874E+03  0.12644863880E+03  0.12680690056E+04  0.12985104593E+04  0.46999998093E+01 0.  1.
       -5    1    3    3    0  502 -0.24923695874E+03 -0.12644863880E+03 -0.23350408256E+03  0.36421774590E+03  0.46999998093E+01 0. -1.
</event>
<event>
 5   0  0.6618060E-05  0.1302475E+04  0.7818609E-02  0.9027605E-01
        2   -1    0    0  501    0  0.00000000000E+00  0.00000000000E+00  0.12693306758E+04  0.12693306758E+04  0.25500000920E-02 0.  1.
       -2   -1    0    0    0  501  0.00000000000E+00  0.00000000000E+00 -0.33412124557E+03  0.33412124558E+03  0.25500000920E-02 0. -1.
    10030    2    1    2    0    0  0.00000000000E+00  0.00000000000E+00  0.93520943022E+03  0.16034519214E+04  0.13024750999E+04 0.  0.
        2    1    3    3  502    0 -0.11740549743E+03  0.87581142905E+02 -0.31357959790E+03  0.34610211158E+03  0.25500000920E-02 0. -1.
       -2    1    3    3    0  502  0.11740549743E+03 -0.87581142905E+02  0.12487890281E+04  0.12573498098E+04  0.25500000920E-02 0.  1.
</event>
<event>
 5   0  0.6618060E-05  0.1299540E+04  0.7818609E-02  0.9029930E-01
       -2   -1    0    0    0  501  0.00000000000E+00  0.00000000000E+00  0.37832139171E+03  0.37832139172E+03  0.25500000920E-02 0.  1.
        2   -1    0    0  501    0  0.00000000000E+00  0.00000000000E+00 -0.11159845476E+04  0.11159845476E+04  0.25500000920E-02 0. -1.
    10030    2    1    2    0    0  0.00000000000E+00  0.00000000000E+00 -0.73766315590E+03  0.14943059393E+04  0.12995396526E+04 0.  0.
        2    1    3    3  502    0 -0.72796221085E+02  0.48609763310E+03 -0.85750828526E+03  0.98838790867E+03  0.25500000920E-02 0. -1.
       -2    1    3    3    0  502  0.72796221085E+02 -0.48609763310E+03  0.11984512936E+03  0.50591803066E+03  0.25500000920E-02 0.  1.
</event>
<event>
 5   0  0.6688086E-05  0.1299912E+04  0.7818609E-02  0.9029635E-01
       -2   -1    0    0    0  501  0.00000000000E+00  0.00000000000E+00  0.36050662043E+03  0.36050662044E+03  0.25500000920E-02 0.  1.
        2   -1    0    0  501    0  0.00000000000E+00  0.00000000000E+00 -0.11718030745E+04  0.11718030745E+04  0.25500000920E-02 0. -1.
    10030    2    1    2    0    0  0.00000000000E+00  0.00000000000E+00 -0.81129645404E+03  0.15323096949E+04  0.12999119450E+04 0.  0.
        5    1    3    3  502    0 -0.36232322855E+02 -0.29076936527E+03 -0.10895040598E+04  0.11282290509E+04  0.46999998093E+01 0. -1.
       -5    1    3    3    0  502  0.36232322855E+02  0.29076936527E+03  0.27820760573E+03  0.40408064403E+03  0.46999998093E+01 0.  1.
</event>
<event>
 5   0  0.6742824E-05  0.1299649E+04  0.7818609E-02  0.9029843E-01
        2   -1    0    0  501    0  0.00000000000E+00  0.00000000000E+00  0.43101379348E+03  0.43101379348E+03  0.25500000920E-02 0.  1.
       -2   -1    0    0    0  501  0.00000000000E+00  0.00000000000E+00 -0.97971852826E+03  0.97971852826E+03  0.25500000920E-02 0. -1.
    10030    2    1    2    0    0  0.00000000000E+00  0.00000000000E+00 -0.54870473478E+03  0.14107323217E+04  0.12996494903E+04 0.  0.
        4    1    3    3  502    0 -0.39156759148E+03  0.50729738752E+03 -0.15746988801E+03  0.65990468752E+03  0.12699999809E+01 0.  1.
       -4    1    3    3    0  502  0.39156759148E+03 -0.50729738752E+03 -0.39123484677E+03  0.75082763422E+03  0.12699999809E+01 0. -1.
</event>
<event>
 5   0  0.3689707E-05  0.1300619E+04  0.7818609E-02  0.9029075E-01
        1   -1    0    0  501    0  0.00000000000E+00  0.00000000000E+00  0.10972603664E+04  0.10972603664E+04  0.50400001928E-02 0.  1.
       -1   -1    0    0    0  501  0.00000000000E+00  0.00000000000E+00 -0.38541638347E+03  0.38541638350E+03  0.50400001928E-02 0. -1.
    10030    2    1    2    0    0  0.00000000000E+00  0.00000000000E+00  0.71184398294E+03  0.14826767499E+04  0.13006185024E+04 0.  0.
        1    1    3    3  502    0 -0.51548663296E+03 -0.19515903102E+03 -0.37475562490E+02  0.55246532377E+03  0.50400001928E-02 0. -1.
       -1    1    3    3    0  502  0.51548663296E+03  0.19515903102E+03  0.74931954543E+03  0.93021142615E+03  0.50400001928E-02 0.  1.
</event>
<event>
 5   0  0.6742824E-05  0.1299422E+04  0.7818609E-02  0.9030024E-01
       -2   -1    0    0    0  501  0.00000000000E+00  0.00000000000E+00  0.46136999288E+03  0.46136999288E+03  0.25500000920E-02 0.  1.
        2   -1    0    0  501    0  0.00000000000E+00  0.00000000000E+00 -0.91493682500E+03  0.91493682501E+03  0.25500000920E-02 0. -1.
    10030    2    1    2    0    0  0.00000000000E+00  0.00000000000E+00 -0.45356683212E+03  0.13763068179E+04  0.12994220199E+04 0.  0.
        4    1    3    3  502    0  0.36809113963E+03  0.34321876138E+02  0.33910770731E+03  0.50166196618E+03  0.12699999809E+01 0.  1.
       -4    1    3    3    0  502 -0.36809113963E+03 -0.34321876138E+02 -0.79267453944E+03  0.87464485171E+03  0.12699999809E+01 0. -1.
</event>
<event>
 5   0  0.3551277E-05  0.1299564E+04  0.7818609E-02  0.9029911E-01
       -1   -1    0    0    0  501  0.00000000000E+00  0.00000000000E+00  0.46525792249E+03  0.46525792252E+03  0.50400001928E-02 0. -1.
        1   -1    0    0  501    0  0.00000000000E+00  0.00000000000E+00 -0.90748907473E+03  0.90748907475E+03  0.50400001928E-02 0.  1.
    10030    2    1    2    0    0  0.00000000000E+00  0.00000000000E+00 -0.44223115224E+03  0.13727469973E+04  0.12995637447E+04 0.  0.
        4    1    3    3  502    0 -0.57063536282E+03 -0.23104817984E+02 -0.54849839595E+03  0.79184004267E+03  0.12699999809E+01 0. -1.
       -4    1    3    3    0  502  0.57063536282E+03  0.23104817984E+02  0.10626724371E+03  0.58090695460E+03  0.12699999809E+01 0.  1.
</event>
<event>
 5   0  0.6671239E-05  0.1299571E+04  0.7818609E-02  0.9029906E-01
        2   -1    0    0  501    0  0.00000000000E+00  0.00000000000E+00  0.30135130840E+04  0.30135130840E+04  0.25500000920E-02 0. -1.
       -2   -1    0    0    0  501  0.00000000000E+00  0.00000000000E+00 -0.14010926436E+03  0.14010926438E+03  0.25500000920E-02 0.  1.
    10030    2    1    2    0    0  0.00000000000E+00  0.00000000000E+00  0.28734038196E+04  0.31536223484E+04  0.12995708543E+04 0.  0.
        1    1    3    3  502    0 -0.22654027113E+03 -0.47691522812E+03  0.51759984838E+03  0.73937692169E+03  0.50400001928E-02 0.  1.
       -1    1    3    3    0  502  0.22654027113E+03  0.47691522812E+03  0.23558039712E+04  0.24142454267E+04  0.50400001928E-02 0. -1.
</event>
<event>
 5   0  0.3631841E-05  0.1298848E+04  0.7818609E-02  0.9030479E-01
       -1   -1    0    0    0  501  0.00000000000E+00  0.00000000000E+00  0.20469754425E+03  0.20469754431E+03  0.50400001928E-02 0.  1.
        1   -1    0    0  501    0  0.00000000000E+00  0.00000000000E+00 -0.20603641579E+04  0.20603641579E+04  0.50400001928E-02 0. -1.
    10030    2    1    2    0    0  0.00000000000E+00  0.00000000000E+00 -0.18556666137E+04  0.22650617023E+04  0.12988479256E+04 0.  0.
        3    1    3    3  502    0  0.21765150174E+02 -0.43568594140E+03 -0.88845796271E+02  0.44518484589E+03  0.10100000352E+00 0. -1.
       -3    1    3    3    0  502 -0.21765150174E+02  0.43568594140E+03 -0.17668208174E+04  0.18198768564E+04  0.10100000352E+00 0.  1.
</event>
<event>
 5   0  0.6458698E-05  0.1299081E+04  0.7818609E-02  0.9030294E-01
       -2   -1    0    0    0  501  0.00000000000E+00  0.00000000000E+00  0.17034060906E+04  0.17034060906E+04  0.25500000920E-02 0. -1.
        2   -1    0    0  501    0  0.00000000000E+00  0.00000000000E+00 -0.24768205578E+03  0.24768205579E+03  0.25500000920E-02 0.  1.
    10030    2    1    2    0    0  0.00000000000E+00  0.00000000000E+00  0.14557240348E+04  0.19510881464E+04  0.12990814021E+04 0.  0.
        3    1    3    3  502    0 -0.34271659413E+03  0.50182192953E+03  0.10723936872E+04  0.12326021838E+04  0.10100000352E+00 0. -1.
       -3    1    3    3    0  502  0.34271659413E+03 -0.50182192953E+03  0.38333034756E+03  0.71848596257E+03  0.10100000352E+00 0.  1.
</event>
<event>
 5   0  0.3552698E-05  0.1299645E+04  0.7818609E-02  0.9029847E-01
       -1   -1    0    0    0  501  0.00000000000E+00  0.00000000000E+00  0.27074713360E+03  0.27074713365E+03  0.50400001928E-02 0. -1.
        1   -1    0    0  501    0  0.00000000000E+00  0.00000000000E+00 -0.15596437047E+04  0.15596437047E+04  0.50400001928E-02 0.  1.
    10030    2    1    2    0    0  0.00000000000E+00  0.00000000000E+00 -0.12888965711E+04  0.18303908383E+04  0.12996446630E+04 0.  0.
        5    1    3    3  502    0 -0.18832614181E+03 -0.24684213782E+03 -0.14483954956E+04  0.14813066456E+04  0.46999998093E+01 0.  1.
       -5    1    3    3    0  502  0.18832614181E+03  0.24684213782E+03  0.15949892452E+03  0.34908419272E+03  0.46999998093E+01 0. -1.
</event>
<event>
 5   0  0.6671239E-05  0.1300381E+04  0.7818609E-02  0.9029263E-01
       -2   -1    0    0    0  501  0.00000000000E+00  0.00000000000E+00  0.26076744503E+03  0.26076744504E+03  0.25500000920E-02 0. -1.
        2   -1    0    0  501    0  0.00000000000E+00  0.00000000000E+00 -0.16211675689E+04  0.16211675689E+04  0.25500000920E-02 0.  1.
    10030    2    1    2    0    0  0.00000000000E+00  0.00000000000E+00 -0.13604001238E+04  0.18819350139E+04  0.13003810594E+04 0.  0.
        1    1    3    3  502    0  0.56426464726E+03  0.23245225860E+02 -0.11464936284E+04  0.12780385646E+04  0.50400001928E-02 0.  1.
       -1    1    3    3    0  502 -0.56426464726E+03 -0.23245225860E+02 -0.21390649547E+03  0.60389644932E+03  0.50400001928E-02 0. -1.
</event>
<event>
 5   0  0.6458698E-05  0.1299914E+04  0.7818609E-02  0.9029633E-01
        2   -1    0    0  501    0  0.00000000000E+00  0.00000000000E+00  0.91417499208E+03  0.91417499208E+03  0.25500000920E-02 0. -1.
       -2   -1    0    0    0  501  0.00000000000E+00  0.00000000000E+00 -0.46210452527E+03  0.46210452528E+03  0.25500000920E-02 0.  1.
    10030    2    1    2    0    0  0.00000000000E+00  0.00000000000E+00  0.45207046681E+03  0.13762795174E+04  0.12999144599E+04 0.  0.
        3    1    3    3  502    0 -0.39414340749E+03  0.51215688535E+03  0.15275431717E+03  0.66406896667E+03  0.10100000352E+00 0.  1.
       -3    1    3    3    0  502  0.39414340749E+03 -0.51215688535E+03  0.29931614963E+03  0.71221055069E+03  0.10100000352E+00 0. -1.
</event>
<event>
 5   0  0.3552698E-05  0.1299837E+04  0.7818609E-02  0.9029694E-01
       -1   -1    0    0    0  501  0.00000000000E+00  0.00000000000E+00  0.11579836732E+04  0.11579836733E+04  0.50400001928E-02 0. -1.
        1   -1    0    0  501    0  0.00000000000E+00  0.00000000000E+00 -0.36476693900E+03  0.36476693904E+03  0.50400001928E-02 0.  1.
    10030    2    1    2    0    0  0.00000000000E+00  0.00000000000E+00  0.79321673424E+03  0.15227506123E+04  0.12998371589E+04 0.  0.
        5    1    3    3  502    0  0.15145281810E+02  0.52852333874E+03 -0.46094886166E+02  0.53076654725E+03  0.46999998093E+01 0.  1.
       -5    1    3    3    0  502 -0.15145281810E+02 -0.52852333874E+03  0.83931162041E+03  0.99198406504E+03  0.46999998093E+01 0. -1.
</event>
<event>
 5   0  0.3551277E-05  0.1299650E+04  0.7818609E-02  0.9029843E-01
        1   -1    0    0  501    0  0.00000000000E+00  0.00000000000E+00  0.85183565439E+03  0.85183565440E+03  0.50400001928E-02 0.  1.
       -1   -1    0    0    0  501  0.00000000000E+00  0.00000000000E+00 -0.49572041267E+03  0.49572041269E+03  0.50400001928E-02 0. -1.
    10030    2    1    2    0    0  0.00000000000E+00  0.00000000000E+00  0.35611524172E+03  0.13475560671E+04  0.12996496792E+04 0.  0.
        4    1    3    3  502    0  0.45980312980E+03  0.11908757083E+03 -0.28176415474E+03  0.55226209312E+03  0.12699999809E+01 0. -1.
       -4    1    3    3    0  502 -0.45980312980E+03 -0.11908757083E+03  0.63787939646E+03  0.79529397397E+03  0.12699999809E+01 0.  1.
</event>
<event>
 5   0  0.3718559E-05  0.1299385E+04  0.7818609E-02  0.9030053E-01
        1   -1    0    0  501    0  0.00000000000E+00  0.00000000000E+00  0.70298913690E+03  0.70298913692E+03  0.50400001928E-02 0. -1.
       -1   -1    0    0    0  501  0.00000000000E+00  0.00000000000E+00 -0.60043683265E+03  0.60043683268E+03  0.50400001928E-02 0.  1.
    10030    2    1    2    0    0  0.00000000000E+00  0.00000000000E+00  0.10255230425E+03  0.13034259696E+04  0.12993853482E+04 0.  0.
        2    1    3    3  502    0  0.40979101425E+03 -0.13929703483E+03 -0.43475943434E+03  0.61347217136E+03  0.25500000920E-02 0.  1.
       -2    1    3    3    0  502 -0.40979101425E+03  0.13929703483E+03  0.53731173859E+03  0.68995379824E+03  0.25500000920E-02 0. -1.
</event>
<event>
 5   0  0.6742824E-05  0.1300015E+04  0.7818609E-02  0.9029553E-01
       -2   -1    0    0    0  501  0.00000000000E+00  0.00000000000E+00  0.75729099391E+03  0.75729099392E+03  0.25500000920E-02 0.  1.
        2   -1    0    0  501    0  0.00000000000E+00  0.00000000000E+00 -0.55792271804E+03  0.55792271805E+03  0.25500000920E-02 0. -1.
    10030    2    1    2    0    0  0.00000000000E+00  0.00000000000E+00  0.19936827587E+03  0.13152137120E+04  0.13000151533E+04 0.  0.
        4    1    3    3  502    0  0.22231431320E+03  0.51042323322E+03  0.43909511480E+03  0.70905688319E+03  0.12699999809E+01 0.  1.
       -4    1    3    3    0  502 -0.22231431320E+03 -0.51042323322E+03 -0.23972683893E+03  0.60615682877E+03  0.12699999809E+01 0. -1.
</event>
<event>
 5   0  0.6671239E-05  0.1299888E+04  0.7818609E-02  0.9029654E-01
        2   -1    0    0  501    0  0.00000000000E+00  0.00000000000E+00  0.25560880535E+04  0.25560880535E+04  0.25500000920E-02 0. -1.
       -2   -1    0    0    0  501  0.00000000000E+00  0.00000000000E+00 -0.16526315164E+03  0.16526315166E+03  0.25500000920E-02 0.  1.
    10030    2    1    2    0    0  0.00000000000E+00  0.00000000000E+00  0.23908249018E+04  0.27213512051E+04  0.12998879454E+04 0.  0.
        1    1    3    3  502    0 -0.59272224872E+03  0.10517052911E+03  0.17084192449E+04  0.18113742907E+04  0.50400001928E-02 0.  1.
       -1    1    3    3    0  502  0.59272224872E+03 -0.10517052911E+03  0.68240565689E+03  0.90997691449E+03  0.50400001928E-02 0. -1.
</event>
<event>
 5   0  0.3689707E-05  0.1299983E+04  0.7818609E-02  0.9029579E-01
        1   -1    0    0  501    0  0.00000000000E+00  0.00000000000E+00  0.55906540680E+03  0.55906540682E+03  0.50400001928E-02 0.  1.
       -1   -1    0    0    0  501  0.00000000000E+00  0.00000000000E+00 -0.75570533451E+03  0.75570533452E+03  0.50400001928E-02 0. -1.
    10030    2    1    2    0    0  0.00000000000E+00  0.00000000000E+00 -0.19663992771E+03  0.13147707413E+04  0.12999826311E+04 0.  0.
        1    1    3    3  502    0 -0.23538241289E+03 -0.20161805681E+03  0.47952344936E+03  0.57096187232E+03  0.50400001928E-02 0.  1.
       -1    1    3    3    0  502  0.23538241289E+03  0.20161805681E+03 -0.67616337707E+03  0.74380886903E+03  0.50400001928E-02 0. -1.
</event>
<event>
 5   0  0.6688086E-05  0.1300672E+04  0.7818609E-02  0.9029033E-01
       -2   -1    0    0    0  501  0.00000000000E+00  0.00000000000E+00  0.45506869942E+03  0.45506869943E+03  0.25500000920E-02 0.  1.
        2   -1    0    0  501    0  0.00000000000E+00  0.00000000000E+00 -0.92939109344E+03  0.92939109344E+03  0.25500000920E-02 0. -1.
    10030    2    1    2    0    0  0.00000000000E+00  0.00000000000E+00 -0.47432239402E+03  0.13844597929E+04  0.13006718205E+04 0.  0.
        5    1    3    3  502    0  0.47405160855E+03  0.31429716826E+03  0.98438260381E+02  0.57725195422E+03  0.46999998093E+01 0.  1.
       -5    1    3    3    0  502 -0.47405160855E+03 -0.31429716826E+03 -0.57276065440E+03  0.80720783865E+03  0.46999998093E+01 0. -1.
</event>
<event>
 5   0  0.3551277E-05  0.1300195E+04  0.7818609E-02  0.9029411E-01
       -1   -1    0    0    0  501  0.00000000000E+00  0.00000000000E+00  0.17089311366E+04  0.17089311366E+04  0.50400001928E-02 0. -1.
        1   -1    0    0  501    0  0.00000000000E+00  0.00000000000E+00 -0.24730458198E+03  0.24730458203E+03  0.50400001928E-02 0.  1.
    10030    2    1    2    0    0  0.00000000000E+00  0.00000000000E+00  0.14616265546E+04  0.19562357186E+04  0.13001946015E+04 0.  0.
        4    1    3    3  502    0 -0.37362211331E+01  0.86840994408E+02  0.17001468917E+04  0.17023678756E+04  0.12699999809E+01 0. -1.
       -4    1    3    3    0  502  0.37362211331E+01 -0.86840994408E+02 -0.23852033705E+03  0.25386784307E+03  0.12699999809E+01 0.  1.
</event>
<event>
 5   0  0.3631841E-05  0.1300260E+04  0.7818609E-02  0.9029359E-01
       -1   -1    0    0    0  501  0.00000000000E+00  0.00000000000E+00  0.58966550067E+03  0.58966550069E+03  0.50400001928E-02 0. -1.
        1   -1    0    0  501    0  0.00000000000E+00  0.00000000000E+00 -0.71679485815E+03  0.71679485817E+03  0.50400001928E-02 0.  1.
    10030    2    1    2    0    0  0.00000000000E+00  0.00000000000E+00 -0.12712935748E+03  0.13064603589E+04  0.13002602800E+04 0.  0.
        3    1    3    3  502    0  0.27594129032E+03 -0.75271974042E+02 -0.65018051638E+03  0.71031273384E+03  0.10100000352E+00 0.  1.
       -3    1    3    3    0  502 -0.27594129032E+03  0.75271974042E+02  0.52305115890E+03  0.59614762502E+03  0.10100000352E+00 0. -1.
</event>
<event>
 5   0  0.2512000E-05  0.1299870E+04  0.7818609E-02  0.9029669E-01
        3   -1    0    0  501    0  0.00000000000E+00  0.00000000000E+00  0.82755073949E+03  0.82755074566E+03  0.10100000352E+00 0.  1.
       -3   -1    0    0    0  501  0.00000000000E+00  0.00000000000E+00 -0.51044020571E+03  0.51044021571E+03  0.10100000352E+00 0. -1.
    10030    2    1    2    0    0  0.00000000000E+00  0.00000000000E+00  0.31711053378E+03  0.13379909614E+04  0.12998695019E+04 0.  0.
        1    1    3    3  502    0  0.56285916121E+02  0.39606216404E+03 -0.36869925204E+03  0.54403352895E+03  0.50400001928E-02 0. -1.
       -1    1    3    3    0  502 -0.56285916121E+02 -0.39606216404E+03  0.68580978582E+03  0.79395743241E+03  0.50400001928E-02 0.  1.
</event>
<event>
 5   0  0.3718559E-05  0.1301110E+04  0.7818609E-02  0.9028685E-01
       -1   -1    0    0    0  501  0.00000000000E+00  0.00000000000E+00  0.46752600907E+03  0.46752600910E+03  0.50400001928E-02 0. -1.
        1   -1    0    0  501    0  0.00000000000E+00  0.00000000000E+00 -0.90523711674E+03  0.90523711676E+03  0.50400001928E-02 0.  1.
    10030    2    1    2    0    0  0.00000000000E+00  0.00000000000E+00 -0.43771110768E+03  0.13727631259E+04  0.13011101360E+04 0.  0.
        2    1    3    3  502    0  0.64399539013E+02  0.53378841353E+03  0.16757194281E+03  0.56316758347E+03  0.25500000920E-02 0. -1.
       -2    1    3    3    0  502 -0.64399539013E+02 -0.53378841353E+03 -0.60528305048E+03  0.80959554239E+03  0.25500000920E-02 0.  1.
</event>
<event>
 5   0  0.2512000E-05  0.1300116E+04  0.7818609E-02  0.9029473E-01
        3   -1    0    0  501    0  0.00000000000E+00  0.00000000000E+00  0.60596615541E+03  0.60596616383E+03  0.10100000352E+00 0. -1.
       -3   -1    0    0    0  501  0.00000000000E+00  0.00000000000E+00 -0.69735764954E+03  0.69735765685E+03  0.10100000352E+00 0.  1.
    10030    2    1    2    0    0  0.00000000000E+00  0.00000000000E+00 -0.91391494126E+02  0.13033238207E+04  0.13001156012E+04 0.  0.
        5    1    3    3  502    0 -0.26896028313E+02 -0.56198749079E+03  0.28068363657E+03  0.62877557998E+03  0.46999998093E+01 0. -1.
       -5    1    3    3    0  502  0.26896028313E+02  0.56198749079E+03 -0.37207513070E+03  0.67454824070E+03  0.46999998093E+01 0.  1.
</event>
<event>
 5   0  0.6742824E-05  0.1301064E+04  0.7818609E-02  0.9028722E-01
       -2   -1    0    0    0  501  0.00000000000E+00  0.00000000000E+00  0.33181842281E+03  0.33181842282E+03  0.25500000920E-02 0.  1.
        2   -1    0    0  501    0  0.00000000000E+00  0.00000000000E+00 -0.12753723037E+04  0.12753723037E+04  0.25500000920E-02 0. -1.
    10030    2    1    2    0    0  0.00000000000E+00  0.00000000000E+00 -0.94355388086E+03  0.16071907265E+04  0.13010642203E+04 0.  0.
        4    1    3    3  502    0  0.26719652304E+03  0.13243210060E+03 -0.11859602554E+04  0.12228800364E+04  0.12699999809E+01 0. -1.
       -4    1    3    3    0  502 -0.26719652304E+03 -0.13243210060E+03  0.24240637453E+03  0.38431069008E+03  0.12699999809E+01 0.  1.
</event>
<event>
 5   0  0.3689707E-05  0.1300070E+04  0.7818609E-02  0.9029510E-01
        1   -1    0    0  501    0  0.00000000000E+00  0.00000000000E+00  0.15837334774E+04  0.15837334774E+04  0.50400001928E-02 0. -1.
       -1   -1    0    0    0  501  0.00000000000E+00  0.00000000000E+00 -0.26680326913E+03  0.26680326918E+03  0.50400001928E-02 0.  1.
    10030    2    1    2    0    0  0.00000000000E+00  0.00000000000E+00  0.13169302083E+04  0.18505367466E+04  0.13000696432E+04 0.  0.
        1    1    3    3  502    0  0.25631705164E+03  0.11923189723E+02  0.15085954073E+04  0.15302616431E+04  0.50400001928E-02 0. -1.
       -1    1    3    3    0  502 -0.25631705164E+03 -0.11923189723E+02 -0.19166519898E+03  0.32027510353E+03  0.50400001928E-02 0.  1.
</event>
<event>
 5   0  0.3631841E-05  0.1297976E+04  0.7818609E-02  0.9031171E-01
       -1   -1    0    0    0  501  0.00000000000E+00  0.00000000000E+00  0.55365234060E+03  0.55365234063E+03  0.50400001928E-02 0.  1.
        1   -1    0    0  501    0  0.00000000000E+00  0.00000000000E+00 -0.76074027331E+03  0.76074027333E+03  0.50400001928E-02 0. -1.
    10030    2    1    2    0    0  0.00000000000E+00  0.00000000000E+00 -0.20708793271E+03  0.13143926140E+04  0.12979763217E+04 0.  0.
        3    1    3    3  502    0 -0.31453775249E+03 -0.11337648113E+03 -0.66681402830E+03  0.74594180923E+03  0.10100000352E+00 0. -1.
       -3    1    3    3    0  502  0.31453775249E+03  0.11337648113E+03  0.45972609560E+03  0.56845080472E+03  0.10100000352E+00 0.  1.
</event>
<event>
 5   0  0.6618060E-05  0.1300005E+04  0.7818609E-02  0.9029561E-01
        2   -1    0    0  501    0  0.00000000000E+00  0.00000000000E+00  0.14268022378E+04  0.14268022378E+04  0.25500000920E-02 0. -1.
       -2   -1    0    0    0  501  0.00000000000E+00  0.00000000000E+00 -0.29611909572E+03  0.29611909573E+03  0.25500000920E-02 0.  1.
    10030    2    1    2    0    0  0.00000000000E+00  0.00000000000E+00  0.11306831420E+04  0.17229213335E+04  0.13000052129E+04 0.  0.
        2    1    3    3  502    0  0.86031636619E+02 -0.49491532394E+03  0.11120428291E+04  0.12202384497E+04  0.25500000920E-02 0. -1.
       -2    1    3    3    0  502 -0.86031636619E+02  0.49491532394E+03  0.18640312927E+02  0.50268288377E+03  0.25500000920E-02 0.  1.
</event>
<event>
 5   0  0.6742824E-05  0.1300221E+04  0.7818609E-02  0.9029390E-01
       -2   -1    0    0    0  501  0.00000000000E+00  0.00000000000E+00  0.37028962160E+03  0.37028962161E+03  0.25500000920E-02 0.  1.
        2   -1    0    0  501    0  0.00000000000E+00  0.00000000000E+00 -0.11413865053E+04  0.11413865053E+04  0.25500000920E-02 0. -1.
    10030    2    1    2    0    0  0.00000000000E+00  0.00000000000E+00 -0.77109688369E+03  0.15116761269E+04  0.13002208692E+04 0.  0.
        4    1    3    3  502    0 -0.31730372882E+03 -0.30723569500E+03 -0.94016881820E+03  0.10387465755E+04  0.12699999809E+01 0. -1.
       -4    1    3    3    0  502  0.31730372882E+03  0.30723569500E+03  0.16907193451E+03  0.47292955135E+03  0.12699999809E+01 0.  1.
</event>
<event>
 5   0  0.3552698E-05  0.1299984E+04  0.7818609E-02  0.9029578E-01
       -1   -1    0    0    0  501  0.00000000000E+00  0.00000000000E+00  0.18289368500E+03  0.18289368507E+03  0.50400001928E-02 0.  1.
        1   -1    0    0  501    0  0.00000000000E+00  0.00000000000E+00 -0.23100281825E+04  0.23100281825E+04  0.50400001928E-02 0. -1.
    10030    2    1    2    0    0  0.00000000000E+00  0.00000000000E+00 -0.21271344975E+04  0.24929218675E+04  0.12999839489E+04 0.  0.
        5    1    3    3  502    0  0.63850703728E+02  0.64533747076E+03 -0.97931876747E+03  0.11745742641E+04  0.46999998093E+01 0. -1.
       -5    1    3    3    0  502 -0.63850703728E+02 -0.64533747076E+03 -0.11478157300E+04  0.13183476035E+04  0.46999998093E+01 0.  1.
</event>
<event>
 5   0  0.6742824E-05  0.1299703E+04  0.7818609E-02  0.9029801E-01
       -2   -1    0    0    0  501  0.00000000000E+00  0.00000000000E+00  0.23109371336E+03  0.23109371338E+03  0.25500000920E-02 0. -1.
        2   -1    0    0  501    0  0.00000000000E+00  0.00000000000E+00 -0.18274269789E+04  0.18274269789E+04  0.25500000920E-02 0.  1.
    10030    2    1    2    0    0  0.00000000000E+00  0.00000000000E+00 -0.15963332655E+04  0.20585206923E+04  0.12997028683E+04 0.  0.
        4    1    3    3  502    0  0.12307500948E+03 -0.63745718343E+03 -0.75319688927E+03  0.99438739211E+03  0.12699999809E+01 0. -1.
       -4    1    3    3    0  502 -0.12307500948E+03  0.63745718343E+03 -0.84313637626E+03  0.10641333002E+04  0.12699999809E+01 0.  1.
</event>
<event>
 5   0  0.3718559E-05  0.1299653E+04  0.7818609E-02  0.9029840E-01
       -1   -1    0    0    0  501  0.00000000000E+00  0.00000000000E+00  0.43466230563E+03  0.43466230566E+03  0.50400001928E-02 0.  1.
        1   -1    0    0  501    0  0.00000000000E+00  0.00000000000E+00 -0.97150084736E+03  0.97150084737E+03  0.50400001928E-02 0. -1.
    10030    2    1    2    0    0  0.00000000000E+00  0.00000000000E+00 -0.53683854173E+03  0.14061631530E+04  0.12996534896E+04 0.  0.
        2    1    3    3  502    0  0.16656092981E+03  0.19792720669E+03 -0.91339091279E+03  0.94931590214E+03  0.25500000920E-02 0. -1.
       -2    1    3    3    0  502 -0.16656092981E+03 -0.19792720669E+03  0.37655237107E+03  0.45684725089E+03  0.25500000920E-02 0.  1.
</event>
<event>
 5   0  0.6688086E-05  0.1300159E+04  0.7818609E-02  0.9029439E-01
       -2   -1    0    0    0  501  0.00000000000E+00  0.00000000000E+00  0.49177018581E+03  0.49177018582E+03  0.25500000920E-02 0.  1.
        2   -1    0    0  501    0  0.00000000000E+00  0.00000000000E+00 -0.85935089887E+03  0.85935089888E+03  0.25500000920E-02 0. -1.
    10030    2    1    2    0    0  0.00000000000E+00  0.00000000000E+00 -0.36758071306E+03  0.13511210847E+04  0.13001586845E+04 0.  0.
        5    1    3    3  502    0 -0.74819745298E+01 -0.64335488947E+03 -0.28027110124E+03  0.70180871606E+03  0.46999998093E+01 0. -1.
       -5    1    3    3    0  502  0.74819745298E+01  0.64335488947E+03 -0.87309611824E+02  0.64931236864E+03  0.46999998093E+01 0.  1.
</event>
<event>
 5   0  0.3551277E-05  0.1300427E+04  0.7818609E-02  0.9029227E-01
        1   -1    0    0  501    0  0.00000000000E+00  0.00000000000E+00  0.40096821017E+03  0.40096821020E+03  0.50400001928E-02 0. -1.
       -1   -1    0    0    0  501  0.00000000000E+00  0.00000000000E+00 -0.10543915241E+04  0.10543915241E+04  0.50400001928E-02 0.  1.
    10030    2    1    2    0    0  0.00000000000E+00  0.00000000000E+00 -0.65342331389E+03  0.14553597343E+04  0.13004268257E+04 0.  0.
        4    1    3    3  502    0  0.18173559225E+03 -0.25320933757E+03 -0.96534073751E+03  0.10144097528E+04  0.12699999809E+01 0.  1.
       -4    1    3    3    0  502 -0.18173559225E+03  0.25320933757E+03  0.31191742362E+03  0.44094998149E+03  0.12699999809E+01 0. -1.
</event>
<event>
 5   0  0.6458698E-05  0.1300107E+04  0.7818609E-02  0.9029480E-01
        2   -1    0    0  501    0  0.00000000000E+00  0.00000000000E+00  0.11264047012E+04  0.11264047012E+04  0.25500000920E-02 0.  1.
       -2   -1    0    0    0  501  0.00000000000E+00  0.00000000000E+00 -0.37514902728E+03  0.37514902729E+03  0.25500000920E-02 0. -1.
    10030    2    1    2    0    0  0.00000000000E+00  0.00000000000E+00  0.75125567389E+03  0.15015537285E+04  0.13001071156E+04 0.  0.
        3    1    3    3  502    0 -0.37354140008E+03 -0.15103727171E+03  0.96479097697E+03  0.10455463043E+04  0.10100000352E+00 0.  1.
       -3    1    3    3    0  502  0.37354140008E+03  0.15103727171E+03 -0.21353530308E+03  0.45600742415E+03  0.10100000352E+00 0. -1.
</event>
<event>
 5   0  0.2512000E-05  0.1299767E+04  0.7818609E-02  0.9029750E-01
       -4   -1    0    0    0  501  0.00000000000E+00  0.00000000000E+00  0.63517668935E+03  0.63517795900E+03  0.12699999809E+01 0.  1.
        4   -1    0    0  501    0  0.00000000000E+00  0.00000000000E+00 -0.66492855573E+03  0.66492976856E+03  0.12699999809E+01 0. -1.
    10030    2    1    2    0    0  0.00000000000E+00  0.00000000000E+00 -0.29751866373E+02  0.13001077276E+04  0.12997672598E+04 0.  0.
        1    1    3    3  502    0  0.30313594836E+03  0.18051080181E+03 -0.56079648873E+03  0.66254679423E+03  0.50400001928E-02 0. -1.
       -1    1    3    3    0  502 -0.30313594836E+03 -0.18051080181E+03  0.53104462235E+03  0.63756093333E+03  0.50400001928E-02 0.  1.
</event>
<event>
 5   0  0.6618060E-05  0.1299800E+04  0.7818609E-02  0.9029724E-01
        2   -1    0    0  501    0  0.00000000000E+00  0.00000000000E+00  0.15228420588E+04  0.15228420588E+04  0.25500000920E-02 0. -1.
       -2   -1    0    0    0  501  0.00000000000E+00  0.00000000000E+00 -0.27735630792E+03  0.27735630793E+03  0.25500000920E-02 0.  1.
    10030    2    1    2    0    0  0.00000000000E+00  0.00000000000E+00  0.12454857509E+04  0.18001983667E+04  0.12997997553E+04 0.  0.
        2    1    3    3  502    0  0.27257335813E+03 -0.62643226195E+02 -0.18974604442E+03  0.33797036960E+03  0.25500000920E-02 0.  1.
       -2    1    3    3    0  502 -0.27257335813E+03  0.62643226195E+02  0.14352317953E+04  0.14622279971E+04  0.25500000920E-02 0. -1.
</event>
<event>
 5   0  0.3552698E-05  0.1300060E+04  0.7818609E-02  0.9029518E-01
       -1   -1    0    0    0  501  0.00000000000E+00  0.00000000000E+00  0.69696029486E+03  0.69696029488E+03  0.50400001928E-02 0. -1.
        1   -1    0    0  501    0  0.00000000000E+00  0.00000000000E+00 -0.60625950234E+03  0.60625950236E+03  0.50400001928E-02 0.  1.
    10030    2    1    2    0    0  0.00000000000E+00  0.00000000000E+00  0.90700792514E+02  0.13032197972E+04  0.13000596933E+04 0.  0.
        5    1    3    3  502    0 -0.64208799297E+03 -0.89567319161E+02 -0.18535144003E+01  0.64832462616E+03  0.46999998093E+01 0. -1.
       -5    1    3    3    0  502  0.64208799297E+03  0.89567319161E+02  0.92554306914E+02  0.65489517108E+03  0.46999998093E+01 0.  1.
</event>
<event>
 5   0  0.6742824E-05  0.1300117E+04  0.7818609E-02  0.9029473E-01
        2   -1    0    0  501    0  0.00000000000E+00  0.00000000000E+00  0.58488318321E+03  0.58488318322E+03  0.25500000920E-02 0. -1.
       -2   -1    0    0    0  501  0.00000000000E+00  0.00000000000E+00 -0.72249615696E+03  0.72249615697E+03  0.25500000920E-02 0.  1.
    10030    2    1    2    0    0  0.00000000000E+00  0.00000000000E+00 -0.13761297375E+03  0.13073793402E+04  0.13001166904E+04 0.  0.
        4    1    3    3  502    0  0.13466254872E+03  0.47511887923E+03 -0.49389986559E+03  0.69843442180E+03  0.12699999809E+01 0. -1.
       -4    1    3    3    0  502 -0.13466254872E+03 -0.47511887923E+03  0.35628689184E+03  0.60894491838E+03  0.12699999809E+01 0.  1.
</event>
<event>
 5   0  0.6688086E-05  0.1301862E+04  0.7818609E-02  0.9028090E-01
       -2   -1    0    0    0  501  0.00000000000E+00  0.00000000000E+00  0.29260776923E+03  0.29260776925E+03  0.25500000920E-02 0.  1.
        2   -1    0    0  501    0  0.00000000000E+00  0.00000000000E+00 -0.14480508152E+04  0.14480508152E+04  0.25500000920E-02 0. -1.
    10030    2    1    2    0    0  0.00000000000E+00  0.00000000000E+00 -0.11554430460E+04  0.17406585845E+04  0.13018616191E+04 0.  0.
        5    1    3    3  502    0 -0.10300135159E+02 -0.31444595159E+03 -0.13396149911E+04  0.13760714966E+04  0.46999998093E+01 0. -1.
       -5    1    3    3    0  502  0.10300135159E+02  0.31444595159E+03  0.18417194516E+03  0.36458708787E+03  0.46999998093E+01 0.  1.
</event>
<event>
 5   0  0.3551277E-05  0.1297405E+04  0.7818609E-02  0.9031626E-01
       -1   -1    0    0    0  501  0.00000000000E+00  0.00000000000E+00  0.47381551674E+03  0.47381551677E+03  0.50400001928E-02 0.  1.
        1   -1    0    0  501    0  0.00000000000E+00  0.00000000000E+00 -0.88814058219E+03  0.88814058221E+03  0.50400001928E-02 0. -1.
    10030    2    1    2    0    0  0.00000000000E+00  0.00000000000E+00 -0.41432506545E+03  0.13619560990E+04  0.12974047771E+04 0.  0.
        4    1    3    3  502    0  0.45121991353E+03  0.24295230517E+03 -0.62467966952E+03  0.80799228670E+03  0.12699999809E+01 0. -1.
       -4    1    3    3    0  502 -0.45121991353E+03 -0.24295230517E+03  0.21035460407E+03  0.55396381227E+03  0.12699999809E+01 0.  1.
</event>
<event>
 5   0  0.2512000E-05  0.1299553E+04  0.7818609E-02  0.9029920E-01
       -4   -1    0    0    0  501  0.00000000000E+00  0.00000000000E+00  0.44175039513E+03  0.44175222070E+03  0.12699999809E+01 0. -1.
        4   -1    0    0  501    0  0.00000000000E+00  0.00000000000E+00 -0.95576079455E+03  0.95576163833E+03  0.12699999809E+01 0.  1.
    10030    2    1    2    0    0  0.00000000000E+00  0.00000000000E+00 -0.51401039942E+03  0.13975138590E+04  0.12995531138E+04 0.  0.
        5    1    3    3  502    0 -0.28140039020E+03  0.58559188979E+03 -0.24718191509E+03  0.69514389168E+03  0.46999998093E+01 0.  1.
       -5    1    3    3    0  502  0.28140039020E+03 -0.58559188979E+03 -0.26682848434E+03  0.70236996736E+03  0.46999998093E+01 0. -1.
</event>
<event>
 5   0  0.6688086E-05  0.1300011E+04  0.7818609E-02  0.9029556E-01
       -2   -1    0    0    0  501  0.00000000000E+00  0.00000000000E+00  0.60502263136E+03  0.60502263137E+03  0.25500000920E-02 0.  1.
        2   -1    0    0  501    0  0.00000000000E+00  0.00000000000E+00 -0.69833290294E+03  0.69833290294E+03  0.25500000920E-02 0. -1.
    10030    2    1    2    0    0  0.00000000000E+00  0.00000000000E+00 -0.93310271574E+02  0.13033555343E+04  0.13000110930E+04 0.  0.
        5    1    3    3  502    0  0.41723235368E+03  0.35276355188E+03  0.30633039719E+03  0.62640670713E+03  0.46999998093E+01 0. -1.
       -5    1    3    3    0  502 -0.41723235368E+03 -0.35276355188E+03 -0.39964066876E+03  0.67694882718E+03  0.46999998093E+01 0.  1.
</event>
<event>
 5   0  0.3631841E-05  0.1300449E+04  0.7818609E-02  0.9029209E-01
       -1   -1    0    0    0  501  0.00000000000E+00  0.00000000000E+00  0.10398439655E+04  0.10398439656E+04  0.50400001928E-02 0. -1.
        1   -1    0    0  501    0  0.00000000000E+00  0.00000000000E+00 -0.40659181848E+03  0.40659181851E+03  0.50400001928E-02 0.  1.
    10030    2    1    2    0    0  0.00000000000E+00  0.00000000000E+00  0.63325214707E+03  0.14464357841E+04  0.13004492284E+04 0.  0.
        3    1    3    3  502    0  0.12389451906E+03 -0.60081182517E+03  0.55638768620E+03  0.82818595054E+03  0.10100000352E+00 0.  1.
       -3    1    3    3    0  502 -0.12389451906E+03  0.60081182517E+03  0.76864460867E+02  0.61824983353E+03  0.10100000352E+00 0. -1.
</event>
<event>
 5   0  0.6671239E-05  0.1298864E+04  0.7818609E-02  0.9030466E-01
       -2   -1    0    0    0  501  0.00000000000E+00  0.00000000000E+00  0.48850767036E+03  0.48850767037E+03  0.25500000920E-02 0.  1.
        2   -1    0    0  501    0  0.00000000000E+00  0.00000000000E+00 -0.86336841302E+03  0.86336841303E+03  0.25500000920E-02 0. -1.
    10030    2    1    2    0    0  0.00000000000E+00  0.00000000000E+00 -0.37486074267E+03  0.13518760834E+04  0.12988642610E+04 0.  0.
        1    1    3    3  502    0  0.23935991851E+03  0.55108173748E+03 -0.44402392937E+03  0.74708868406E+03  0.50400001928E-02 0. -1.
       -1    1    3    3    0  502 -0.23935991851E+03 -0.55108173748E+03  0.69163186703E+02  0.60478739933E+03  0.50400001928E-02 0.  1.
</event>
<event>
 5   0  0.3689707E-05  0.1299626E+04  0.7818609E-02  0.9029862E-01
       -1   -1    0    0    0  501  0.00000000000E+00  0.00000000000E+00  0.25434088614E+03  0.25434088619E+03  0.50400001928E-02 0. -1.
        1   -1    0    0  501    0  0.00000000000E+00  0.00000000000E+00 -0.16602004168E+04  0.16602004168E+04  0.50400001928E-02 0.  1.
    10030    2    1    2    0    0  0.00000000000E+00  0.00000000000E+00 -0.14058595307E+04  0.19145413030E+04  0.12996258619E+04 0.  0.
        1    1    3    3  502    0  0.53353396251E+03 -0.12184932003E+03 -0.12190597497E+04  0.13362680941E+04  0.50400001928E-02 0.  1.
       -1    1    3    3    0  502 -0.53353396251E+03  0.12184932003E+03 -0.18679978095E+03  0.57827320890E+03  0.50400001928E-02 0. -1.
</event>
<event>
 5   0  0.6671239E-05  0.1300122E+04  0.7818609E-02  0.9029468E-01
        2   -1    0    0  501    0  0.00000000000E+00  0.00000000000E+00  0.66243339283E+03  0.66243339284E+03  0.25500000920E-02 0. -1.
       -2   -1    0    0    0  501  0.00000000000E+00  0.00000000000E+00 -0.63792015060E+03  0.63792015061E+03  0.25500000920E-02 0.  1.
    10030    2    1    2    0    0  0.00000000000E+00  0.00000000000E+00  0.24513242230E+02  0.13003535434E+04  0.13001224707E+04 0.  0.
        1    1    3    3  502    0  0.11226750816E+03  0.32785801613E+03 -0.53782725363E+03  0.63980702317E+03  0.50400001928E-02 0.  1.
       -1    1    3    3    0  502 -0.11226750816E+03 -0.32785801613E+03  0.56234049586E+03  0.66054652027E+03  0.50400001928E-02 0. -1.
</event>
<event>
 5   0  0.6671239E-05  0.1300070E+04  0.7818609E-02  0.9029510E-01
       -2   -1    0    0    0  501  0.00000000000E+00  0.00000000000E+00  0.11726817348E+04  0.11726817348E+04  0.25500000920E-02 0.  1.
        2   -1    0    0  501    0  0.00000000000E+00  0.00000000000E+00 -0.36032406972E+03  0.36032406972E+03  0.25500000920E-02 0. -1.
    10030    2    1    2    0    0  0.00000000000E+00  0.00000000000E+00  0.81235766506E+03  0.15330058045E+04  0.13000699291E+04 0.  0.
        1    1    3    3  502    0  0.30601374474E+03 -0.51235777233E+03  0.10234912189E+03  0.60549999307E+03  0.50400001928E-02 0. -1.
       -1    1    3    3    0  502 -0.30601374474E+03  0.51235777233E+03  0.71000854317E+03  0.92750581143E+03  0.50400001928E-02 0.  1.
</event>
<event>
 5   0  0.6688086E-05  0.1300480E+04  0.7818609E-02  0.9029185E-01
        2   -1    0    0  501    0  0.00000000000E+00  0.00000000000E+00  0.44264402411E+03  0.44264402412E+03  0.25500000920E-02 0.  1.
       -2   -1    0    0    0  501  0.00000000000E+00  0.00000000000E+00 -0.95519586215E+03  0.95519586216E+03  0.25500000920E-02 0. -1.
    10030    2    1    2    0    0  0.00000000000E+00  0.00000000000E+00 -0.51255183804E+03  0.13978398863E+04  0.13004795119E+04 0.  0.
        5    1    3    3  502    0  0.13784971944E+02 -0.55985592972E+03 -0.61140610812E+03  0.82913702519E+03  0.46999998093E+01 0. -1.
       -5    1    3    3    0  502 -0.13784971944E+02  0.55985592972E+03  0.98854270075E+02  0.56870286109E+03  0.46999998093E+01 0.  1.
</event>
<event>
 5   0  0.6458698E-05  0.1299960E+04  0.7818609E-02  0.9029597E-01
       -2   -1    0    0    0  501  0.00000000000E+00  0.00000000000E+00  0.77841350008E+03  0.77841350009E+03  0.25500000920E-02 0. -1.
        2   -1    0    0  501    0  0.00000000000E+00  0.00000000000E+00 -0.54273687302E+03  0.54273687303E+03  0.25500000920E-02 0.  1.
    10030    2    1    2    0    0  0.00000000000E+00  0.00000000000E+00  0.23567662706E+03  0.13211503731E+04  0.12999595516E+04 0.  0.
        3    1    3    3  502    0  0.55728693064E+03  0.96512327063E+01  0.45767189223E+03  0.72119722718E+03  0.10100000352E+00 0. -1.
       -3    1    3    3    0  502 -0.55728693064E+03 -0.96512327063E+01 -0.22199526517E+03  0.59995314593E+03  0.10100000352E+00 0.  1.
</event>
<event>
 5   0  0.3718559E-05  0.1299456E+04  0.7818609E-02  0.9029996E-01
       -1   -1    0    0    0  501  0.00000000000E+00  0.00000000000E+00  0.61516217073E+03  0.61516217075E+03  0.50400001928E-02 0.  1.
        1   -1    0    0  501    0  0.00000000000E+00  0.00000000000E+00 -0.68623649498E+03  0.68623649500E+03  0.50400001928E-02 0. -1.
    10030    2    1    2    0    0  0.00000000000E+00  0.00000000000E+00 -0.71074324254E+02  0.13013986658E+04  0.12994563970E+04 0.  0.
        2    1    3    3  502    0 -0.10009475071E+02 -0.19622681092E+03  0.58469584256E+03  0.61682605265E+03  0.25500000920E-02 0.  1.
       -2    1    3    3    0  502  0.10009475071E+02  0.19622681092E+03 -0.65577016681E+03  0.68457261310E+03  0.25500000920E-02 0. -1.
</event>
<event>
 5   0  0.3631841E-05  0.1300469E+04  0.7818609E-02  0.9029193E-01
        1   -1    0    0  501    0  0.00000000000E+00  0.00000000000E+00  0.95145838843E+03  0.95145838844E+03  0.50400001928E-02 0.  1.
       -1   -1    0    0    0  501  0.00000000000E+00  0.00000000000E+00 -0.44437575433E+03  0.44437575436E+03  0.50400001928E-02 0. -1.
    10030    2    1    2    0    0  0.00000000000E+00  0.00000000000E+00  0.50708263410E+03  0.13958341428E+04  0.13004692062E+04 0.  0.
        3    1    3    3  502    0  0.40238888014E+03  0.75940038498E+02 -0.28859328608E+03  0.50096885659E+03  0.10100000352E+00 0. -1.
       -3    1    3    3    0  502 -0.40238888014E+03 -0.75940038498E+02  0.79567592018E+03  0.89486528621E+03  0.10100000352E+00 0.  1.
</event>
<event>
 5   0  0.2512000E-05  0.1300151E+04  0.7818609E-02  0.9029446E-01
       -3   -1    0    0    0  501  0.00000000000E+00  0.00000000000E+00  0.55829891813E+03  0.55829892726E+03  0.10100000352E+00 0.  1.
        3   -1    0    0  501    0  0.00000000000E+00  0.00000000000E+00 -0.75693849983E+03  0.75693850657E+03  0.10100000352E+00 0. -1.
    10030    2    1    2    0    0  0.00000000000E+00  0.00000000000E+00 -0.19863958171E+03  0.13152374338E+04  0.13001506928E+04 0.  0.
        2    1    3    3  502    0 -0.31178376938E+03 -0.39280146460E+03 -0.51775690944E+03  0.72081504335E+03  0.25500000920E-02 0. -1.
       -2    1    3    3    0  502  0.31178376938E+03  0.39280146460E+03  0.31911732774E+03  0.59442239048E+03  0.25500000920E-02 0.  1.
</event>
<event>
 5   0  0.3718559E-05  0.1299034E+04  0.7818609E-02  0.9030332E-01
       -1   -1    0    0    0  501  0.00000000000E+00  0.00000000000E+00  0.40024137407E+03  0.40024137410E+03  0.50400001928E-02 0.  1.
        1   -1    0    0  501    0  0.00000000000E+00  0.00000000000E+00 -0.10540439960E+04  0.10540439961E+04  0.50400001928E-02 0. -1.
    10030    2    1    2    0    0  0.00000000000E+00  0.00000000000E+00 -0.65380262198E+03  0.14542853702E+04  0.12990335136E+04 0.  0.
        2    1    3    3  502    0 -0.18773167900E+03  0.34111892524E+03  0.25510213957E+03  0.46549157465E+03  0.25500000920E-02 0.  1.
       -2    1    3    3    0  502  0.18773167900E+03 -0.34111892524E+03 -0.90890476155E+03  0.98879379550E+03  0.25500000920E-02 0. -1.
</event>
<event>
 5   0  0.3689707E-05  0.1300361E+04  0.7818609E-02  0.9029279E-01
       -1   -1    0    0    0  501  0.00000000000E+00  0.00000000000E+00  0.35810535812E+03  0.35810535815E+03  0.50400001928E-02 0.  1.
        1   -1    0    0  501    0  0.00000000000E+00  0.00000000000E+00 -0.11804764329E+04  0.11804764329E+04  0.50400001928E-02 0. -1.
    10030    2    1    2    0    0  0.00000000000E+00  0.00000000000E+00 -0.82237107481E+03  0.15385817911E+04  0.13003613895E+04 0.  0.
        1    1    3    3  502    0 -0.33237396623E+03 -0.23709950950E+03 -0.10098945266E+04  0.10893005030E+04  0.50400001928E-02 0. -1.
       -1    1    3    3    0  502  0.33237396623E+03  0.23709950950E+03  0.18752345183E+03  0.44928128811E+03  0.50400001928E-02 0.  1.
</event>
<event>
 5   0  0.6671239E-05  0.1300798E+04  0.7818609E-02  0.9028933E-01
       -2   -1    0    0    0  501  0.00000000000E+00  0.00000000000E+00  0.22580926723E+03  0.22580926724E+03  0.25500000920E-02 0.  1.
        2   -1    0    0  501    0  0.00000000000E+00  0.00000000000E+00 -0.18733456495E+04  0.18733456495E+04  0.25500000920E-02 0. -1.
    10030    2    1    2    0    0  0.00000000000E+00  0.00000000000E+00 -0.16475363822E+04  0.20991549167E+04  0.13007979219E+04 0.  0.
        1    1    3    3  502    0  0.71185424367E+02 -0.45911186596E+03 -0.15582748179E+04  0.16260601091E+04  0.50400001928E-02 0. -1.
       -1    1    3    3    0  502 -0.71185424367E+02  0.45911186596E+03 -0.89261564299E+02  0.47309480762E+03  0.50400001928E-02 0.  1.
</event>
<event>
 5   0  0.3631841E-05  0.1299203E+04  0.7818609E-02  0.9030197E-01
       -1   -1    0    0    0  501  0.00000000000E+00  0.00000000000E+00  0.34987549838E+03  0.34987549842E+03  0.50400001928E-02 0. -1.
        1   -1    0    0  501    0  0.00000000000E+00  0.00000000000E+00 -0.12060927251E+04  0.12060927251E+04  0.50400001928E-02 0.  1.
    10030    2    1    2    0    0  0.00000000000E+00  0.00000000000E+00 -0.85621722670E+03  0.15559682235E+04  0.12992032840E+04 0.  0.
        3    1    3    3  502    0  0.36629903233E+02 -0.10246164148E+03  0.33888334958E+03  0.35592425122E+03  0.10100000352E+00 0. -1.
       -3    1    3    3    0  502 -0.36629903233E+02  0.10246164148E+03 -0.11951005763E+04  0.12000439723E+04  0.10100000352E+00 0.  1.
</event>
<event>
 5   0  0.6618060E-05  0.1300067E+04  0.7818609E-02  0.9029512E-01
       -2   -1    0    0    0  501  0.00000000000E+00  0.00000000000E+00  0.26679370218E+03  0.26679370220E+03  0.25500000920E-02 0.  1.
        2   -1    0    0  501    0  0.00000000000E+00  0.00000000000E+00 -0.15837826829E+04  0.15837826829E+04  0.25500000920E-02 0. -1.
    10030    2    1    2    0    0  0.00000000000E+00  0.00000000000E+00 -0.13169889807E+04  0.18505763851E+04  0.13000665297E+04 0.  0.
        2    1    3    3  502    0 -0.40622420389E+02  0.56584576011E+03 -0.11102269235E+04  0.12467699976E+04  0.25500000920E-02 0. -1.
       -2    1    3    3    0  502  0.40622420389E+02 -0.56584576011E+03 -0.20676205722E+03  0.60380638750E+03  0.25500000920E-02 0.  1.
</event>
<event>
 5   0  0.3552698E-05  0.1299777E+04  0.7818609E-02  0.9029742E-01
       -1   -1    0    0    0  501  0.00000000000E+00  0.00000000000E+00  0.39485143566E+03  0.39485143569E+03  0.50400001928E-02 0. -1.
        1   -1    0    0  501    0  0.00000000000E+00  0.00000000000E+00 -0.10696548551E+04  0.10696548551E+04  0.50400001928E-02 0.  1.
    10030    2    1    2    0    0  0.00000000000E+00  0.00000000000E+00 -0.67480341943E+03  0.14645062908E+04  0.12997765273E+04 0.  0.
        5    1    3    3  502    0 -0.13208568543E+03 -0.26654388850E+03  0.31361478577E+03  0.43228300527E+03  0.46999998093E+01 0. -1.
       -5    1    3    3    0  502  0.13208568543E+03  0.26654388850E+03 -0.98841820521E+03  0.10322232855E+04  0.46999998093E+01 0.  1.
</event>
<event>
 5   0  0.6742824E-05  0.1299843E+04  0.7818609E-02  0.9029690E-01
       -2   -1    0    0    0  501  0.00000000000E+00  0.00000000000E+00  0.35265146729E+03  0.35265146730E+03  0.25500000920E-02 0.  1.
        2   -1    0    0  501    0  0.00000000000E+00  0.00000000000E+00 -0.11977765688E+04  0.11977765688E+04  0.25500000920E-02 0. -1.
    10030    2    1    2    0    0  0.00000000000E+00  0.00000000000E+00 -0.84512510153E+03  0.15504280361E+04  0.12998425512E+04 0.  0.
        4    1    3    3  502    0 -0.32602176652E+03 -0.39030452767E+03 -0.90526077101E+03  0.10383287018E+04  0.12699999809E+01 0. -1.
       -4    1    3    3    0  502  0.32602176652E+03  0.39030452767E+03  0.60135669486E+02  0.51209933432E+03  0.12699999809E+01 0.  1.
</event>
<event>
 5   0  0.6671239E-05  0.1304243E+04  0.7818609E-02  0.9026207E-01
       -2   -1    0    0    0  501  0.00000000000E+00  0.00000000000E+00  0.19175520823E+03  0.19175520825E+03  0.25500000920E-02 0. -1.
        2   -1    0    0  501    0  0.00000000000E+00  0.00000000000E+00 -0.22177354942E+04  0.22177354942E+04  0.25500000920E-02 0.  1.
    10030    2    1    2    0    0  0.00000000000E+00  0.00000000000E+00 -0.20259802860E+04  0.24094907025E+04  0.13042428171E+04 0.  0.
        1    1    3    3  502    0 -0.59717843392E+02 -0.28073578722E+03 -0.20947730442E+04  0.21143445579E+04  0.50400001928E-02 0.  1.
       -1    1    3    3    0  502  0.59717843392E+02  0.28073578722E+03  0.68792758161E+02  0.29514614456E+03  0.50400001928E-02 0. -1.
</event>
<event>
 5   0  0.6671239E-05  0.1299589E+04  0.7818609E-02  0.9029891E-01
        2   -1    0    0  501    0  0.00000000000E+00  0.00000000000E+00  0.61108475128E+03  0.61108475129E+03  0.25500000920E-02 0. -1.
       -2   -1    0    0    0  501  0.00000000000E+00  0.00000000000E+00 -0.69095590162E+03  0.69095590162E+03  0.25500000920E-02 0.  1.
    10030    2    1    2    0    0  0.00000000000E+00  0.00000000000E+00 -0.79871150333E+02  0.13020406529E+04  0.12995885738E+04 0.  0.
        1    1    3    3  502    0  0.53572126835E+03 -0.20471478301E+03  0.26613583723E+03  0.63224497122E+03  0.50400001928E-02 0. -1.
       -1    1    3    3    0  502 -0.53572126835E+03  0.20471478301E+03 -0.34600698756E+03  0.66979568169E+03  0.50400001928E-02 0.  1.
</event>
<event>
 5   0  0.3551277E-05  0.1299268E+04  0.7818609E-02  0.9030146E-01
        1   -1    0    0  501    0  0.00000000000E+00  0.00000000000E+00  0.17336968808E+04  0.17336968808E+04  0.50400001928E-02 0. -1.
       -1   -1    0    0    0  501  0.00000000000E+00  0.00000000000E+00 -0.24342456486E+03  0.24342456491E+03  0.50400001928E-02 0.  1.
    10030    2    1    2    0    0  0.00000000000E+00  0.00000000000E+00  0.14902723159E+04  0.19771214457E+04  0.12992681153E+04 0.  0.
        4    1    3    3  502    0  0.33650368543E+03  0.54177864159E+03  0.93314068465E+03  0.11302707539E+04  0.12699999809E+01 0. -1.
       -4    1    3    3    0  502 -0.33650368543E+03 -0.54177864159E+03  0.55713163126E+03  0.84685069182E+03  0.12699999809E+01 0.  1.
</event>
<event>
 5   0  0.6742824E-05  0.1299321E+04  0.7818609E-02  0.9030104E-01
        2   -1    0    0  501    0  0.00000000000E+00  0.00000000000E+00  0.19471721591E+04  0.19471721591E+04  0.25500000920E-02 0.  1.
       -2   -1    0    0    0  501  0.00000000000E+00  0.00000000000E+00 -0.21675469105E+03  0.21675469106E+03  0.25500000920E-02 0. -1.
    10030    2    1    2    0    0  0.00000000000E+00  0.00000000000E+00  0.17304174680E+04  0.21639268501E+04  0.12993208992E+04 0.  0.
        4    1    3    3  502    0  0.61005861340E+03  0.13636814803E+03  0.11598028703E+04  0.13175401680E+04  0.12699999809E+01 0. -1.
       -4    1    3    3    0  502 -0.61005861340E+03 -0.13636814803E+03  0.57061459775E+03  0.84638668210E+03  0.12699999809E+01 0.  1.
</event>
<event>
 5   0  0.6742824E-05  0.1300160E+04  0.7818609E-02  0.9029439E-01
        2   -1    0    0  501    0  0.00000000000E+00  0.00000000000E+00  0.89446531883E+03  0.89446531883E+03  0.25500000920E-02 0. -1.
       -2   -1    0    0    0  501  0.00000000000E+00  0.00000000000E+00 -0.47246522191E+03  0.47246522192E+03  0.25500000920E-02 0.  1.
    10030    2    1    2    0    0  0.00000000000E+00  0.00000000000E+00  0.42200009692E+03  0.13669305408E+04  0.13001596138E+04 0.  0.
        4    1    3    3  502    0 -0.44945171168E+03  0.43151198416E+03  0.40597686125E+03  0.74365869750E+03  0.12699999809E+01 0.  1.
       -4    1    3    3    0  502  0.44945171168E+03 -0.43151198416E+03  0.16023235673E+02  0.62327184325E+03  0.12699999809E+01 0. -1.
</event>
<event>
 5   0  0.2512000E-05  0.1299865E+04  0.7818609E-02  0.9029672E-01
       -4   -1    0    0    0  501  0.00000000000E+00  0.00000000000E+00  0.95317017221E+03  0.95317101828E+03  0.12699999809E+01 0. -1.
        4   -1    0    0  501    0  0.00000000000E+00  0.00000000000E+00 -0.44316393823E+03  0.44316575798E+03  0.12699999809E+01 0.  1.
    10030    2    1    2    0    0  0.00000000000E+00  0.00000000000E+00  0.51000623398E+03  0.13963367763E+04  0.12998653907E+04 0.  0.
        5    1    3    3  502    0 -0.42309041374E+02  0.43817629334E+03 -0.25860480425E+03  0.51057521856E+03  0.46999998093E+01 0.  1.
       -5    1    3    3    0  502  0.42309041374E+02 -0.43817629334E+03  0.76861103823E+03  0.88576155771E+03  0.46999998093E+01 0. -1.
</event>
<event>
 5   0  0.6671239E-05  0.1298524E+04  0.7818609E-02  0.9030736E-01
        2   -1    0    0  501    0  0.00000000000E+00  0.00000000000E+00  0.14693628851E+04  0.14693628851E+04  0.25500000920E-02 0.  1.
       -2   -1    0    0    0  501  0.00000000000E+00  0.00000000000E+00 -0.28688708684E+03  0.28688708685E+03  0.25500000920E-02 0. -1.
    10030    2    1    2    0    0  0.00000000000E+00  0.00000000000E+00  0.11824757983E+04  0.17562499720E+04  0.12985241432E+04 0.  0.
        1    1    3    3  502    0 -0.56100926972E+02  0.14315223229E+03  0.14443851868E+04  0.14525455047E+04  0.50400001928E-02 0.  1.
       -1    1    3    3    0  502  0.56100926972E+02 -0.14315223229E+03 -0.26190938848E+03  0.30370446723E+03  0.50400001928E-02 0. -1.
</event>
<event>
 5   0  0.3631841E-05  0.1300734E+04  0.7818609E-02  0.9028984E-01
        1   -1    0    0  501    0  0.00000000000E+00  0.00000000000E+00  0.11745153069E+04  0.11745153069E+04  0.50400001928E-02 0. -1.
       -1   -1    0    0    0  501  0.00000000000E+00  0.00000000000E+00 -0.36012890396E+03  0.36012890399E+03  0.50400001928E-02 0.  1.
    10030    2    1    2    0    0  0.00000000000E+00  0.00000000000E+00  0.81438640296E+03  0.15346442109E+04  0.13007335011E+04 0.  0.
        3    1    3    3  502    0 -0.15348687423E+03  0.21055640693E+03 -0.29585539657E+03  0.39423679044E+03  0.10100000352E+00 0.  1.
       -3    1    3    3    0  502  0.15348687423E+03 -0.21055640693E+03  0.11102417995E+04  0.11404074205E+04  0.10100000352E+00 0. -1.
</event>
<event>
 5   0  0.3552698E-05  0.1302065E+04  0.7818609E-02  0.9027929E-01
        1   -1    0    0  501    0  0.00000000000E+00  0.00000000000E+00  0.73612961026E+03  0.73612961028E+03  0.50400001928E-02 0.  1.
       -1   -1    0    0    0  501  0.00000000000E+00  0.00000000000E+00 -0.57577286294E+03  0.57577286296E+03  0.50400001928E-02 0. -1.
    10030    2    1    2    0    0  0.00000000000E+00  0.00000000000E+00  0.16035674732E+03  0.13119024732E+04  0.13020652107E+04 0.  0.
        5    1    3    3  502    0 -0.55336201656E+02 -0.44932742527E+03 -0.39118530381E+03  0.59833540947E+03  0.46999998093E+01 0. -1.
       -5    1    3    3    0  502  0.55336201656E+02  0.44932742527E+03  0.55154205113E+03  0.71356706376E+03  0.46999998093E+01 0.  1.
</event>
<event>
 5   0  0.3552698E-05  0.1300418E+04  0.7818609E-02  0.9029234E-01
       -1   -1    0    0    0  501  0.00000000000E+00  0.00000000000E+00  0.35699205777E+03  0.35699205781E+03  0.50400001928E-02 0.  1.
        1   -1    0    0  501    0  0.00000000000E+00  0.00000000000E+00 -0.11842606062E+04  0.11842606062E+04  0.50400001928E-02 0. -1.
    10030    2    1    2    0    0  0.00000000000E+00  0.00000000000E+00 -0.82726854838E+03  0.15412526640E+04  0.13004178263E+04 0.  0.
        5    1    3    3  502    0  0.41523995035E+03  0.15554701778E+03  0.14996503119E+03  0.46811397296E+03  0.46999998093E+01 0.  1.
       -5    1    3    3    0  502 -0.41523995035E+03 -0.15554701778E+03 -0.97723357957E+03  0.10731386910E+04  0.46999998093E+01 0. -1.
</event>
<event>
 5   0  0.3718559E-05  0.1298986E+04  0.7818609E-02  0.9030369E-01
        1   -1    0    0  501    0  0.00000000000E+00  0.00000000000E+00  0.20050137035E+04  0.20050137035E+04  0.50400001928E-02 0. -1.
       -1   -1    0    0    0  501  0.00000000000E+00  0.00000000000E+00 -0.21039323133E+03  0.21039323139E+03  0.50400001928E-02 0.  1.
    10030    2    1    2    0    0  0.00000000000E+00  0.00000000000E+00  0.17946204722E+04  0.22154069349E+04  0.12989862386E+04 0.  0.
        2    1    3    3  502    0 -0.60324134878E+03  0.10685782244E+03  0.12651688386E+04  0.14056923238E+04  0.25500000920E-02 0. -1.
       -2    1    3    3    0  502  0.60324134878E+03 -0.10685782244E+03  0.52945163361E+03  0.80971461110E+03  0.25500000920E-02 0.  1.
</event>
<event>
 5   0  0.6458698E-05  0.1299945E+04  0.7818609E-02  0.9029609E-01
        2   -1    0    0  501    0  0.00000000000E+00  0.00000000000E+00  0.57511943843E+03  0.57511943843E+03  0.25500000920E-02 0.  1.
       -2   -1    0    0    0  501  0.00000000000E+00  0.00000000000E+00 -0.73456822859E+03  0.73456822859E+03  0.25500000920E-02 0. -1.
    10030    2    1    2    0    0  0.00000000000E+00  0.00000000000E+00 -0.15944879016E+03  0.13096876670E+04  0.12999453329E+04 0.  0.
        3    1    3    3  502    0 -0.19694630142E+03  0.26381902589E+03  0.48490062138E+03  0.58610318791E+03  0.10100000352E+00 0.  1.
       -3    1    3    3    0  502  0.19694630142E+03 -0.26381902589E+03 -0.64434941154E+03  0.72358447912E+03  0.10100000352E+00 0. -1.
</event>
<event>
 5   0  0.6688086E-05  0.1300349E+04  0.7818609E-02  0.9029289E-01
       -2   -1    0    0    0  501  0.00000000000E+00  0.00000000000E+00  0.23307229408E+03  0.23307229410E+03  0.25500000920E-02 0. -1.
        2   -1    0    0  501    0  0.00000000000E+00  0.00000000000E+00 -0.18137145452E+04  0.18137145452E+04  0.25500000920E-02 0.  1.
    10030    2    1    2    0    0  0.00000000000E+00  0.00000000000E+00 -0.15806422511E+04  0.20467868393E+04  0.13003485838E+04 0.  0.
        5    1    3    3  502    0 -0.75467116717E+02 -0.14126437210E+01  0.22612560588E+03  0.23843691178E+03  0.46999998093E+01 0. -1.
       -5    1    3    3    0  502  0.75467116717E+02  0.14126437210E+01 -0.18067678570E+04  0.18083499275E+04  0.46999998093E+01 0.  1.
</event>
<event>
 5   0  0.6618060E-05  0.1300388E+04  0.7818609E-02  0.9029258E-01
        2   -1    0    0  501    0  0.00000000000E+00  0.00000000000E+00  0.12745182715E+04  0.12745182715E+04  0.25500000920E-02 0.  1.
       -2   -1    0    0    0  501  0.00000000000E+00  0.00000000000E+00 -0.33169559038E+03  0.33169559039E+03  0.25500000920E-02 0. -1.
    10030    2    1    2    0    0  0.00000000000E+00  0.00000000000E+00  0.94282268116E+03  0.16062138619E+04  0.13003877738E+04 0.  0.
        2    1    3    3  502    0  0.12600392963E+03  0.11447189703E+03 -0.30367933709E+03  0.34814069753E+03  0.25500000920E-02 0. -1.
       -2    1    3    3    0  502 -0.12600392963E+03 -0.11447189703E+03  0.12465020183E+04  0.12580731644E+04  0.25500000920E-02 0.  1.
</event>
<event>
 5   0  0.3718559E-05  0.1298315E+04  0.7818609E-02  0.9030903E-01
        1   -1    0    0  501    0  0.00000000000E+00  0.00000000000E+00  0.10101537018E+04  0.10101537018E+04  0.50400001928E-02 0. -1.
       -1   -1    0    0    0  501  0.00000000000E+00  0.00000000000E+00 -0.41716933526E+03  0.41716933529E+03  0.50400001928E-02 0.  1.
    10030    2    1    2    0    0  0.00000000000E+00  0.00000000000E+00  0.59298436651E+03  0.14273230371E+04  0.12983145201E+04 0.  0.
        2    1    3    3  502    0  0.60984955712E+03  0.11793121005E+03  0.89119857071E+02  0.62750824820E+03  0.25500000920E-02 0.  1.
       -2    1    3    3    0  502 -0.60984955712E+03 -0.11793121005E+03  0.50386450943E+03  0.79981478887E+03  0.25500000920E-02 0. -1.
</event>
<event>
 5   0  0.6671239E-05  0.1300301E+04  0.7818609E-02  0.9029326E-01
       -2   -1    0    0    0  501  0.00000000000E+00  0.00000000000E+00  0.55294572319E+03  0.55294572320E+03  0.25500000920E-02 0.  1.
        2   -1    0    0  501    0  0.00000000000E+00  0.00000000000E+00 -0.76444337728E+03  0.76444337728E+03  0.25500000920E-02 0. -1.
    10030    2    1    2    0    0  0.00000000000E+00  0.00000000000E+00 -0.21149765408E+03  0.13173891005E+04  0.13003010361E+04 0.  0.
        1    1    3    3  502    0 -0.60266733157E+03  0.20655965278E+03 -0.23714862160E+03  0.67978987302E+03  0.50400001928E-02 0. -1.
       -1    1    3    3    0  502  0.60266733157E+03 -0.20655965278E+03  0.25650967521E+02  0.63759922746E+03  0.50400001928E-02 0.  1.
</event>
<event>
 5   0  0.2512000E-05  0.1299933E+04  0.7818609E-02  0.9029619E-01
       -3   -1    0    0    0  501  0.00000000000E+00  0.00000000000E+00  0.15570727432E+03  0.15570730707E+03  0.10100000352E+00 0. -1.
        3   -1    0    0  501    0  0.00000000000E+00  0.00000000000E+00 -0.27131431508E+04  0.27131431527E+04  0.10100000352E+00 0.  1.
    10030    2    1    2    0    0  0.00000000000E+00  0.00000000000E+00 -0.25574358765E+04  0.28688504598E+04  0.12999325744E+04 0.  0.
        4    1    3    3  502    0 -0.10945261622E+03 -0.52187612793E+03 -0.45852625918E+03  0.70326560513E+03  0.12699999809E+01 0. -1.
       -4    1    3    3    0  502  0.10945261622E+03  0.52187612793E+03 -0.20989096173E+04  0.21655848546E+04  0.12699999809E+01 0.  1.
</event>
<event>
 5   0  0.2512000E-05  0.1299524E+04  0.7818609E-02  0.9029943E-01
       -4   -1    0    0    0  501  0.00000000000E+00  0.00000000000E+00  0.12071750704E+04  0.12071757385E+04  0.12699999809E+01 0. -1.
        4   -1    0    0  501    0  0.00000000000E+00  0.00000000000E+00 -0.34973231713E+03  0.34973462303E+03  0.12699999809E+01 0.  1.
    10030    2    1    2    0    0  0.00000000000E+00  0.00000000000E+00  0.85744275327E+03  0.15569103615E+04  0.12995236814E+04 0.  0.
        3    1    3    3  502    0  0.18714579909E+03  0.19278464760E+02  0.11738306452E+04  0.11888118452E+04  0.10100000352E+00 0. -1.
       -3    1    3    3    0  502 -0.18714579909E+03 -0.19278464760E+02 -0.31638789197E+03  0.36809851631E+03  0.10100000352E+00 0.  1.
</event>
<event>
 5   0  0.3689707E-05  0.1300137E+04  0.7818609E-02  0.9029457E-01
        1   -1    0    0  501    0  0.00000000000E+00  0.00000000000E+00  0.10347762487E+04  0.10347762487E+04  0.50400001928E-02 0.  1.
       -1   -1    0    0    0  501  0.00000000000E+00  0.00000000000E+00 -0.40838687319E+03  0.40838687322E+03  0.50400001928E-02 0. -1.
    10030    2    1    2    0    0  0.00000000000E+00  0.00000000000E+00  0.62638937550E+03  0.14431631219E+04  0.13001369723E+04 0.  0.
        1    1    3    3  502    0 -0.25750699436E+03  0.25340234852E+03 -0.28668911825E+03  0.46120847014E+03  0.50400001928E-02 0. -1.
       -1    1    3    3    0  502  0.25750699436E+03 -0.25340234852E+03  0.91307849375E+03  0.98195465179E+03  0.50400001928E-02 0.  1.
</event>
<event>
 5   0  0.3631841E-05  0.1298622E+04  0.7818609E-02  0.9030658E-01
       -1   -1    0    0    0  501  0.00000000000E+00  0.00000000000E+00  0.20391294477E+03  0.20391294483E+03  0.50400001928E-02 0.  1.
        1   -1    0    0  501    0  0.00000000000E+00  0.00000000000E+00 -0.20675731564E+04  0.20675731564E+04  0.50400001928E-02 0. -1.
    10030    2    1    2    0    0  0.00000000000E+00  0.00000000000E+00 -0.18636602116E+04  0.22714861012E+04  0.12986222406E+04 0.  0.
        3    1    3    3  502    0 -0.25831709755E+03  0.26440028010E+03  0.19112237446E+01  0.36964698562E+03  0.10100000352E+00 0.  1.
       -3    1    3    3    0  502  0.25831709755E+03 -0.26440028010E+03 -0.18655714353E+04  0.19018391156E+04  0.10100000352E+00 0. -1.
</event>
<event>
 5   0  0.3718559E-05  0.1299909E+04  0.7818609E-02  0.9029637E-01
       -1   -1    0    0    0  501  0.00000000000E+00  0.00000000000E+00  0.46643142975E+03  0.46643142978E+03  0.50400001928E-02 0.  1.
        1   -1    0    0  501    0  0.00000000000E+00  0.00000000000E+00 -0.90568757133E+03  0.90568757134E+03  0.50400001928E-02 0. -1.
    10030    2    1    2    0    0  0.00000000000E+00  0.00000000000E+00 -0.43925614158E+03  0.13721190011E+04  0.12999094566E+04 0.  0.
        2    1    3    3  502    0 -0.52264407134E+03  0.68474740009E+02  0.18175228567E+03  0.55756569898E+03  0.25500000920E-02 0.  1.
       -2    1    3    3    0  502  0.52264407134E+03 -0.68474740009E+02 -0.62100842725E+03  0.81455330215E+03  0.25500000920E-02 0. -1.
</event>
<event>
 5   0  0.3631841E-05  0.1300146E+04  0.7818609E-02  0.9029449E-01
        1   -1    0    0  501    0  0.00000000000E+00  0.00000000000E+00  0.79131938884E+03  0.79131938886E+03  0.50400001928E-02 0. -1.
       -1   -1    0    0    0  501  0.00000000000E+00  0.00000000000E+00 -0.53403867957E+03  0.53403867959E+03  0.50400001928E-02 0.  1.
    10030    2    1    2    0    0  0.00000000000E+00  0.00000000000E+00  0.25728070927E+03  0.13253580684E+04  0.13001463942E+04 0.  0.
        3    1    3    3  502    0 -0.41609106753E+03 -0.49093107562E+03  0.22234706871E+03  0.68086953718E+03  0.10100000352E+00 0.  1.
       -3    1    3    3    0  502  0.41609106753E+03  0.49093107562E+03  0.34933640563E+02  0.64448853127E+03  0.10100000352E+00 0. -1.
</event>
<event>
 5   0  0.3551277E-05  0.1299541E+04  0.7818609E-02  0.9029929E-01
       -1   -1    0    0    0  501  0.00000000000E+00  0.00000000000E+00  0.27126614474E+03  0.27126614479E+03  0.50400001928E-02 0. -1.
        1   -1    0    0  501    0  0.00000000000E+00  0.00000000000E+00 -0.15564119271E+04  0.15564119271E+04  0.50400001928E-02 0.  1.
    10030    2    1    2    0    0  0.00000000000E+00  0.00000000000E+00 -0.12851457823E+04  0.18276780719E+04  0.12995412470E+04 0.  0.
        4    1    3    3  502    0  0.26885041642E+03 -0.53450150333E+03 -0.28614530114E+03  0.66321425628E+03  0.12699999809E+01 0. -1.
       -4    1    3    3    0  502 -0.26885041642E+03  0.53450150333E+03 -0.99900048120E+03  0.11644638156E+04  0.12699999809E+01 0.  1.
</event>
<event>
 5   0  0.3718559E-05  0.1300510E+04  0.7818609E-02  0.9029161E-01
       -1   -1    0    0    0  501  0.00000000000E+00  0.00000000000E+00  0.55854201249E+03  0.55854201251E+03  0.50400001928E-02 0.  1.
        1   -1    0    0  501    0  0.00000000000E+00  0.00000000000E+00 -0.75702714624E+03  0.75702714626E+03  0.50400001928E-02 0. -1.
    10030    2    1    2    0    0  0.00000000000E+00  0.00000000000E+00 -0.19848513375E+03  0.13155691588E+04  0.13005098474E+04 0.  0.
        2    1    3    3  502    0 -0.60981945703E+03  0.19489515453E+03 -0.21443644837E+03  0.67516433690E+03  0.25500000920E-02 0. -1.
       -2    1    3    3    0  502  0.60981945703E+03 -0.19489515453E+03  0.15951314619E+02  0.64040482187E+03  0.25500000920E-02 0.  1.
</event>
<event>
 5   0  0.6618060E-05  0.1300068E+04  0.7818609E-02  0.9029511E-01
        2   -1    0    0  501    0  0.00000000000E+00  0.00000000000E+00  0.11451954179E+04  0.11451954179E+04  0.25500000920E-02 0. -1.
       -2   -1    0    0    0  501  0.00000000000E+00  0.00000000000E+00 -0.36897140734E+03  0.36897140735E+03  0.25500000920E-02 0.  1.
    10030    2    1    2    0    0  0.00000000000E+00  0.00000000000E+00  0.77622401053E+03  0.15141668252E+04  0.13000682521E+04 0.  0.
        2    1    3    3  502    0  0.19846968046E+03  0.19977707364E+03 -0.29424018573E+03  0.40728169627E+03  0.25500000920E-02 0.  1.
       -2    1    3    3    0  502 -0.19846968046E+03 -0.19977707364E+03  0.10704641963E+04  0.11068851290E+04  0.25500000920E-02 0. -1.
</event>
<event>
 5   0  0.3718559E-05  0.1300190E+04  0.7818609E-02  0.9029415E-01
       -1   -1    0    0    0  501  0.00000000000E+00  0.00000000000E+00  0.41667883345E+03  0.41667883348E+03  0.50400001928E-02 0. -1.
        1   -1    0    0  501    0  0.00000000000E+00  0.00000000000E+00 -0.10142662276E+04  0.10142662276E+04  0.50400001928E-02 0.  1.
    10030    2    1    2    0    0  0.00000000000E+00  0.00000000000E+00 -0.59758739413E+03  0.14309450611E+04  0.13001896301E+04 0.  0.
        2    1    3    3  502    0 -0.47834139876E+03 -0.36897859602E+02  0.18401680944E+03  0.51384251671E+03  0.25500000920E-02 0. -1.
       -2    1    3    3    0  502  0.47834139876E+03  0.36897859602E+02 -0.78160420358E+03  0.91710254436E+03  0.25500000920E-02 0.  1.
</event>
<event>
 5   0  0.3552698E-05  0.1305971E+04  0.7818609E-02  0.9024844E-01
        1   -1    0    0  501    0  0.00000000000E+00  0.00000000000E+00  0.98234140512E+03  0.98234140513E+03  0.50400001928E-02 0.  1.
       -1   -1    0    0    0  501  0.00000000000E+00  0.00000000000E+00 -0.43405477876E+03  0.43405477879E+03  0.50400001928E-02 0. -1.
    10030    2    1    2    0    0  0.00000000000E+00  0.00000000000E+00  0.54828662636E+03  0.14163961839E+04  0.13059708746E+04 0.  0.
        5    1    3    3  502    0 -0.42425603783E+03 -0.49482089813E+03  0.31652405570E+03  0.72460366732E+03  0.46999998093E+01 0.  1.
       -5    1    3    3    0  502  0.42425603783E+03  0.49482089813E+03  0.23176257066E+03  0.69179251660E+03  0.46999998093E+01 0. -1.
</event>
<event>
 5   0  0.2512000E-05  0.1301653E+04  0.7818609E-02  0.9028256E-01
        3   -1    0    0  501    0  0.00000000000E+00  0.00000000000E+00  0.26718312696E+03  0.26718314605E+03  0.10100000352E+00 0.  1.
       -3   -1    0    0    0  501  0.00000000000E+00  0.00000000000E+00 -0.15853351263E+04  0.15853351295E+04  0.10100000352E+00 0. -1.
    10030    2    1    2    0    0  0.00000000000E+00  0.00000000000E+00 -0.13181519993E+04  0.18525182755E+04  0.13016525143E+04 0.  0.
        2    1    3    3  502    0  0.22028707248E+03 -0.51389783584E+03 -0.18500253447E+03  0.58893405212E+03  0.25500000920E-02 0.  1.
       -2    1    3    3    0  502 -0.22028707248E+03  0.51389783584E+03 -0.11331494649E+04  0.12635842234E+04  0.25500000920E-02 0. -1.
</event>
<event>
 5   0  0.6458698E-05  0.1299948E+04  0.7818609E-02  0.9029607E-01
       -2   -1    0    0    0  501  0.00000000000E+00  0.00000000000E+00  0.39820337754E+03  0.39820337755E+03  0.25500000920E-02 0.  1.
        2   -1    0    0  501    0  0.00000000000E+00  0.00000000000E+00 -0.10609301877E+04  0.10609301877E+04  0.25500000920E-02 0. -1.
    10030    2    1    2    0    0  0.00000000000E+00  0.00000000000E+00 -0.66272681012E+03  0.14591335652E+04  0.12999476668E+04 0.  0.
        3    1    3    3  502    0  0.38671831042E+02  0.62158080624E+03 -0.12255116443E+03  0.63472593086E+03  0.10100000352E+00 0.  1.
       -3    1    3    3    0  502 -0.38671831042E+02 -0.62158080624E+03 -0.54017564569E+03  0.82440763436E+03  0.10100000352E+00 0. -1.
</event>
<event>
 5   0  0.6458698E-05  0.1299497E+04  0.7818609E-02  0.9029964E-01
       -2   -1    0    0    0  501  0.00000000000E+00  0.00000000000E+00  0.82293514524E+03  0.82293514524E+03  0.25500000920E-02 0.  1.
        2   -1    0    0  501    0  0.00000000000E+00  0.00000000000E+00 -0.51300926293E+03  0.51300926293E+03  0.25500000920E-02 0. -1.
    10030    2    1    2    0    0  0.00000000000E+00  0.00000000000E+00  0.30992588231E+03  0.13359444082E+04  0.12994973679E+04 0.  0.
        3    1    3    3  502    0 -0.14231612837E+03 -0.26401330228E+03  0.74751094711E+03  0.80543747767E+03  0.10100000352E+00 0.  1.
       -3    1    3    3    0  502  0.14231612837E+03  0.26401330228E+03 -0.43758506480E+03  0.53050693051E+03  0.10100000352E+00 0. -1.
</event>
<event>
 5   0  0.6742824E-05  0.1299994E+04  0.7818609E-02  0.9029570E-01
       -2   -1    0    0    0  501  0.00000000000E+00  0.00000000000E+00  0.17467619807E+03  0.17467619809E+03  0.25500000920E-02 0. -1.
        2   -1    0    0  501    0  0.00000000000E+00  0.00000000000E+00 -0.24187391145E+04  0.24187391145E+04  0.25500000920E-02 0.  1.
    10030    2    1    2    0    0  0.00000000000E+00  0.00000000000E+00 -0.22440629164E+04  0.25934153126E+04  0.12999940810E+04 0.  0.
        4    1    3    3  502    0 -0.16515906374E+03  0.49161532924E+03 -0.34035093878E+03  0.62032533618E+03  0.12699999809E+01 0. -1.
       -4    1    3    3    0  502  0.16515906374E+03 -0.49161532924E+03 -0.19037119777E+04  0.19730899764E+04  0.12699999809E+01 0.  1.
</event>
<event>
 5   0  0.6458698E-05  0.1299885E+04  0.7818609E-02  0.9029657E-01
        2   -1    0    0  501    0  0.00000000000E+00  0.00000000000E+00  0.94548642374E+03  0.94548642374E+03  0.25500000920E-02 0. -1.
       -2   -1    0    0    0  501  0.00000000000E+00  0.00000000000E+00 -0.44678059580E+03  0.44678059581E+03  0.25500000920E-02 0.  1.
    10030    2    1    2    0    0  0.00000000000E+00  0.00000000000E+00  0.49870582794E+03  0.13922670196E+04  0.12998845914E+04 0.  0.
        3    1    3    3  502    0  0.38691432066E+03  0.49769108300E+03  0.79914316294E+02  0.63544111747E+03  0.10100000352E+00 0.  1.
       -3    1    3    3    0  502 -0.38691432066E+03 -0.49769108300E+03  0.41879151165E+03  0.75682590208E+03  0.10100000352E+00 0. -1.
</event>
<event>
 5   0  0.6671239E-05  0.1300364E+04  0.7818609E-02  0.9029276E-01
       -2   -1    0    0    0  501  0.00000000000E+00  0.00000000000E+00  0.57721277709E+03  0.57721277710E+03  0.25500000920E-02 0.  1.
        2   -1    0    0  501    0  0.00000000000E+00  0.00000000000E+00 -0.73237590151E+03  0.73237590151E+03  0.25500000920E-02 0. -1.
    10030    2    1    2    0    0  0.00000000000E+00  0.00000000000E+00 -0.15516312442E+03  0.13095886786E+04  0.13003641459E+04 0.  0.
        1    1    3    3  502    0  0.28249881849E+03 -0.15665512729E+03  0.49068205426E+03  0.58746513918E+03  0.50400001928E-02 0.  1.
       -1    1    3    3    0  502 -0.28249881849E+03  0.15665512729E+03 -0.64584517868E+03  0.72212353943E+03  0.50400001928E-02 0. -1.
</event>
<event>
 5   0  0.6458698E-05  0.1300268E+04  0.7818609E-02  0.9029352E-01
        2   -1    0    0  501    0  0.00000000000E+00  0.00000000000E+00  0.89333450717E+03  0.89333450717E+03  0.25500000920E-02 0.  1.
       -2   -1    0    0    0  501  0.00000000000E+00  0.00000000000E+00 -0.47314233616E+03  0.47314233617E+03  0.25500000920E-02 0. -1.
    10030    2    1    2    0    0  0.00000000000E+00  0.00000000000E+00  0.42019217101E+03  0.13664768433E+04  0.13002682426E+04 0.  0.
        3    1    3    3  502    0  0.11338718362E+03  0.32337279649E+03  0.79072084856E+03  0.86178076647E+03  0.10100000352E+00 0.  1.
       -3    1    3    3    0  502 -0.11338718362E+03 -0.32337279649E+03 -0.37052867755E+03  0.50469607687E+03  0.10100000352E+00 0. -1.
</event>
<event>
 5   0  0.6688086E-05  0.1300259E+04  0.7818609E-02  0.9029360E-01
       -2   -1    0    0    0  501  0.00000000000E+00  0.00000000000E+00  0.70789488168E+03  0.70789488168E+03  0.25500000920E-02 0. -1.
        2   -1    0    0  501    0  0.00000000000E+00  0.00000000000E+00 -0.59707768036E+03  0.59707768037E+03  0.25500000920E-02 0.  1.
    10030    2    1    2    0    0  0.00000000000E+00  0.00000000000E+00  0.11081720131E+03  0.13049725621E+04  0.13002587956E+04 0.  0.
        5    1    3    3  502    0  0.12986205159E+03 -0.34677479377E+03 -0.48087790630E+03  0.60694527003E+03  0.46999998093E+01 0.  1.
       -5    1    3    3    0  502 -0.12986205159E+03  0.34677479377E+03  0.59169510762E+03  0.69802729203E+03  0.46999998093E+01 0. -1.
</event>
<event>
 5   0  0.3631841E-05  0.1300170E+04  0.7818609E-02  0.9029430E-01
       -1   -1    0    0    0  501  0.00000000000E+00  0.00000000000E+00  0.62982141143E+03  0.62982141145E+03  0.50400001928E-02 0. -1.
        1   -1    0    0  501    0  0.00000000000E+00  0.00000000000E+00 -0.67100072714E+03  0.67100072716E+03  0.50400001928E-02 0.  1.
    10030    2    1    2    0    0  0.00000000000E+00  0.00000000000E+00 -0.41179315710E+02  0.13008221386E+04  0.13001701813E+04 0.  0.
        3    1    3    3  502    0 -0.39914045423E+03  0.45918417984E+03  0.20853915586E+03  0.64315768125E+03  0.10100000352E+00 0. -1.
       -3    1    3    3    0  502  0.39914045423E+03 -0.45918417984E+03 -0.24971847157E+03  0.65766445736E+03  0.10100000352E+00 0.  1.
</event>
<event>
 5   0  0.3689707E-05  0.1299290E+04  0.7818609E-02  0.9030128E-01
       -1   -1    0    0    0  501  0.00000000000E+00  0.00000000000E+00  0.57358619722E+03  0.57358619724E+03  0.50400001928E-02 0.  1.
        1   -1    0    0  501    0  0.00000000000E+00  0.00000000000E+00 -0.73578942090E+03  0.73578942092E+03  0.50400001928E-02 0. -1.
    10030    2    1    2    0    0  0.00000000000E+00  0.00000000000E+00 -0.16220322368E+03  0.13093756182E+04  0.12992900460E+04 0.  0.
        1    1    3    3  502    0  0.58137065177E+03  0.52294413985E+02  0.20626464320E+03  0.61908936635E+03  0.50400001928E-02 0.  1.
       -1    1    3    3    0  502 -0.58137065177E+03 -0.52294413985E+02 -0.36846786688E+03  0.69028625180E+03  0.50400001928E-02 0. -1.
</event>
<event>
 5   0  0.3631841E-05  0.1300257E+04  0.7818609E-02  0.9029361E-01
        1   -1    0    0  501    0  0.00000000000E+00  0.00000000000E+00  0.85151507129E+03  0.85151507130E+03  0.50400001928E-02 0.  1.
       -1   -1    0    0    0  501  0.00000000000E+00  0.00000000000E+00 -0.49637093422E+03  0.49637093424E+03  0.50400001928E-02 0. -1.
    10030    2    1    2    0    0  0.00000000000E+00  0.00000000000E+00  0.35514413707E+03  0.13478860055E+04  0.13002574075E+04 0.  0.
        3    1    3    3  502    0 -0.29207578062E+03 -0.53790926984E+03 -0.49572202937E+02  0.61409450227E+03  0.10100000352E+00 0.  1.
       -3    1    3    3    0  502  0.29207578062E+03  0.53790926984E+03  0.40471634001E+03  0.73379150328E+03  0.10100000352E+00 0. -1.
</event>
<event>
 5   0  0.3689707E-05  0.1295244E+04  0.7818609E-02  0.9033345E-01
       -1   -1    0    0    0  501  0.00000000000E+00  0.00000000000E+00  0.43345051034E+03  0.43345051037E+03  0.50400001928E-02 0. -1.
        1   -1    0    0  501    0  0.00000000000E+00  0.00000000000E+00 -0.96761722336E+03  0.96761722338E+03  0.50400001928E-02 0.  1.
    10030    2    1    2    0    0  0.00000000000E+00  0.00000000000E+00 -0.53416671303E+03  0.14010677337E+04  0.12952438833E+04 0.  0.
        1    1    3    3  502    0  0.13714730829E+03 -0.30450542060E+03  0.33312107512E+03  0.47170179782E+03  0.50400001928E-02 0. -1.
       -1    1    3    3    0  502 -0.13714730829E+03  0.30450542060E+03 -0.86728778815E+03  0.92936593592E+03  0.50400001928E-02 0.  1.
</event>
<event>
 5   0  0.3551277E-05  0.1299923E+04  0.7818609E-02  0.9029626E-01
        1   -1    0    0  501    0  0.00000000000E+00  0.00000000000E+00  0.16923609530E+04  0.16923609530E+04  0.50400001928E-02 0.  1.
       -1   -1    0    0    0  501  0.00000000000E+00  0.00000000000E+00 -0.24962182378E+03  0.24962182383E+03  0.50400001928E-02 0. -1.
    10030    2    1    2    0    0  0.00000000000E+00  0.00000000000E+00  0.14427391293E+04  0.19419827769E+04  0.12999234249E+04 0.  0.
        4    1    3    3  502    0 -0.24822588647E+03 -0.60068416111E+03  0.71640070756E+03  0.96729992186E+03  0.12699999809E+01 0.  1.
       -4    1    3    3    0  502  0.24822588647E+03  0.60068416111E+03  0.72633842169E+03  0.97468285501E+03  0.12699999809E+01 0. -1.
</event>
<event>
 5   0  0.6742824E-05  0.1299030E+04  0.7818609E-02  0.9030335E-01
       -2   -1    0    0    0  501  0.00000000000E+00  0.00000000000E+00  0.47308352848E+03  0.47308352849E+03  0.25500000920E-02 0.  1.
        2   -1    0    0  501    0  0.00000000000E+00  0.00000000000E+00 -0.89174457791E+03  0.89174457791E+03  0.25500000920E-02 0. -1.
    10030    2    1    2    0    0  0.00000000000E+00  0.00000000000E+00 -0.41866104943E+03  0.13648281064E+04  0.12990299018E+04 0.  0.
        4    1    3    3  502    0  0.22246600921E+03 -0.55428701276E+03  0.58828338688E+02  0.60015631639E+03  0.12699999809E+01 0.  1.
       -4    1    3    3    0  502 -0.22246600921E+03  0.55428701276E+03 -0.47748938812E+03  0.76467179001E+03  0.12699999809E+01 0. -1.
</event>
<event>
 5   0  0.6688086E-05  0.1299994E+04  0.7818609E-02  0.9029570E-01
        2   -1    0    0  501    0  0.00000000000E+00  0.00000000000E+00  0.10880089976E+04  0.10880089976E+04  0.25500000920E-02 0.  1.
       -2   -1    0    0    0  501  0.00000000000E+00  0.00000000000E+00 -0.38832011183E+03  0.38832011184E+03  0.25500000920E-02 0. -1.
    10030    2    1    2    0    0  0.00000000000E+00  0.00000000000E+00  0.69968888572E+03  0.14763291094E+04  0.12999935009E+04 0.  0.
        5    1    3    3  502    0  0.53764132980E+03  0.22934542502E+03  0.67268724865E+03  0.89117212029E+03  0.46999998093E+01 0.  1.
       -5    1    3    3    0  502 -0.53764132980E+03 -0.22934542502E+03  0.27001637067E+02  0.58515698910E+03  0.46999998093E+01 0. -1.
</event>
<event>
 5   0  0.3551277E-05  0.1298719E+04  0.7818609E-02  0.9030582E-01
       -1   -1    0    0    0  501  0.00000000000E+00  0.00000000000E+00  0.43353542011E+03  0.43353542013E+03  0.50400001928E-02 0. -1.
        1   -1    0    0  501    0  0.00000000000E+00  0.00000000000E+00 -0.97262531322E+03  0.97262531324E+03  0.50400001928E-02 0.  1.
    10030    2    1    2    0    0  0.00000000000E+00  0.00000000000E+00 -0.53908989312E+03  0.14061607334E+04  0.12987186359E+04 0.  0.
        4    1    3    3  502    0 -0.62047855250E+03 -0.51322298608E+02 -0.46930277804E+03  0.77966295463E+03  0.12699999809E+01 0.  1.
       -4    1    3    3    0  502  0.62047855250E+03  0.51322298608E+02 -0.69787115083E+02  0.62649777875E+03  0.12699999809E+01 0. -1.
</event>
<event>
 5   0  0.6458698E-05  0.1300296E+04  0.7818609E-02  0.9029330E-01
        2   -1    0    0  501    0  0.00000000000E+00  0.00000000000E+00  0.18032559088E+04  0.18032559088E+04  0.25500000920E-02 0.  1.
       -2   -1    0    0    0  501  0.00000000000E+00  0.00000000000E+00 -0.23440515523E+03  0.23440515524E+03  0.25500000920E-02 0. -1.
    10030    2    1    2    0    0  0.00000000000E+00  0.00000000000E+00  0.15688507536E+04  0.20376610641E+04  0.13002960913E+04 0.  0.
        3    1    3    3  502    0 -0.22732277236E+03  0.14580851449E+01  0.17389458542E+04  0.17537418462E+04  0.10100000352E+00 0.  1.
       -3    1    3    3    0  502  0.22732277236E+03 -0.14580851449E+01 -0.17009510062E+03  0.28391921792E+03  0.10100000352E+00 0. -1.
</event>
<event>
 5   0  0.6671239E-05  0.1300441E+04  0.7818609E-02  0.9029215E-01
        2   -1    0    0  501    0  0.00000000000E+00  0.00000000000E+00  0.68950303107E+03  0.68950303107E+03  0.25500000920E-02 0.  1.
       -2   -1    0    0    0  501  0.00000000000E+00  0.00000000000E+00 -0.61317639950E+03  0.61317639950E+03  0.25500000920E-02 0. -1.
    10030    2    1    2    0    0  0.00000000000E+00  0.00000000000E+00  0.76326631572E+02  0.13026794306E+04  0.13004414420E+04 0.  0.
        1    1    3    3  502    0 -0.29952329950E+02  0.26558807814E+03 -0.55560698931E+03  0.61654950808E+03  0.50400001928E-02 0. -1.
       -1    1    3    3    0  502  0.29952329950E+02 -0.26558807814E+03  0.63193362088E+03  0.68612992249E+03  0.50400001928E-02 0.  1.
</event>
<event>
 5   0  0.6618060E-05  0.1300344E+04  0.7818609E-02  0.9029292E-01
       -2   -1    0    0    0  501  0.00000000000E+00  0.00000000000E+00  0.59540294555E+03  0.59540294555E+03  0.25500000920E-02 0.  1.
        2   -1    0    0  501    0  0.00000000000E+00  0.00000000000E+00 -0.70997940942E+03  0.70997940942E+03  0.25500000920E-02 0. -1.
    10030    2    1    2    0    0  0.00000000000E+00  0.00000000000E+00 -0.11457646387E+03  0.13053823550E+04  0.13003443108E+04 0.  0.
        2    1    3    3  502    0  0.56268387647E+03 -0.10617767533E+03  0.25186105736E+03  0.62555642096E+03  0.25500000920E-02 0.  1.
       -2    1    3    3    0  502 -0.56268387647E+03  0.10617767533E+03 -0.36643752123E+03  0.67982593401E+03  0.25500000920E-02 0. -1.
</event>
<event>
 5   0  0.2512000E-05  0.1299875E+04  0.7818609E-02  0.9029664E-01
        4   -1    0    0  501    0  0.00000000000E+00  0.00000000000E+00  0.14718197630E+04  0.14718203109E+04  0.12699999809E+01 0.  1.
       -4   -1    0    0    0  501  0.00000000000E+00  0.00000000000E+00 -0.28700229219E+03  0.28700510209E+03  0.12699999809E+01 0. -1.
    10030    2    1    2    0    0  0.00000000000E+00  0.00000000000E+00  0.11848174708E+04  0.17588254130E+04  0.12998747610E+04 0.  0.
        5    1    3    3  502    0  0.10368828239E+03 -0.61229786433E+03  0.85174935661E+03  0.10541152646E+04  0.46999998093E+01 0.  1.
       -5    1    3    3    0  502 -0.10368828239E+03  0.61229786433E+03  0.33306811417E+03  0.70471014839E+03  0.46999998093E+01 0. -1.
</event>
<event>
 5   0  0.3551277E-05  0.1301156E+04  0.7818609E-02  0.9028649E-01
       -1   -1    0    0    0  501  0.00000000000E+00  0.00000000000E+00  0.77299729367E+03  0.77299729368E+03  0.50400001928E-02 0.  1.
        1   -1    0    0  501    0  0.00000000000E+00  0.00000000000E+00 -0.54754614419E+03  0.54754614422E+03  0.50400001928E-02 0. -1.
    10030    2    1    2    0    0  0.00000000000E+00  0.00000000000E+00  0.22545114947E+03  0.13205434379E+04  0.13011559286E+04 0.  0.
        4    1    3    3  502    0 -0.46421449190E+03 -0.14244414131E+03  0.55214882854E+03  0.73529271018E+03  0.12699999809E+01 0.  1.
       -4    1    3    3    0  502  0.46421449190E+03  0.14244414131E+03 -0.32669767907E+03  0.58525072772E+03  0.12699999809E+01 0. -1.
</event>
<event>
 5   0  0.6688086E-05  0.1299943E+04  0.7818609E-02  0.9029611E-01
        2   -1    0    0  501    0  0.00000000000E+00  0.00000000000E+00  0.25511378159E+04  0.25511378159E+04  0.25500000920E-02 0.  1.
       -2   -1    0    0    0  501  0.00000000000E+00  0.00000000000E+00 -0.16559780082E+03  0.16559780084E+03  0.25500000920E-02 0. -1.
    10030    2    1    2    0    0  0.00000000000E+00  0.00000000000E+00  0.23855400150E+04  0.27167356167E+04  0.12999427863E+04 0.  0.
        5    1    3    3  502    0  0.15952790232E+03  0.52925507628E+03  0.47828286412E+03  0.73098336198E+03  0.46999998093E+01 0. -1.
       -5    1    3    3    0  502 -0.15952790232E+03 -0.52925507628E+03  0.19072571509E+04  0.19857522547E+04  0.46999998093E+01 0.  1.
</event>
<event>
 5   0  0.2512000E-05  0.1300572E+04  0.7818609E-02  0.9029112E-01
        4   -1    0    0  501    0  0.00000000000E+00  0.00000000000E+00  0.67853333343E+03  0.67853452194E+03  0.12699999809E+01 0. -1.
       -4   -1    0    0    0  501  0.00000000000E+00  0.00000000000E+00 -0.62321228130E+03  0.62321357532E+03  0.12699999809E+01 0.  1.
    10030    2    1    2    0    0  0.00000000000E+00  0.00000000000E+00  0.55321052126E+02  0.13017480973E+04  0.13005720626E+04 0.  0.
        1    1    3    3  502    0 -0.60213959277E+03  0.39066962811E+02  0.27031242720E+03  0.66118615011E+03  0.50400001928E-02 0. -1.
       -1    1    3    3    0  502  0.60213959277E+03 -0.39066962811E+02 -0.21499137508E+03  0.64056194716E+03  0.50400001928E-02 0.  1.
</event>
<event>
 5   0  0.3552698E-05  0.1298952E+04  0.7818609E-02  0.9030397E-01
        1   -1    0    0  501    0  0.00000000000E+00  0.00000000000E+00  0.21206493752E+04  0.21206493752E+04  0.50400001928E-02 0. -1.
       -1   -1    0    0    0  501  0.00000000000E+00  0.00000000000E+00 -0.19891020280E+03  0.19891020286E+03  0.50400001928E-02 0.  1.
    10030    2    1    2    0    0  0.00000000000E+00  0.00000000000E+00  0.19217391724E+04  0.23195595780E+04  0.12989515732E+04 0.  0.
        5    1    3    3  502    0 -0.14873898478E+03 -0.49118959759E+02  0.20863822879E+04  0.20922593288E+04  0.46999998093E+01 0. -1.
       -5    1    3    3    0  502  0.14873898478E+03  0.49118959759E+02 -0.16464311553E+03  0.22730024921E+03  0.46999998093E+01 0.  1.
</event>
<event>
 5   0  0.3551277E-05  0.1300313E+04  0.7818609E-02  0.9029317E-01
        1   -1    0    0  501    0  0.00000000000E+00  0.00000000000E+00  0.11373621583E+04  0.11373621583E+04  0.50400001928E-02 0.  1.
       -1   -1    0    0    0  501  0.00000000000E+00  0.00000000000E+00 -0.37165272786E+03  0.37165272790E+03  0.50400001928E-02 0. -1.
    10030    2    1    2    0    0  0.00000000000E+00  0.00000000000E+00  0.76570943042E+03  0.15090148862E+04  0.13003134218E+04 0.  0.
        4    1    3    3  502    0 -0.45316951723E+03 -0.41691248996E+03  0.62496173730E+03  0.87735820599E+03  0.12699999809E+01 0. -1.
       -4    1    3    3    0  502  0.45316951723E+03  0.41691248996E+03  0.14074769312E+03  0.63165668020E+03  0.12699999809E+01 0.  1.
</event>
<event>
 5   0  0.3631841E-05  0.1300307E+04  0.7818609E-02  0.9029322E-01
        1   -1    0    0  501    0  0.00000000000E+00  0.00000000000E+00  0.13162370166E+04  0.13162370166E+04  0.50400001928E-02 0.  1.
       -1   -1    0    0    0  501  0.00000000000E+00  0.00000000000E+00 -0.32114254754E+03  0.32114254758E+03  0.50400001928E-02 0. -1.
    10030    2    1    2    0    0  0.00000000000E+00  0.00000000000E+00  0.99509446904E+03  0.16373795642E+04  0.13003072079E+04 0.  0.
        3    1    3    3  502    0 -0.48666792113E+03  0.35299632916E+03  0.80918352129E+03  0.10080823653E+04  0.10100000352E+00 0.  1.
       -3    1    3    3    0  502  0.48666792113E+03 -0.35299632916E+03  0.18591094775E+03  0.62929719890E+03  0.10100000352E+00 0. -1.
</event>
<event>
 5   0  0.2512000E-05  0.1302714E+04  0.7818609E-02  0.9027416E-01
       -3   -1    0    0    0  501  0.00000000000E+00  0.00000000000E+00  0.29673190554E+03  0.29673192273E+03  0.10100000352E+00 0.  1.
        3   -1    0    0  501    0  0.00000000000E+00  0.00000000000E+00 -0.14297943748E+04  0.14297943784E+04  0.10100000352E+00 0. -1.
    10030    2    1    2    0    0  0.00000000000E+00  0.00000000000E+00 -0.11330624693E+04  0.17265263011E+04  0.13027135177E+04 0.  0.
        3    1    3    3  502    0 -0.17182314220E+03  0.50964704336E+03 -0.79569440815E+02  0.54368612923E+03  0.10100000352E+00 0.  1.
       -3    1    3    3    0  502  0.17182314220E+03 -0.50964704336E+03 -0.10534930285E+04  0.11828401719E+04  0.10100000352E+00 0. -1.
</event>
<event>
 5   0  0.3552698E-05  0.1300068E+04  0.7818609E-02  0.9029511E-01
        1   -1    0    0  501    0  0.00000000000E+00  0.00000000000E+00  0.14487893411E+04  0.14487893411E+04  0.50400001928E-02 0. -1.
       -1   -1    0    0    0  501  0.00000000000E+00  0.00000000000E+00 -0.29165350732E+03  0.29165350736E+03  0.50400001928E-02 0.  1.
    10030    2    1    2    0    0  0.00000000000E+00  0.00000000000E+00  0.11571358338E+04  0.17404428485E+04  0.13000684486E+04 0.  0.
        5    1    3    3  502    0 -0.22564456962E+03  0.41129734201E+03 -0.23774217716E+02  0.46975342337E+03  0.46999998093E+01 0.  1.
       -5    1    3    3    0  502  0.22564456962E+03 -0.41129734201E+03  0.11809100515E+04  0.12706894251E+04  0.46999998093E+01 0. -1.
</event>
<event>
 5   0  0.3689707E-05  0.1299398E+04  0.7818609E-02  0.9030043E-01
       -1   -1    0    0    0  501  0.00000000000E+00  0.00000000000E+00  0.47235361219E+03  0.47235361222E+03  0.50400001928E-02 0. -1.
        1   -1    0    0  501    0  0.00000000000E+00  0.00000000000E+00 -0.89362824336E+03  0.89362824338E+03  0.50400001928E-02 0.  1.
    10030    2    1    2    0    0  0.00000000000E+00  0.00000000000E+00 -0.42127463117E+03  0.13659818556E+04  0.12993975969E+04 0.  0.
        1    1    3    3  502    0 -0.33070487204E+03 -0.28778381863E+03  0.29343675034E+03  0.52753233562E+03  0.50400001928E-02 0. -1.
       -1    1    3    3    0  502  0.33070487204E+03  0.28778381863E+03 -0.71471138151E+03  0.83844951997E+03  0.50400001928E-02 0.  1.
</event>
<event>
 5   0  0.2512000E-05  0.1299794E+04  0.7818609E-02  0.9029728E-01
        3   -1    0    0  501    0  0.00000000000E+00  0.00000000000E+00  0.54520354686E+03  0.54520355621E+03  0.10100000352E+00 0.  1.
       -3   -1    0    0    0  501  0.00000000000E+00  0.00000000000E+00 -0.77469440216E+03  0.77469440874E+03  0.10100000352E+00 0. -1.
    10030    2    1    2    0    0  0.00000000000E+00  0.00000000000E+00 -0.22949085530E+03  0.13198979650E+04  0.12997940549E+04 0.  0.
        2    1    3    3  502    0 -0.32693278576E+03  0.35457995815E+03  0.32759991402E+03  0.58303833219E+03  0.25500000920E-02 0.  1.
       -2    1    3    3    0  502  0.32693278576E+03 -0.35457995815E+03 -0.55709076933E+03  0.73685963277E+03  0.25500000920E-02 0. -1.
</event>
<event>
 5   0  0.6671239E-05  0.1300293E+04  0.7818609E-02  0.9029333E-01
        2   -1    0    0  501    0  0.00000000000E+00  0.00000000000E+00  0.33085124370E+03  0.33085124371E+03  0.25500000920E-02 0.  1.
       -2   -1    0    0    0  501  0.00000000000E+00  0.00000000000E+00 -0.12775845049E+04  0.12775845049E+04  0.25500000920E-02 0. -1.
    10030    2    1    2    0    0  0.00000000000E+00  0.00000000000E+00 -0.94673326124E+03  0.16084357486E+04  0.13002929245E+04 0.  0.
        1    1    3    3  502    0  0.49392947948E+03  0.41544596297E+03 -0.37652808881E+03  0.74721822819E+03  0.50400001928E-02 0. -1.
       -1    1    3    3    0  502 -0.49392947948E+03 -0.41544596297E+03 -0.57020517243E+03  0.86121752046E+03  0.50400001928E-02 0.  1.
</event>
<event>
 5   0  0.3689707E-05  0.1300368E+04  0.7818609E-02  0.9029273E-01
        1   -1    0    0  501    0  0.00000000000E+00  0.00000000000E+00  0.31336034100E+03  0.31336034104E+03  0.50400001928E-02 0. -1.
       -1   -1    0    0    0  501  0.00000000000E+00  0.00000000000E+00 -0.13490514910E+04  0.13490514911E+04  0.50400001928E-02 0.  1.
    10030    2    1    2    0    0  0.00000000000E+00  0.00000000000E+00 -0.10356911500E+04  0.16624118321E+04  0.13003680022E+04 0.  0.
        1    1    3    3  502    0  0.64301985406E+03  0.10518094550E+02 -0.39553063266E+03  0.75500307577E+03  0.50400001928E-02 0. -1.
       -1    1    3    3    0  502 -0.64301985406E+03 -0.10518094550E+02 -0.64016051738E+03  0.90740875633E+03  0.50400001928E-02 0.  1.
</event>
<event>
 5   0  0.6742824E-05  0.1300125E+04  0.7818609E-02  0.9029466E-01
        2   -1    0    0  501    0  0.00000000000E+00  0.00000000000E+00  0.20014235670E+03  0.20014235671E+03  0.25500000920E-02 0. -1.
       -2   -1    0    0    0  501  0.00000000000E+00  0.00000000000E+00 -0.21114040565E+04  0.21114040565E+04  0.25500000920E-02 0.  1.
    10030    2    1    2    0    0  0.00000000000E+00  0.00000000000E+00 -0.19112616998E+04  0.23115464132E+04  0.13001251999E+04 0.  0.
        4    1    3    3  502    0 -0.25615148310E+03  0.58237350570E+03 -0.11928863774E+04  0.13519437876E+04  0.12699999809E+01 0.  1.
       -4    1    3    3    0  502  0.25615148310E+03 -0.58237350570E+03 -0.71837532241E+03  0.95960262566E+03  0.12699999809E+01 0. -1.
</event>
<event>
 5   0  0.6688086E-05  0.1300770E+04  0.7818609E-02  0.9028955E-01
        2   -1    0    0  501    0  0.00000000000E+00  0.00000000000E+00  0.11094603490E+04  0.11094603490E+04  0.25500000920E-02 0. -1.
       -2   -1    0    0    0  501  0.00000000000E+00  0.00000000000E+00 -0.38126704394E+03  0.38126704395E+03  0.25500000920E-02 0.  1.
    10030    2    1    2    0    0  0.00000000000E+00  0.00000000000E+00  0.72819330505E+03  0.14907273929E+04  0.13007700298E+04 0.  0.
        5    1    3    3  502    0  0.34973486225E+03 -0.52935713866E+03  0.20022924644E+03  0.66531743946E+03  0.46999998093E+01 0. -1.
       -5    1    3    3    0  502 -0.34973486225E+03  0.52935713866E+03  0.52796405861E+03  0.82540995348E+03  0.46999998093E+01 0.  1.
</event>
<event>
 5   0  0.3718559E-05  0.1299628E+04  0.7818609E-02  0.9029860E-01
        1   -1    0    0  501    0  0.00000000000E+00  0.00000000000E+00  0.11626017172E+04  0.11626017172E+04  0.50400001928E-02 0. -1.
       -1   -1    0    0    0  501  0.00000000000E+00  0.00000000000E+00 -0.36320117798E+03  0.36320117801E+03  0.50400001928E-02 0.  1.
    10030    2    1    2    0    0  0.00000000000E+00  0.00000000000E+00  0.79940053919E+03  0.15258028952E+04  0.12996281210E+04 0.  0.
        2    1    3    3  502    0 -0.16791220477E+03  0.63145909727E+01  0.11366547003E+04  0.11490075240E+04  0.25500000920E-02 0. -1.
       -2    1    3    3    0  502  0.16791220477E+03 -0.63145909727E+01 -0.33725416108E+03  0.37679537118E+03  0.25500000920E-02 0.  1.
</event>
<event>
 5   0  0.3689707E-05  0.1299982E+04  0.7818609E-02  0.9029580E-01
       -1   -1    0    0    0  501  0.00000000000E+00  0.00000000000E+00  0.92335074822E+03  0.92335074823E+03  0.50400001928E-02 0. -1.
        1   -1    0    0  501    0  0.00000000000E+00  0.00000000000E+00 -0.45755974122E+03  0.45755974124E+03  0.50400001928E-02 0.  1.
    10030    2    1    2    0    0  0.00000000000E+00  0.00000000000E+00  0.46579100700E+03  0.13809104895E+04  0.12999817375E+04 0.  0.
        1    1    3    3  502    0 -0.76980844784E+01  0.58016745720E+03 -0.78318726934E+02  0.58548045391E+03  0.50400001928E-02 0.  1.
       -1    1    3    3    0  502  0.76980844784E+01 -0.58016745720E+03  0.54410973393E+03  0.79543003557E+03  0.50400001928E-02 0. -1.
</event>
<event>
 5   0  0.6618060E-05  0.1300381E+04  0.7818609E-02  0.9029263E-01
       -2   -1    0    0    0  501  0.00000000000E+00  0.00000000000E+00  0.32074583115E+03  0.32074583116E+03  0.25500000920E-02 0. -1.
        2   -1    0    0  501    0  0.00000000000E+00  0.00000000000E+00 -0.13180140098E+04  0.13180140098E+04  0.25500000920E-02 0.  1.
    10030    2    1    2    0    0  0.00000000000E+00  0.00000000000E+00 -0.99726817862E+03  0.16387598409E+04  0.13003807120E+04 0.  0.
        2    1    3    3  502    0  0.20594999984E+03  0.90409748585E+02 -0.12674255921E+04  0.12872284011E+04  0.25500000920E-02 0.  1.
       -2    1    3    3    0  502 -0.20594999984E+03 -0.90409748585E+02  0.27015741352E+03  0.35153143979E+03  0.25500000920E-02 0. -1.
</event>
<event>
 5   0  0.3631841E-05  0.1299524E+04  0.7818609E-02  0.9029943E-01
        1   -1    0    0  501    0  0.00000000000E+00  0.00000000000E+00  0.22638097417E+04  0.22638097417E+04  0.50400001928E-02 0. -1.
       -1   -1    0    0    0  501  0.00000000000E+00  0.00000000000E+00 -0.18649569216E+03  0.18649569223E+03  0.50400001928E-02 0.  1.
    10030    2    1    2    0    0  0.00000000000E+00  0.00000000000E+00  0.20773140496E+04  0.24503054340E+04  0.12995241664E+04 0.  0.
        3    1    3    3  502    0 -0.18933217773E+03 -0.60164045464E+03  0.74429012700E+03  0.97559505612E+03  0.10100000352E+00 0.  1.
       -3    1    3    3    0  502  0.18933217773E+03  0.60164045464E+03  0.13330239226E+04  0.14747103778E+04  0.10100000352E+00 0. -1.
</event>
<event>
 5   0  0.3631841E-05  0.1300034E+04  0.7818609E-02  0.9029538E-01
       -1   -1    0    0    0  501  0.00000000000E+00  0.00000000000E+00  0.49062685852E+03  0.49062685855E+03  0.50400001928E-02 0. -1.
        1   -1    0    0  501    0  0.00000000000E+00  0.00000000000E+00 -0.86118809914E+03  0.86118809915E+03  0.50400001928E-02 0.  1.
    10030    2    1    2    0    0  0.00000000000E+00  0.00000000000E+00 -0.37056124061E+03  0.13518149577E+04  0.13000338637E+04 0.  0.
        3    1    3    3  502    0  0.26290770071E+03 -0.41256049604E+03 -0.63034192876E+03  0.79790825246E+03  0.10100000352E+00 0.  1.
       -3    1    3    3    0  502 -0.26290770071E+03  0.41256049604E+03  0.25978068815E+03  0.55390670525E+03  0.10100000352E+00 0. -1.
</event>
<event>
 5   0  0.6618060E-05  0.1299958E+04  0.7818609E-02  0.9029598E-01
       -2   -1    0    0    0  501  0.00000000000E+00  0.00000000000E+00  0.31074091187E+03  0.31074091188E+03  0.25500000920E-02 0.  1.
        2   -1    0    0  501    0  0.00000000000E+00  0.00000000000E+00 -0.13595658498E+04  0.13595658498E+04  0.25500000920E-02 0. -1.
    10030    2    1    2    0    0  0.00000000000E+00  0.00000000000E+00 -0.10488249379E+04  0.16703067616E+04  0.12999580484E+04 0.  0.
        2    1    3    3  502    0  0.83381775742E+00  0.79379372193E+02 -0.13533136987E+04  0.13556399769E+04  0.25500000920E-02 0. -1.
       -2    1    3    3    0  502 -0.83381775742E+00 -0.79379372193E+02  0.30448876077E+03  0.31466678475E+03  0.25500000920E-02 0.  1.
</event>
<event>
 5   0  0.3552698E-05  0.1300245E+04  0.7818609E-02  0.9029371E-01
       -1   -1    0    0    0  501  0.00000000000E+00  0.00000000000E+00  0.77791462336E+03  0.77791462337E+03  0.50400001928E-02 0. -1.
        1   -1    0    0  501    0  0.00000000000E+00  0.00000000000E+00 -0.54332336875E+03  0.54332336877E+03  0.50400001928E-02 0.  1.
    10030    2    1    2    0    0  0.00000000000E+00  0.00000000000E+00  0.23459125461E+03  0.13212379921E+04  0.13002448905E+04 0.  0.
        5    1    3    3  502    0 -0.64282516748E+03 -0.94433379398E+02  0.13990902486E+03  0.66463409807E+03  0.46999998093E+01 0.  1.
       -5    1    3    3    0  502  0.64282516748E+03  0.94433379398E+02  0.94682229749E+02  0.65660389407E+03  0.46999998093E+01 0. -1.
</event>
<event>
 5   0  0.6458698E-05  0.1300068E+04  0.7818609E-02  0.9029511E-01
        2   -1    0    0  501    0  0.00000000000E+00  0.00000000000E+00  0.58820711405E+03  0.58820711406E+03  0.25500000920E-02 0. -1.
       -2   -1    0    0    0  501  0.00000000000E+00  0.00000000000E+00 -0.71835939932E+03  0.71835939933E+03  0.25500000920E-02 0.  1.
    10030    2    1    2    0    0  0.00000000000E+00  0.00000000000E+00 -0.13015228527E+03  0.13065665134E+04  0.13000678584E+04 0.  0.
        3    1    3    3  502    0 -0.19302880078E+03 -0.12588895461E+03  0.54577456374E+03  0.59243398910E+03  0.10100000352E+00 0. -1.
       -3    1    3    3    0  502  0.19302880078E+03  0.12588895461E+03 -0.67592684901E+03  0.71413252428E+03  0.10100000352E+00 0.  1.
</event>
<event>
 5   0  0.6458698E-05  0.1300334E+04  0.7818609E-02  0.9029301E-01
       -2   -1    0    0    0  501  0.00000000000E+00  0.00000000000E+00  0.23627435609E+03  0.23627435610E+03  0.25500000920E-02 0. -1.
        2   -1    0    0  501    0  0.00000000000E+00  0.00000000000E+00 -0.17890931196E+04  0.17890931196E+04  0.25500000920E-02 0.  1.
    10030    2    1    2    0    0  0.00000000000E+00  0.00000000000E+00 -0.15528187635E+04  0.20253674757E+04  0.13003335339E+04 0.  0.
        3    1    3    3  502    0 -0.35754458163E+03  0.43781781867E+03 -0.12767627259E+04  0.13962971169E+04  0.10100000352E+00 0.  1.
       -3    1    3    3    0  502  0.35754458163E+03 -0.43781781867E+03 -0.27605603757E+03  0.62907035876E+03  0.10100000352E+00 0. -1.
</event>
<event>
 5   0  0.6618060E-05  0.1299057E+04  0.7818609E-02  0.9030313E-01
       -2   -1    0    0    0  501  0.00000000000E+00  0.00000000000E+00  0.15443082799E+03  0.15443082801E+03  0.25500000920E-02 0.  1.
        2   -1    0    0  501    0  0.00000000000E+00  0.00000000000E+00 -0.27318870918E+04  0.27318870918E+04  0.25500000920E-02 0. -1.
    10030    2    1    2    0    0  0.00000000000E+00  0.00000000000E+00 -0.25774562639E+04  0.28863179199E+04  0.12990574823E+04 0.  0.
        2    1    3    3  502    0 -0.64110529469E+02  0.64266935628E+03 -0.14419157445E+04  0.15799541373E+04  0.25500000920E-02 0.  1.
       -2    1    3    3    0  502  0.64110529469E+02 -0.64266935628E+03 -0.11355405193E+04  0.13063637826E+04  0.25500000920E-02 0. -1.
</event>
<event>
 5   0  0.3551277E-05  0.1301570E+04  0.7818609E-02  0.9028321E-01
       -1   -1    0    0    0  501  0.00000000000E+00  0.00000000000E+00  0.11967097870E+04  0.11967097870E+04  0.50400001928E-02 0.  1.
        1   -1    0    0  501    0  0.00000000000E+00  0.00000000000E+00 -0.35390444268E+03  0.35390444272E+03  0.50400001928E-02 0. -1.
    10030    2    1    2    0    0  0.00000000000E+00  0.00000000000E+00  0.84280534433E+03  0.15506142297E+04  0.13015696835E+04 0.  0.
        4    1    3    3  502    0  0.53361164321E+03  0.33581663002E+03  0.22928574728E+03  0.67088580367E+03  0.12699999809E+01 0. -1.
       -4    1    3    3    0  502 -0.53361164321E+03 -0.33581663002E+03  0.61351959704E+03  0.87972842606E+03  0.12699999809E+01 0.  1.
</event>
<event>
 5   0  0.6671239E-05  0.1300166E+04  0.7818609E-02  0.9029434E-01
        2   -1    0    0  501    0  0.00000000000E+00  0.00000000000E+00  0.10279660840E+04  0.10279660840E+04  0.25500000920E-02 0. -1.
       -2   -1    0    0    0  501  0.00000000000E+00  0.00000000000E+00 -0.41111056020E+03  0.41111056021E+03  0.25500000920E-02 0.  1.
    10030    2    1    2    0    0  0.00000000000E+00  0.00000000000E+00  0.61685552380E+03  0.14390766442E+04  0.13001657012E+04 0.  0.
        1    1    3    3  502    0 -0.68817050494E+02  0.56304341727E+03  0.65993304923E+03  0.87020992046E+03  0.50400001928E-02 0. -1.
       -1    1    3    3    0  502  0.68817050494E+02 -0.56304341727E+03 -0.43077525428E+02  0.56886672375E+03  0.50400001928E-02 0.  1.
</event>
<event>
 5   0  0.6618060E-05  0.1300146E+04  0.7818609E-02  0.9029450E-01
        2   -1    0    0  501    0  0.00000000000E+00  0.00000000000E+00  0.15099388276E+04  0.15099388276E+04  0.25500000920E-02 0. -1.
       -2   -1    0    0    0  501  0.00000000000E+00  0.00000000000E+00 -0.27987537167E+03  0.27987537168E+03  0.25500000920E-02 0.  1.
    10030    2    1    2    0    0  0.00000000000E+00  0.00000000000E+00  0.12300634559E+04  0.17898141993E+04  0.13001456697E+04 0.  0.
        2    1    3    3  502    0 -0.60127282459E+03 -0.86084175935E+02  0.29615573297E+03  0.67575714063E+03  0.25500000920E-02 0. -1.
       -2    1    3    3    0  502  0.60127282459E+03  0.86084175935E+02  0.93390772298E+03  0.11140570587E+04  0.25500000920E-02 0.  1.
</event>
<event>
 5   0  0.6671239E-05  0.1300116E+04  0.7818609E-02  0.9029473E-01
       -2   -1    0    0    0  501  0.00000000000E+00  0.00000000000E+00  0.25442046697E+03  0.25442046699E+03  0.25500000920E-02 0.  1.
        2   -1    0    0  501    0  0.00000000000E+00  0.00000000000E+00 -0.16609331391E+04  0.16609331391E+04  0.25500000920E-02 0. -1.
    10030    2    1    2    0    0  0.00000000000E+00  0.00000000000E+00 -0.14065126721E+04  0.19153536061E+04  0.13001159715E+04 0.  0.
        1    1    3    3  502    0 -0.38232374598E+03  0.21921076766E+03 -0.14072486656E+04  0.14746435550E+04  0.50400001928E-02 0. -1.
       -1    1    3    3    0  502  0.38232374598E+03 -0.21921076766E+03  0.73599351286E+00  0.44071005106E+03  0.50400001928E-02 0.  1.
</event>
<event>
 5   0  0.6458698E-05  0.1300128E+04  0.7818609E-02  0.9029464E-01
        2   -1    0    0  501    0  0.00000000000E+00  0.00000000000E+00  0.80643423788E+03  0.80643423788E+03  0.25500000920E-02 0.  1.
       -2   -1    0    0    0  501  0.00000000000E+00  0.00000000000E+00 -0.52401449596E+03  0.52401449597E+03  0.25500000920E-02 0. -1.
    10030    2    1    2    0    0  0.00000000000E+00  0.00000000000E+00  0.28241974191E+03  0.13304487338E+04  0.13001280409E+04 0.  0.
        3    1    3    3  502    0 -0.20993514756E+03 -0.50429385395E+03 -0.21942656785E+03  0.58867060925E+03  0.10100000352E+00 0. -1.
       -3    1    3    3    0  502  0.20993514756E+03  0.50429385395E+03  0.50184630976E+03  0.74177812460E+03  0.10100000352E+00 0.  1.
</event>
<event>
 5   0  0.3718559E-05  0.1299828E+04  0.7818609E-02  0.9029702E-01
        1   -1    0    0  501    0  0.00000000000E+00  0.00000000000E+00  0.82816867819E+03  0.82816867820E+03  0.50400001928E-02 0. -1.
       -1   -1    0    0    0  501  0.00000000000E+00  0.00000000000E+00 -0.51002651584E+03  0.51002651587E+03  0.50400001928E-02 0.  1.
    10030    2    1    2    0    0  0.00000000000E+00  0.00000000000E+00  0.31814216235E+03  0.13381951941E+04  0.12998276586E+04 0.  0.
        2    1    3    3  502    0  0.67045491580E+02  0.15517303396E+03  0.80514080145E+03  0.82269403704E+03  0.25500000920E-02 0. -1.
       -2    1    3    3    0  502 -0.67045491580E+02 -0.15517303396E+03 -0.48699863910E+03  0.51550115704E+03  0.25500000920E-02 0.  1.
</event>
<event>
 5   0  0.6458698E-05  0.1299228E+04  0.7818609E-02  0.9030177E-01
        2   -1    0    0  501    0  0.00000000000E+00  0.00000000000E+00  0.72028290781E+03  0.72028290782E+03  0.25500000920E-02 0.  1.
       -2   -1    0    0    0  501  0.00000000000E+00  0.00000000000E+00 -0.58587881465E+03  0.58587881466E+03  0.25500000920E-02 0. -1.
    10030    2    1    2    0    0  0.00000000000E+00  0.00000000000E+00  0.13440409316E+03  0.13061617225E+04  0.12992282267E+04 0.  0.
        3    1    3    3  502    0 -0.94846493994E+02  0.39289558531E+03  0.57847842746E+03  0.70569122115E+03  0.10100000352E+00 0.  1.
       -3    1    3    3    0  502  0.94846493994E+02 -0.39289558531E+03 -0.44407433429E+03  0.60047050132E+03  0.10100000352E+00 0. -1.
</event>
<event>
 5   0  0.6742824E-05  0.1300844E+04  0.7818609E-02  0.9028896E-01
       -2   -1    0    0    0  501  0.00000000000E+00  0.00000000000E+00  0.24943832959E+03  0.24943832960E+03  0.25500000920E-02 0.  1.
        2   -1    0    0  501    0  0.00000000000E+00  0.00000000000E+00 -0.16960056823E+04  0.16960056823E+04  0.25500000920E-02 0. -1.
    10030    2    1    2    0    0  0.00000000000E+00  0.00000000000E+00 -0.14465673527E+04  0.19454440119E+04  0.13008440712E+04 0.  0.
        4    1    3    3  502    0  0.19431422291E+02 -0.64862133668E+03 -0.78949324318E+03  0.10219532340E+04  0.12699999809E+01 0. -1.
       -4    1    3    3    0  502 -0.19431422291E+02  0.64862133668E+03 -0.65707410956E+03  0.92349077793E+03  0.12699999809E+01 0.  1.
</event>
<event>
 5   0  0.3689707E-05  0.1299235E+04  0.7818609E-02  0.9030172E-01
       -1   -1    0    0    0  501  0.00000000000E+00  0.00000000000E+00  0.58062498885E+03  0.58062498887E+03  0.50400001928E-02 0. -1.
        1   -1    0    0  501    0  0.00000000000E+00  0.00000000000E+00 -0.72680789366E+03  0.72680789367E+03  0.50400001928E-02 0.  1.
    10030    2    1    2    0    0  0.00000000000E+00  0.00000000000E+00 -0.14618290481E+03  0.13074328825E+04  0.12992348905E+04 0.  0.
        1    1    3    3  502    0 -0.11595661318E+02 -0.60439799645E+03 -0.31243972535E+03  0.68047775825E+03  0.50400001928E-02 0.  1.
       -1    1    3    3    0  502  0.11595661318E+02  0.60439799645E+03  0.16625682055E+03  0.62695512429E+03  0.50400001928E-02 0. -1.
</event>
<event>
 5   0  0.3718559E-05  0.1300159E+04  0.7818609E-02  0.9029439E-01
        1   -1    0    0  501    0  0.00000000000E+00  0.00000000000E+00  0.66196401061E+03  0.66196401063E+03  0.50400001928E-02 0. -1.
       -1   -1    0    0    0  501  0.00000000000E+00  0.00000000000E+00 -0.63840834090E+03  0.63840834092E+03  0.50400001928E-02 0.  1.
    10030    2    1    2    0    0  0.00000000000E+00  0.00000000000E+00  0.23555669711E+02  0.13003723516E+04  0.13001589838E+04 0.  0.
        2    1    3    3  502    0 -0.25517641571E+03 -0.58587859773E+03 -0.10755063533E+03  0.64802459334E+03  0.25500000920E-02 0.  1.
       -2    1    3    3    0  502  0.25517641571E+03  0.58587859773E+03  0.13110630504E+03  0.65234775821E+03  0.25500000920E-02 0. -1.
</event>
<event>
 5   0  0.3552698E-05  0.1300047E+04  0.7818609E-02  0.9029528E-01
        1   -1    0    0  501    0  0.00000000000E+00  0.00000000000E+00  0.20270076150E+04  0.20270076150E+04  0.50400001928E-02 0. -1.
       -1   -1    0    0    0  501  0.00000000000E+00  0.00000000000E+00 -0.20845053653E+03  0.20845053659E+03  0.50400001928E-02 0.  1.
    10030    2    1    2    0    0  0.00000000000E+00  0.00000000000E+00  0.18185570785E+04  0.22354581516E+04  0.13000474222E+04 0.  0.
        5    1    3    3  502    0  0.33203728773E+03 -0.41121377737E+03  0.25866506376E+03  0.58845155820E+03  0.46999998093E+01 0.  1.
       -5    1    3    3    0  502 -0.33203728773E+03  0.41121377737E+03  0.15598920147E+04  0.16470065934E+04  0.46999998093E+01 0. -1.
</event>
<event>
 5   0  0.2512000E-05  0.1292703E+04  0.7818609E-02  0.9035372E-01
       -3   -1    0    0    0  501  0.00000000000E+00  0.00000000000E+00  0.63393204712E+03  0.63393205516E+03  0.10100000352E+00 0.  1.
        3   -1    0    0  501    0  0.00000000000E+00  0.00000000000E+00 -0.65901413943E+03  0.65901414717E+03  0.10100000352E+00 0. -1.
    10030    2    1    2    0    0  0.00000000000E+00  0.00000000000E+00 -0.25082092314E+02  0.12929462023E+04  0.12927028935E+04 0.  0.
        2    1    3    3  502    0  0.12929579284E+03  0.36202299005E+03 -0.53224652928E+03  0.65655495986E+03  0.25500000920E-02 0. -1.
       -2    1    3    3    0  502 -0.12929579284E+03 -0.36202299005E+03  0.50716443697E+03  0.63639124248E+03  0.25500000920E-02 0.  1.
</event>
<event>
 5   0  0.3631841E-05  0.1300061E+04  0.7818609E-02  0.9029516E-01
       -1   -1    0    0    0  501  0.00000000000E+00  0.00000000000E+00  0.17433539579E+03  0.17433539587E+03  0.50400001928E-02 0.  1.
        1   -1    0    0  501    0  0.00000000000E+00  0.00000000000E+00 -0.24237186043E+04  0.24237186043E+04  0.50400001928E-02 0. -1.
    10030    2    1    2    0    0  0.00000000000E+00  0.00000000000E+00 -0.22493832085E+04  0.25980540002E+04  0.13000614482E+04 0.  0.
        3    1    3    3  502    0 -0.91509009806E+02  0.54806327702E+03 -0.17988181854E+04  0.18826826947E+04  0.10100000352E+00 0. -1.
       -3    1    3    3    0  502  0.91509009806E+02 -0.54806327702E+03 -0.45056502312E+03  0.71537130551E+03  0.10100000352E+00 0.  1.
</event>
<event>
 5   0  0.6742824E-05  0.1300433E+04  0.7818609E-02  0.9029222E-01
       -2   -1    0    0    0  501  0.00000000000E+00  0.00000000000E+00  0.99705379612E+03  0.99705379612E+03  0.25500000920E-02 0. -1.
        2   -1    0    0  501    0  0.00000000000E+00  0.00000000000E+00 -0.42403089115E+03  0.42403089116E+03  0.25500000920E-02 0.  1.
    10030    2    1    2    0    0  0.00000000000E+00  0.00000000000E+00  0.57302290496E+03  0.14210846873E+04  0.13004331735E+04 0.  0.
        4    1    3    3  502    0  0.15187292354E+03 -0.18910169477E+02 -0.40406629542E+03  0.43208120002E+03  0.12699999809E+01 0.  1.
       -4    1    3    3    0  502 -0.15187292354E+03  0.18910169477E+02  0.97708920038E+03  0.98900348726E+03  0.12699999809E+01 0. -1.
</event>
<event>
 5   0  0.3689707E-05  0.1302493E+04  0.7818609E-02  0.9027591E-01
        1   -1    0    0  501    0  0.00000000000E+00  0.00000000000E+00  0.20945844581E+04  0.20945844581E+04  0.50400001928E-02 0. -1.
       -1   -1    0    0    0  501  0.00000000000E+00  0.00000000000E+00 -0.20248504200E+03  0.20248504206E+03  0.50400001928E-02 0.  1.
    10030    2    1    2    0    0  0.00000000000E+00  0.00000000000E+00  0.18920994161E+04  0.22970695002E+04  0.13024930281E+04 0.  0.
        1    1    3    3  502    0 -0.31842946758E+03  0.12332795784E+03  0.19240338610E+04  0.19541016885E+04  0.50400001928E-02 0. -1.
       -1    1    3    3    0  502  0.31842946758E+03 -0.12332795784E+03 -0.31934444872E+02  0.34296781161E+03  0.50400001928E-02 0.  1.
</event>
<event>
 5   0  0.6688086E-05  0.1300212E+04  0.7818609E-02  0.9029397E-01
        2   -1    0    0  501    0  0.00000000000E+00  0.00000000000E+00  0.96559661517E+03  0.96559661517E+03  0.25500000920E-02 0. -1.
       -2   -1    0    0    0  501  0.00000000000E+00  0.00000000000E+00 -0.43769625835E+03  0.43769625836E+03  0.25500000920E-02 0.  1.
    10030    2    1    2    0    0  0.00000000000E+00  0.00000000000E+00  0.52790035682E+03  0.14032928735E+04  0.13002123297E+04 0.  0.
        5    1    3    3  502    0  0.10762297195E+03  0.27567311114E+03 -0.36076318035E+03  0.46663747234E+03  0.46999998093E+01 0.  1.
       -5    1    3    3    0  502 -0.10762297195E+03 -0.27567311114E+03  0.88866353717E+03  0.93665540119E+03  0.46999998093E+01 0. -1.
</event>
<event>
 5   0  0.6688086E-05  0.1299985E+04  0.7818609E-02  0.9029577E-01
       -2   -1    0    0    0  501  0.00000000000E+00  0.00000000000E+00  0.47583613775E+03  0.47583613776E+03  0.25500000920E-02 0.  1.
        2   -1    0    0  501    0  0.00000000000E+00  0.00000000000E+00 -0.88789078971E+03  0.88789078971E+03  0.25500000920E-02 0. -1.
    10030    2    1    2    0    0  0.00000000000E+00  0.00000000000E+00 -0.41205465196E+03  0.13637269275E+04  0.12999854216E+04 0.  0.
        5    1    3    3  502    0  0.45316626123E+02  0.20257344178E+02  0.47382704491E+03  0.47644319188E+03  0.46999998093E+01 0.  1.
       -5    1    3    3    0  502 -0.45316626123E+02 -0.20257344178E+02 -0.88588169687E+03  0.88728373559E+03  0.46999998093E+01 0. -1.
</event>
<event>
 5   0  0.6688086E-05  0.1300290E+04  0.7818609E-02  0.9029335E-01
       -2   -1    0    0    0  501  0.00000000000E+00  0.00000000000E+00  0.42710651994E+03  0.42710651995E+03  0.25500000920E-02 0.  1.
        2   -1    0    0  501    0  0.00000000000E+00  0.00000000000E+00 -0.98965601071E+03  0.98965601071E+03  0.25500000920E-02 0. -1.
    10030    2    1    2    0    0  0.00000000000E+00  0.00000000000E+00 -0.56254949077E+03  0.14167625307E+04  0.13002900210E+04 0.  0.
        5    1    3    3  502    0 -0.49736342842E+03 -0.41720636015E+03 -0.31956390708E+03  0.72358462365E+03  0.46999998093E+01 0. -1.
       -5    1    3    3    0  502  0.49736342842E+03  0.41720636015E+03 -0.24298558368E+03  0.69317790700E+03  0.46999998093E+01 0.  1.
</event>
<event>
 5   0  0.6618060E-05  0.1300345E+04  0.7818609E-02  0.9029292E-01
       -2   -1    0    0    0  501  0.00000000000E+00  0.00000000000E+00  0.68444229429E+03  0.68444229429E+03  0.25500000920E-02 0.  1.
        2   -1    0    0  501    0  0.00000000000E+00  0.00000000000E+00 -0.61761857125E+03  0.61761857125E+03  0.25500000920E-02 0. -1.
    10030    2    1    2    0    0  0.00000000000E+00  0.00000000000E+00  0.66823723040E+02  0.13020608655E+04  0.13003449879E+04 0.  0.
        2    1    3    3  502    0  0.15706173173E+03  0.55049731910E+03 -0.27522949938E+03  0.63519049367E+03  0.25500000920E-02 0. -1.
       -2    1    3    3    0  502 -0.15706173173E+03 -0.55049731910E+03  0.34205322242E+03  0.66687037188E+03  0.25500000920E-02 0.  1.
</event>
<event>
 5   0  0.3551277E-05  0.1299988E+04  0.7818609E-02  0.9029575E-01
       -1   -1    0    0    0  501  0.00000000000E+00  0.00000000000E+00  0.12970797762E+04  0.12970797762E+04  0.50400001928E-02 0. -1.
        1   -1    0    0  501    0  0.00000000000E+00  0.00000000000E+00 -0.32572544059E+03  0.32572544063E+03  0.50400001928E-02 0.  1.
    10030    2    1    2    0    0  0.00000000000E+00  0.00000000000E+00  0.97135433561E+03  0.16228052168E+04  0.12999875101E+04 0.  0.
        4    1    3    3  502    0 -0.36151894357E+03 -0.28661251547E+03  0.10572507538E+04  0.11535265276E+04  0.12699999809E+01 0. -1.
       -4    1    3    3    0  502  0.36151894357E+03  0.28661251547E+03 -0.85896418223E+02  0.46927868921E+03  0.12699999809E+01 0.  1.
</event>
<event>
 5   0  0.6671239E-05  0.1299514E+04  0.7818609E-02  0.9029951E-01
        2   -1    0    0  501    0  0.00000000000E+00  0.00000000000E+00  0.18267707791E+04  0.18267707791E+04  0.25500000920E-02 0.  1.
       -2   -1    0    0    0  501  0.00000000000E+00  0.00000000000E+00 -0.23110960022E+03  0.23110960023E+03  0.25500000920E-02 0. -1.
    10030    2    1    2    0    0  0.00000000000E+00  0.00000000000E+00  0.15956611789E+04  0.20578803793E+04  0.12995141622E+04 0.  0.
        1    1    3    3  502    0  0.41609169091E+03  0.14810389360E+03  0.15525128262E+04  0.16141137302E+04  0.50400001928E-02 0.  1.
       -1    1    3    3    0  502 -0.41609169091E+03 -0.14810389360E+03  0.43148352737E+02  0.44376664917E+03  0.50400001928E-02 0. -1.
</event>
<event>
 5   0  0.6688086E-05  0.1302146E+04  0.7818609E-02  0.9027865E-01
        2   -1    0    0  501    0  0.00000000000E+00  0.00000000000E+00  0.84825324956E+03  0.84825324957E+03  0.25500000920E-02 0.  1.
       -2   -1    0    0    0  501  0.00000000000E+00  0.00000000000E+00 -0.49972843134E+03  0.49972843134E+03  0.25500000920E-02 0. -1.
    10030    2    1    2    0    0  0.00000000000E+00  0.00000000000E+00  0.34852481823E+03  0.13479816809E+04  0.13021463294E+04 0.  0.
        5    1    3    3  502    0  0.41074624656E+03 -0.24431732097E+03 -0.28342090702E+03  0.55565540844E+03  0.46999998093E+01 0. -1.
       -5    1    3    3    0  502 -0.41074624656E+03  0.24431732097E+03  0.63194572525E+03  0.79232627247E+03  0.46999998093E+01 0.  1.
</event>
<event>
 5   0  0.6742824E-05  0.1299525E+04  0.7818609E-02  0.9029942E-01
        2   -1    0    0  501    0  0.00000000000E+00  0.00000000000E+00  0.78012107331E+03  0.78012107331E+03  0.25500000920E-02 0.  1.
       -2   -1    0    0    0  501  0.00000000000E+00  0.00000000000E+00 -0.54118696296E+03  0.54118696296E+03  0.25500000920E-02 0. -1.
    10030    2    1    2    0    0  0.00000000000E+00  0.00000000000E+00  0.23893411035E+03  0.13213080363E+04  0.12995250739E+04 0.  0.
        4    1    3    3  502    0  0.56511438714E+03 -0.28733959955E+03  0.26423138281E+03  0.68683196823E+03  0.12699999809E+01 0.  1.
       -4    1    3    3    0  502 -0.56511438714E+03  0.28733959955E+03 -0.25297272463E+02  0.63447606804E+03  0.12699999809E+01 0. -1.
</event>
<event>
 5   0  0.6458698E-05  0.1300340E+04  0.7818609E-02  0.9029295E-01
       -2   -1    0    0    0  501  0.00000000000E+00  0.00000000000E+00  0.16839057630E+03  0.16839057632E+03  0.25500000920E-02 0. -1.
        2   -1    0    0  501    0  0.00000000000E+00  0.00000000000E+00 -0.25103619795E+04  0.25103619795E+04  0.25500000920E-02 0.  1.
    10030    2    1    2    0    0  0.00000000000E+00  0.00000000000E+00 -0.23419714032E+04  0.26787525558E+04  0.13003404177E+04 0.  0.
        3    1    3    3  502    0  0.20524600246E+00  0.43627430148E+03 -0.21640571602E+04  0.22075956856E+04  0.10100000352E+00 0.  1.
       -3    1    3    3    0  502 -0.20524600246E+00 -0.43627430148E+03 -0.17791424295E+03  0.47115687017E+03  0.10100000352E+00 0. -1.
</event>
<event>
 5   0  0.6688086E-05  0.1300818E+04  0.7818609E-02  0.9028917E-01
       -2   -1    0    0    0  501  0.00000000000E+00  0.00000000000E+00  0.10531144570E+04  0.10531144570E+04  0.25500000920E-02 0.  1.
        2   -1    0    0  501    0  0.00000000000E+00  0.00000000000E+00 -0.40169615338E+03  0.40169615339E+03  0.25500000920E-02 0. -1.
    10030    2    1    2    0    0  0.00000000000E+00  0.00000000000E+00  0.65141830358E+03  0.14548106104E+04  0.13008182447E+04 0.  0.
        5    1    3    3  502    0 -0.21433525003E+03 -0.60906976588E+03  0.41308870392E+03  0.76653111249E+03  0.46999998093E+01 0. -1.
       -5    1    3    3    0  502  0.21433525003E+03  0.60906976588E+03  0.23832959965E+03  0.68827949786E+03  0.46999998093E+01 0.  1.
</event>
<event>
 5   0  0.3551277E-05  0.1299693E+04  0.7818609E-02  0.9029809E-01
       -1   -1    0    0    0  501  0.00000000000E+00  0.00000000000E+00  0.84126703388E+03  0.84126703390E+03  0.50400001928E-02 0. -1.
        1   -1    0    0  501    0  0.00000000000E+00  0.00000000000E+00 -0.50198155385E+03  0.50198155388E+03  0.50400001928E-02 0.  1.
    10030    2    1    2    0    0  0.00000000000E+00  0.00000000000E+00  0.33928548003E+03  0.13432485878E+04  0.12996930913E+04 0.  0.
        4    1    3    3  502    0 -0.24276600109E+03  0.31992564095E+03  0.69765636758E+03  0.80499302304E+03  0.12699999809E+01 0. -1.
       -4    1    3    3    0  502  0.24276600109E+03 -0.31992564095E+03 -0.35837088755E+03  0.53825556473E+03  0.12699999809E+01 0.  1.
</event>
<event>
 5   0  0.3631841E-05  0.1299759E+04  0.7818609E-02  0.9029756E-01
       -1   -1    0    0    0  501  0.00000000000E+00  0.00000000000E+00  0.24873474905E+03  0.24873474910E+03  0.50400001928E-02 0.  1.
        1   -1    0    0  501    0  0.00000000000E+00  0.00000000000E+00 -0.16979680601E+04  0.16979680601E+04  0.50400001928E-02 0. -1.
    10030    2    1    2    0    0  0.00000000000E+00  0.00000000000E+00 -0.14492333110E+04  0.19467028092E+04  0.12997594537E+04 0.  0.
        3    1    3    3  502    0  0.21653370287E+03 -0.28939901918E+03 -0.15335423241E+04  0.15755604421E+04  0.10100000352E+00 0. -1.
       -3    1    3    3    0  502 -0.21653370287E+03  0.28939901918E+03  0.84309013036E+02  0.37114236710E+03  0.10100000352E+00 0.  1.
</event>
<event>
 5   0  0.3552698E-05  0.1300066E+04  0.7818609E-02  0.9029513E-01
        1   -1    0    0  501    0  0.00000000000E+00  0.00000000000E+00  0.88048599520E+03  0.88048599521E+03  0.50400001928E-02 0.  1.
       -1   -1    0    0    0  501  0.00000000000E+00  0.00000000000E+00 -0.47989704607E+03  0.47989704610E+03  0.50400001928E-02 0. -1.
    10030    2    1    2    0    0  0.00000000000E+00  0.00000000000E+00  0.40058894913E+03  0.13603830413E+04  0.13000655802E+04 0.  0.
        5    1    3    3  502    0  0.35948403940E+03 -0.23663748914E+03  0.71002395358E+03  0.83029041938E+03  0.46999998093E+01 0.  1.
       -5    1    3    3    0  502 -0.35948403940E+03  0.23663748914E+03 -0.30943500446E+03  0.53009262193E+03  0.46999998093E+01 0. -1.
</event>
<event>
 5   0  0.6671239E-05  0.1299810E+04  0.7818609E-02  0.9029716E-01
        2   -1    0    0  501    0  0.00000000000E+00  0.00000000000E+00  0.10025754400E+04  0.10025754400E+04  0.25500000920E-02 0. -1.
       -2   -1    0    0    0  501  0.00000000000E+00  0.00000000000E+00 -0.42129152508E+03  0.42129152509E+03  0.25500000920E-02 0.  1.
    10030    2    1    2    0    0  0.00000000000E+00  0.00000000000E+00  0.58128391493E+03  0.14238669651E+04  0.12998100417E+04 0.  0.
        1    1    3    3  502    0  0.37350315765E+03 -0.35078111256E+03 -0.14729465608E+03  0.53314886611E+03  0.50400001928E-02 0.  1.
       -1    1    3    3    0  502 -0.37350315765E+03  0.35078111256E+03  0.72857857101E+03  0.89071809899E+03  0.50400001928E-02 0. -1.
</event>
<event>
 5   0  0.6688086E-05  0.1299935E+04  0.7818609E-02  0.9029617E-01
        2   -1    0    0  501    0  0.00000000000E+00  0.00000000000E+00  0.14331454081E+04  0.14331454081E+04  0.25500000920E-02 0.  1.
       -2   -1    0    0    0  501  0.00000000000E+00  0.00000000000E+00 -0.29477646785E+03  0.29477646786E+03  0.25500000920E-02 0. -1.
    10030    2    1    2    0    0  0.00000000000E+00  0.00000000000E+00  0.11383689402E+04  0.17279218759E+04  0.12999346773E+04 0.  0.
        5    1    3    3  502    0 -0.56199609540E+02  0.34531508988E+03  0.12972797295E+04  0.13436359975E+04  0.46999998093E+01 0.  1.
       -5    1    3    3    0  502  0.56199609540E+02 -0.34531508988E+03 -0.15891078923E+03  0.38428587841E+03  0.46999998093E+01 0. -1.
</event>
<event>
 5   0  0.3552698E-05  0.1300072E+04  0.7818609E-02  0.9029508E-01
       -1   -1    0    0    0  501  0.00000000000E+00  0.00000000000E+00  0.26347291946E+03  0.26347291951E+03  0.50400001928E-02 0. -1.
        1   -1    0    0  501    0  0.00000000000E+00  0.00000000000E+00 -0.16037574267E+04  0.16037574267E+04  0.50400001928E-02 0.  1.
    10030    2    1    2    0    0  0.00000000000E+00  0.00000000000E+00 -0.13402845072E+04  0.18672303462E+04  0.13000717694E+04 0.  0.
        5    1    3    3  502    0 -0.21250470482E+03 -0.91749438572E+02  0.20225312575E+03  0.30741604695E+03  0.46999998093E+01 0. -1.
       -5    1    3    3    0  502  0.21250470482E+03  0.91749438572E+02 -0.15425376330E+04  0.15598142993E+04  0.46999998093E+01 0.  1.
</event>
<event>
 5   0  0.3689707E-05  0.1300318E+04  0.7818609E-02  0.9029313E-01
        1   -1    0    0  501    0  0.00000000000E+00  0.00000000000E+00  0.11700279322E+04  0.11700279322E+04  0.50400001928E-02 0.  1.
       -1   -1    0    0    0  501  0.00000000000E+00  0.00000000000E+00 -0.36127899720E+03  0.36127899723E+03  0.50400001928E-02 0. -1.
    10030    2    1    2    0    0  0.00000000000E+00  0.00000000000E+00  0.80874893499E+03  0.15313069294E+04  0.13003176813E+04 0.  0.
        1    1    3    3  502    0 -0.62089261334E+02  0.16914685539E+02 -0.35751927864E+03  0.36326466603E+03  0.50400001928E-02 0. -1.
       -1    1    3    3    0  502  0.62089261334E+02 -0.16914685539E+02  0.11662682136E+04  0.11680422634E+04  0.50400001928E-02 0.  1.
</event>
<event>
 5   0  0.6742824E-05  0.1299779E+04  0.7818609E-02  0.9029741E-01
        2   -1    0    0  501    0  0.00000000000E+00  0.00000000000E+00  0.97746856110E+03  0.97746856111E+03  0.25500000920E-02 0. -1.
       -2   -1    0    0    0  501  0.00000000000E+00  0.00000000000E+00 -0.43209180923E+03  0.43209180924E+03  0.25500000920E-02 0.  1.
    10030    2    1    2    0    0  0.00000000000E+00  0.00000000000E+00  0.54537675187E+03  0.14095603703E+04  0.12997786874E+04 0.  0.
        4    1    3    3  502    0  0.27286997166E+03 -0.14628596470E+02 -0.36676031628E+03  0.45736939094E+03  0.12699999809E+01 0.  1.
       -4    1    3    3    0  502 -0.27286997166E+03  0.14628596470E+02  0.91213706815E+03  0.95219097941E+03  0.12699999809E+01 0. -1.
</event>
<event>
 5   0  0.3689707E-05  0.1299762E+04  0.7818609E-02  0.9029754E-01
        1   -1    0    0  501    0  0.00000000000E+00  0.00000000000E+00  0.11098052208E+04  0.11098052208E+04  0.50400001928E-02 0. -1.
       -1   -1    0    0    0  501  0.00000000000E+00  0.00000000000E+00 -0.38055782292E+03  0.38055782295E+03  0.50400001928E-02 0.  1.
    10030    2    1    2    0    0  0.00000000000E+00  0.00000000000E+00  0.72924739790E+03  0.14903630438E+04  0.12997616070E+04 0.  0.
        1    1    3    3  502    0 -0.46768783820E+03 -0.32641695385E+03  0.73837985917E+01  0.57038097993E+03  0.50400001928E-02 0.  1.
       -1    1    3    3    0  502  0.46768783820E+03  0.32641695385E+03  0.72186359931E+03  0.91998206384E+03  0.50400001928E-02 0. -1.
</event>
<event>
 5   0  0.6742824E-05  0.1299037E+04  0.7818609E-02  0.9030329E-01
        2   -1    0    0  501    0  0.00000000000E+00  0.00000000000E+00  0.94018961744E+03  0.94018961745E+03  0.25500000920E-02 0. -1.
       -2   -1    0    0    0  501  0.00000000000E+00  0.00000000000E+00 -0.44871163186E+03  0.44871163186E+03  0.25500000920E-02 0.  1.
    10030    2    1    2    0    0  0.00000000000E+00  0.00000000000E+00  0.49147798559E+03  0.13889012493E+04  0.12990365930E+04 0.  0.
        4    1    3    3  502    0 -0.64140985990E+03 -0.30211126295E+02  0.35024031450E+03  0.73142956690E+03  0.12699999809E+01 0. -1.
       -4    1    3    3    0  502  0.64140985990E+03  0.30211126295E+02  0.14123767109E+03  0.65747168241E+03  0.12699999809E+01 0.  1.
</event>
<event>
 5   0  0.6671239E-05  0.1299426E+04  0.7818609E-02  0.9030020E-01
       -2   -1    0    0    0  501  0.00000000000E+00  0.00000000000E+00  0.18678401412E+03  0.18678401414E+03  0.25500000920E-02 0. -1.
        2   -1    0    0  501    0  0.00000000000E+00  0.00000000000E+00 -0.22599742951E+04  0.22599742951E+04  0.25500000920E-02 0.  1.
    10030    2    1    2    0    0  0.00000000000E+00  0.00000000000E+00 -0.20731902809E+04  0.24467583092E+04  0.12994261359E+04 0.  0.
        1    1    3    3  502    0  0.61957140001E+03  0.19517214088E+03 -0.10123213746E+04  0.12028114773E+04  0.50400001928E-02 0.  1.
       -1    1    3    3    0  502 -0.61957140001E+03 -0.19517214088E+03 -0.10608689063E+04  0.12439468319E+04  0.50400001928E-02 0. -1.
</event>
<event>
 5   0  0.2512000E-05  0.1300241E+04  0.7818609E-02  0.9029374E-01
       -4   -1    0    0    0  501  0.00000000000E+00  0.00000000000E+00  0.13399725908E+04  0.13399731927E+04  0.12699999809E+01 0.  1.
        4   -1    0    0  501    0  0.00000000000E+00  0.00000000000E+00 -0.31542008040E+03  0.31542263714E+03  0.12699999809E+01 0. -1.
    10030    2    1    2    0    0  0.00000000000E+00  0.00000000000E+00  0.10245525105E+04  0.16553958298E+04  0.13002413263E+04 0.  0.
        4    1    3    3  502    0  0.18428723456E+03 -0.19254563348E+03 -0.24266727051E+03  0.36045058312E+03  0.12699999809E+01 0. -1.
       -4    1    3    3    0  502 -0.18428723456E+03  0.19254563348E+03  0.12672197810E+04  0.12949452467E+04  0.12699999809E+01 0.  1.
</event>
<event>
 5   0  0.3689707E-05  0.1300912E+04  0.7818609E-02  0.9028842E-01
       -1   -1    0    0    0  501  0.00000000000E+00  0.00000000000E+00  0.48800214970E+03  0.48800214973E+03  0.50400001928E-02 0. -1.
        1   -1    0    0  501    0  0.00000000000E+00  0.00000000000E+00 -0.86699045910E+03  0.86699045911E+03  0.50400001928E-02 0.  1.
    10030    2    1    2    0    0  0.00000000000E+00  0.00000000000E+00 -0.37898830939E+03  0.13549926088E+04  0.13009123073E+04 0.  0.
        1    1    3    3  502    0 -0.31610679593E+03  0.50927201171E+03  0.73616919402E+02  0.60390474347E+03  0.50400001928E-02 0. -1.
       -1    1    3    3    0  502  0.31610679593E+03 -0.50927201171E+03 -0.45260522879E+03  0.75108786537E+03  0.50400001928E-02 0.  1.
</event>
<event>
 5   0  0.3552698E-05  0.1300497E+04  0.7818609E-02  0.9029171E-01
       -1   -1    0    0    0  501  0.00000000000E+00  0.00000000000E+00  0.74903873915E+03  0.74903873917E+03  0.50400001928E-02 0.  1.
        1   -1    0    0  501    0  0.00000000000E+00  0.00000000000E+00 -0.56448765479E+03  0.56448765481E+03  0.50400001928E-02 0. -1.
    10030    2    1    2    0    0  0.00000000000E+00  0.00000000000E+00  0.18455108436E+03  0.13135263940E+04  0.13004970146E+04 0.  0.
        5    1    3    3  502    0 -0.49784952547E+03 -0.19837305642E+03 -0.27964597160E+03  0.60450804705E+03  0.46999998093E+01 0. -1.
       -5    1    3    3    0  502  0.49784952547E+03  0.19837305642E+03  0.46419705596E+03  0.70901834693E+03  0.46999998093E+01 0.  1.
</event>
<event>
 5   0  0.6742824E-05  0.1299316E+04  0.7818609E-02  0.9030108E-01
        2   -1    0    0  501    0  0.00000000000E+00  0.00000000000E+00  0.13247361980E+04  0.13247361980E+04  0.25500000920E-02 0. -1.
       -2   -1    0    0    0  501  0.00000000000E+00  0.00000000000E+00 -0.31859600299E+03  0.31859600300E+03  0.25500000920E-02 0.  1.
    10030    2    1    2    0    0  0.00000000000E+00  0.00000000000E+00  0.10061401950E+04  0.16433322010E+04  0.12993162166E+04 0.  0.
        4    1    3    3  502    0 -0.28102047044E+03  0.43477491952E+03  0.99948477401E+03  0.11255990236E+04  0.12699999809E+01 0. -1.
       -4    1    3    3    0  502  0.28102047044E+03 -0.43477491952E+03  0.66554209430E+01  0.51773317740E+03  0.12699999809E+01 0.  1.
</event>
<event>
 5   0  0.3551277E-05  0.1300375E+04  0.7818609E-02  0.9029267E-01
        1   -1    0    0  501    0  0.00000000000E+00  0.00000000000E+00  0.13590872230E+04  0.13590872230E+04  0.50400001928E-02 0.  1.
       -1   -1    0    0    0  501  0.00000000000E+00  0.00000000000E+00 -0.31105000444E+03  0.31105000448E+03  0.50400001928E-02 0. -1.
    10030    2    1    2    0    0  0.00000000000E+00  0.00000000000E+00  0.10480372185E+04  0.16701372275E+04  0.13003754639E+04 0.  0.
        4    1    3    3  502    0  0.35110608985E+02 -0.64518489274E+03  0.61704468546E+03  0.89344393077E+03  0.12699999809E+01 0.  1.
       -4    1    3    3    0  502 -0.35110608985E+02  0.64518489274E+03  0.43099253308E+03  0.77669329671E+03  0.12699999809E+01 0. -1.
</event>
<event>
 5   0  0.6742824E-05  0.1299956E+04  0.7818609E-02  0.9029600E-01
        2   -1    0    0  501    0  0.00000000000E+00  0.00000000000E+00  0.91394576885E+03  0.91394576885E+03  0.25500000920E-02 0.  1.
       -2   -1    0    0    0  501  0.00000000000E+00  0.00000000000E+00 -0.46225030733E+03  0.46225030734E+03  0.25500000920E-02 0. -1.
    10030    2    1    2    0    0  0.00000000000E+00  0.00000000000E+00  0.45169546152E+03  0.13761960762E+04  0.12999564801E+04 0.  0.
        4    1    3    3  502    0  0.27623505473E+03  0.49085568695E+03  0.56925615602E+03  0.80081164760E+03  0.12699999809E+01 0.  1.
       -4    1    3    3    0  502 -0.27623505473E+03 -0.49085568695E+03 -0.11756069450E+03  0.57538442859E+03  0.12699999809E+01 0. -1.
</event>
<event>
 5   0  0.3718559E-05  0.1300177E+04  0.7818609E-02  0.9029425E-01
       -1   -1    0    0    0  501  0.00000000000E+00  0.00000000000E+00  0.27102640165E+03  0.27102640170E+03  0.50400001928E-02 0. -1.
        1   -1    0    0  501    0  0.00000000000E+00  0.00000000000E+00 -0.15593132826E+04  0.15593132827E+04  0.50400001928E-02 0.  1.
    10030    2    1    2    0    0  0.00000000000E+00  0.00000000000E+00 -0.12882868810E+04  0.18303396844E+04  0.13001770158E+04 0.  0.
        2    1    3    3  502    0  0.24391674071E+03 -0.53080067207E+03 -0.24257250522E+03  0.63252363605E+03  0.25500000920E-02 0. -1.
       -2    1    3    3    0  502 -0.24391674071E+03  0.53080067207E+03 -0.10457143758E+04  0.11978160483E+04  0.25500000920E-02 0.  1.
</event>
<event>
 5   0  0.6671239E-05  0.1299801E+04  0.7818609E-02  0.9029723E-01
       -2   -1    0    0    0  501  0.00000000000E+00  0.00000000000E+00  0.34768762475E+03  0.34768762476E+03  0.25500000920E-02 0.  1.
        2   -1    0    0  501    0  0.00000000000E+00  0.00000000000E+00 -0.12147984075E+04  0.12147984075E+04  0.25500000920E-02 0. -1.
    10030    2    1    2    0    0  0.00000000000E+00  0.00000000000E+00 -0.86711078276E+03  0.15624860323E+04  0.12998005583E+04 0.  0.
        1    1    3    3  502    0 -0.54188568814E+03  0.34455889451E+03 -0.55382180470E+03  0.84798556720E+03  0.50400001928E-02 0. -1.
       -1    1    3    3    0  502  0.54188568814E+03 -0.34455889451E+03 -0.31328897807E+03  0.71450046508E+03  0.50400001928E-02 0.  1.
</event>
<event>
 5   0  0.3689707E-05  0.1300081E+04  0.7818609E-02  0.9029501E-01
        1   -1    0    0  501    0  0.00000000000E+00  0.00000000000E+00  0.73709929974E+03  0.73709929976E+03  0.50400001928E-02 0. -1.
       -1   -1    0    0    0  501  0.00000000000E+00  0.00000000000E+00 -0.57326455562E+03  0.57326455564E+03  0.50400001928E-02 0.  1.
    10030    2    1    2    0    0  0.00000000000E+00  0.00000000000E+00  0.16383474412E+03  0.13103638554E+04  0.13000813860E+04 0.  0.
        1    1    3    3  502    0 -0.13005776799E+03 -0.26121197276E+03  0.66737825643E+03  0.72838208031E+03  0.50400001928E-02 0. -1.
       -1    1    3    3    0  502  0.13005776799E+03  0.26121197276E+03 -0.50354351231E+03  0.58198177509E+03  0.50400001928E-02 0.  1.
</event>
<event>
 5   0  0.3689707E-05  0.1300120E+04  0.7818609E-02  0.9029470E-01
       -1   -1    0    0    0  501  0.00000000000E+00  0.00000000000E+00  0.46520496434E+03  0.46520496437E+03  0.50400001928E-02 0. -1.
        1   -1    0    0  501    0  0.00000000000E+00  0.00000000000E+00 -0.90836941989E+03  0.90836941991E+03  0.50400001928E-02 0.  1.
    10030    2    1    2    0    0  0.00000000000E+00  0.00000000000E+00 -0.44316445555E+03  0.13735743843E+04  0.13001199385E+04 0.  0.
        1    1    3    3  502    0  0.22866230931E+03  0.41679475054E+03 -0.68999789534E+03  0.83791491894E+03  0.50400001928E-02 0.  1.
       -1    1    3    3    0  502 -0.22866230931E+03 -0.41679475054E+03  0.24683343979E+03  0.53565946534E+03  0.50400001928E-02 0. -1.
</event>
<event>
 5   0  0.3631841E-05  0.1301119E+04  0.7818609E-02  0.9028678E-01
        1   -1    0    0  501    0  0.00000000000E+00  0.00000000000E+00  0.82688510086E+03  0.82688510088E+03  0.50400001928E-02 0.  1.
       -1   -1    0    0    0  501  0.00000000000E+00  0.00000000000E+00 -0.51183348447E+03  0.51183348449E+03  0.50400001928E-02 0. -1.
    10030    2    1    2    0    0  0.00000000000E+00  0.00000000000E+00  0.31505161639E+03  0.13387185854E+04  0.13011187224E+04 0.  0.
        3    1    3    3  502    0  0.53663878584E+03 -0.32721721163E+03  0.33023113510E+03  0.71000345270E+03  0.10100000352E+00 0. -1.
       -3    1    3    3    0  502 -0.53663878584E+03  0.32721721163E+03 -0.15179518703E+02  0.62871513267E+03  0.10100000352E+00 0.  1.
</event>
<event>
 5   0  0.6458698E-05  0.1300012E+04  0.7818609E-02  0.9029556E-01
       -2   -1    0    0    0  501  0.00000000000E+00  0.00000000000E+00  0.82905906529E+03  0.82905906529E+03  0.25500000920E-02 0.  1.
        2   -1    0    0  501    0  0.00000000000E+00  0.00000000000E+00 -0.50962330745E+03  0.50962330745E+03  0.25500000920E-02 0. -1.
    10030    2    1    2    0    0  0.00000000000E+00  0.00000000000E+00  0.31943575784E+03  0.13386823727E+04  0.13000120352E+04 0.  0.
        3    1    3    3  502    0 -0.64531267382E+03  0.61527030446E+02  0.11039970085E+03  0.65757290593E+03  0.10100000352E+00 0. -1.
       -3    1    3    3    0  502  0.64531267382E+03 -0.61527030446E+02  0.20903605699E+03  0.68110946682E+03  0.10100000352E+00 0.  1.
</event>
<event>
 5   0  0.6618060E-05  0.1299912E+04  0.7818609E-02  0.9029635E-01
        2   -1    0    0  501    0  0.00000000000E+00  0.00000000000E+00  0.11609790171E+04  0.11609790171E+04  0.25500000920E-02 0.  1.
       -2   -1    0    0    0  501  0.00000000000E+00  0.00000000000E+00 -0.36386767946E+03  0.36386767946E+03  0.25500000920E-02 0. -1.
    10030    2    1    2    0    0  0.00000000000E+00  0.00000000000E+00  0.79711133766E+03  0.15248466966E+04  0.12999119060E+04 0.  0.
        2    1    3    3  502    0  0.26309382075E+03  0.45736287098E+03  0.84375984034E+03  0.99515316532E+03  0.25500000920E-02 0.  1.
       -2    1    3    3    0  502 -0.26309382075E+03 -0.45736287098E+03 -0.46648502676E+02  0.52969353127E+03  0.25500000920E-02 0. -1.
</event>
<event>
 5   0  0.3551277E-05  0.1300449E+04  0.7818609E-02  0.9029209E-01
       -1   -1    0    0    0  501  0.00000000000E+00  0.00000000000E+00  0.25571276467E+03  0.25571276472E+03  0.50400001928E-02 0.  1.
        1   -1    0    0  501    0  0.00000000000E+00  0.00000000000E+00 -0.16533860269E+04  0.16533860269E+04  0.50400001928E-02 0. -1.
    10030    2    1    2    0    0  0.00000000000E+00  0.00000000000E+00 -0.13976732622E+04  0.19090987916E+04  0.13004490179E+04 0.  0.
        4    1    3    3  502    0 -0.54871695073E+03 -0.34399731858E+03 -0.78400583280E+03  0.10169027515E+04  0.12699999809E+01 0.  1.
       -4    1    3    3    0  502  0.54871695073E+03  0.34399731858E+03 -0.61366742940E+03  0.89219604012E+03  0.12699999809E+01 0. -1.
</event>
<event>
 5   0  0.6671239E-05  0.1301841E+04  0.7818609E-02  0.9028106E-01
       -2   -1    0    0    0  501  0.00000000000E+00  0.00000000000E+00  0.34507136052E+03  0.34507136053E+03  0.25500000920E-02 0. -1.
        2   -1    0    0  501    0  0.00000000000E+00  0.00000000000E+00 -0.12278551352E+04  0.12278551352E+04  0.25500000920E-02 0.  1.
    10030    2    1    2    0    0  0.00000000000E+00  0.00000000000E+00 -0.88278377464E+03  0.15729264957E+04  0.13018412223E+04 0.  0.
        1    1    3    3  502    0  0.17495720908E+03 -0.10574907299E+02  0.31602207345E+03  0.36137488099E+03  0.50400001928E-02 0. -1.
       -1    1    3    3    0  502 -0.17495720908E+03  0.10574907299E+02 -0.11988058481E+04  0.12115516147E+04  0.50400001928E-02 0.  1.
</event>
<event>
 5   0  0.6688086E-05  0.1300199E+04  0.7818609E-02  0.9029408E-01
       -2   -1    0    0    0  501  0.00000000000E+00  0.00000000000E+00  0.29089381823E+03  0.29089381824E+03  0.25500000920E-02 0.  1.
        2   -1    0    0  501    0  0.00000000000E+00  0.00000000000E+00 -0.14528640335E+04  0.14528640335E+04  0.25500000920E-02 0. -1.
    10030    2    1    2    0    0  0.00000000000E+00  0.00000000000E+00 -0.11619702153E+04  0.17437578517E+04  0.13001987019E+04 0.  0.
        5    1    3    3  502    0  0.48984486699E+03  0.37174235730E+03 -0.29817566313E+03  0.68342606770E+03  0.46999998093E+01 0.  1.
       -5    1    3    3    0  502 -0.48984486699E+03 -0.37174235730E+03 -0.86379455214E+03  0.10603317840E+04  0.46999998093E+01 0. -1.
</event>
<event>
 5   0  0.3551277E-05  0.1299593E+04  0.7818609E-02  0.9029888E-01
       -1   -1    0    0    0  501  0.00000000000E+00  0.00000000000E+00  0.20702211285E+03  0.20702211291E+03  0.50400001928E-02 0. -1.
        1   -1    0    0  501    0  0.00000000000E+00  0.00000000000E+00 -0.20395686489E+04  0.20395686489E+04  0.50400001928E-02 0.  1.
    10030    2    1    2    0    0  0.00000000000E+00  0.00000000000E+00 -0.18325465360E+04  0.22465907618E+04  0.12995934919E+04 0.  0.
        4    1    3    3  502    0  0.37064333263E+03 -0.52838561273E+02 -0.18343768046E+04  0.18721934376E+04  0.12699999809E+01 0.  1.
       -4    1    3    3    0  502 -0.37064333263E+03  0.52838561273E+02  0.18302685815E+01  0.37439732420E+03  0.12699999809E+01 0. -1.
</event>
<event>
 5   0  0.6671239E-05  0.1298915E+04  0.7818609E-02  0.9030426E-01
        2   -1    0    0  501    0  0.00000000000E+00  0.00000000000E+00  0.14708590893E+04  0.14708590893E+04  0.25500000920E-02 0. -1.
       -2   -1    0    0    0  501  0.00000000000E+00  0.00000000000E+00 -0.28676800791E+03  0.28676800792E+03  0.25500000920E-02 0.  1.
    10030    2    1    2    0    0  0.00000000000E+00  0.00000000000E+00  0.11840910814E+04  0.17576270972E+04  0.12989154414E+04 0.  0.
        1    1    3    3  502    0 -0.32838378651E+03  0.34140957212E+02 -0.16474368088E+03  0.36897424926E+03  0.50400001928E-02 0.  1.
       -1    1    3    3    0  502  0.32838378651E+03 -0.34140957212E+02  0.13488347623E+04  0.13886528480E+04  0.50400001928E-02 0. -1.
</event>
<event>
 5   0  0.3689707E-05  0.1299068E+04  0.7818609E-02  0.9030304E-01
        1   -1    0    0  501    0  0.00000000000E+00  0.00000000000E+00  0.64097392296E+03  0.64097392298E+03  0.50400001928E-02 0. -1.
       -1   -1    0    0    0  501  0.00000000000E+00  0.00000000000E+00 -0.65820872228E+03  0.65820872230E+03  0.50400001928E-02 0.  1.
    10030    2    1    2    0    0  0.00000000000E+00  0.00000000000E+00 -0.17234799316E+02  0.12991826453E+04  0.12990683229E+04 0.  0.
        1    1    3    3  502    0 -0.35465137561E+03 -0.44213858164E+03 -0.32586842910E+03  0.65379993630E+03  0.50400001928E-02 0.  1.
       -1    1    3    3    0  502  0.35465137561E+03  0.44213858164E+03  0.30863362978E+03  0.64538270898E+03  0.50400001928E-02 0. -1.
</event>
<event>
 5   0  0.6671239E-05  0.1300228E+04  0.7818609E-02  0.9029384E-01
        2   -1    0    0  501    0  0.00000000000E+00  0.00000000000E+00  0.18146284722E+04  0.18146284722E+04  0.25500000920E-02 0.  1.
       -2   -1    0    0    0  501  0.00000000000E+00  0.00000000000E+00 -0.23291166585E+03  0.23291166586E+03  0.25500000920E-02 0. -1.
    10030    2    1    2    0    0  0.00000000000E+00  0.00000000000E+00  0.15817168063E+04  0.20475401380E+04  0.13002278883E+04 0.  0.
        1    1    3    3  502    0  0.38994914202E+03 -0.51215159639E+03  0.64749040890E+03  0.91301885012E+03  0.50400001928E-02 0.  1.
       -1    1    3    3    0  502 -0.38994914202E+03  0.51215159639E+03  0.93422639744E+03  0.11345212879E+04  0.50400001928E-02 0. -1.
</event>
<event>
 5   0  0.3551277E-05  0.1300595E+04  0.7818609E-02  0.9029094E-01
        1   -1    0    0  501    0  0.00000000000E+00  0.00000000000E+00  0.97739503446E+03  0.97739503447E+03  0.50400001928E-02 0. -1.
       -1   -1    0    0    0  501  0.00000000000E+00  0.00000000000E+00 -0.43266717430E+03  0.43266717433E+03  0.50400001928E-02 0.  1.
    10030    2    1    2    0    0  0.00000000000E+00  0.00000000000E+00  0.54472786016E+03  0.14100622088E+04  0.13005948605E+04 0.  0.
        4    1    3    3  502    0 -0.49893375786E+03 -0.47390384296E+02  0.72161274612E+03  0.87858255817E+03  0.12699999809E+01 0. -1.
       -4    1    3    3    0  502  0.49893375786E+03  0.47390384296E+02 -0.17688488596E+03  0.53147965063E+03  0.12699999809E+01 0.  1.
</event>
<event>
 5   0  0.6618060E-05  0.1299579E+04  0.7818609E-02  0.9029899E-01
       -2   -1    0    0    0  501  0.00000000000E+00  0.00000000000E+00  0.38992765511E+03  0.38992765511E+03  0.25500000920E-02 0.  1.
        2   -1    0    0  501    0  0.00000000000E+00  0.00000000000E+00 -0.10828333331E+04  0.10828333332E+04  0.25500000920E-02 0. -1.
    10030    2    1    2    0    0  0.00000000000E+00  0.00000000000E+00 -0.69290567804E+03  0.14727609883E+04  0.12995794127E+04 0.  0.
        2    1    3    3  502    0 -0.25727568564E+02 -0.24197514702E+03 -0.10292479582E+04  0.10576224463E+04  0.25500000920E-02 0. -1.
       -2    1    3    3    0  502  0.25727568564E+02  0.24197514702E+03  0.33634228016E+03  0.41513854192E+03  0.25500000920E-02 0.  1.
</event>
<event>
 5   0  0.6618060E-05  0.1300417E+04  0.7818609E-02  0.9029235E-01
       -2   -1    0    0    0  501  0.00000000000E+00  0.00000000000E+00  0.36403063870E+03  0.36403063871E+03  0.25500000920E-02 0.  1.
        2   -1    0    0  501    0  0.00000000000E+00  0.00000000000E+00 -0.11613610734E+04  0.11613610734E+04  0.25500000920E-02 0. -1.
    10030    2    1    2    0    0  0.00000000000E+00  0.00000000000E+00 -0.79733043472E+03  0.15253917121E+04  0.13004168767E+04 0.  0.
        2    1    3    3  502    0 -0.29693014101E+03 -0.33886960754E+03  0.15123497613E+03  0.47526007361E+03  0.25500000920E-02 0.  1.
       -2    1    3    3    0  502  0.29693014101E+03  0.33886960754E+03 -0.94856541085E+03  0.10501316385E+04  0.25500000920E-02 0. -1.
</event>
<event>
 5   0  0.3551277E-05  0.1301324E+04  0.7818609E-02  0.9028516E-01
        1   -1    0    0  501    0  0.00000000000E+00  0.00000000000E+00  0.93342349528E+03  0.93342349529E+03  0.50400001928E-02 0. -1.
       -1   -1    0    0    0  501  0.00000000000E+00  0.00000000000E+00 -0.45355724263E+03  0.45355724266E+03  0.50400001928E-02 0.  1.
    10030    2    1    2    0    0  0.00000000000E+00  0.00000000000E+00  0.47986625264E+03  0.13869807380E+04  0.13013239209E+04 0.  0.
        4    1    3    3  502    0 -0.32396908161E+03 -0.12379897081E+03  0.82669470212E+03  0.89649757078E+03  0.12699999809E+01 0. -1.
       -4    1    3    3    0  502  0.32396908161E+03  0.12379897081E+03 -0.34682844947E+03  0.49048316717E+03  0.12699999809E+01 0.  1.
</event>
<event>
 5   0  0.3552698E-05  0.1300065E+04  0.7818609E-02  0.9029513E-01
       -1   -1    0    0    0  501  0.00000000000E+00  0.00000000000E+00  0.46831078682E+03  0.46831078684E+03  0.50400001928E-02 0. -1.
        1   -1    0    0  501    0  0.00000000000E+00  0.00000000000E+00 -0.90226940184E+03  0.90226940185E+03  0.50400001928E-02 0.  1.
    10030    2    1    2    0    0  0.00000000000E+00  0.00000000000E+00 -0.43395861502E+03  0.13705801887E+04  0.13000653730E+04 0.  0.
        5    1    3    3  502    0  0.20788717682E+03 -0.25309622664E+02  0.43175303490E+03  0.47988584938E+03  0.46999998093E+01 0. -1.
       -5    1    3    3    0  502 -0.20788717682E+03  0.25309622664E+02 -0.86571164993E+03  0.89069433932E+03  0.46999998093E+01 0.  1.
</event>
<event>
 5   0  0.3718559E-05  0.1300287E+04  0.7818609E-02  0.9029337E-01
        1   -1    0    0  501    0  0.00000000000E+00  0.00000000000E+00  0.60283970621E+03  0.60283970623E+03  0.50400001928E-02 0. -1.
       -1   -1    0    0    0  501  0.00000000000E+00  0.00000000000E+00 -0.70115948146E+03  0.70115948148E+03  0.50400001928E-02 0.  1.
    10030    2    1    2    0    0  0.00000000000E+00  0.00000000000E+00 -0.98319775248E+02  0.13039991877E+04  0.13002873157E+04 0.  0.
        2    1    3    3  502    0 -0.43551825843E+02  0.50402227193E+03 -0.45867784696E+03  0.68287669417E+03  0.25500000920E-02 0.  1.
       -2    1    3    3    0  502  0.43551825843E+02 -0.50402227193E+03  0.36035807171E+03  0.62112249355E+03  0.25500000920E-02 0. -1.
</event>
<event>
 5   0  0.6458698E-05  0.1300313E+04  0.7818609E-02  0.9029317E-01
       -2   -1    0    0    0  501  0.00000000000E+00  0.00000000000E+00  0.85193799639E+03  0.85193799639E+03  0.25500000920E-02 0. -1.
        2   -1    0    0  501    0  0.00000000000E+00  0.00000000000E+00 -0.49616687925E+03  0.49616687926E+03  0.25500000920E-02 0.  1.
    10030    2    1    2    0    0  0.00000000000E+00  0.00000000000E+00  0.35577111714E+03  0.13481048756E+04  0.13003129116E+04 0.  0.
        3    1    3    3  502    0  0.28106529100E+03  0.32710272556E+03  0.68229552972E+03  0.80716856415E+03  0.10100000352E+00 0. -1.
       -3    1    3    3    0  502 -0.28106529100E+03 -0.32710272556E+03 -0.32652441259E+03  0.54093631150E+03  0.10100000352E+00 0.  1.
</event>
<event>
 5   0  0.3718559E-05  0.1302080E+04  0.7818609E-02  0.9027917E-01
       -1   -1    0    0    0  501  0.00000000000E+00  0.00000000000E+00  0.64444697268E+03  0.64444697270E+03  0.50400001928E-02 0. -1.
        1   -1    0    0  501    0  0.00000000000E+00  0.00000000000E+00 -0.65770048155E+03  0.65770048157E+03  0.50400001928E-02 0.  1.
    10030    2    1    2    0    0  0.00000000000E+00  0.00000000000E+00 -0.13253508876E+02  0.13021474543E+04  0.13020800041E+04 0.  0.
        2    1    3    3  502    0 -0.37521736766E+03 -0.20601695632E+02  0.52504030754E+03  0.64566231685E+03  0.25500000920E-02 0. -1.
       -2    1    3    3    0  502  0.37521736766E+03  0.20601695632E+02 -0.53829381641E+03  0.65648513742E+03  0.25500000920E-02 0.  1.
</event>
<event>
 5   0  0.3689707E-05  0.1300249E+04  0.7818609E-02  0.9029367E-01
        1   -1    0    0  501    0  0.00000000000E+00  0.00000000000E+00  0.13555731168E+04  0.13555731168E+04  0.50400001928E-02 0. -1.
       -1   -1    0    0    0  501  0.00000000000E+00  0.00000000000E+00 -0.31179592042E+03  0.31179592046E+03  0.50400001928E-02 0.  1.
    10030    2    1    2    0    0  0.00000000000E+00  0.00000000000E+00  0.10437771963E+04  0.16673690372E+04  0.13002494648E+04 0.  0.
        1    1    3    3  502    0  0.41031127766E+03  0.40695424695E+03  0.13998409931E+03  0.59461134514E+03  0.50400001928E-02 0.  1.
       -1    1    3    3    0  502 -0.41031127766E+03 -0.40695424695E+03  0.90379309702E+03  0.10727576921E+04  0.50400001928E-02 0. -1.
</event>
<event>
 5   0  0.6671239E-05  0.1301936E+04  0.7818609E-02  0.9028031E-01
       -2   -1    0    0    0  501  0.00000000000E+00  0.00000000000E+00  0.36013957157E+03  0.36013957158E+03  0.25500000920E-02 0. -1.
        2   -1    0    0  501    0  0.00000000000E+00  0.00000000000E+00 -0.11766539091E+04  0.11766539091E+04  0.25500000920E-02 0.  1.
    10030    2    1    2    0    0  0.00000000000E+00  0.00000000000E+00 -0.81651433753E+03  0.15367934807E+04  0.13019364573E+04 0.  0.
        1    1    3    3  502    0 -0.16287328046E+03 -0.63025781383E+03 -0.40513028906E+03  0.76673539668E+03  0.50400001928E-02 0.  1.
       -1    1    3    3    0  502  0.16287328046E+03  0.63025781383E+03 -0.41138404847E+03  0.77005808401E+03  0.50400001928E-02 0. -1.
</event>
<event>
 5   0  0.3552698E-05  0.1300194E+04  0.7818609E-02  0.9029412E-01
        1   -1    0    0  501    0  0.00000000000E+00  0.00000000000E+00  0.58910495715E+03  0.58910495717E+03  0.50400001928E-02 0.  1.
       -1   -1    0    0    0  501  0.00000000000E+00  0.00000000000E+00 -0.71740327749E+03  0.71740327751E+03  0.50400001928E-02 0. -1.
    10030    2    1    2    0    0  0.00000000000E+00  0.00000000000E+00 -0.12829832034E+03  0.13065082347E+04  0.13001935657E+04 0.  0.
        5    1    3    3  502    0 -0.39569495292E+03  0.51230050558E+03 -0.12425129671E+03  0.65915611089E+03  0.46999998093E+01 0. -1.
       -5    1    3    3    0  502  0.39569495292E+03 -0.51230050558E+03 -0.40470236256E+01  0.64735212380E+03  0.46999998093E+01 0.  1.
</event>
<event>
 5   0  0.3552698E-05  0.1299010E+04  0.7818609E-02  0.9030351E-01
       -1   -1    0    0    0  501  0.00000000000E+00  0.00000000000E+00  0.15129421363E+03  0.15129421371E+03  0.50400001928E-02 0. -1.
        1   -1    0    0  501    0  0.00000000000E+00  0.00000000000E+00 -0.27883189038E+04  0.27883189038E+04  0.50400001928E-02 0.  1.
    10030    2    1    2    0    0  0.00000000000E+00  0.00000000000E+00 -0.26370246902E+04  0.29396131175E+04  0.12990096474E+04 0.  0.
        5    1    3    3  502    0  0.41038622284E+03 -0.36315115011E+03 -0.52958810288E+03  0.76209005927E+03  0.46999998093E+01 0. -1.
       -5    1    3    3    0  502 -0.41038622284E+03  0.36315115011E+03 -0.21074365873E+04  0.21775230582E+04  0.46999998093E+01 0.  1.
</event>
<event>
 5   0  0.6618060E-05  0.1299757E+04  0.7818609E-02  0.9029758E-01
       -2   -1    0    0    0  501  0.00000000000E+00  0.00000000000E+00  0.27358438682E+03  0.27358438683E+03  0.25500000920E-02 0. -1.
        2   -1    0    0  501    0  0.00000000000E+00  0.00000000000E+00 -0.15437360172E+04  0.15437360172E+04  0.25500000920E-02 0.  1.
    10030    2    1    2    0    0  0.00000000000E+00  0.00000000000E+00 -0.12701516304E+04  0.18173204041E+04  0.12997570107E+04 0.  0.
        2    1    3    3  502    0 -0.28930275711E+03  0.38320105943E+03 -0.22729713044E+02  0.48068261574E+03  0.25500000920E-02 0. -1.
       -2    1    3    3    0  502  0.28930275711E+03 -0.38320105943E+03 -0.12474219174E+04  0.13366377883E+04  0.25500000920E-02 0.  1.
</event>
<event>
 5   0  0.6618060E-05  0.1299646E+04  0.7818609E-02  0.9029846E-01
        2   -1    0    0  501    0  0.00000000000E+00  0.00000000000E+00  0.66014860309E+03  0.66014860309E+03  0.25500000920E-02 0.  1.
       -2   -1    0    0    0  501  0.00000000000E+00  0.00000000000E+00 -0.63965851055E+03  0.63965851056E+03  0.25500000920E-02 0. -1.
    10030    2    1    2    0    0  0.00000000000E+00  0.00000000000E+00  0.20490092537E+02  0.12998071136E+04  0.12996456012E+04 0.  0.
        2    1    3    3  502    0 -0.14559348905E+03  0.61565001509E+03 -0.13825662782E+03  0.64756258407E+03  0.25500000920E-02 0. -1.
       -2    1    3    3    0  502  0.14559348905E+03 -0.61565001509E+03  0.15874672036E+03  0.65224452958E+03  0.25500000920E-02 0.  1.
</event>
<event>
 5   0  0.3631841E-05  0.1300096E+04  0.7818609E-02  0.9029489E-01
        1   -1    0    0  501    0  0.00000000000E+00  0.00000000000E+00  0.75344737604E+03  0.75344737605E+03  0.50400001928E-02 0. -1.
       -1   -1    0    0    0  501  0.00000000000E+00  0.00000000000E+00 -0.56083873483E+03  0.56083873486E+03  0.50400001928E-02 0.  1.
    10030    2    1    2    0    0  0.00000000000E+00  0.00000000000E+00  0.19260864120E+03  0.13142861109E+04  0.13000961090E+04 0.  0.
        3    1    3    3  502    0 -0.13807574989E+03 -0.32660112392E+03  0.64707119472E+03  0.73785794574E+03  0.10100000352E+00 0. -1.
       -3    1    3    3    0  502  0.13807574989E+03  0.32660112392E+03 -0.45446255352E+03  0.57642816517E+03  0.10100000352E+00 0.  1.
</event>
<event>
 5   0  0.6688086E-05  0.1300225E+04  0.7818609E-02  0.9029387E-01
       -2   -1    0    0    0  501  0.00000000000E+00  0.00000000000E+00  0.46059919464E+03  0.46059919464E+03  0.25500000920E-02 0.  1.
        2   -1    0    0  501    0  0.00000000000E+00  0.00000000000E+00 -0.91760043827E+03  0.91760043827E+03  0.25500000920E-02 0. -1.
    10030    2    1    2    0    0  0.00000000000E+00  0.00000000000E+00 -0.45700124363E+03  0.13781996329E+04  0.13002246312E+04 0.  0.
        5    1    3    3  502    0  0.77739319175E+02 -0.40340723948E+02 -0.91130025251E+03  0.91551134127E+03  0.46999998093E+01 0. -1.
       -5    1    3    3    0  502 -0.77739319175E+02  0.40340723948E+02  0.45429900889E+03  0.46268829165E+03  0.46999998093E+01 0.  1.
</event>
<event>
 5   0  0.3551277E-05  0.1300036E+04  0.7818609E-02  0.9029537E-01
       -1   -1    0    0    0  501  0.00000000000E+00  0.00000000000E+00  0.32290107282E+03  0.32290107286E+03  0.50400001928E-02 0. -1.
        1   -1    0    0  501    0  0.00000000000E+00  0.00000000000E+00 -0.13085226886E+04  0.13085226886E+04  0.50400001928E-02 0.  1.
    10030    2    1    2    0    0  0.00000000000E+00  0.00000000000E+00 -0.98562161577E+03  0.16314237615E+04  0.13000359687E+04 0.  0.
        4    1    3    3  502    0 -0.46082756437E+03  0.33411916946E+03 -0.88670779712E+03  0.10536840104E+04  0.12699999809E+01 0.  1.
       -4    1    3    3    0  502  0.46082756437E+03 -0.33411916946E+03 -0.98913818651E+02  0.57773975102E+03  0.12699999809E+01 0. -1.
</event>
<event>
 5   0  0.6618060E-05  0.1299935E+04  0.7818609E-02  0.9029617E-01
        2   -1    0    0  501    0  0.00000000000E+00  0.00000000000E+00  0.11600361302E+04  0.11600361302E+04  0.25500000920E-02 0. -1.
       -2   -1    0    0    0  501  0.00000000000E+00  0.00000000000E+00 -0.36417627678E+03  0.36417627679E+03  0.25500000920E-02 0.  1.
    10030    2    1    2    0    0  0.00000000000E+00  0.00000000000E+00  0.79585985339E+03  0.15242124070E+04  0.12999348273E+04 0.  0.
        2    1    3    3  502    0 -0.24398346087E+03  0.32422912495E+03 -0.19741647931E+03  0.45124906754E+03  0.25500000920E-02 0.  1.
       -2    1    3    3    0  502  0.24398346087E+03 -0.32422912495E+03  0.99327633270E+03  0.10729633394E+04  0.25500000920E-02 0. -1.
</event>
<event>
 5   0  0.3631841E-05  0.1300892E+04  0.7818609E-02  0.9028858E-01
       -1   -1    0    0    0  501  0.00000000000E+00  0.00000000000E+00  0.34436068282E+03  0.34436068286E+03  0.50400001928E-02 0.  1.
        1   -1    0    0  501    0  0.00000000000E+00  0.00000000000E+00 -0.12285963953E+04  0.12285963953E+04  0.50400001928E-02 0. -1.
    10030    2    1    2    0    0  0.00000000000E+00  0.00000000000E+00 -0.88423571249E+03  0.15729570782E+04  0.13008924531E+04 0.  0.
        3    1    3    3  502    0 -0.25802022710E+02 -0.15859406524E+03  0.31998614617E+03  0.35806279596E+03  0.10100000352E+00 0.  1.
       -3    1    3    3    0  502  0.25802022710E+02  0.15859406524E+03 -0.12042218587E+04  0.12148942822E+04  0.10100000352E+00 0. -1.
</event>
<event>
 5   0  0.3552698E-05  0.1300873E+04  0.7818609E-02  0.9028873E-01
       -1   -1    0    0    0  501  0.00000000000E+00  0.00000000000E+00  0.29427996352E+03  0.29427996356E+03  0.50400001928E-02 0.  1.
        1   -1    0    0  501    0  0.00000000000E+00  0.00000000000E+00 -0.14376375217E+04  0.14376375217E+04  0.50400001928E-02 0. -1.
    10030    2    1    2    0    0  0.00000000000E+00  0.00000000000E+00 -0.11433575582E+04  0.17319174853E+04  0.13008734258E+04 0.  0.
        5    1    3    3  502    0  0.15869496034E+03  0.56369764582E+03 -0.94849238738E+03  0.11147192585E+04  0.46999998093E+01 0.  1.
       -5    1    3    3    0  502 -0.15869496034E+03 -0.56369764582E+03 -0.19486517079E+03  0.61719822677E+03  0.46999998093E+01 0. -1.
</event>
<event>
 5   0  0.3718559E-05  0.1299931E+04  0.7818609E-02  0.9029620E-01
       -1   -1    0    0    0  501  0.00000000000E+00  0.00000000000E+00  0.38139888678E+03  0.38139888681E+03  0.50400001928E-02 0. -1.
        1   -1    0    0  501    0  0.00000000000E+00  0.00000000000E+00 -0.11076463134E+04  0.11076463134E+04  0.50400001928E-02 0.  1.
    10030    2    1    2    0    0  0.00000000000E+00  0.00000000000E+00 -0.72624742664E+03  0.14890452003E+04  0.12999308765E+04 0.  0.
        2    1    3    3  502    0  0.17700055194E+03 -0.67315754110E+02  0.34909837331E+03  0.39715271671E+03  0.25500000920E-02 0. -1.
       -2    1    3    3    0  502 -0.17700055194E+03  0.67315754110E+02 -0.10753458000E+04  0.10918924835E+04  0.25500000920E-02 0.  1.
</event>
<event>
 5   0  0.3552698E-05  0.1300225E+04  0.7818609E-02  0.9029387E-01
       -1   -1    0    0    0  501  0.00000000000E+00  0.00000000000E+00  0.55433466355E+03  0.55433466357E+03  0.50400001928E-02 0.  1.
        1   -1    0    0  501    0  0.00000000000E+00  0.00000000000E+00 -0.76243886817E+03  0.76243886819E+03  0.50400001928E-02 0. -1.
    10030    2    1    2    0    0  0.00000000000E+00  0.00000000000E+00 -0.20810420462E+03  0.13167735318E+04  0.13002250474E+04 0.  0.
        5    1    3    3  502    0  0.49593685745E+03  0.27082925071E+03  0.22147691419E+03  0.60693983486E+03  0.46999998093E+01 0.  1.
       -5    1    3    3    0  502 -0.49593685745E+03 -0.27082925071E+03 -0.42958111881E+03  0.70983369690E+03  0.46999998093E+01 0. -1.
</event>
<event>
 5   0  0.6618060E-05  0.1300168E+04  0.7818609E-02  0.9029432E-01
       -2   -1    0    0    0  501  0.00000000000E+00  0.00000000000E+00  0.35528210404E+03  0.35528210405E+03  0.25500000920E-02 0. -1.
        2   -1    0    0  501    0  0.00000000000E+00  0.00000000000E+00 -0.11895035175E+04  0.11895035175E+04  0.25500000920E-02 0.  1.
    10030    2    1    2    0    0  0.00000000000E+00  0.00000000000E+00 -0.83422141347E+03  0.15447856216E+04  0.13001681622E+04 0.  0.
        2    1    3    3  502    0 -0.59586130125E+03  0.25202828563E+03 -0.49263366827E+03  0.81317702759E+03  0.25500000920E-02 0. -1.
       -2    1    3    3    0  502  0.59586130125E+03 -0.25202828563E+03 -0.34158774521E+03  0.73160859397E+03  0.25500000920E-02 0.  1.
</event>
<event>
 5   0  0.6618060E-05  0.1299427E+04  0.7818609E-02  0.9030020E-01
       -2   -1    0    0    0  501  0.00000000000E+00  0.00000000000E+00  0.82210145038E+03  0.82210145039E+03  0.25500000920E-02 0.  1.
        2   -1    0    0  501    0  0.00000000000E+00  0.00000000000E+00 -0.51347364334E+03  0.51347364335E+03  0.25500000920E-02 0. -1.
    10030    2    1    2    0    0  0.00000000000E+00  0.00000000000E+00  0.30862780704E+03  0.13355750937E+04  0.12994266842E+04 0.  0.
        2    1    3    3  502    0  0.49769247614E+03 -0.19058605286E+03  0.53627903577E+03  0.75605294032E+03  0.25500000920E-02 0.  1.
       -2    1    3    3    0  502 -0.49769247614E+03  0.19058605286E+03 -0.22765122874E+03  0.57952215342E+03  0.25500000920E-02 0. -1.
</event>
<event>
 5   0  0.3551277E-05  0.1299334E+04  0.7818609E-02  0.9030093E-01
       -1   -1    0    0    0  501  0.00000000000E+00  0.00000000000E+00  0.10220183511E+04  0.10220183511E+04  0.50400001928E-02 0. -1.
        1   -1    0    0  501    0  0.00000000000E+00  0.00000000000E+00 -0.41297442281E+03  0.41297442284E+03  0.50400001928E-02 0.  1.
    10030    2    1    2    0    0  0.00000000000E+00  0.00000000000E+00  0.60904392825E+03  0.14349927739E+04  0.12993343506E+04 0.  0.
        4    1    3    3  502    0 -0.37834715843E+03 -0.47885551150E+03  0.58517762626E+02  0.61308654742E+03  0.12699999809E+01 0.  1.
       -4    1    3    3    0  502  0.37834715843E+03  0.47885551150E+03  0.55052616562E+03  0.82190622648E+03  0.12699999809E+01 0. -1.
</event>
<event>
 5   0  0.6742824E-05  0.1299450E+04  0.7818609E-02  0.9030001E-01
       -2   -1    0    0    0  501  0.00000000000E+00  0.00000000000E+00  0.29031659942E+03  0.29031659943E+03  0.25500000920E-02 0. -1.
        2   -1    0    0  501    0  0.00000000000E+00  0.00000000000E+00 -0.14540775083E+04  0.14540775083E+04  0.25500000920E-02 0.  1.
    10030    2    1    2    0    0  0.00000000000E+00  0.00000000000E+00 -0.11637609088E+04  0.17443941077E+04  0.12994504031E+04 0.  0.
        4    1    3    3  502    0 -0.42788322180E+03  0.15733255539E+03 -0.12033211312E+04  0.12867870617E+04  0.12699999809E+01 0.  1.
       -4    1    3    3    0  502  0.42788322180E+03 -0.15733255539E+03  0.39560222317E+02  0.45760704603E+03  0.12699999809E+01 0. -1.
</event>
<event>
 5   0  0.3552698E-05  0.1299200E+04  0.7818609E-02  0.9030200E-01
        1   -1    0    0  501    0  0.00000000000E+00  0.00000000000E+00  0.18608861617E+04  0.18608861617E+04  0.50400001928E-02 0.  1.
       -1   -1    0    0    0  501  0.00000000000E+00  0.00000000000E+00 -0.22676299962E+03  0.22676299968E+03  0.50400001928E-02 0. -1.
    10030    2    1    2    0    0  0.00000000000E+00  0.00000000000E+00  0.16341231620E+04  0.20876491613E+04  0.12991999508E+04 0.  0.
        5    1    3    3  502    0  0.80182842388E+02  0.17578342322E+03 -0.17949623062E+03  0.26376142041E+03  0.46999998093E+01 0. -1.
       -5    1    3    3    0  502 -0.80182842388E+02 -0.17578342322E+03  0.18136193927E+04  0.18238877409E+04  0.46999998093E+01 0.  1.
</event>
<event>
 5   0  0.3552698E-05  0.1299563E+04  0.7818609E-02  0.9029912E-01
       -1   -1    0    0    0  501  0.00000000000E+00  0.00000000000E+00  0.18952623338E+03  0.18952623345E+03  0.50400001928E-02 0.  1.
        1   -1    0    0  501    0  0.00000000000E+00  0.00000000000E+00 -0.22277437427E+04  0.22277437427E+04  0.50400001928E-02 0. -1.
    10030    2    1    2    0    0  0.00000000000E+00  0.00000000000E+00 -0.20382175093E+04  0.24172699761E+04  0.12995628197E+04 0.  0.
        5    1    3    3  502    0  0.16723921487E+02 -0.15039692529E+03 -0.21944791378E+04  0.21996953654E+04  0.46999998093E+01 0. -1.
       -5    1    3    3    0  502 -0.16723921487E+02  0.15039692529E+03  0.15626162846E+03  0.21757461069E+03  0.46999998093E+01 0.  1.
</event>
<event>
 5   0  0.3631841E-05  0.1300358E+04  0.7818609E-02  0.9029281E-01
       -1   -1    0    0    0  501  0.00000000000E+00  0.00000000000E+00  0.25243517359E+03  0.25243517364E+03  0.50400001928E-02 0.  1.
        1   -1    0    0  501    0  0.00000000000E+00  0.00000000000E+00 -0.16746190736E+04  0.16746190736E+04  0.50400001928E-02 0. -1.
    10030    2    1    2    0    0  0.00000000000E+00  0.00000000000E+00 -0.14221839001E+04  0.19270542473E+04  0.13003580378E+04 0.  0.
        3    1    3    3  502    0  0.32631984818E+03  0.97976999435E+02 -0.15317297068E+04  0.15691653962E+04  0.10100000352E+00 0. -1.
       -3    1    3    3    0  502 -0.32631984818E+03 -0.97976999435E+02  0.10954580677E+03  0.35788885106E+03  0.10100000352E+00 0.  1.
</event>
<event>
 5   0  0.6618060E-05  0.1290788E+04  0.7818609E-02  0.9036903E-01
       -2   -1    0    0    0  501  0.00000000000E+00  0.00000000000E+00  0.11349946048E+04  0.11349946048E+04  0.25500000920E-02 0. -1.
        2   -1    0    0  501    0  0.00000000000E+00  0.00000000000E+00 -0.36699141498E+03  0.36699141499E+03  0.25500000920E-02 0.  1.
    10030    2    1    2    0    0  0.00000000000E+00  0.00000000000E+00  0.76800318979E+03  0.15019860198E+04  0.12907877843E+04 0.  0.
        2    1    3    3  502    0 -0.23308877636E+03 -0.33677612192E+03  0.96439559531E+03  0.10477630449E+04  0.25500000920E-02 0. -1.
       -2    1    3    3    0  502  0.23308877636E+03  0.33677612192E+03 -0.19639240552E+03  0.45422297488E+03  0.25500000920E-02 0.  1.
</event>
<event>
 5   0  0.3689707E-05  0.1301571E+04  0.7818609E-02  0.9028320E-01
       -1   -1    0    0    0  501  0.00000000000E+00  0.00000000000E+00  0.73115658341E+03  0.73115658342E+03  0.50400001928E-02 0.  1.
        1   -1    0    0  501    0  0.00000000000E+00  0.00000000000E+00 -0.57924942910E+03  0.57924942912E+03  0.50400001928E-02 0. -1.
    10030    2    1    2    0    0  0.00000000000E+00  0.00000000000E+00  0.15190715430E+03  0.13104060125E+04  0.13015714096E+04 0.  0.
        1    1    3    3  502    0  0.45269745204E+03  0.16093866615E+03 -0.36598582897E+03  0.60397174137E+03  0.50400001928E-02 0. -1.
       -1    1    3    3    0  502 -0.45269745204E+03 -0.16093866615E+03  0.51789298327E+03  0.70643427118E+03  0.50400001928E-02 0.  1.
</event>
<event>
 5   0  0.6618060E-05  0.1299923E+04  0.7818609E-02  0.9029627E-01
        2   -1    0    0  501    0  0.00000000000E+00  0.00000000000E+00  0.74950201201E+03  0.74950201201E+03  0.25500000920E-02 0. -1.
       -2   -1    0    0    0  501  0.00000000000E+00  0.00000000000E+00 -0.56364053031E+03  0.56364053032E+03  0.25500000920E-02 0.  1.
    10030    2    1    2    0    0  0.00000000000E+00  0.00000000000E+00  0.18586148169E+03  0.13131425423E+04  0.12999226308E+04 0.  0.
        2    1    3    3  502    0  0.18431601378E+03 -0.55719254041E+03 -0.18921926237E+03  0.61663591307E+03  0.25500000920E-02 0.  1.
       -2    1    3    3    0  502 -0.18431601378E+03  0.55719254041E+03  0.37508074406E+03  0.69650662926E+03  0.25500000920E-02 0. -1.
</event>
<event>
 5   0  0.6618060E-05  0.1300219E+04  0.7818609E-02  0.9029392E-01
       -2   -1    0    0    0  501  0.00000000000E+00  0.00000000000E+00  0.19086262400E+03  0.19086262402E+03  0.25500000920E-02 0. -1.
        2   -1    0    0  501    0  0.00000000000E+00  0.00000000000E+00 -0.22143796046E+04  0.22143796046E+04  0.25500000920E-02 0.  1.
    10030    2    1    2    0    0  0.00000000000E+00  0.00000000000E+00 -0.20235169806E+04  0.24052422286E+04  0.13002189075E+04 0.  0.
        2    1    3    3  502    0 -0.15913937819E+03 -0.46035225153E+03 -0.18082639066E+04  0.18727167146E+04  0.25500000920E-02 0.  1.
       -2    1    3    3    0  502  0.15913937819E+03  0.46035225153E+03 -0.21525307393E+03  0.53252551396E+03  0.25500000920E-02 0. -1.
</event>
<event>
 5   0  0.3631841E-05  0.1299578E+04  0.7818609E-02  0.9029900E-01
        1   -1    0    0  501    0  0.00000000000E+00  0.00000000000E+00  0.19700033101E+04  0.19700033101E+04  0.50400001928E-02 0.  1.
       -1   -1    0    0    0  501  0.00000000000E+00  0.00000000000E+00 -0.21432747136E+03  0.21432747142E+03  0.50400001928E-02 0. -1.
    10030    2    1    2    0    0  0.00000000000E+00  0.00000000000E+00  0.17556758387E+04  0.21843307815E+04  0.12995781286E+04 0.  0.
        3    1    3    3  502    0 -0.43286204485E+03  0.42228928393E+03  0.47821725967E+03  0.77096663147E+03  0.10100000352E+00 0. -1.
       -3    1    3    3    0  502  0.43286204485E+03 -0.42228928393E+03  0.12774585790E+04  0.14133641500E+04  0.10100000352E+00 0.  1.
</event>
<event>
 5   0  0.3689707E-05  0.1300014E+04  0.7818609E-02  0.9029554E-01
        1   -1    0    0  501    0  0.00000000000E+00  0.00000000000E+00  0.60677446939E+03  0.60677446941E+03  0.50400001928E-02 0.  1.
       -1   -1    0    0    0  501  0.00000000000E+00  0.00000000000E+00 -0.69632024982E+03  0.69632024984E+03  0.50400001928E-02 0. -1.
    10030    2    1    2    0    0  0.00000000000E+00  0.00000000000E+00 -0.89545780425E+02  0.13030947193E+04  0.13000143847E+04 0.  0.
        1    1    3    3  502    0 -0.24380848738E+03 -0.59986793188E+02 -0.64575031703E+03  0.69284519616E+03  0.50400001928E-02 0. -1.
       -1    1    3    3    0  502  0.24380848738E+03  0.59986793188E+02  0.55620453660E+03  0.61024952309E+03  0.50400001928E-02 0.  1.
</event>
<event>
 5   0  0.3631841E-05  0.1301098E+04  0.7818609E-02  0.9028695E-01
       -1   -1    0    0    0  501  0.00000000000E+00  0.00000000000E+00  0.95164702223E+03  0.95164702224E+03  0.50400001928E-02 0.  1.
        1   -1    0    0  501    0  0.00000000000E+00  0.00000000000E+00 -0.44471772965E+03  0.44471772968E+03  0.50400001928E-02 0. -1.
    10030    2    1    2    0    0  0.00000000000E+00  0.00000000000E+00  0.50692929258E+03  0.13963647519E+04  0.13010984639E+04 0.  0.
        3    1    3    3  502    0  0.59865862708E+02  0.61932737329E+03  0.49654633136E+02  0.62419220566E+03  0.10100000352E+00 0. -1.
       -3    1    3    3    0  502 -0.59865862708E+02 -0.61932737329E+03  0.45727465944E+03  0.77217254625E+03  0.10100000352E+00 0.  1.
</event>
<event>
 5   0  0.3552698E-05  0.1300072E+04  0.7818609E-02  0.9029508E-01
        1   -1    0    0  501    0  0.00000000000E+00  0.00000000000E+00  0.14019381922E+04  0.14019381922E+04  0.50400001928E-02 0. -1.
       -1   -1    0    0    0  501  0.00000000000E+00  0.00000000000E+00 -0.30140168650E+03  0.30140168654E+03  0.50400001928E-02 0.  1.
    10030    2    1    2    0    0  0.00000000000E+00  0.00000000000E+00  0.11005365057E+04  0.17033398787E+04  0.13000715911E+04 0.  0.
        5    1    3    3  502    0 -0.17224006981E+03  0.47696820441E+03  0.17487971279E+02  0.50743790635E+03  0.46999998093E+01 0.  1.
       -5    1    3    3    0  502  0.17224006981E+03 -0.47696820441E+03  0.10830485344E+04  0.11959019724E+04  0.46999998093E+01 0. -1.
</event>
<event>
 5   0  0.3551277E-05  0.1299518E+04  0.7818609E-02  0.9029947E-01
       -1   -1    0    0    0  501  0.00000000000E+00  0.00000000000E+00  0.25252904746E+03  0.25252904751E+03  0.50400001928E-02 0.  1.
        1   -1    0    0  501    0  0.00000000000E+00  0.00000000000E+00 -0.16718343741E+04  0.16718343741E+04  0.50400001928E-02 0. -1.
    10030    2    1    2    0    0  0.00000000000E+00  0.00000000000E+00 -0.14193053266E+04  0.19243634216E+04  0.12995179753E+04 0.  0.
        4    1    3    3  502    0 -0.47908121345E+03 -0.15136818808E+03 -0.13197720144E+04  0.14121724117E+04  0.12699999809E+01 0. -1.
       -4    1    3    3    0  502  0.47908121345E+03  0.15136818808E+03 -0.99533312159E+02  0.51219100985E+03  0.12699999809E+01 0.  1.
</event>
<event>
 5   0  0.3551277E-05  0.1300293E+04  0.7818609E-02  0.9029333E-01
        1   -1    0    0  501    0  0.00000000000E+00  0.00000000000E+00  0.80480896815E+03  0.80480896817E+03  0.50400001928E-02 0.  1.
       -1   -1    0    0    0  501  0.00000000000E+00  0.00000000000E+00 -0.52520575071E+03  0.52520575073E+03  0.50400001928E-02 0. -1.
    10030    2    1    2    0    0  0.00000000000E+00  0.00000000000E+00  0.27960321744E+03  0.13300147189E+04  0.13002927337E+04 0.  0.
        4    1    3    3  502    0  0.38346840971E+03  0.48622887335E+02 -0.39490609146E+03  0.55259808214E+03  0.12699999809E+01 0. -1.
       -4    1    3    3    0  502 -0.38346840971E+03 -0.48622887335E+02  0.67450930890E+03  0.77741663676E+03  0.12699999809E+01 0.  1.
</event>
<event>
 5   0  0.6671239E-05  0.1300473E+04  0.7818609E-02  0.9029190E-01
        2   -1    0    0  501    0  0.00000000000E+00  0.00000000000E+00  0.61588222067E+03  0.61588222068E+03  0.25500000920E-02 0. -1.
       -2   -1    0    0    0  501  0.00000000000E+00  0.00000000000E+00 -0.68650668208E+03  0.68650668209E+03  0.25500000920E-02 0.  1.
    10030    2    1    2    0    0  0.00000000000E+00  0.00000000000E+00 -0.70624461412E+02  0.13023889028E+04  0.13004726216E+04 0.  0.
        1    1    3    3  502    0 -0.42409849190E+03  0.56079353004E+02 -0.52573048856E+03  0.67778829386E+03  0.50400001928E-02 0.  1.
       -1    1    3    3    0  502  0.42409849190E+03 -0.56079353004E+02  0.45510602715E+03  0.62460060890E+03  0.50400001928E-02 0. -1.
</event>
<event>
 5   0  0.6458698E-05  0.1299833E+04  0.7818609E-02  0.9029698E-01
       -2   -1    0    0    0  501  0.00000000000E+00  0.00000000000E+00  0.27826136356E+03  0.27826136357E+03  0.25500000920E-02 0.  1.
        2   -1    0    0  501    0  0.00000000000E+00  0.00000000000E+00 -0.15179668767E+04  0.15179668767E+04  0.25500000920E-02 0. -1.
    10030    2    1    2    0    0  0.00000000000E+00  0.00000000000E+00 -0.12397055131E+04  0.17962282402E+04  0.12998331169E+04 0.  0.
        3    1    3    3  502    0  0.18465686146E+03 -0.25869542227E+03  0.16353471016E+03  0.35744242840E+03  0.10100000352E+00 0.  1.
       -3    1    3    3    0  502 -0.18465686146E+03  0.25869542227E+03 -0.14032402233E+04  0.14387858119E+04  0.10100000352E+00 0. -1.
</event>
<event>
 5   0  0.3552698E-05  0.1300064E+04  0.7818609E-02  0.9029514E-01
       -1   -1    0    0    0  501  0.00000000000E+00  0.00000000000E+00  0.15664580573E+04  0.15664580573E+04  0.50400001928E-02 0.  1.
        1   -1    0    0  501    0  0.00000000000E+00  0.00000000000E+00 -0.26974352710E+03  0.26974352715E+03  0.50400001928E-02 0. -1.
    10030    2    1    2    0    0  0.00000000000E+00  0.00000000000E+00  0.12967145302E+04  0.18362015844E+04  0.13000644930E+04 0.  0.
        5    1    3    3  502    0  0.11582452363E+03  0.52816566403E+03  0.11578876762E+04  0.12779281082E+04  0.46999998093E+01 0.  1.
       -5    1    3    3    0  502 -0.11582452363E+03 -0.52816566403E+03  0.13882685399E+03  0.55827347628E+03  0.46999998093E+01 0. -1.
</event>
<event>
 5   0  0.6618060E-05  0.1300075E+04  0.7818609E-02  0.9029506E-01
        2   -1    0    0  501    0  0.00000000000E+00  0.00000000000E+00  0.10592648995E+04  0.10592648995E+04  0.25500000920E-02 0. -1.
       -2   -1    0    0    0  501  0.00000000000E+00  0.00000000000E+00 -0.39890765791E+03  0.39890765792E+03  0.25500000920E-02 0.  1.
    10030    2    1    2    0    0  0.00000000000E+00  0.00000000000E+00  0.66035724161E+03  0.14581725574E+04  0.13000751981E+04 0.  0.
        2    1    3    3  502    0  0.64407139376E+03 -0.57871640593E+02  0.40433871097E+03  0.76267088593E+03  0.25500000920E-02 0. -1.
       -2    1    3    3    0  502 -0.64407139376E+03  0.57871640593E+02  0.25601853064E+03  0.69550167152E+03  0.25500000920E-02 0.  1.
</event>
<event>
 5   0  0.6742824E-05  0.1299878E+04  0.7818609E-02  0.9029662E-01
        2   -1    0    0  501    0  0.00000000000E+00  0.00000000000E+00  0.54934833685E+03  0.54934833686E+03  0.25500000920E-02 0. -1.
       -2   -1    0    0    0  501  0.00000000000E+00  0.00000000000E+00 -0.76894854139E+03  0.76894854139E+03  0.25500000920E-02 0.  1.
    10030    2    1    2    0    0  0.00000000000E+00  0.00000000000E+00 -0.21960020454E+03  0.13182968783E+04  0.12998778440E+04 0.  0.
        4    1    3    3  502    0 -0.11338641730E+03  0.18439016208E+03 -0.73131558743E+03  0.76267969215E+03  0.12699999809E+01 0.  1.
       -4    1    3    3    0  502  0.11338641730E+03 -0.18439016208E+03  0.51171538289E+03  0.55561718610E+03  0.12699999809E+01 0. -1.
</event>
<event>
 5   0  0.3551277E-05  0.1300472E+04  0.7818609E-02  0.9029191E-01
       -1   -1    0    0    0  501  0.00000000000E+00  0.00000000000E+00  0.32364350698E+03  0.32364350702E+03  0.50400001928E-02 0.  1.
        1   -1    0    0  501    0  0.00000000000E+00  0.00000000000E+00 -0.13063972976E+04  0.13063972976E+04  0.50400001928E-02 0. -1.
    10030    2    1    2    0    0  0.00000000000E+00  0.00000000000E+00 -0.98275379064E+03  0.16300408046E+04  0.13004722265E+04 0.  0.
        4    1    3    3  502    0  0.33024259868E+03 -0.95877114098E+02  0.20034048714E+03  0.39798306331E+03  0.12699999809E+01 0.  1.
       -4    1    3    3    0  502 -0.33024259868E+03  0.95877114098E+02 -0.11830942778E+04  0.12320577413E+04  0.12699999809E+01 0. -1.
</event>
<event>
 5   0  0.6688086E-05  0.1299962E+04  0.7818609E-02  0.9029596E-01
       -2   -1    0    0    0  501  0.00000000000E+00  0.00000000000E+00  0.52423463951E+03  0.52423463952E+03  0.25500000920E-02 0. -1.
        2   -1    0    0  501    0  0.00000000000E+00  0.00000000000E+00 -0.80588929969E+03  0.80588929970E+03  0.25500000920E-02 0.  1.
    10030    2    1    2    0    0  0.00000000000E+00  0.00000000000E+00 -0.28165466018E+03  0.13301239392E+04  0.12999616710E+04 0.  0.
        5    1    3    3  502    0  0.17642642669E+03 -0.92581010431E+02  0.49219971477E+03  0.53101805689E+03  0.46999998093E+01 0. -1.
       -5    1    3    3    0  502 -0.17642642669E+03  0.92581010431E+02 -0.77385437495E+03  0.79910588232E+03  0.46999998093E+01 0.  1.
</event>
<event>
 5   0  0.6458698E-05  0.1299803E+04  0.7818609E-02  0.9029722E-01
       -2   -1    0    0    0  501  0.00000000000E+00  0.00000000000E+00  0.78140880524E+03  0.78140880525E+03  0.25500000920E-02 0.  1.
        2   -1    0    0  501    0  0.00000000000E+00  0.00000000000E+00 -0.54052593437E+03  0.54052593438E+03  0.25500000920E-02 0. -1.
    10030    2    1    2    0    0  0.00000000000E+00  0.00000000000E+00  0.24088287087E+03  0.13219347396E+04  0.12998026382E+04 0.  0.
        3    1    3    3  502    0  0.41936462781E+03  0.31034590854E+03  0.51458437107E+03  0.73278807247E+03  0.10100000352E+00 0.  1.
       -3    1    3    3    0  502 -0.41936462781E+03 -0.31034590854E+03 -0.27370150020E+03  0.58914666715E+03  0.10100000352E+00 0. -1.
</event>
<event>
 5   0  0.3551277E-05  0.1299244E+04  0.7818609E-02  0.9030165E-01
        1   -1    0    0  501    0  0.00000000000E+00  0.00000000000E+00  0.11668487252E+04  0.11668487252E+04  0.50400001928E-02 0.  1.
       -1   -1    0    0    0  501  0.00000000000E+00  0.00000000000E+00 -0.36166515917E+03  0.36166515921E+03  0.50400001928E-02 0. -1.
    10030    2    1    2    0    0  0.00000000000E+00  0.00000000000E+00  0.80518356600E+03  0.15285138844E+04  0.12992436722E+04 0.  0.
        4    1    3    3  502    0  0.40542455034E+03 -0.33534932365E+03 -0.45668439766E+02  0.52812446846E+03  0.12699999809E+01 0. -1.
       -4    1    3    3    0  502 -0.40542455034E+03  0.33534932365E+03  0.85085200577E+03  0.10003894159E+04  0.12699999809E+01 0.  1.
</event>
<event>
 5   0  0.2512000E-05  0.1298635E+04  0.7818609E-02  0.9030648E-01
        3   -1    0    0  501    0  0.00000000000E+00  0.00000000000E+00  0.49207585837E+03  0.49207586873E+03  0.10100000352E+00 0. -1.
       -3   -1    0    0    0  501  0.00000000000E+00  0.00000000000E+00 -0.85680595798E+03  0.85680596393E+03  0.10100000352E+00 0.  1.
    10030    2    1    2    0    0  0.00000000000E+00  0.00000000000E+00 -0.36473009961E+03  0.13488818327E+04  0.12986354966E+04 0.  0.
        5    1    3    3  502    0 -0.49250607006E+03 -0.38473422333E+03  0.54143019693E+00  0.62498402763E+03  0.46999998093E+01 0.  1.
       -5    1    3    3    0  502  0.49250607006E+03  0.38473422333E+03 -0.36527152981E+03  0.72389780503E+03  0.46999998093E+01 0. -1.
</event>
<event>
 5   0  0.3689707E-05  0.1300609E+04  0.7818609E-02  0.9029083E-01
       -1   -1    0    0    0  501  0.00000000000E+00  0.00000000000E+00  0.32449060407E+03  0.32449060411E+03  0.50400001928E-02 0. -1.
        1   -1    0    0  501    0  0.00000000000E+00  0.00000000000E+00 -0.13032602285E+04  0.13032602285E+04  0.50400001928E-02 0.  1.
    10030    2    1    2    0    0  0.00000000000E+00  0.00000000000E+00 -0.97876962442E+03  0.16277508326E+04  0.13006086250E+04 0.  0.
        1    1    3    3  502    0 -0.24347612722E+03  0.17077720784E+03  0.23439595602E+03  0.37866468473E+03  0.50400001928E-02 0. -1.
       -1    1    3    3    0  502  0.24347612722E+03 -0.17077720784E+03 -0.12131655804E+04  0.12490861479E+04  0.50400001928E-02 0.  1.
</event>
<event>
 5   0  0.6742824E-05  0.1302011E+04  0.7818609E-02  0.9027972E-01
        2   -1    0    0  501    0  0.00000000000E+00  0.00000000000E+00  0.10956945514E+04  0.10956945514E+04  0.25500000920E-02 0. -1.
       -2   -1    0    0    0  501  0.00000000000E+00  0.00000000000E+00 -0.38679411378E+03  0.38679411379E+03  0.25500000920E-02 0.  1.
    10030    2    1    2    0    0  0.00000000000E+00  0.00000000000E+00  0.70890043765E+03  0.14824886652E+04  0.13020110645E+04 0.  0.
        4    1    3    3  502    0 -0.57175614290E+03 -0.10190665431E+03  0.68935879613E+03  0.90139182149E+03  0.12699999809E+01 0.  1.
       -4    1    3    3    0  502  0.57175614290E+03  0.10190665431E+03  0.19541641512E+02  0.58109684373E+03  0.12699999809E+01 0. -1.
</event>
<event>
 5   0  0.6458698E-05  0.1299434E+04  0.7818609E-02  0.9030014E-01
       -2   -1    0    0    0  501  0.00000000000E+00  0.00000000000E+00  0.26033558082E+03  0.26033558083E+03  0.25500000920E-02 0. -1.
        2   -1    0    0  501    0  0.00000000000E+00  0.00000000000E+00 -0.16214935628E+04  0.16214935628E+04  0.25500000920E-02 0.  1.
    10030    2    1    2    0    0  0.00000000000E+00  0.00000000000E+00 -0.13611579820E+04  0.18818291436E+04  0.12994344439E+04 0.  0.
        3    1    3    3  502    0 -0.34604173109E+03 -0.15375664828E+03 -0.14451723212E+04  0.14939575077E+04  0.10100000352E+00 0.  1.
       -3    1    3    3    0  502  0.34604173109E+03  0.15375664828E+03  0.84014339265E+02  0.38787163592E+03  0.10100000352E+00 0. -1.
</event>
<event>
 5   0  0.6618060E-05  0.1302543E+04  0.7818609E-02  0.9027551E-01
       -2   -1    0    0    0  501  0.00000000000E+00  0.00000000000E+00  0.62343228062E+03  0.62343228063E+03  0.25500000920E-02 0.  1.
        2   -1    0    0  501    0  0.00000000000E+00  0.00000000000E+00 -0.68035439204E+03  0.68035439205E+03  0.25500000920E-02 0. -1.
    10030    2    1    2    0    0  0.00000000000E+00  0.00000000000E+00 -0.56922111419E+02  0.13037866727E+04  0.13025434968E+04 0.  0.
        2    1    3    3  502    0  0.63223468476E+03  0.12363380525E+02 -0.18443448891E+03  0.65870299111E+03  0.25500000920E-02 0.  1.
       -2    1    3    3    0  502 -0.63223468476E+03 -0.12363380525E+02  0.12751237750E+03  0.64508368156E+03  0.25500000920E-02 0. -1.
</event>
<event>
 5   0  0.6618060E-05  0.1299953E+04  0.7818609E-02  0.9029602E-01
       -2   -1    0    0    0  501  0.00000000000E+00  0.00000000000E+00  0.49204219064E+03  0.49204219064E+03  0.25500000920E-02 0.  1.
        2   -1    0    0  501    0  0.00000000000E+00  0.00000000000E+00 -0.85860451973E+03  0.85860451973E+03  0.25500000920E-02 0. -1.
    10030    2    1    2    0    0  0.00000000000E+00  0.00000000000E+00 -0.36656232909E+03  0.13506467104E+04  0.12999533050E+04 0.  0.
        2    1    3    3  502    0 -0.20765827170E+03 -0.45620137180E+03 -0.61321478096E+03  0.79200632386E+03  0.25500000920E-02 0. -1.
       -2    1    3    3    0  502  0.20765827170E+03  0.45620137180E+03  0.24665245186E+03  0.55864038652E+03  0.25500000920E-02 0.  1.
</event>
<event>
 5   0  0.6742824E-05  0.1300737E+04  0.7818609E-02  0.9028981E-01
       -2   -1    0    0    0  501  0.00000000000E+00  0.00000000000E+00  0.54973950329E+03  0.54973950329E+03  0.25500000920E-02 0. -1.
        2   -1    0    0  501    0  0.00000000000E+00  0.00000000000E+00 -0.76941776488E+03  0.76941776488E+03  0.25500000920E-02 0.  1.
    10030    2    1    2    0    0  0.00000000000E+00  0.00000000000E+00 -0.21967826159E+03  0.13191572682E+04  0.13007372369E+04 0.  0.
        4    1    3    3  502    0  0.15703919747E+03  0.47307719934E+03 -0.53350415474E+03  0.73013124992E+03  0.12699999809E+01 0.  1.
       -4    1    3    3    0  502 -0.15703919747E+03 -0.47307719934E+03  0.31382589315E+03  0.58902601826E+03  0.12699999809E+01 0. -1.
</event>
<event>
 5   0  0.6688086E-05  0.1297276E+04  0.7818609E-02  0.9031728E-01
        2   -1    0    0  501    0  0.00000000000E+00  0.00000000000E+00  0.10093974019E+04  0.10093974019E+04  0.25500000920E-02 0.  1.
       -2   -1    0    0    0  501  0.00000000000E+00  0.00000000000E+00 -0.41681453477E+03  0.41681453478E+03  0.25500000920E-02 0. -1.
    10030    2    1    2    0    0  0.00000000000E+00  0.00000000000E+00  0.59258286715E+03  0.14262119367E+04  0.12972763907E+04 0.  0.
        5    1    3    3  502    0 -0.24740580807E+03  0.54394545241E+03  0.57359730562E+03  0.82832496527E+03  0.46999998093E+01 0. -1.
       -5    1    3    3    0  502  0.24740580807E+03 -0.54394545241E+03  0.18985561524E+02  0.59788697144E+03  0.46999998093E+01 0.  1.
</event>
<event>
 5   0  0.6688086E-05  0.1300048E+04  0.7818609E-02  0.9029527E-01
        2   -1    0    0  501    0  0.00000000000E+00  0.00000000000E+00  0.61706894397E+03  0.61706894398E+03  0.25500000920E-02 0. -1.
       -2   -1    0    0    0  501  0.00000000000E+00  0.00000000000E+00 -0.68473927600E+03  0.68473927600E+03  0.25500000920E-02 0.  1.
    10030    2    1    2    0    0  0.00000000000E+00  0.00000000000E+00 -0.67670332025E+02  0.13018082200E+04  0.13000482175E+04 0.  0.
        5    1    3    3  502    0 -0.15621918604E+03  0.10992399570E+03 -0.65598260093E+03  0.68324445233E+03  0.46999998093E+01 0.  1.
       -5    1    3    3    0  502  0.15621918604E+03 -0.10992399570E+03  0.58831226890E+03  0.61856376766E+03  0.46999998093E+01 0. -1.
</event>
<event>
 5   0  0.6458698E-05  0.1300106E+04  0.7818609E-02  0.9029481E-01
        2   -1    0    0  501    0  0.00000000000E+00  0.00000000000E+00  0.98269804935E+03  0.98269804935E+03  0.25500000920E-02 0.  1.
       -2   -1    0    0    0  501  0.00000000000E+00  0.00000000000E+00 -0.43000899411E+03  0.43000899412E+03  0.25500000920E-02 0. -1.
    10030    2    1    2    0    0  0.00000000000E+00  0.00000000000E+00  0.55268905524E+03  0.14127070435E+04  0.13001061491E+04 0.  0.
        3    1    3    3  502    0  0.29050190931E+03  0.19870437142E+03 -0.31751905657E+03  0.47401808828E+03  0.10100000352E+00 0. -1.
       -3    1    3    3    0  502 -0.29050190931E+03 -0.19870437142E+03  0.87020811180E+03  0.93868895519E+03  0.10100000352E+00 0.  1.
</event>
<event>
 5   0  0.3689707E-05  0.1299378E+04  0.7818609E-02  0.9030059E-01
        1   -1    0    0  501    0  0.00000000000E+00  0.00000000000E+00  0.10860061888E+04  0.10860061888E+04  0.50400001928E-02 0.  1.
       -1   -1    0    0    0  501  0.00000000000E+00  0.00000000000E+00 -0.38866786774E+03  0.38866786777E+03  0.50400001928E-02 0. -1.
    10030    2    1    2    0    0  0.00000000000E+00  0.00000000000E+00  0.69733832107E+03  0.14746740566E+04  0.12993778662E+04 0.  0.
        1    1    3    3  502    0  0.64765356968E+03 -0.50723860851E+02  0.35800396774E+03  0.74175123682E+03  0.50400001928E-02 0.  1.
       -1    1    3    3    0  502 -0.64765356968E+03  0.50723860851E+02  0.33933435333E+03  0.73292281977E+03  0.50400001928E-02 0. -1.
</event>
<event>
 5   0  0.3689707E-05  0.1299728E+04  0.7818609E-02  0.9029781E-01
        1   -1    0    0  501    0  0.00000000000E+00  0.00000000000E+00  0.10059110200E+04  0.10059110201E+04  0.50400001928E-02 0.  1.
       -1   -1    0    0    0  501  0.00000000000E+00  0.00000000000E+00 -0.41984165301E+03  0.41984165304E+03  0.50400001928E-02 0. -1.
    10030    2    1    2    0    0  0.00000000000E+00  0.00000000000E+00  0.58606936704E+03  0.14257526731E+04  0.12997281954E+04 0.  0.
        1    1    3    3  502    0  0.36933989820E+03  0.41106067880E+03  0.66815806420E+03  0.86707441482E+03  0.50400001928E-02 0.  1.
       -1    1    3    3    0  502 -0.36933989820E+03 -0.41106067880E+03 -0.82088697158E+02  0.55867825828E+03  0.50400001928E-02 0. -1.
</event>
<event>
 5   0  0.6618060E-05  0.1299775E+04  0.7818609E-02  0.9029744E-01
       -2   -1    0    0    0  501  0.00000000000E+00  0.00000000000E+00  0.13781644930E+04  0.13781644930E+04  0.25500000920E-02 0. -1.
        2   -1    0    0  501    0  0.00000000000E+00  0.00000000000E+00 -0.30646101845E+03  0.30646101847E+03  0.25500000920E-02 0.  1.
    10030    2    1    2    0    0  0.00000000000E+00  0.00000000000E+00  0.10717034745E+04  0.16846255114E+04  0.12997748945E+04 0.  0.
        2    1    3    3  502    0  0.64737470074E+03  0.18901074061E+02  0.60567769180E+03  0.88673373687E+03  0.25500000920E-02 0.  1.
       -2    1    3    3    0  502 -0.64737470074E+03 -0.18901074061E+02  0.46602578271E+03  0.79789177456E+03  0.25500000920E-02 0. -1.
</event>
<event>
 5   0  0.6742824E-05  0.1296747E+04  0.7818609E-02  0.9032149E-01
        2   -1    0    0  501    0  0.00000000000E+00  0.00000000000E+00  0.65780345021E+03  0.65780345022E+03  0.25500000920E-02 0. -1.
       -2   -1    0    0    0  501  0.00000000000E+00  0.00000000000E+00 -0.63907905206E+03  0.63907905206E+03  0.25500000920E-02 0.  1.
    10030    2    1    2    0    0  0.00000000000E+00  0.00000000000E+00  0.18724398155E+02  0.12968825023E+04  0.12967473237E+04 0.  0.
        4    1    3    3  502    0  0.56527572694E+03 -0.31688040687E+03  0.30267793656E+02  0.64874308625E+03  0.12699999809E+01 0.  1.
       -4    1    3    3    0  502 -0.56527572694E+03  0.31688040687E+03 -0.11543395501E+02  0.64813941603E+03  0.12699999809E+01 0. -1.
</event>
<event>
 5   0  0.3552698E-05  0.1300349E+04  0.7818609E-02  0.9029288E-01
        1   -1    0    0  501    0  0.00000000000E+00  0.00000000000E+00  0.12458630233E+04  0.12458630233E+04  0.50400001928E-02 0.  1.
       -1   -1    0    0    0  501  0.00000000000E+00  0.00000000000E+00 -0.33930457917E+03  0.33930457921E+03  0.50400001928E-02 0. -1.
    10030    2    1    2    0    0  0.00000000000E+00  0.00000000000E+00  0.90655844412E+03  0.15851676025E+04  0.13003492283E+04 0.  0.
        5    1    3    3  502    0  0.11730507739E+03  0.63806245699E+03  0.40126269224E+03  0.76283551201E+03  0.46999998093E+01 0.  1.
       -5    1    3    3    0  502 -0.11730507739E+03 -0.63806245699E+03  0.50529575189E+03  0.82233209051E+03  0.46999998093E+01 0. -1.
</event>
<event>
 5   0  0.2512000E-05  0.1299620E+04  0.7818609E-02  0.9029867E-01
       -3   -1    0    0    0  501  0.00000000000E+00  0.00000000000E+00  0.14538096528E+04  0.14538096564E+04  0.10100000352E+00 0.  1.
        3   -1    0    0  501    0  0.00000000000E+00  0.00000000000E+00 -0.29044582766E+03  0.29044584522E+03  0.10100000352E+00 0. -1.
    10030    2    1    2    0    0  0.00000000000E+00  0.00000000000E+00  0.11633638252E+04  0.17442555016E+04  0.12996198925E+04 0.  0.
        4    1    3    3  502    0 -0.22277142519E+03 -0.12722721578E+03  0.13829639999E+04  0.14065578233E+04  0.12699999809E+01 0.  1.
       -4    1    3    3    0  502  0.22277142519E+03  0.12722721578E+03 -0.21960017469E+03  0.33769767831E+03  0.12699999809E+01 0. -1.
</event>
<event>
 5   0  0.6671239E-05  0.1300819E+04  0.7818609E-02  0.9028916E-01
       -2   -1    0    0    0  501  0.00000000000E+00  0.00000000000E+00  0.42720763543E+03  0.42720763544E+03  0.25500000920E-02 0. -1.
        2   -1    0    0  501    0  0.00000000000E+00  0.00000000000E+00 -0.99022694384E+03  0.99022694384E+03  0.25500000920E-02 0.  1.
    10030    2    1    2    0    0  0.00000000000E+00  0.00000000000E+00 -0.56301930840E+03  0.14174345793E+04  0.13008189901E+04 0.  0.
        1    1    3    3  502    0 -0.57664210628E+03  0.60472342332E+02  0.39630630700E+02  0.58115713008E+03  0.50400001928E-02 0. -1.
       -1    1    3    3    0  502  0.57664210628E+03 -0.60472342332E+02 -0.60264993910E+03  0.83627744920E+03  0.50400001928E-02 0.  1.
</event>
<event>
 5   0  0.3552698E-05  0.1300012E+04  0.7818609E-02  0.9029555E-01
       -1   -1    0    0    0  501  0.00000000000E+00  0.00000000000E+00  0.42155265535E+03  0.42155265538E+03  0.50400001928E-02 0. -1.
        1   -1    0    0  501    0  0.00000000000E+00  0.00000000000E+00 -0.10022663918E+04  0.10022663918E+04  0.50400001928E-02 0.  1.
    10030    2    1    2    0    0  0.00000000000E+00  0.00000000000E+00 -0.58071373641E+03  0.14238190472E+04  0.13000123982E+04 0.  0.
        5    1    3    3  502    0 -0.44768761018E+03 -0.38574240430E+03 -0.58680881518E+03  0.83281935277E+03  0.46999998093E+01 0.  1.
       -5    1    3    3    0  502  0.44768761018E+03  0.38574240430E+03  0.60950787716E+01  0.59099969439E+03  0.46999998093E+01 0. -1.
</event>
<event>
 5   0  0.3551277E-05  0.1300023E+04  0.7818609E-02  0.9029547E-01
        1   -1    0    0  501    0  0.00000000000E+00  0.00000000000E+00  0.26386436620E+04  0.26386436620E+04  0.50400001928E-02 0. -1.
       -1   -1    0    0    0  501  0.00000000000E+00  0.00000000000E+00 -0.16012570032E+03  0.16012570040E+03  0.50400001928E-02 0.  1.
    10030    2    1    2    0    0  0.00000000000E+00  0.00000000000E+00  0.24785179617E+04  0.27987693624E+04  0.13000225604E+04 0.  0.
        4    1    3    3  502    0 -0.37307779502E+03  0.12904629416E+03  0.23510055497E+04  0.23839187685E+04  0.12699999809E+01 0. -1.
       -4    1    3    3    0  502  0.37307779502E+03 -0.12904629416E+03  0.12751241200E+03  0.41485059393E+03  0.12699999809E+01 0.  1.
</event>
<event>
 5   0  0.3689707E-05  0.1299466E+04  0.7818609E-02  0.9029988E-01
        1   -1    0    0  501    0  0.00000000000E+00  0.00000000000E+00  0.16793740410E+04  0.16793740410E+04  0.50400001928E-02 0.  1.
       -1   -1    0    0    0  501  0.00000000000E+00  0.00000000000E+00 -0.25137537959E+03  0.25137537964E+03  0.50400001928E-02 0. -1.
    10030    2    1    2    0    0  0.00000000000E+00  0.00000000000E+00  0.14279986614E+04  0.19307494207E+04  0.12994664860E+04 0.  0.
        1    1    3    3  502    0  0.24798176494E+03 -0.56286583885E+02  0.16023672584E+04  0.16224191709E+04  0.50400001928E-02 0.  1.
       -1    1    3    3    0  502 -0.24798176494E+03  0.56286583885E+02 -0.17436859699E+03  0.30833024975E+03  0.50400001928E-02 0. -1.
</event>
<event>
 5   0  0.3689707E-05  0.1300279E+04  0.7818609E-02  0.9029344E-01
        1   -1    0    0  501    0  0.00000000000E+00  0.00000000000E+00  0.11731098071E+04  0.11731098071E+04  0.50400001928E-02 0.  1.
       -1   -1    0    0    0  501  0.00000000000E+00  0.00000000000E+00 -0.36030869618E+03  0.36030869621E+03  0.50400001928E-02 0. -1.
    10030    2    1    2    0    0  0.00000000000E+00  0.00000000000E+00  0.81280111093E+03  0.15334185033E+04  0.13002794548E+04 0.  0.
        1    1    3    3  502    0 -0.60150051076E+03 -0.38258309757E+02  0.11894386321E+03  0.61434046369E+03  0.50400001928E-02 0. -1.
       -1    1    3    3    0  502  0.60150051076E+03  0.38258309757E+02  0.69385724772E+03  0.91907803964E+03  0.50400001928E-02 0.  1.
</event>
<event>
 5   0  0.3689707E-05  0.1293383E+04  0.7818609E-02  0.9034829E-01
       -1   -1    0    0    0  501  0.00000000000E+00  0.00000000000E+00  0.71402418229E+03  0.71402418230E+03  0.50400001928E-02 0.  1.
        1   -1    0    0  501    0  0.00000000000E+00  0.00000000000E+00 -0.58570825377E+03  0.58570825379E+03  0.50400001928E-02 0. -1.
    10030    2    1    2    0    0  0.00000000000E+00  0.00000000000E+00  0.12831592852E+03  0.12997324361E+04  0.12933829394E+04 0.  0.
        1    1    3    3  502    0 -0.53351681424E+03 -0.35720233595E+03  0.14184308247E+03  0.65753567200E+03  0.50400001928E-02 0. -1.
       -1    1    3    3    0  502  0.53351681424E+03  0.35720233595E+03 -0.13527153947E+02  0.64219676409E+03  0.50400001928E-02 0.  1.
</event>
<event>
 5   0  0.3718559E-05  0.1289876E+04  0.7818609E-02  0.9037633E-01
        1   -1    0    0  501    0  0.00000000000E+00  0.00000000000E+00  0.50231469251E+03  0.50231469254E+03  0.50400001928E-02 0. -1.
       -1   -1    0    0    0  501  0.00000000000E+00  0.00000000000E+00 -0.82805609695E+03  0.82805609697E+03  0.50400001928E-02 0.  1.
    10030    2    1    2    0    0  0.00000000000E+00  0.00000000000E+00 -0.32574140444E+03  0.13303707895E+04  0.12898755657E+04 0.  0.
        2    1    3    3  502    0 -0.80999716515E+01 -0.61158936996E+03  0.48093197947E+02  0.61353086530E+03  0.25500000920E-02 0. -1.
       -2    1    3    3    0  502  0.80999716515E+01  0.61158936996E+03 -0.37383460239E+03  0.71683992420E+03  0.25500000920E-02 0.  1.
</event>
<event>
 5   0  0.3552698E-05  0.1300150E+04  0.7818609E-02  0.9029446E-01
        1   -1    0    0  501    0  0.00000000000E+00  0.00000000000E+00  0.14917410195E+04  0.14917410195E+04  0.50400001928E-02 0. -1.
       -1   -1    0    0    0  501  0.00000000000E+00  0.00000000000E+00 -0.28329136442E+03  0.28329136446E+03  0.50400001928E-02 0.  1.
    10030    2    1    2    0    0  0.00000000000E+00  0.00000000000E+00  0.12084496551E+04  0.17750323840E+04  0.13001497588E+04 0.  0.
        5    1    3    3  502    0  0.42572223865E+03  0.48749185697E+03  0.68712974910E+03  0.94395821792E+03  0.46999998093E+01 0.  1.
       -5    1    3    3    0  502 -0.42572223865E+03 -0.48749185697E+03  0.52131990597E+03  0.83107416604E+03  0.46999998093E+01 0. -1.
</event>
<event>
 5   0  0.6458698E-05  0.1299505E+04  0.7818609E-02  0.9029957E-01
       -2   -1    0    0    0  501  0.00000000000E+00  0.00000000000E+00  0.43939641917E+03  0.43939641918E+03  0.25500000920E-02 0.  1.
        2   -1    0    0  501    0  0.00000000000E+00  0.00000000000E+00 -0.96081476893E+03  0.96081476893E+03  0.25500000920E-02 0. -1.
    10030    2    1    2    0    0  0.00000000000E+00  0.00000000000E+00 -0.52141834976E+03  0.14002111881E+04  0.12995053966E+04 0.  0.
        3    1    3    3  502    0  0.31007689883E+03 -0.19446028469E+02 -0.87559264217E+03  0.92907928426E+03  0.10100000352E+00 0. -1.
       -3    1    3    3    0  502 -0.31007689883E+03  0.19446028469E+02  0.35417429242E+03  0.47113190384E+03  0.10100000352E+00 0.  1.
</event>
<event>
 5   0  0.3631841E-05  0.1299641E+04  0.7818609E-02  0.9029850E-01
       -1   -1    0    0    0  501  0.00000000000E+00  0.00000000000E+00  0.11176303164E+04  0.11176303164E+04  0.50400001928E-02 0.  1.
        1   -1    0    0  501    0  0.00000000000E+00  0.00000000000E+00 -0.37782302643E+03  0.37782302646E+03  0.50400001928E-02 0. -1.
    10030    2    1    2    0    0  0.00000000000E+00  0.00000000000E+00  0.73980728993E+03  0.14954533428E+04  0.12996406712E+04 0.  0.
        3    1    3    3  502    0  0.35886018294E+03 -0.26987730614E+03  0.91041344708E+03  0.10151192275E+04  0.10100000352E+00 0.  1.
       -3    1    3    3    0  502 -0.35886018294E+03  0.26987730614E+03 -0.17060615715E+03  0.48033411531E+03  0.10100000352E+00 0. -1.
</event>
<event>
 5   0  0.3718559E-05  0.1310270E+04  0.7818609E-02  0.9021460E-01
       -1   -1    0    0    0  501  0.00000000000E+00  0.00000000000E+00  0.30286678780E+03  0.30286678784E+03  0.50400001928E-02 0. -1.
        1   -1    0    0  501    0  0.00000000000E+00  0.00000000000E+00 -0.14171313765E+04  0.14171313765E+04  0.50400001928E-02 0.  1.
    10030    2    1    2    0    0  0.00000000000E+00  0.00000000000E+00 -0.11142645886E+04  0.17199981643E+04  0.13102702438E+04 0.  0.
        2    1    3    3  502    0  0.18580340913E+03 -0.60131527396E+03 -0.79595463513E+03  0.10147151062E+04  0.25500000920E-02 0. -1.
       -2    1    3    3    0  502 -0.18580340913E+03  0.60131527396E+03 -0.31830995352E+03  0.70528305811E+03  0.25500000920E-02 0.  1.
</event>
<event>
 5   0  0.6688086E-05  0.1300001E+04  0.7818609E-02  0.9029565E-01
       -2   -1    0    0    0  501  0.00000000000E+00  0.00000000000E+00  0.39280115918E+03  0.39280115919E+03  0.25500000920E-02 0.  1.
        2   -1    0    0  501    0  0.00000000000E+00  0.00000000000E+00 -0.10756088234E+04  0.10756088234E+04  0.25500000920E-02 0. -1.
    10030    2    1    2    0    0  0.00000000000E+00  0.00000000000E+00 -0.68280766425E+03  0.14684099826E+04  0.13000006041E+04 0.  0.
        5    1    3    3  502    0  0.31874098044E+03 -0.41119163955E+03 -0.78149765757E+03  0.93884772771E+03  0.46999998093E+01 0. -1.
       -5    1    3    3    0  502 -0.31874098044E+03  0.41119163955E+03  0.98689993315E+02  0.52956225491E+03  0.46999998093E+01 0.  1.
</event>
<event>
 5   0  0.6458698E-05  0.1299709E+04  0.7818609E-02  0.9029796E-01
       -2   -1    0    0    0  501  0.00000000000E+00  0.00000000000E+00  0.62814685717E+03  0.62814685718E+03  0.25500000920E-02 0.  1.
        2   -1    0    0  501    0  0.00000000000E+00  0.00000000000E+00 -0.67231203812E+03  0.67231203813E+03  0.25500000920E-02 0. -1.
    10030    2    1    2    0    0  0.00000000000E+00  0.00000000000E+00 -0.44165180953E+02  0.13004588953E+04  0.12997087270E+04 0.  0.
        3    1    3    3  502    0 -0.33174639587E+03  0.41426556299E+03 -0.39731778499E+03  0.66297289562E+03  0.10100000352E+00 0. -1.
       -3    1    3    3    0  502  0.33174639587E+03 -0.41426556299E+03  0.35315260404E+03  0.63748599969E+03  0.10100000352E+00 0.  1.
</event>
<event>
 5   0  0.3689707E-05  0.1300309E+04  0.7818609E-02  0.9029320E-01
        1   -1    0    0  501    0  0.00000000000E+00  0.00000000000E+00  0.31152096820E+03  0.31152096824E+03  0.50400001928E-02 0. -1.
       -1   -1    0    0    0  501  0.00000000000E+00  0.00000000000E+00 -0.13568942659E+04  0.13568942659E+04  0.50400001928E-02 0.  1.
    10030    2    1    2    0    0  0.00000000000E+00  0.00000000000E+00 -0.10453732977E+04  0.16684152341E+04  0.13003092178E+04 0.  0.
        1    1    3    3  502    0  0.72786919345E+02 -0.47054922044E+03  0.45342465698E+02  0.47829953346E+03  0.50400001928E-02 0. -1.
       -1    1    3    3    0  502 -0.72786919345E+02  0.47054922044E+03 -0.10907157633E+04  0.11901157006E+04  0.50400001928E-02 0.  1.
</event>
<event>
 5   0  0.6742824E-05  0.1300393E+04  0.7818609E-02  0.9029253E-01
        2   -1    0    0  501    0  0.00000000000E+00  0.00000000000E+00  0.11477438967E+04  0.11477438967E+04  0.25500000920E-02 0. -1.
       -2   -1    0    0    0  501  0.00000000000E+00  0.00000000000E+00 -0.36833633235E+03  0.36833633236E+03  0.25500000920E-02 0.  1.
    10030    2    1    2    0    0  0.00000000000E+00  0.00000000000E+00  0.77940756431E+03  0.15160802290E+04  0.13003934441E+04 0.  0.
        4    1    3    3  502    0 -0.12324449054E+02  0.18570211479E+03  0.11160250214E+04  0.11314374171E+04  0.12699999809E+01 0. -1.
       -4    1    3    3    0  502  0.12324449054E+02 -0.18570211479E+03 -0.33661745707E+03  0.38464281195E+03  0.12699999809E+01 0.  1.
</event>
<event>
 5   0  0.6671239E-05  0.1300055E+04  0.7818609E-02  0.9029522E-01
        2   -1    0    0  501    0  0.00000000000E+00  0.00000000000E+00  0.86434568829E+03  0.86434568829E+03  0.25500000920E-02 0.  1.
       -2   -1    0    0    0  501  0.00000000000E+00  0.00000000000E+00 -0.48885022412E+03  0.48885022412E+03  0.25500000920E-02 0. -1.
    10030    2    1    2    0    0  0.00000000000E+00  0.00000000000E+00  0.37549546417E+03  0.13531959124E+04  0.13000547426E+04 0.  0.
        1    1    3    3  502    0  0.32405181156E+03  0.29020738048E+03  0.69050886515E+03  0.81610807687E+03  0.50400001928E-02 0.  1.
       -1    1    3    3    0  502 -0.32405181156E+03 -0.29020738048E+03 -0.31501340098E+03  0.53708783554E+03  0.50400001928E-02 0. -1.
</event>
<event>
 5   0  0.6458698E-05  0.1296255E+04  0.7818609E-02  0.9032540E-01
       -2   -1    0    0    0  501  0.00000000000E+00  0.00000000000E+00  0.12728703687E+04  0.12728703687E+04  0.25500000920E-02 0. -1.
        2   -1    0    0  501    0  0.00000000000E+00  0.00000000000E+00 -0.33001736771E+03  0.33001736772E+03  0.25500000920E-02 0.  1.
    10030    2    1    2    0    0  0.00000000000E+00  0.00000000000E+00  0.94285300097E+03  0.16028877364E+04  0.12962551115E+04 0.  0.
        3    1    3    3  502    0 -0.69270399319E+02 -0.53524440287E+03  0.27670554780E+02  0.54041708784E+03  0.10100000352E+00 0.  1.
       -3    1    3    3    0  502  0.69270399319E+02  0.53524440287E+03  0.91518244619E+03  0.10624706486E+04  0.10100000352E+00 0. -1.
</event>
<event>
 5   0  0.3552698E-05  0.1299866E+04  0.7818609E-02  0.9029672E-01
        1   -1    0    0  501    0  0.00000000000E+00  0.00000000000E+00  0.17220066904E+04  0.17220066904E+04  0.50400001928E-02 0.  1.
       -1   -1    0    0    0  501  0.00000000000E+00  0.00000000000E+00 -0.24530258577E+03  0.24530258582E+03  0.50400001928E-02 0. -1.
    10030    2    1    2    0    0  0.00000000000E+00  0.00000000000E+00  0.14767041046E+04  0.19673092762E+04  0.12998656760E+04 0.  0.
        5    1    3    3  502    0  0.39145973310E+03  0.42474927813E+03  0.11891986696E+04  0.13220696796E+04  0.46999998093E+01 0.  1.
       -5    1    3    3    0  502 -0.39145973310E+03 -0.42474927813E+03  0.28750543504E+03  0.64523959665E+03  0.46999998093E+01 0. -1.
</event>
<event>
 5   0  0.3718559E-05  0.1299796E+04  0.7818609E-02  0.9029727E-01
       -1   -1    0    0    0  501  0.00000000000E+00  0.00000000000E+00  0.17061204947E+03  0.17061204955E+03  0.50400001928E-02 0.  1.
        1   -1    0    0  501    0  0.00000000000E+00  0.00000000000E+00 -0.24756002585E+04  0.24756002585E+04  0.50400001928E-02 0. -1.
    10030    2    1    2    0    0  0.00000000000E+00  0.00000000000E+00 -0.23049882090E+04  0.26462123080E+04  0.12997957284E+04 0.  0.
        2    1    3    3  502    0 -0.24801240361E+03  0.56007254723E+03 -0.15946845190E+04  0.17082769465E+04  0.25500000920E-02 0.  1.
       -2    1    3    3    0  502  0.24801240361E+03 -0.56007254723E+03 -0.71030368995E+03  0.93793536157E+03  0.25500000920E-02 0. -1.
</event>
<event>
 5   0  0.3689707E-05  0.1300013E+04  0.7818609E-02  0.9029554E-01
       -1   -1    0    0    0  501  0.00000000000E+00  0.00000000000E+00  0.57152623707E+03  0.57152623709E+03  0.50400001928E-02 0. -1.
        1   -1    0    0  501    0  0.00000000000E+00  0.00000000000E+00 -0.73926395237E+03  0.73926395239E+03  0.50400001928E-02 0.  1.
    10030    2    1    2    0    0  0.00000000000E+00  0.00000000000E+00 -0.16773771530E+03  0.13107901895E+04  0.13000134537E+04 0.  0.
        1    1    3    3  502    0  0.48794577344E+03  0.40171545574E+03  0.69186596884E+02  0.63580906758E+03  0.50400001928E-02 0. -1.
       -1    1    3    3    0  502 -0.48794577344E+03 -0.40171545574E+03 -0.23692431219E+03  0.67498112191E+03  0.50400001928E-02 0.  1.
</event>
<event>
 5   0  0.6618060E-05  0.1300351E+04  0.7818609E-02  0.9029287E-01
        2   -1    0    0  501    0  0.00000000000E+00  0.00000000000E+00  0.14258744067E+04  0.14258744067E+04  0.25500000920E-02 0. -1.
       -2   -1    0    0    0  501  0.00000000000E+00  0.00000000000E+00 -0.29646930870E+03  0.29646930871E+03  0.25500000920E-02 0.  1.
    10030    2    1    2    0    0  0.00000000000E+00  0.00000000000E+00  0.11294050980E+04  0.17223437154E+04  0.13003507214E+04 0.  0.
        2    1    3    3  502    0 -0.10902960655E+03  0.59915387509E+03  0.26308584583E+03  0.66339052106E+03  0.25500000920E-02 0. -1.
       -2    1    3    3    0  502  0.10902960655E+03 -0.59915387509E+03  0.86631925212E+03  0.10589531943E+04  0.25500000920E-02 0.  1.
</event>
<event>
 5   0  0.6742824E-05  0.1299918E+04  0.7818609E-02  0.9029630E-01
       -2   -1    0    0    0  501  0.00000000000E+00  0.00000000000E+00  0.16657279087E+03  0.16657279089E+03  0.25500000920E-02 0.  1.
        2   -1    0    0  501    0  0.00000000000E+00  0.00000000000E+00 -0.25361097561E+04  0.25361097561E+04  0.25500000920E-02 0. -1.
    10030    2    1    2    0    0  0.00000000000E+00  0.00000000000E+00 -0.23695369652E+04  0.27026825470E+04  0.12999182744E+04 0.  0.
        4    1    3    3  502    0  0.62299024537E+03 -0.16393072848E+03 -0.10052509712E+04  0.11939519494E+04  0.12699999809E+01 0. -1.
       -4    1    3    3    0  502 -0.62299024537E+03  0.16393072848E+03 -0.13642859941E+04  0.15087305976E+04  0.12699999809E+01 0.  1.
</event>
<event>
 5   0  0.3718559E-05  0.1299844E+04  0.7818609E-02  0.9029689E-01
        1   -1    0    0  501    0  0.00000000000E+00  0.00000000000E+00  0.20233858956E+04  0.20233858956E+04  0.50400001928E-02 0. -1.
       -1   -1    0    0    0  501  0.00000000000E+00  0.00000000000E+00 -0.20875840516E+03  0.20875840522E+03  0.50400001928E-02 0.  1.
    10030    2    1    2    0    0  0.00000000000E+00  0.00000000000E+00  0.18146274904E+04  0.22321443008E+04  0.12998443178E+04 0.  0.
        2    1    3    3  502    0  0.31040063914E+03 -0.19836080551E+03  0.18268042152E+04  0.18635743094E+04  0.25500000920E-02 0. -1.
       -2    1    3    3    0  502 -0.31040063914E+03  0.19836080551E+03 -0.12176724777E+02  0.36856999142E+03  0.25500000920E-02 0.  1.
</event>
<event>
 5   0  0.3552698E-05  0.1300501E+04  0.7818609E-02  0.9029168E-01
        1   -1    0    0  501    0  0.00000000000E+00  0.00000000000E+00  0.29764176335E+03  0.29764176339E+03  0.50400001928E-02 0. -1.
       -1   -1    0    0    0  501  0.00000000000E+00  0.00000000000E+00 -0.14205852765E+04  0.14205852765E+04  0.50400001928E-02 0.  1.
    10030    2    1    2    0    0  0.00000000000E+00  0.00000000000E+00 -0.11229435132E+04  0.17182270399E+04  0.13005006832E+04 0.  0.
        5    1    3    3  502    0  0.19993263506E+03 -0.48298471351E+03 -0.50529212394E+02  0.52518814091E+03  0.46999998093E+01 0. -1.
       -5    1    3    3    0  502 -0.19993263506E+03  0.48298471351E+03 -0.10724143008E+04  0.11930388990E+04  0.46999998093E+01 0.  1.
</event>
<event>
 5   0  0.3718559E-05  0.1300172E+04  0.7818609E-02  0.9029429E-01
       -1   -1    0    0    0  501  0.00000000000E+00  0.00000000000E+00  0.59861384441E+03  0.59861384443E+03  0.50400001928E-02 0. -1.
        1   -1    0    0  501    0  0.00000000000E+00  0.00000000000E+00 -0.70598352999E+03  0.70598353001E+03  0.50400001928E-02 0.  1.
    10030    2    1    2    0    0  0.00000000000E+00  0.00000000000E+00 -0.10736968558E+03  0.13045973744E+04  0.13001715502E+04 0.  0.
        2    1    3    3  502    0 -0.71705007706E+02 -0.57745449445E+03 -0.34452702477E+03  0.67623529344E+03  0.25500000920E-02 0. -1.
       -2    1    3    3    0  502  0.71705007706E+02  0.57745449445E+03  0.23715733919E+03  0.62836208100E+03  0.25500000920E-02 0.  1.
</event>
<event>
 5   0  0.2512000E-05  0.1299660E+04  0.7818609E-02  0.9029835E-01
       -3   -1    0    0    0  501  0.00000000000E+00  0.00000000000E+00  0.52408490700E+03  0.52408491674E+03  0.10100000352E+00 0.  1.
        3   -1    0    0  501    0  0.00000000000E+00  0.00000000000E+00 -0.80574549668E+03  0.80574550301E+03  0.10100000352E+00 0. -1.
    10030    2    1    2    0    0  0.00000000000E+00  0.00000000000E+00 -0.28166058967E+03  0.13298304197E+04  0.12996600546E+04 0.  0.
        4    1    3    3  502    0  0.35122239028E+03  0.54275368779E+03 -0.73432261254E+02  0.65064017931E+03  0.12699999809E+01 0.  1.
       -4    1    3    3    0  502 -0.35122239028E+03 -0.54275368779E+03 -0.20822832842E+03  0.67919024043E+03  0.12699999809E+01 0. -1.
</event>
<event>
 5   0  0.6618060E-05  0.1300767E+04  0.7818609E-02  0.9028957E-01
       -2   -1    0    0    0  501  0.00000000000E+00  0.00000000000E+00  0.64107558503E+03  0.64107558503E+03  0.25500000920E-02 0. -1.
        2   -1    0    0  501    0  0.00000000000E+00  0.00000000000E+00 -0.65982669236E+03  0.65982669237E+03  0.25500000920E-02 0.  1.
    10030    2    1    2    0    0  0.00000000000E+00  0.00000000000E+00 -0.18751107331E+02  0.13009022774E+04  0.13007671319E+04 0.  0.
        2    1    3    3  502    0 -0.19166601773E+03  0.25355891694E+03  0.55810810518E+03  0.64227147203E+03  0.25500000920E-02 0. -1.
       -2    1    3    3    0  502  0.19166601773E+03 -0.25355891694E+03 -0.57685921251E+03  0.65863080537E+03  0.25500000920E-02 0.  1.
</event>
<event>
 5   0  0.6458698E-05  0.1300137E+04  0.7818609E-02  0.9029456E-01
       -2   -1    0    0    0  501  0.00000000000E+00  0.00000000000E+00  0.77129007248E+03  0.77129007249E+03  0.25500000920E-02 0. -1.
        2   -1    0    0  501    0  0.00000000000E+00  0.00000000000E+00 -0.54789915021E+03  0.54789915021E+03  0.25500000920E-02 0.  1.
    10030    2    1    2    0    0  0.00000000000E+00  0.00000000000E+00  0.22339092228E+03  0.13191892227E+04  0.13001371855E+04 0.  0.
        3    1    3    3  502    0 -0.20340485369E+03 -0.27117876081E+03  0.67451080926E+03  0.75490151465E+03  0.10100000352E+00 0. -1.
       -3    1    3    3    0  502  0.20340485369E+03  0.27117876081E+03 -0.45111988698E+03  0.56428770804E+03  0.10100000352E+00 0.  1.
</event>
<event>
 5   0  0.6618060E-05  0.1301213E+04  0.7818609E-02  0.9028604E-01
       -2   -1    0    0    0  501  0.00000000000E+00  0.00000000000E+00  0.16442741252E+03  0.16442741254E+03  0.25500000920E-02 0. -1.
        2   -1    0    0  501    0  0.00000000000E+00  0.00000000000E+00 -0.25743207101E+04  0.25743207101E+04  0.25500000920E-02 0.  1.
    10030    2    1    2    0    0  0.00000000000E+00  0.00000000000E+00 -0.24098932976E+04  0.27387481227E+04  0.13012131161E+04 0.  0.
        2    1    3    3  502    0 -0.48440917678E+00 -0.11473561638E+03  0.14296511329E+03  0.18331262897E+03  0.25500000920E-02 0. -1.
       -2    1    3    3    0  502  0.48440917678E+00  0.11473561638E+03 -0.25528584109E+04  0.25554354937E+04  0.25500000920E-02 0.  1.
</event>
<event>
 5   0  0.3631841E-05  0.1300479E+04  0.7818609E-02  0.9029185E-01
        1   -1    0    0  501    0  0.00000000000E+00  0.00000000000E+00  0.43176766271E+03  0.43176766274E+03  0.50400001928E-02 0.  1.
       -1   -1    0    0    0  501  0.00000000000E+00  0.00000000000E+00 -0.97925677637E+03  0.97925677638E+03  0.50400001928E-02 0. -1.
    10030    2    1    2    0    0  0.00000000000E+00  0.00000000000E+00 -0.54748911366E+03  0.14110244391E+04  0.13004790034E+04 0.  0.
        3    1    3    3  502    0  0.47687916279E+03 -0.21678885678E+02 -0.75278034307E+03  0.89138205338E+03  0.10100000352E+00 0. -1.
       -3    1    3    3    0  502 -0.47687916279E+03  0.21678885678E+02  0.20529122941E+03  0.51964238574E+03  0.10100000352E+00 0.  1.
</event>
<event>
 5   0  0.3552698E-05  0.1300015E+04  0.7818609E-02  0.9029553E-01
        1   -1    0    0  501    0  0.00000000000E+00  0.00000000000E+00  0.11865367032E+04  0.11865367032E+04  0.50400001928E-02 0.  1.
       -1   -1    0    0    0  501  0.00000000000E+00  0.00000000000E+00 -0.35608643402E+03  0.35608643406E+03  0.50400001928E-02 0. -1.
    10030    2    1    2    0    0  0.00000000000E+00  0.00000000000E+00  0.83045026920E+03  0.15426231373E+04  0.13000148053E+04 0.  0.
        5    1    3    3  502    0  0.45180586791E+03 -0.45627354084E+03  0.29553851257E+03  0.70687989698E+03  0.46999998093E+01 0. -1.
       -5    1    3    3    0  502 -0.45180586791E+03  0.45627354084E+03  0.53491175663E+03  0.83574324031E+03  0.46999998093E+01 0.  1.
</event>
<event>
 5   0  0.6688086E-05  0.1299293E+04  0.7818609E-02  0.9030126E-01
       -2   -1    0    0    0  501  0.00000000000E+00  0.00000000000E+00  0.20112972573E+03  0.20112972575E+03  0.25500000920E-02 0.  1.
        2   -1    0    0  501    0  0.00000000000E+00  0.00000000000E+00 -0.20983512671E+04  0.20983512671E+04  0.25500000920E-02 0. -1.
    10030    2    1    2    0    0  0.00000000000E+00  0.00000000000E+00 -0.18972215413E+04  0.22994809928E+04  0.12992933693E+04 0.  0.
        5    1    3    3  502    0  0.25275387732E+03 -0.57504831280E+03 -0.65537120229E+03  0.90779875928E+03  0.46999998093E+01 0.  1.
       -5    1    3    3    0  502 -0.25275387732E+03  0.57504831280E+03 -0.12418503391E+04  0.13916822335E+04  0.46999998093E+01 0. -1.
</event>
<event>
 5   0  0.3552698E-05  0.1301043E+04  0.7818609E-02  0.9028739E-01
        1   -1    0    0  501    0  0.00000000000E+00  0.00000000000E+00  0.14969955825E+04  0.14969955825E+04  0.50400001928E-02 0. -1.
       -1   -1    0    0    0  501  0.00000000000E+00  0.00000000000E+00 -0.28268486904E+03  0.28268486909E+03  0.50400001928E-02 0.  1.
    10030    2    1    2    0    0  0.00000000000E+00  0.00000000000E+00  0.12143107135E+04  0.17796804516E+04  0.13010426592E+04 0.  0.
        5    1    3    3  502    0 -0.36016713073E+02  0.56994694641E+03  0.18108697737E+03  0.59912545324E+03  0.46999998093E+01 0.  1.
       -5    1    3    3    0  502  0.36016713073E+02 -0.56994694641E+03  0.10332237361E+04  0.11805549984E+04  0.46999998093E+01 0. -1.
</event>
<event>
 5   0  0.3718559E-05  0.1301583E+04  0.7818609E-02  0.9028311E-01
       -1   -1    0    0    0  501  0.00000000000E+00  0.00000000000E+00  0.24208180971E+03  0.24208180976E+03  0.50400001928E-02 0.  1.
        1   -1    0    0  501    0  0.00000000000E+00  0.00000000000E+00 -0.17495310678E+04  0.17495310678E+04  0.50400001928E-02 0. -1.
    10030    2    1    2    0    0  0.00000000000E+00  0.00000000000E+00 -0.15074492581E+04  0.19916128776E+04  0.13015831085E+04 0.  0.
        2    1    3    3  502    0  0.33010360202E+03  0.19238046984E+03  0.52404159333E+02  0.38564858248E+03  0.25500000920E-02 0.  1.
       -2    1    3    3    0  502 -0.33010360202E+03 -0.19238046984E+03 -0.15598534174E+04  0.16059642951E+04  0.25500000920E-02 0. -1.
</event>
<event>
 5   0  0.6688086E-05  0.1300191E+04  0.7818609E-02  0.9029414E-01
        2   -1    0    0  501    0  0.00000000000E+00  0.00000000000E+00  0.75143940425E+03  0.75143940425E+03  0.25500000920E-02 0.  1.
       -2   -1    0    0    0  501  0.00000000000E+00  0.00000000000E+00 -0.56241942994E+03  0.56241942994E+03  0.25500000920E-02 0. -1.
    10030    2    1    2    0    0  0.00000000000E+00  0.00000000000E+00  0.18901997431E+03  0.13138588342E+04  0.13001909419E+04 0.  0.
        5    1    3    3  502    0 -0.61501760649E+03  0.63357586827E+02 -0.10845257134E+03  0.62772995016E+03  0.46999998093E+01 0. -1.
       -5    1    3    3    0  502  0.61501760649E+03 -0.63357586827E+02  0.29747254565E+03  0.68612888404E+03  0.46999998093E+01 0.  1.
</event>
<event>
 5   0  0.3689707E-05  0.1290327E+04  0.7818609E-02  0.9037271E-01
        1   -1    0    0  501    0  0.00000000000E+00  0.00000000000E+00  0.14671863218E+04  0.14671863218E+04  0.50400001928E-02 0.  1.
       -1   -1    0    0    0  501  0.00000000000E+00  0.00000000000E+00 -0.28369668773E+03  0.28369668777E+03  0.50400001928E-02 0. -1.
    10030    2    1    2    0    0  0.00000000000E+00  0.00000000000E+00  0.11834896341E+04  0.17508830096E+04  0.12903269350E+04 0.  0.
        1    1    3    3  502    0  0.56745087766E+03 -0.24793430200E+03  0.83736028419E+03  0.10414625112E+04  0.50400001928E-02 0.  1.
       -1    1    3    3    0  502 -0.56745087766E+03  0.24793430200E+03  0.34612934987E+03  0.70942049838E+03  0.50400001928E-02 0. -1.
</event>
<event>
 5   0  0.6458698E-05  0.1299894E+04  0.7818609E-02  0.9029649E-01
        2   -1    0    0  501    0  0.00000000000E+00  0.00000000000E+00  0.12925924028E+04  0.12925924028E+04  0.25500000920E-02 0. -1.
       -2   -1    0    0    0  501  0.00000000000E+00  0.00000000000E+00 -0.32680936703E+03  0.32680936704E+03  0.25500000920E-02 0.  1.
    10030    2    1    2    0    0  0.00000000000E+00  0.00000000000E+00  0.96578303572E+03  0.16194017698E+04  0.12998943111E+04 0.  0.
        3    1    3    3  502    0  0.44106874636E+03 -0.45037129033E+03  0.28569608117E+03  0.69209695793E+03  0.10100000352E+00 0.  1.
       -3    1    3    3    0  502 -0.44106874636E+03  0.45037129033E+03  0.68008695454E+03  0.92730481187E+03  0.10100000352E+00 0. -1.
</event>
<event>
 5   0  0.6671239E-05  0.1300705E+04  0.7818609E-02  0.9029007E-01
       -2   -1    0    0    0  501  0.00000000000E+00  0.00000000000E+00  0.38882181842E+03  0.38882181843E+03  0.25500000920E-02 0. -1.
        2   -1    0    0  501    0  0.00000000000E+00  0.00000000000E+00 -0.10877941390E+04  0.10877941390E+04  0.25500000920E-02 0.  1.
    10030    2    1    2    0    0  0.00000000000E+00  0.00000000000E+00 -0.69897232057E+03  0.14766159574E+04  0.13007045709E+04 0.  0.
        1    1    3    3  502    0  0.53881276396E+03 -0.57476155461E+02  0.58783947109E+02  0.54504885609E+03  0.50400001928E-02 0. -1.
       -1    1    3    3    0  502 -0.53881276396E+03  0.57476155461E+02 -0.75775626768E+03  0.93156710133E+03  0.50400001928E-02 0.  1.
</event>
<event>
 5   0  0.6458698E-05  0.1298407E+04  0.7818609E-02  0.9030830E-01
       -2   -1    0    0    0  501  0.00000000000E+00  0.00000000000E+00  0.29315062567E+03  0.29315062568E+03  0.25500000920E-02 0.  1.
        2   -1    0    0  501    0  0.00000000000E+00  0.00000000000E+00 -0.14377075791E+04  0.14377075791E+04  0.25500000920E-02 0. -1.
    10030    2    1    2    0    0  0.00000000000E+00  0.00000000000E+00 -0.11445569535E+04  0.17308582048E+04  0.12984065255E+04 0.  0.
        3    1    3    3  502    0 -0.35081799279E+03  0.67906851385E+01  0.15585422970E+03  0.38394000649E+03  0.10100000352E+00 0.  1.
       -3    1    3    3    0  502  0.35081799279E+03 -0.67906851385E+01 -0.13004111832E+04  0.13469181983E+04  0.10100000352E+00 0. -1.
</event>
<event>
 5   0  0.3718559E-05  0.1300482E+04  0.7818609E-02  0.9029183E-01
        1   -1    0    0  501    0  0.00000000000E+00  0.00000000000E+00  0.27866866869E+03  0.27866866873E+03  0.50400001928E-02 0. -1.
       -1   -1    0    0    0  501  0.00000000000E+00  0.00000000000E+00 -0.15172626413E+04  0.15172626413E+04  0.50400001928E-02 0.  1.
    10030    2    1    2    0    0  0.00000000000E+00  0.00000000000E+00 -0.12385939726E+04  0.17959313101E+04  0.13004823111E+04 0.  0.
        2    1    3    3  502    0 -0.64605109552E+03  0.70507387470E+02 -0.64892363135E+03  0.91839816476E+03  0.25500000920E-02 0. -1.
       -2    1    3    3    0  502  0.64605109552E+03 -0.70507387470E+02 -0.58967034127E+03  0.87753314529E+03  0.25500000920E-02 0.  1.
</event>
<event>
 5   0  0.6742824E-05  0.1300057E+04  0.7818609E-02  0.9029520E-01
       -2   -1    0    0    0  501  0.00000000000E+00  0.00000000000E+00  0.23793728229E+03  0.23793728231E+03  0.25500000920E-02 0. -1.
        2   -1    0    0  501    0  0.00000000000E+00  0.00000000000E+00 -0.17758330506E+04  0.17758330506E+04  0.25500000920E-02 0.  1.
    10030    2    1    2    0    0  0.00000000000E+00  0.00000000000E+00 -0.15378957683E+04  0.20137703329E+04  0.13000567524E+04 0.  0.
        4    1    3    3  502    0  0.15446040384E+03 -0.32561958871E+03 -0.16069039639E+04  0.16468236381E+04  0.12699999809E+01 0.  1.
       -4    1    3    3    0  502 -0.15446040384E+03  0.32561958871E+03  0.69008195549E+02  0.36694669485E+03  0.12699999809E+01 0. -1.
</event>
<event>
 5   0  0.3552698E-05  0.1299938E+04  0.7818609E-02  0.9029615E-01
        1   -1    0    0  501    0  0.00000000000E+00  0.00000000000E+00  0.71310764184E+03  0.71310764186E+03  0.50400001928E-02 0. -1.
       -1   -1    0    0    0  501  0.00000000000E+00  0.00000000000E+00 -0.59242027285E+03  0.59242027287E+03  0.50400001928E-02 0.  1.
    10030    2    1    2    0    0  0.00000000000E+00  0.00000000000E+00  0.12068736900E+03  0.13055279147E+04  0.12999375735E+04 0.  0.
        5    1    3    3  502    0  0.11242721994E+03  0.54802567406E+03  0.39262194649E+03  0.68348087177E+03  0.46999998093E+01 0. -1.
       -5    1    3    3    0  502 -0.11242721994E+03 -0.54802567406E+03 -0.27193457750E+03  0.62204704295E+03  0.46999998093E+01 0.  1.
</event>
<event>
 5   0  0.2512000E-05  0.1299760E+04  0.7818609E-02  0.9029755E-01
       -4   -1    0    0    0  501  0.00000000000E+00  0.00000000000E+00  0.10703447945E+04  0.10703455479E+04  0.12699999809E+01 0.  1.
        4   -1    0    0  501    0  0.00000000000E+00  0.00000000000E+00 -0.39458511833E+03  0.39458716212E+03  0.12699999809E+01 0. -1.
    10030    2    1    2    0    0  0.00000000000E+00  0.00000000000E+00  0.67575967615E+03  0.14649327100E+04  0.12997602491E+04 0.  0.
        3    1    3    3  502    0 -0.84508108419E+02  0.48766254240E+03 -0.13681694401E+03  0.51349319569E+03  0.10100000352E+00 0. -1.
       -3    1    3    3    0  502  0.84508108419E+02 -0.48766254240E+03  0.81257662016E+03  0.95143951436E+03  0.10100000352E+00 0.  1.
</event>
<event>
 5   0  0.2512000E-05  0.1299765E+04  0.7818609E-02  0.9029751E-01
        3   -1    0    0  501    0  0.00000000000E+00  0.00000000000E+00  0.38132043497E+03  0.38132044834E+03  0.10100000352E+00 0. -1.
       -3   -1    0    0    0  501  0.00000000000E+00  0.00000000000E+00 -0.11075922781E+04  0.11075922827E+04  0.10100000352E+00 0.  1.
    10030    2    1    2    0    0  0.00000000000E+00  0.00000000000E+00 -0.72627184315E+03  0.14889127311E+04  0.12997654906E+04 0.  0.
        3    1    3    3  502    0 -0.27665648938E+03 -0.11963027321E+03 -0.10226806849E+04  0.10661735360E+04  0.10100000352E+00 0.  1.
       -3    1    3    3    0  502  0.27665648938E+03  0.11963027321E+03  0.29640884175E+03  0.42273919507E+03  0.10100000352E+00 0. -1.
</event>
<event>
 5   0  0.2512000E-05  0.1299449E+04  0.7818609E-02  0.9030003E-01
       -3   -1    0    0    0  501  0.00000000000E+00  0.00000000000E+00  0.87134921842E+03  0.87134922427E+03  0.10100000352E+00 0. -1.
        3   -1    0    0  501    0  0.00000000000E+00  0.00000000000E+00 -0.48446896301E+03  0.48446897354E+03  0.10100000352E+00 0.  1.
    10030    2    1    2    0    0  0.00000000000E+00  0.00000000000E+00  0.38688025540E+03  0.13558181978E+04  0.12994485959E+04 0.  0.
        5    1    3    3  502    0 -0.88283304076E+02 -0.29432558583E+03 -0.40384170295E+03  0.50747581548E+03  0.46999998093E+01 0.  1.
       -5    1    3    3    0  502  0.88283304076E+02  0.29432558583E+03  0.79072195835E+03  0.84834238234E+03  0.46999998093E+01 0. -1.
</event>
<event>
 5   0  0.2512000E-05  0.1299786E+04  0.7818609E-02  0.9029735E-01
        3   -1    0    0  501    0  0.00000000000E+00  0.00000000000E+00  0.22150441222E+03  0.22150443524E+03  0.10100000352E+00 0. -1.
       -3   -1    0    0    0  501  0.00000000000E+00  0.00000000000E+00 -0.19067840619E+04  0.19067840646E+04  0.10100000352E+00 0.  1.
    10030    2    1    2    0    0  0.00000000000E+00  0.00000000000E+00 -0.16852796497E+04  0.21282884998E+04  0.12997863058E+04 0.  0.
        2    1    3    3  502    0  0.48353291442E+03 -0.30354048792E+03 -0.13510831639E+04  0.14667537704E+04  0.25500000920E-02 0.  1.
       -2    1    3    3    0  502 -0.48353291442E+03  0.30354048792E+03 -0.33419648577E+03  0.66153472943E+03  0.25500000920E-02 0. -1.
</event>
<event>
 5   0  0.3718559E-05  0.1299517E+04  0.7818609E-02  0.9029948E-01
       -1   -1    0    0    0  501  0.00000000000E+00  0.00000000000E+00  0.52492692796E+03  0.52492692799E+03  0.50400001928E-02 0.  1.
        1   -1    0    0  501    0  0.00000000000E+00  0.00000000000E+00 -0.80427572515E+03  0.80427572517E+03  0.50400001928E-02 0. -1.
    10030    2    1    2    0    0  0.00000000000E+00  0.00000000000E+00 -0.27934879719E+03  0.13292026532E+04  0.12995168112E+04 0.  0.
        2    1    3    3  502    0  0.48443027510E+03  0.19567428833E+03  0.25544640622E+03  0.58156167773E+03  0.25500000920E-02 0.  1.
       -2    1    3    3    0  502 -0.48443027510E+03 -0.19567428833E+03 -0.53479520341E+03  0.74764097543E+03  0.25500000920E-02 0. -1.
</event>
<event>
 5   0  0.3631841E-05  0.1301201E+04  0.7818609E-02  0.9028614E-01
        1   -1    0    0  501    0  0.00000000000E+00  0.00000000000E+00  0.75272808914E+03  0.75272808916E+03  0.50400001928E-02 0. -1.
       -1   -1    0    0    0  501  0.00000000000E+00  0.00000000000E+00 -0.56232900889E+03  0.56232900891E+03  0.50400001928E-02 0.  1.
    10030    2    1    2    0    0  0.00000000000E+00  0.00000000000E+00  0.19039908025E+03  0.13150570981E+04  0.13012007383E+04 0.  0.
        3    1    3    3  502    0  0.16718749175E+03  0.55958253614E+03  0.38495199530E+03  0.69948003620E+03  0.10100000352E+00 0. -1.
       -3    1    3    3    0  502 -0.16718749175E+03 -0.55958253614E+03 -0.19455291505E+03  0.61557706187E+03  0.10100000352E+00 0.  1.
</event>
<event>
 5   0  0.3552698E-05  0.1300101E+04  0.7818609E-02  0.9029485E-01
        1   -1    0    0  501    0  0.00000000000E+00  0.00000000000E+00  0.64726091605E+03  0.64726091607E+03  0.50400001928E-02 0. -1.
       -1   -1    0    0    0  501  0.00000000000E+00  0.00000000000E+00 -0.65285185561E+03  0.65285185563E+03  0.50400001928E-02 0.  1.
    10030    2    1    2    0    0  0.00000000000E+00  0.00000000000E+00 -0.55909395542E+01  0.13001127717E+04  0.13001007501E+04 0.  0.
        5    1    3    3  502    0 -0.14079219238E+03 -0.52594263013E+03  0.35232090639E+03  0.64852926125E+03  0.46999998093E+01 0. -1.
       -5    1    3    3    0  502  0.14079219238E+03  0.52594263013E+03 -0.35791184595E+03  0.65158351045E+03  0.46999998093E+01 0.  1.
</event>
<event>
 5   0  0.6688086E-05  0.1297900E+04  0.7818609E-02  0.9031232E-01
       -2   -1    0    0    0  501  0.00000000000E+00  0.00000000000E+00  0.26448326322E+03  0.26448326323E+03  0.25500000920E-02 0.  1.
        2   -1    0    0  501    0  0.00000000000E+00  0.00000000000E+00 -0.15922987380E+04  0.15922987380E+04  0.25500000920E-02 0. -1.
    10030    2    1    2    0    0  0.00000000000E+00  0.00000000000E+00 -0.13278154748E+04  0.18567820012E+04  0.12979004064E+04 0.  0.
        5    1    3    3  502    0  0.31431102997E+03 -0.51956356574E+03 -0.33650070047E+03  0.69425682122E+03  0.46999998093E+01 0.  1.
       -5    1    3    3    0  502 -0.31431102997E+03  0.51956356574E+03 -0.99131477430E+03  0.11625251800E+04  0.46999998093E+01 0. -1.
</event>
<event>
 5   0  0.3689707E-05  0.1300441E+04  0.7818609E-02  0.9029216E-01
        1   -1    0    0  501    0  0.00000000000E+00  0.00000000000E+00  0.13134385756E+04  0.13134385756E+04  0.50400001928E-02 0.  1.
       -1   -1    0    0    0  501  0.00000000000E+00  0.00000000000E+00 -0.32189296011E+03  0.32189296015E+03  0.50400001928E-02 0. -1.
    10030    2    1    2    0    0  0.00000000000E+00  0.00000000000E+00  0.99154561547E+03  0.16353315357E+04  0.13004408961E+04 0.  0.
        1    1    3    3  502    0  0.45886266689E+03  0.28851726999E+03  0.44132889229E+02  0.54382430443E+03  0.50400001928E-02 0. -1.
       -1    1    3    3    0  502 -0.45886266689E+03 -0.28851726999E+03  0.94741272624E+03  0.10915072313E+04  0.50400001928E-02 0.  1.
</event>
<event>
 5   0  0.3552698E-05  0.1299949E+04  0.7818609E-02  0.9029606E-01
       -1   -1    0    0    0  501  0.00000000000E+00  0.00000000000E+00  0.38006774563E+03  0.38006774566E+03  0.50400001928E-02 0.  1.
        1   -1    0    0  501    0  0.00000000000E+00  0.00000000000E+00 -0.11115567526E+04  0.11115567526E+04  0.50400001928E-02 0. -1.
    10030    2    1    2    0    0  0.00000000000E+00  0.00000000000E+00 -0.73148900694E+03  0.14916244982E+04  0.12999490284E+04 0.  0.
        5    1    3    3  502    0  0.21838116087E+03 -0.27444998805E+03  0.26214328510E+03  0.43789761278E+03  0.46999998093E+01 0.  1.
       -5    1    3    3    0  502 -0.21838116087E+03  0.27444998805E+03 -0.99363229203E+03  0.10537268855E+04  0.46999998093E+01 0. -1.
</event>
<event>
 5   0  0.3551277E-05  0.1302099E+04  0.7818609E-02  0.9027902E-01
       -1   -1    0    0    0  501  0.00000000000E+00  0.00000000000E+00  0.49529299926E+03  0.49529299929E+03  0.50400001928E-02 0.  1.
        1   -1    0    0  501    0  0.00000000000E+00  0.00000000000E+00 -0.85578699842E+03  0.85578699843E+03  0.50400001928E-02 0. -1.
    10030    2    1    2    0    0  0.00000000000E+00  0.00000000000E+00 -0.36049399916E+03  0.13510799977E+04  0.13020987815E+04 0.  0.
        4    1    3    3  502    0 -0.13312811668E+03 -0.49468616988E+03 -0.59713955119E+03  0.78677490975E+03  0.12699999809E+01 0. -1.
       -4    1    3    3    0  502  0.13312811668E+03  0.49468616988E+03  0.23664555203E+03  0.56430508798E+03  0.12699999809E+01 0.  1.
</event>
<event>
 5   0  0.3718559E-05  0.1299853E+04  0.7818609E-02  0.9029682E-01
       -1   -1    0    0    0  501  0.00000000000E+00  0.00000000000E+00  0.23297273703E+03  0.23297273708E+03  0.50400001928E-02 0. -1.
        1   -1    0    0  501    0  0.00000000000E+00  0.00000000000E+00 -0.18131073883E+04  0.18131073883E+04  0.50400001928E-02 0.  1.
    10030    2    1    2    0    0  0.00000000000E+00  0.00000000000E+00 -0.15801346512E+04  0.20460801254E+04  0.12998532084E+04 0.  0.
        2    1    3    3  502    0 -0.35407039941E+03  0.31998972148E+03 -0.95602408772E+02  0.48672280629E+03  0.25500000920E-02 0. -1.
       -2    1    3    3    0  502  0.35407039941E+03 -0.31998972148E+03 -0.14845322425E+04  0.15593573191E+04  0.25500000920E-02 0.  1.
</event>
<event>
 5   0  0.6618060E-05  0.1299821E+04  0.7818609E-02  0.9029707E-01
        2   -1    0    0  501    0  0.00000000000E+00  0.00000000000E+00  0.14933666636E+04  0.14933666636E+04  0.25500000920E-02 0.  1.
       -2   -1    0    0    0  501  0.00000000000E+00  0.00000000000E+00 -0.28283980031E+03  0.28283980032E+03  0.25500000920E-02 0. -1.
    10030    2    1    2    0    0  0.00000000000E+00  0.00000000000E+00  0.12105268633E+04  0.17762064639E+04  0.12998208014E+04 0.  0.
        2    1    3    3  502    0 -0.34775451914E+02  0.38388344169E+03  0.13203074732E+04  0.13754227178E+04  0.25500000920E-02 0.  1.
       -2    1    3    3    0  502  0.34775451914E+02 -0.38388344169E+03 -0.10978060988E+03  0.40078374614E+03  0.25500000920E-02 0. -1.
</event>
<event>
 5   0  0.6458698E-05  0.1300800E+04  0.7818609E-02  0.9028931E-01
        2   -1    0    0  501    0  0.00000000000E+00  0.00000000000E+00  0.10405453579E+04  0.10405453579E+04  0.25500000920E-02 0. -1.
       -2   -1    0    0    0  501  0.00000000000E+00  0.00000000000E+00 -0.40653667431E+03  0.40653667432E+03  0.25500000920E-02 0.  1.
    10030    2    1    2    0    0  0.00000000000E+00  0.00000000000E+00  0.63400868361E+03  0.14470820322E+04  0.13007995223E+04 0.  0.
        3    1    3    3  502    0  0.49071214770E+03 -0.10425237253E+03  0.77750311105E+03  0.92529890682E+03  0.10100000352E+00 0. -1.
       -3    1    3    3    0  502 -0.49071214770E+03  0.10425237253E+03 -0.14349442744E+03  0.52178312543E+03  0.10100000352E+00 0.  1.
</event>
<event>
 5   0  0.6742824E-05  0.1300211E+04  0.7818609E-02  0.9029397E-01
       -2   -1    0    0    0  501  0.00000000000E+00  0.00000000000E+00  0.74000200142E+03  0.74000200142E+03  0.25500000920E-02 0.  1.
        2   -1    0    0  501    0  0.00000000000E+00  0.00000000000E+00 -0.57113016752E+03  0.57113016753E+03  0.25500000920E-02 0. -1.
    10030    2    1    2    0    0  0.00000000000E+00  0.00000000000E+00  0.16887183390E+03  0.13111321690E+04  0.13002114706E+04 0.  0.
        4    1    3    3  502    0 -0.57332063654E+03 -0.30461176737E+03  0.50224973129E+02  0.65115976682E+03  0.12699999809E+01 0.  1.
       -4    1    3    3    0  502  0.57332063654E+03  0.30461176737E+03  0.11864686077E+03  0.65997240213E+03  0.12699999809E+01 0. -1.
</event>
<event>
 5   0  0.3552698E-05  0.1299933E+04  0.7818609E-02  0.9029618E-01
        1   -1    0    0  501    0  0.00000000000E+00  0.00000000000E+00  0.70817712202E+03  0.70817712204E+03  0.50400001928E-02 0.  1.
       -1   -1    0    0    0  501  0.00000000000E+00  0.00000000000E+00 -0.59654092086E+03  0.59654092088E+03  0.50400001928E-02 0. -1.
    10030    2    1    2    0    0  0.00000000000E+00  0.00000000000E+00  0.11163620116E+03  0.13047180429E+04  0.12999332791E+04 0.  0.
        5    1    3    3  502    0 -0.58346163619E+03 -0.14960124855E+03  0.30090233044E+03  0.67332927824E+03  0.46999998093E+01 0.  1.
       -5    1    3    3    0  502  0.58346163619E+03  0.14960124855E+03 -0.18926612928E+03  0.63138876468E+03  0.46999998093E+01 0. -1.
</event>
<event>
 5   0  0.6671239E-05  0.1300006E+04  0.7818609E-02  0.9029560E-01
        2   -1    0    0  501    0  0.00000000000E+00  0.00000000000E+00  0.14151767426E+04  0.14151767426E+04  0.25500000920E-02 0. -1.
       -2   -1    0    0    0  501  0.00000000000E+00  0.00000000000E+00 -0.29855202989E+03  0.29855202990E+03  0.25500000920E-02 0.  1.
    10030    2    1    2    0    0  0.00000000000E+00  0.00000000000E+00  0.11166247127E+04  0.17137287725E+04  0.13000059833E+04 0.  0.
        1    1    3    3  502    0  0.43835510571E+03  0.30361930438E+03  0.68314478109E+02  0.53759347898E+03  0.50400001928E-02 0.  1.
       -1    1    3    3    0  502 -0.43835510571E+03 -0.30361930438E+03  0.10483102346E+04  0.11761352935E+04  0.50400001928E-02 0. -1.
</event>
<event>
 5   0  0.6688086E-05  0.1298711E+04  0.7818609E-02  0.9030588E-01
       -2   -1    0    0    0  501  0.00000000000E+00  0.00000000000E+00  0.32052148840E+03  0.32052148841E+03  0.25500000920E-02 0. -1.
        2   -1    0    0  501    0  0.00000000000E+00  0.00000000000E+00 -0.13155512839E+04  0.13155512839E+04  0.25500000920E-02 0.  1.
    10030    2    1    2    0    0  0.00000000000E+00  0.00000000000E+00 -0.99502979550E+03  0.16360727723E+04  0.12987108309E+04 0.  0.
        5    1    3    3  502    0  0.37121639559E+03  0.13005272554E+03  0.15334095476E+03  0.42219765771E+03  0.46999998093E+01 0. -1.
       -5    1    3    3    0  502 -0.37121639559E+03 -0.13005272554E+03 -0.11483707503E+04  0.12138751146E+04  0.46999998093E+01 0.  1.
</event>
<event>
 5   0  0.3551277E-05  0.1300807E+04  0.7818609E-02  0.9028925E-01
        1   -1    0    0  501    0  0.00000000000E+00  0.00000000000E+00  0.73955210519E+03  0.73955210521E+03  0.50400001928E-02 0. -1.
       -1   -1    0    0    0  501  0.00000000000E+00  0.00000000000E+00 -0.57200138350E+03  0.57200138353E+03  0.50400001928E-02 0.  1.
    10030    2    1    2    0    0  0.00000000000E+00  0.00000000000E+00  0.16755072169E+03  0.13115534887E+04  0.13008071761E+04 0.  0.
        4    1    3    3  502    0  0.28827173435E+03 -0.29581916052E+03 -0.42278301163E+03  0.59106400363E+03  0.12699999809E+01 0.  1.
       -4    1    3    3    0  502 -0.28827173435E+03  0.29581916052E+03  0.59033373332E+03  0.72048948511E+03  0.12699999809E+01 0. -1.
</event>
<event>
 5   0  0.3718559E-05  0.1299980E+04  0.7818609E-02  0.9029581E-01
       -1   -1    0    0    0  501  0.00000000000E+00  0.00000000000E+00  0.41725479847E+03  0.41725479850E+03  0.50400001928E-02 0.  1.
        1   -1    0    0  501    0  0.00000000000E+00  0.00000000000E+00 -0.10125398669E+04  0.10125398669E+04  0.50400001928E-02 0. -1.
    10030    2    1    2    0    0  0.00000000000E+00  0.00000000000E+00 -0.59528506840E+03  0.14297946654E+04  0.12999801816E+04 0.  0.
        2    1    3    3  502    0 -0.14078497397E+03  0.49747945806E+03  0.13562492398E+03  0.53450943874E+03  0.25500000920E-02 0.  1.
       -2    1    3    3    0  502  0.14078497397E+03 -0.49747945806E+03 -0.73090999238E+03  0.89528522665E+03  0.25500000920E-02 0. -1.
</event>
<event>
 5   0  0.3718559E-05  0.1300165E+04  0.7818609E-02  0.9029434E-01
        1   -1    0    0  501    0  0.00000000000E+00  0.00000000000E+00  0.27655325112E+04  0.27655325112E+04  0.50400001928E-02 0. -1.
       -1   -1    0    0    0  501  0.00000000000E+00  0.00000000000E+00 -0.15281236667E+03  0.15281236676E+03  0.50400001928E-02 0.  1.
    10030    2    1    2    0    0  0.00000000000E+00  0.00000000000E+00  0.26127201446E+04  0.29183448780E+04  0.13001654791E+04 0.  0.
        2    1    3    3  502    0 -0.35748681841E+03  0.37517690864E+03  0.21873543863E+04  0.22479043016E+04  0.25500000920E-02 0. -1.
       -2    1    3    3    0  502  0.35748681841E+03 -0.37517690864E+03  0.42536575828E+03  0.67044057636E+03  0.25500000920E-02 0.  1.
</event>
<event>
 5   0  0.3631841E-05  0.1299591E+04  0.7818609E-02  0.9029890E-01
       -1   -1    0    0    0  501  0.00000000000E+00  0.00000000000E+00  0.42737046527E+03  0.42737046530E+03  0.50400001928E-02 0. -1.
        1   -1    0    0  501    0  0.00000000000E+00  0.00000000000E+00 -0.98798163427E+03  0.98798163428E+03  0.50400001928E-02 0.  1.
    10030    2    1    2    0    0  0.00000000000E+00  0.00000000000E+00 -0.56061116899E+03  0.14153520996E+04  0.12995909676E+04 0.  0.
        3    1    3    3  502    0  0.31530934578E+03 -0.30012392789E+03 -0.80570930309E+03  0.91578482567E+03  0.10100000352E+00 0.  1.
       -3    1    3    3    0  502 -0.31530934578E+03  0.30012392789E+03  0.24509813410E+03  0.49956727392E+03  0.10100000352E+00 0. -1.
</event>
<event>
 5   0  0.3718559E-05  0.1300607E+04  0.7818609E-02  0.9029084E-01
        1   -1    0    0  501    0  0.00000000000E+00  0.00000000000E+00  0.42310238008E+03  0.42310238011E+03  0.50400001928E-02 0. -1.
       -1   -1    0    0    0  501  0.00000000000E+00  0.00000000000E+00 -0.99950954062E+03  0.99950954063E+03  0.50400001928E-02 0.  1.
    10030    2    1    2    0    0  0.00000000000E+00  0.00000000000E+00 -0.57640716054E+03  0.14226119207E+04  0.13006073436E+04 0.  0.
        2    1    3    3  502    0 -0.59597657812E+03  0.75502413537E+02 -0.56057259079E+03  0.82166314611E+03  0.25500000920E-02 0.  1.
       -2    1    3    3    0  502  0.59597657812E+03 -0.75502413537E+02 -0.15834569750E+02  0.60094877463E+03  0.25500000920E-02 0. -1.
</event>
<event>
 5   0  0.6618060E-05  0.1299684E+04  0.7818609E-02  0.9029816E-01
       -2   -1    0    0    0  501  0.00000000000E+00  0.00000000000E+00  0.84303272186E+03  0.84303272187E+03  0.25500000920E-02 0. -1.
        2   -1    0    0  501    0  0.00000000000E+00  0.00000000000E+00 -0.50092338449E+03  0.50092338449E+03  0.25500000920E-02 0.  1.
    10030    2    1    2    0    0  0.00000000000E+00  0.00000000000E+00  0.34210933737E+03  0.13439561064E+04  0.12996842759E+04 0.  0.
        2    1    3    3  502    0  0.27570505121E+03 -0.46970752768E+03 -0.19550060362E+03  0.57866996021E+03  0.25500000920E-02 0.  1.
       -2    1    3    3    0  502 -0.27570505121E+03  0.46970752768E+03  0.53760994100E+03  0.76528614615E+03  0.25500000920E-02 0. -1.
</event>
<event>
 5   0  0.6618060E-05  0.1300267E+04  0.7818609E-02  0.9029354E-01
        2   -1    0    0  501    0  0.00000000000E+00  0.00000000000E+00  0.80711227233E+03  0.80711227233E+03  0.25500000920E-02 0.  1.
       -2   -1    0    0    0  501  0.00000000000E+00  0.00000000000E+00 -0.52368584249E+03  0.52368584250E+03  0.25500000920E-02 0. -1.
    10030    2    1    2    0    0  0.00000000000E+00  0.00000000000E+00  0.28342642983E+03  0.13307981148E+04  0.13002665424E+04 0.  0.
        2    1    3    3  502    0  0.16239508233E+02  0.34813030875E+03 -0.42000430441E+03  0.54576739480E+03  0.25500000920E-02 0. -1.
       -2    1    3    3    0  502 -0.16239508233E+02 -0.34813030875E+03  0.70343073424E+03  0.78503072003E+03  0.25500000920E-02 0.  1.
</event>
<event>
 5   0  0.6458698E-05  0.1299694E+04  0.7818609E-02  0.9029808E-01
        2   -1    0    0  501    0  0.00000000000E+00  0.00000000000E+00  0.44359737215E+03  0.44359737216E+03  0.25500000920E-02 0. -1.
       -2   -1    0    0    0  501  0.00000000000E+00  0.00000000000E+00 -0.95199127338E+03  0.95199127339E+03  0.25500000920E-02 0.  1.
    10030    2    1    2    0    0  0.00000000000E+00  0.00000000000E+00 -0.50839390123E+03  0.13955886455E+04  0.12996935442E+04 0.  0.
        3    1    3    3  502    0  0.25337806953E+03  0.50537582500E+02  0.38607512593E+03  0.46455194158E+03  0.10100000352E+00 0. -1.
       -3    1    3    3    0  502 -0.25337806953E+03 -0.50537582500E+02 -0.89446902717E+03  0.93103670396E+03  0.10100000352E+00 0.  1.
</event>
<event>
 5   0  0.2512000E-05  0.1301047E+04  0.7818609E-02  0.9028736E-01
        3   -1    0    0  501    0  0.00000000000E+00  0.00000000000E+00  0.15039213885E+03  0.15039217276E+03  0.10100000352E+00 0. -1.
       -3   -1    0    0    0  501  0.00000000000E+00  0.00000000000E+00 -0.28138471009E+04  0.28138471027E+04  0.10100000352E+00 0.  1.
    10030    2    1    2    0    0  0.00000000000E+00  0.00000000000E+00 -0.26634549620E+04  0.29642392755E+04  0.13010465585E+04 0.  0.
        5    1    3    3  502    0 -0.34271970089E+03  0.55274989407E+03 -0.13613642567E+04  0.15087491402E+04  0.46999998093E+01 0. -1.
       -5    1    3    3    0  502  0.34271970089E+03 -0.55274989407E+03 -0.13020907054E+04  0.14554901352E+04  0.46999998093E+01 0.  1.
</event>
<event>
 5   0  0.3689707E-05  0.1300107E+04  0.7818609E-02  0.9029480E-01
       -1   -1    0    0    0  501  0.00000000000E+00  0.00000000000E+00  0.33405034831E+03  0.33405034835E+03  0.50400001928E-02 0.  1.
        1   -1    0    0  501    0  0.00000000000E+00  0.00000000000E+00 -0.12649875862E+04  0.12649875862E+04  0.50400001928E-02 0. -1.
    10030    2    1    2    0    0  0.00000000000E+00  0.00000000000E+00 -0.93093723789E+03  0.15990379346E+04  0.13001069861E+04 0.  0.
        1    1    3    3  502    0  0.22784411200E+03 -0.51998225657E+02 -0.12115320005E+04  0.12338665013E+04  0.50400001928E-02 0. -1.
       -1    1    3    3    0  502 -0.22784411200E+03  0.51998225657E+02  0.28059476259E+03  0.36517143325E+03  0.50400001928E-02 0.  1.
</event>
<event>
 5   0  0.3718559E-05  0.1300430E+04  0.7818609E-02  0.9029224E-01
       -1   -1    0    0    0  501  0.00000000000E+00  0.00000000000E+00  0.67946898614E+03  0.67946898616E+03  0.50400001928E-02 0.  1.
        1   -1    0    0  501    0  0.00000000000E+00  0.00000000000E+00 -0.62222041168E+03  0.62222041170E+03  0.50400001928E-02 0. -1.
    10030    2    1    2    0    0  0.00000000000E+00  0.00000000000E+00  0.57248574456E+02  0.13016893979E+04  0.13004298863E+04 0.  0.
        2    1    3    3  502    0  0.23836927258E+03  0.59652667211E+03  0.12929749893E+03  0.65527232803E+03  0.25500000920E-02 0.  1.
       -2    1    3    3    0  502 -0.23836927258E+03 -0.59652667211E+03 -0.72048924477E+02  0.64641706983E+03  0.25500000920E-02 0. -1.
</event>
<event>
 5   0  0.3718559E-05  0.1300219E+04  0.7818609E-02  0.9029392E-01
        1   -1    0    0  501    0  0.00000000000E+00  0.00000000000E+00  0.91358491730E+03  0.91358491731E+03  0.50400001928E-02 0. -1.
       -1   -1    0    0    0  501  0.00000000000E+00  0.00000000000E+00 -0.46261937955E+03  0.46261937958E+03  0.50400001928E-02 0.  1.
    10030    2    1    2    0    0  0.00000000000E+00  0.00000000000E+00  0.45096553775E+03  0.13762042969E+04  0.13002185780E+04 0.  0.
        2    1    3    3  502    0 -0.58792972893E+03 -0.27745286007E+03  0.22632414861E+03  0.68837785843E+03  0.25500000920E-02 0.  1.
       -2    1    3    3    0  502  0.58792972893E+03  0.27745286007E+03  0.22464138914E+03  0.68782643846E+03  0.25500000920E-02 0. -1.
</event>
<event>
 5   0  0.6458698E-05  0.1299070E+04  0.7818609E-02  0.9030303E-01
       -2   -1    0    0    0  501  0.00000000000E+00  0.00000000000E+00  0.48747123309E+03  0.48747123309E+03  0.25500000920E-02 0. -1.
        2   -1    0    0  501    0  0.00000000000E+00  0.00000000000E+00 -0.86547754653E+03  0.86547754653E+03  0.25500000920E-02 0.  1.
    10030    2    1    2    0    0  0.00000000000E+00  0.00000000000E+00 -0.37800631344E+03  0.13529487796E+04  0.12990695237E+04 0.  0.
        3    1    3    3  502    0  0.17270730822E+02  0.26756252845E+03  0.42714844466E+03  0.50432508241E+03  0.10100000352E+00 0. -1.
       -3    1    3    3    0  502 -0.17270730822E+02 -0.26756252845E+03 -0.80515475810E+03  0.84862369721E+03  0.10100000352E+00 0.  1.
</event>
<event>
 5   0  0.6618060E-05  0.1301151E+04  0.7818609E-02  0.9028653E-01
        2   -1    0    0  501    0  0.00000000000E+00  0.00000000000E+00  0.13172525754E+04  0.13172525754E+04  0.25500000920E-02 0. -1.
       -2   -1    0    0    0  501  0.00000000000E+00  0.00000000000E+00 -0.32131159738E+03  0.32131159739E+03  0.25500000920E-02 0.  1.
    10030    2    1    2    0    0  0.00000000000E+00  0.00000000000E+00  0.99594097804E+03  0.16385641728E+04  0.13011510737E+04 0.  0.
        2    1    3    3  502    0 -0.43311175029E+03  0.48415386366E+03  0.54263242994E+03  0.84642820485E+03  0.25500000920E-02 0.  1.
       -2    1    3    3    0  502  0.43311175029E+03 -0.48415386366E+03  0.45330854810E+03  0.79213596796E+03  0.25500000920E-02 0. -1.
</event>
<event>
 5   0  0.6618060E-05  0.1300072E+04  0.7818609E-02  0.9029508E-01
        2   -1    0    0  501    0  0.00000000000E+00  0.00000000000E+00  0.40545292036E+03  0.40545292037E+03  0.25500000920E-02 0.  1.
       -2   -1    0    0    0  501  0.00000000000E+00  0.00000000000E+00 -0.10421601071E+04  0.10421601071E+04  0.25500000920E-02 0. -1.
    10030    2    1    2    0    0  0.00000000000E+00  0.00000000000E+00 -0.63670718674E+03  0.14476130275E+04  0.13000720886E+04 0.  0.
        2    1    3    3  502    0 -0.34939376501E+03 -0.54707279226E+03 -0.28006817148E+03  0.70696734277E+03  0.25500000920E-02 0. -1.
       -2    1    3    3    0  502  0.34939376501E+03  0.54707279226E+03 -0.35663901526E+03  0.74064568470E+03  0.25500000920E-02 0.  1.
</event>
<event>
 5   0  0.3551277E-05  0.1299639E+04  0.7818609E-02  0.9029852E-01
        1   -1    0    0  501    0  0.00000000000E+00  0.00000000000E+00  0.48161232753E+03  0.48161232756E+03  0.50400001928E-02 0. -1.
       -1   -1    0    0    0  501  0.00000000000E+00  0.00000000000E+00 -0.87677410039E+03  0.87677410041E+03  0.50400001928E-02 0.  1.
    10030    2    1    2    0    0  0.00000000000E+00  0.00000000000E+00 -0.39516177286E+03  0.13583864280E+04  0.12996387425E+04 0.  0.
        4    1    3    3  502    0 -0.10162315783E+03  0.54145601713E+03 -0.55777691457E+03  0.78397613740E+03  0.12699999809E+01 0.  1.
       -4    1    3    3    0  502  0.10162315783E+03 -0.54145601713E+03  0.16261514171E+03  0.57441029056E+03  0.12699999809E+01 0. -1.
</event>
<event>
 5   0  0.3552698E-05  0.1299727E+04  0.7818609E-02  0.9029782E-01
        1   -1    0    0  501    0  0.00000000000E+00  0.00000000000E+00  0.16015716908E+04  0.16015716908E+04  0.50400001928E-02 0. -1.
       -1   -1    0    0    0  501  0.00000000000E+00  0.00000000000E+00 -0.26369252280E+03  0.26369252285E+03  0.50400001928E-02 0.  1.
    10030    2    1    2    0    0  0.00000000000E+00  0.00000000000E+00  0.13378791680E+04  0.18652642137E+04  0.12997268631E+04 0.  0.
        5    1    3    3  502    0 -0.44278996874E+03  0.20694352528E+03  0.12835528246E+04  0.13734695201E+04  0.46999998093E+01 0. -1.
       -5    1    3    3    0  502  0.44278996874E+03 -0.20694352528E+03  0.54326343438E+02  0.49179469361E+03  0.46999998093E+01 0.  1.
</event>
<event>
 5   0  0.6671239E-05  0.1301769E+04  0.7818609E-02  0.9028164E-01
       -2   -1    0    0    0  501  0.00000000000E+00  0.00000000000E+00  0.49856631504E+03  0.49856631505E+03  0.25500000920E-02 0. -1.
        2   -1    0    0  501    0  0.00000000000E+00  0.00000000000E+00 -0.84973777663E+03  0.84973777663E+03  0.25500000920E-02 0.  1.
    10030    2    1    2    0    0  0.00000000000E+00  0.00000000000E+00 -0.35117146159E+03  0.13483040917E+04  0.13017689996E+04 0.  0.
        1    1    3    3  502    0 -0.20324932312E+03  0.57208149814E+03  0.67457915956E+02  0.61085030761E+03  0.50400001928E-02 0. -1.
       -1    1    3    3    0  502  0.20324932312E+03 -0.57208149814E+03 -0.41862937754E+03  0.73745378406E+03  0.50400001928E-02 0.  1.
</event>
<event>
 5   0  0.6458698E-05  0.1300162E+04  0.7818609E-02  0.9029437E-01
       -2   -1    0    0    0  501  0.00000000000E+00  0.00000000000E+00  0.98950749894E+03  0.98950749894E+03  0.25500000920E-02 0.  1.
        2   -1    0    0  501    0  0.00000000000E+00  0.00000000000E+00 -0.42708650791E+03  0.42708650792E+03  0.25500000920E-02 0. -1.
    10030    2    1    2    0    0  0.00000000000E+00  0.00000000000E+00  0.56242099102E+03  0.14165940069E+04  0.13001619934E+04 0.  0.
        3    1    3    3  502    0 -0.45976375090E+03 -0.44681282177E+03  0.16395887340E+03  0.66174536394E+03  0.10100000352E+00 0. -1.
       -3    1    3    3    0  502  0.45976375090E+03  0.44681282177E+03  0.39846211762E+03  0.75484864292E+03  0.10100000352E+00 0.  1.
</event>
<event>
 5   0  0.2512000E-05  0.1301153E+04  0.7818609E-02  0.9028651E-01
        4   -1    0    0  501    0  0.00000000000E+00  0.00000000000E+00  0.73888291166E+03  0.73888400310E+03  0.12699999809E+01 0. -1.
       -4   -1    0    0    0  501  0.00000000000E+00  0.00000000000E+00 -0.57282197923E+03  0.57282338709E+03  0.12699999809E+01 0.  1.
    10030    2    1    2    0    0  0.00000000000E+00  0.00000000000E+00  0.16606093243E+03  0.13117073902E+04  0.13011533515E+04 0.  0.
        5    1    3    3  502    0 -0.13370324589E+03 -0.55754166972E+03  0.39293025619E+03  0.69508671952E+03  0.46999998093E+01 0. -1.
       -5    1    3    3    0  502  0.13370324589E+03  0.55754166972E+03 -0.22686932376E+03  0.61662067067E+03  0.46999998093E+01 0.  1.
</event>
<event>
 5   0  0.6458698E-05  0.1299654E+04  0.7818609E-02  0.9029840E-01
        2   -1    0    0  501    0  0.00000000000E+00  0.00000000000E+00  0.59495984580E+03  0.59495984580E+03  0.25500000920E-02 0.  1.
       -2   -1    0    0    0  501  0.00000000000E+00  0.00000000000E+00 -0.70975373902E+03  0.70975373902E+03  0.25500000920E-02 0. -1.
    10030    2    1    2    0    0  0.00000000000E+00  0.00000000000E+00 -0.11479389322E+03  0.13047135848E+04  0.12996537618E+04 0.  0.
        3    1    3    3  502    0 -0.26425124125E+03 -0.11218216773E+03 -0.64264293045E+03  0.70384906302E+03  0.10100000352E+00 0. -1.
       -3    1    3    3    0  502  0.26425124125E+03  0.11218216773E+03  0.52784903723E+03  0.60086452180E+03  0.10100000352E+00 0.  1.
</event>
<event>
 5   0  0.6618060E-05  0.1299284E+04  0.7818609E-02  0.9030133E-01
        2   -1    0    0  501    0  0.00000000000E+00  0.00000000000E+00  0.72970863975E+03  0.72970863975E+03  0.25500000920E-02 0.  1.
       -2   -1    0    0    0  501  0.00000000000E+00  0.00000000000E+00 -0.57836068672E+03  0.57836068673E+03  0.25500000920E-02 0. -1.
    10030    2    1    2    0    0  0.00000000000E+00  0.00000000000E+00  0.15134795303E+03  0.13080693265E+04  0.12992840952E+04 0.  0.
        2    1    3    3  502    0  0.55422331206E+03 -0.20770785371E+03  0.34530713228E+03  0.68523211231E+03  0.25500000920E-02 0. -1.
       -2    1    3    3    0  502 -0.55422331206E+03  0.20770785371E+03 -0.19395917926E+03  0.62283721417E+03  0.25500000920E-02 0.  1.
</event>
<event>
 5   0  0.6688086E-05  0.1299005E+04  0.7818609E-02  0.9030355E-01
        2   -1    0    0  501    0  0.00000000000E+00  0.00000000000E+00  0.11363743595E+04  0.11363743595E+04  0.25500000920E-02 0.  1.
       -2   -1    0    0    0  501  0.00000000000E+00  0.00000000000E+00 -0.37122745731E+03  0.37122745732E+03  0.25500000920E-02 0. -1.
    10030    2    1    2    0    0  0.00000000000E+00  0.00000000000E+00  0.76514690224E+03  0.15076018169E+04  0.12990047945E+04 0.  0.
        5    1    3    3  502    0 -0.41054361085E+03 -0.47287299272E+03  0.58250491382E+03  0.85527129513E+03  0.46999998093E+01 0.  1.
       -5    1    3    3    0  502  0.41054361085E+03  0.47287299272E+03  0.18264198842E+03  0.65233052173E+03  0.46999998093E+01 0. -1.
</event>
<event>
 5   0  0.3631841E-05  0.1300206E+04  0.7818609E-02  0.9029402E-01
       -1   -1    0    0    0  501  0.00000000000E+00  0.00000000000E+00  0.57247959616E+03  0.57247959618E+03  0.50400001928E-02 0. -1.
        1   -1    0    0  501    0  0.00000000000E+00  0.00000000000E+00 -0.73825168898E+03  0.73825168899E+03  0.50400001928E-02 0.  1.
    10030    2    1    2    0    0  0.00000000000E+00  0.00000000000E+00 -0.16577209282E+03  0.13107312852E+04  0.13002061818E+04 0.  0.
        3    1    3    3  502    0 -0.33729011403E+03  0.38755877566E+03 -0.48444152513E+03  0.70615156098E+03  0.10100000352E+00 0.  1.
       -3    1    3    3    0  502  0.33729011403E+03 -0.38755877566E+03  0.31866943231E+03  0.60457972419E+03  0.10100000352E+00 0. -1.
</event>
<event>
 5   0  0.3552698E-05  0.1300858E+04  0.7818609E-02  0.9028885E-01
        1   -1    0    0  501    0  0.00000000000E+00  0.00000000000E+00  0.77410000646E+03  0.77410000648E+03  0.50400001928E-02 0.  1.
       -1   -1    0    0    0  501  0.00000000000E+00  0.00000000000E+00 -0.54651594964E+03  0.54651594967E+03  0.50400001928E-02 0. -1.
    10030    2    1    2    0    0  0.00000000000E+00  0.00000000000E+00  0.22758405682E+03  0.13206159561E+04  0.13008581786E+04 0.  0.
        5    1    3    3  502    0  0.42127510509E+02  0.22956815315E+03  0.73010382383E+03  0.76651806740E+03  0.46999998093E+01 0.  1.
       -5    1    3    3    0  502 -0.42127510509E+02 -0.22956815315E+03 -0.50251976701E+03  0.55409788875E+03  0.46999998093E+01 0. -1.
</event>
<event>
 5   0  0.6671239E-05  0.1301807E+04  0.7818609E-02  0.9028134E-01
       -2   -1    0    0    0  501  0.00000000000E+00  0.00000000000E+00  0.21505193741E+03  0.21505193743E+03  0.25500000920E-02 0.  1.
        2   -1    0    0  501    0  0.00000000000E+00  0.00000000000E+00 -0.19701058107E+04  0.19701058107E+04  0.25500000920E-02 0. -1.
    10030    2    1    2    0    0  0.00000000000E+00  0.00000000000E+00 -0.17550538733E+04  0.21851577481E+04  0.13018065471E+04 0.  0.
        1    1    3    3  502    0  0.19451109601E+02 -0.48757711671E+02 -0.19665468478E+04  0.19672473573E+04  0.50400001928E-02 0. -1.
       -1    1    3    3    0  502 -0.19451109601E+02  0.48757711671E+02  0.21149297455E+03  0.21791039081E+03  0.50400001928E-02 0.  1.
</event>
<event>
 5   0  0.3718559E-05  0.1300368E+04  0.7818609E-02  0.9029273E-01
        1   -1    0    0  501    0  0.00000000000E+00  0.00000000000E+00  0.42503007188E+03  0.42503007191E+03  0.50400001928E-02 0. -1.
       -1   -1    0    0    0  501  0.00000000000E+00  0.00000000000E+00 -0.99461085539E+03  0.99461085540E+03  0.50400001928E-02 0.  1.
    10030    2    1    2    0    0  0.00000000000E+00  0.00000000000E+00 -0.56958078351E+03  0.14196409273E+04  0.13003684453E+04 0.  0.
        2    1    3    3  502    0  0.46185510431E+03  0.38438704106E+03 -0.55591575626E+03  0.81859994061E+03  0.25500000920E-02 0. -1.
       -2    1    3    3    0  502 -0.46185510431E+03 -0.38438704106E+03 -0.13665027259E+02  0.60104098670E+03  0.25500000920E-02 0.  1.
</event>
<event>
 5   0  0.6618060E-05  0.1301847E+04  0.7818609E-02  0.9028102E-01
       -2   -1    0    0    0  501  0.00000000000E+00  0.00000000000E+00  0.37063783914E+03  0.37063783914E+03  0.25500000920E-02 0. -1.
        2   -1    0    0  501    0  0.00000000000E+00  0.00000000000E+00 -0.11431676443E+04  0.11431676443E+04  0.25500000920E-02 0.  1.
    10030    2    1    2    0    0  0.00000000000E+00  0.00000000000E+00 -0.77252980515E+03  0.15138054834E+04  0.13018466660E+04 0.  0.
        2    1    3    3  502    0  0.52804629833E+03  0.37007098079E+03 -0.28280868707E+03  0.70410665207E+03  0.25500000920E-02 0.  1.
       -2    1    3    3    0  502 -0.52804629833E+03 -0.37007098079E+03 -0.48972111808E+03  0.80969883136E+03  0.25500000920E-02 0. -1.
</event>
<event>
 5   0  0.3689707E-05  0.1299785E+04  0.7818609E-02  0.9029736E-01
        1   -1    0    0  501    0  0.00000000000E+00  0.00000000000E+00  0.13822399699E+04  0.13822399699E+04  0.50400001928E-02 0.  1.
       -1   -1    0    0    0  501  0.00000000000E+00  0.00000000000E+00 -0.30556199686E+03  0.30556199690E+03  0.50400001928E-02 0. -1.
    10030    2    1    2    0    0  0.00000000000E+00  0.00000000000E+00  0.10766779730E+04  0.16878019668E+04  0.12997846058E+04 0.  0.
        1    1    3    3  502    0  0.16673623185E+03 -0.42278212394E+03 -0.64901134852E+02  0.45908370987E+03  0.50400001928E-02 0. -1.
       -1    1    3    3    0  502 -0.16673623185E+03  0.42278212394E+03  0.11415791079E+04  0.12287182569E+04  0.50400001928E-02 0.  1.
</event>
<event>
 5   0  0.6742824E-05  0.1299880E+04  0.7818609E-02  0.9029660E-01
        2   -1    0    0  501    0  0.00000000000E+00  0.00000000000E+00  0.41992678791E+03  0.41992678791E+03  0.25500000920E-02 0. -1.
       -2   -1    0    0    0  501  0.00000000000E+00  0.00000000000E+00 -0.10059426448E+04  0.10059426448E+04  0.25500000920E-02 0.  1.
    10030    2    1    2    0    0  0.00000000000E+00  0.00000000000E+00 -0.58601585686E+03  0.14258694327E+04  0.12998804001E+04 0.  0.
        4    1    3    3  502    0 -0.42467041253E+03 -0.33100210295E+03  0.10629831157E+03  0.54882446682E+03  0.12699999809E+01 0. -1.
       -4    1    3    3    0  502  0.42467041253E+03  0.33100210295E+03 -0.69231416843E+03  0.87704496586E+03  0.12699999809E+01 0.  1.
</event>
<event>
 5   0  0.3551277E-05  0.1300431E+04  0.7818609E-02  0.9029224E-01
       -1   -1    0    0    0  501  0.00000000000E+00  0.00000000000E+00  0.16975660201E+03  0.16975660209E+03  0.50400001928E-02 0. -1.
        1   -1    0    0  501    0  0.00000000000E+00  0.00000000000E+00 -0.24905072699E+04  0.24905072699E+04  0.50400001928E-02 0.  1.
    10030    2    1    2    0    0  0.00000000000E+00  0.00000000000E+00 -0.23207506679E+04  0.26602638720E+04  0.13004307771E+04 0.  0.
        4    1    3    3  502    0  0.10848459991E+03  0.17475198837E+03 -0.24221982570E+04  0.24309161184E+04  0.12699999809E+01 0.  1.
       -4    1    3    3    0  502 -0.10848459991E+03 -0.17475198837E+03  0.10144758905E+03  0.22934775360E+03  0.12699999809E+01 0. -1.
</event>
<event>
 5   0  0.6688086E-05  0.1299310E+04  0.7818609E-02  0.9030113E-01
        2   -1    0    0  501    0  0.00000000000E+00  0.00000000000E+00  0.11175478918E+04  0.11175478918E+04  0.25500000920E-02 0.  1.
       -2   -1    0    0    0  501  0.00000000000E+00  0.00000000000E+00 -0.37765840629E+03  0.37765840630E+03  0.25500000920E-02 0. -1.
    10030    2    1    2    0    0  0.00000000000E+00  0.00000000000E+00  0.73988948553E+03  0.14952062981E+04  0.12993095948E+04 0.  0.
        5    1    3    3  502    0  0.57023595192E+03  0.13235349357E+03  0.69409186655E+03  0.90800445887E+03  0.46999998093E+01 0.  1.
       -5    1    3    3    0  502 -0.57023595192E+03 -0.13235349357E+03  0.45797618981E+02  0.58720183925E+03  0.46999998093E+01 0. -1.
</event>
<event>
 5   0  0.3718559E-05  0.1300142E+04  0.7818609E-02  0.9029452E-01
       -1   -1    0    0    0  501  0.00000000000E+00  0.00000000000E+00  0.32235334746E+03  0.32235334749E+03  0.50400001928E-02 0. -1.
        1   -1    0    0  501    0  0.00000000000E+00  0.00000000000E+00 -0.13109607105E+04  0.13109607105E+04  0.50400001928E-02 0.  1.
    10030    2    1    2    0    0  0.00000000000E+00  0.00000000000E+00 -0.98860736307E+03  0.16333140580E+04  0.13001424129E+04 0.  0.
        2    1    3    3  502    0  0.92680276027E+02  0.60973013692E+03 -0.23613704727E+03  0.66039471419E+03  0.25500000920E-02 0. -1.
       -2    1    3    3    0  502 -0.92680276027E+02 -0.60973013692E+03 -0.75247031581E+03  0.97291934384E+03  0.25500000920E-02 0.  1.
</event>
<event>
 5   0  0.3631841E-05  0.1300691E+04  0.7818609E-02  0.9029017E-01
       -1   -1    0    0    0  501  0.00000000000E+00  0.00000000000E+00  0.57176067520E+03  0.57176067522E+03  0.50400001928E-02 0.  1.
        1   -1    0    0  501    0  0.00000000000E+00  0.00000000000E+00 -0.73973158574E+03  0.73973158576E+03  0.50400001928E-02 0. -1.
    10030    2    1    2    0    0  0.00000000000E+00  0.00000000000E+00 -0.16797091054E+03  0.13114922610E+04  0.13006912485E+04 0.  0.
        3    1    3    3  502    0  0.38681362865E+03  0.10895038251E+03  0.43158679518E+03  0.58971360942E+03  0.10100000352E+00 0.  1.
       -3    1    3    3    0  502 -0.38681362865E+03 -0.10895038251E+03 -0.59955770572E+03  0.72177865156E+03  0.10100000352E+00 0. -1.
</event>
<event>
 5   0  0.6671239E-05  0.1296199E+04  0.7818609E-02  0.9032585E-01
       -2   -1    0    0    0  501  0.00000000000E+00  0.00000000000E+00  0.77477339072E+03  0.77477339073E+03  0.25500000920E-02 0.  1.
        2   -1    0    0  501    0  0.00000000000E+00  0.00000000000E+00 -0.54213670795E+03  0.54213670796E+03  0.25500000920E-02 0. -1.
    10030    2    1    2    0    0  0.00000000000E+00  0.00000000000E+00  0.23263668277E+03  0.13169100987E+04  0.12961992061E+04 0.  0.
        1    1    3    3  502    0  0.60977299042E+03 -0.31510270464E+01 -0.10673472407E+03  0.61905196080E+03  0.50400001928E-02 0.  1.
       -1    1    3    3    0  502 -0.60977299042E+03  0.31510270464E+01  0.33937140684E+03  0.69785813789E+03  0.50400001928E-02 0. -1.
</event>
<event>
 5   0  0.3631841E-05  0.1300260E+04  0.7818609E-02  0.9029359E-01
       -1   -1    0    0    0  501  0.00000000000E+00  0.00000000000E+00  0.29645125926E+03  0.29645125931E+03  0.50400001928E-02 0.  1.
        1   -1    0    0  501    0  0.00000000000E+00  0.00000000000E+00 -0.14257614635E+04  0.14257614635E+04  0.50400001928E-02 0. -1.
    10030    2    1    2    0    0  0.00000000000E+00  0.00000000000E+00 -0.11293102042E+04  0.17222127228E+04  0.13002596376E+04 0.  0.
        3    1    3    3  502    0  0.69070233522E+02  0.46594178345E+03 -0.11581740599E+04  0.12502958074E+04  0.10100000352E+00 0. -1.
       -3    1    3    3    0  502 -0.69070233522E+02 -0.46594178345E+03  0.28863855653E+02  0.47191691545E+03  0.10100000352E+00 0.  1.
</event>
<event>
 5   0  0.6671239E-05  0.1299782E+04  0.7818609E-02  0.9029738E-01
        2   -1    0    0  501    0  0.00000000000E+00  0.00000000000E+00  0.14079411950E+04  0.14079411950E+04  0.25500000920E-02 0.  1.
       -2   -1    0    0    0  501  0.00000000000E+00  0.00000000000E+00 -0.29998292820E+03  0.29998292821E+03  0.25500000920E-02 0. -1.
    10030    2    1    2    0    0  0.00000000000E+00  0.00000000000E+00  0.11079582668E+04  0.17079241232E+04  0.12997820162E+04 0.  0.
        1    1    3    3  502    0  0.50682078378E+03  0.31975129108E+03  0.22351163636E+03  0.63958240019E+03  0.50400001928E-02 0.  1.
       -1    1    3    3    0  502 -0.50682078378E+03 -0.31975129108E+03  0.88444663042E+03  0.10683417230E+04  0.50400001928E-02 0. -1.
</event>
<event>
 5   0  0.3631841E-05  0.1300811E+04  0.7818609E-02  0.9028923E-01
       -1   -1    0    0    0  501  0.00000000000E+00  0.00000000000E+00  0.43713313279E+03  0.43713313282E+03  0.50400001928E-02 0.  1.
        1   -1    0    0  501    0  0.00000000000E+00  0.00000000000E+00 -0.96773042525E+03  0.96773042526E+03  0.50400001928E-02 0. -1.
    10030    2    1    2    0    0  0.00000000000E+00  0.00000000000E+00 -0.53059729246E+03  0.14048635581E+04  0.13008105665E+04 0.  0.
        3    1    3    3  502    0 -0.29774053409E+03  0.19565946443E+03 -0.85297146819E+03  0.92438757424E+03  0.10100000352E+00 0. -1.
       -3    1    3    3    0  502  0.29774053409E+03 -0.19565946443E+03  0.32237417573E+03  0.48047598384E+03  0.10100000352E+00 0.  1.
</event>
<event>
 5   0  0.3552698E-05  0.1299779E+04  0.7818609E-02  0.9029741E-01
        1   -1    0    0  501    0  0.00000000000E+00  0.00000000000E+00  0.66175803003E+03  0.66175803005E+03  0.50400001928E-02 0. -1.
       -1   -1    0    0    0  501  0.00000000000E+00  0.00000000000E+00 -0.63823371596E+03  0.63823371598E+03  0.50400001928E-02 0.  1.
    10030    2    1    2    0    0  0.00000000000E+00  0.00000000000E+00  0.23524314074E+02  0.12999917460E+04  0.12997788837E+04 0.  0.
        5    1    3    3  502    0 -0.38324000645E+03  0.42263752468E+03 -0.29947816428E+03  0.64436374874E+03  0.46999998093E+01 0.  1.
       -5    1    3    3    0  502  0.38324000645E+03 -0.42263752468E+03  0.32300247835E+03  0.65562799729E+03  0.46999998093E+01 0. -1.
</event>
<event>
 5   0  0.6742824E-05  0.1300683E+04  0.7818609E-02  0.9029024E-01
       -2   -1    0    0    0  501  0.00000000000E+00  0.00000000000E+00  0.55207314921E+03  0.55207314921E+03  0.25500000920E-02 0. -1.
        2   -1    0    0  501    0  0.00000000000E+00  0.00000000000E+00 -0.76610136025E+03  0.76610136025E+03  0.25500000920E-02 0.  1.
    10030    2    1    2    0    0  0.00000000000E+00  0.00000000000E+00 -0.21402821104E+03  0.13181745095E+04  0.13006828831E+04 0.  0.
        4    1    3    3  502    0  0.47164604997E+03 -0.23270999082E+03  0.28067241092E+03  0.59613970798E+03  0.12699999809E+01 0. -1.
       -4    1    3    3    0  502 -0.47164604997E+03  0.23270999082E+03 -0.49470062196E+03  0.72203480148E+03  0.12699999809E+01 0.  1.
</event>
<event>
 5   0  0.6618060E-05  0.1297355E+04  0.7818609E-02  0.9031666E-01
        2   -1    0    0  501    0  0.00000000000E+00  0.00000000000E+00  0.82345171983E+03  0.82345171983E+03  0.25500000920E-02 0. -1.
       -2   -1    0    0    0  501  0.00000000000E+00  0.00000000000E+00 -0.51099817629E+03  0.51099817630E+03  0.25500000920E-02 0.  1.
    10030    2    1    2    0    0  0.00000000000E+00  0.00000000000E+00  0.31245354353E+03  0.13344498961E+04  0.12973547350E+04 0.  0.
        2    1    3    3  502    0 -0.13469270019E+03  0.48019214846E+03 -0.27042943577E+03  0.56732592278E+03  0.25500000920E-02 0.  1.
       -2    1    3    3    0  502  0.13469270019E+03 -0.48019214846E+03  0.58288297930E+03  0.76712397335E+03  0.25500000920E-02 0. -1.
</event>
<event>
 5   0  0.3551277E-05  0.1300096E+04  0.7818609E-02  0.9029489E-01
       -1   -1    0    0    0  501  0.00000000000E+00  0.00000000000E+00  0.58053456139E+03  0.58053456141E+03  0.50400001928E-02 0. -1.
        1   -1    0    0  501    0  0.00000000000E+00  0.00000000000E+00 -0.72788515231E+03  0.72788515233E+03  0.50400001928E-02 0.  1.
    10030    2    1    2    0    0  0.00000000000E+00  0.00000000000E+00 -0.14735059092E+03  0.13084197137E+04  0.13000961313E+04 0.  0.
        4    1    3    3  502    0  0.46230755855E+03  0.21399440317E+03 -0.48004128520E+03  0.69997366499E+03  0.12699999809E+01 0.  1.
       -4    1    3    3    0  502 -0.46230755855E+03 -0.21399440317E+03  0.33269069427E+03  0.60844604875E+03  0.12699999809E+01 0. -1.
</event>
<event>
 5   0  0.2512000E-05  0.1299871E+04  0.7818609E-02  0.9029667E-01
       -3   -1    0    0    0  501  0.00000000000E+00  0.00000000000E+00  0.44460566361E+03  0.44460567508E+03  0.10100000352E+00 0.  1.
        3   -1    0    0  501    0  0.00000000000E+00  0.00000000000E+00 -0.95009211886E+03  0.95009212422E+03  0.10100000352E+00 0. -1.
    10030    2    1    2    0    0  0.00000000000E+00  0.00000000000E+00 -0.50548645525E+03  0.13946977993E+04  0.12998712994E+04 0.  0.
        3    1    3    3  502    0  0.52383094881E+03  0.24235876497E+03 -0.57333777617E+03  0.81354339139E+03  0.10100000352E+00 0. -1.
       -3    1    3    3    0  502 -0.52383094881E+03 -0.24235876497E+03  0.67851320927E+02  0.58115440791E+03  0.10100000352E+00 0.  1.
</event>
<event>
 5   0  0.6688086E-05  0.1299842E+04  0.7818609E-02  0.9029690E-01
        2   -1    0    0  501    0  0.00000000000E+00  0.00000000000E+00  0.40213988873E+03  0.40213988874E+03  0.25500000920E-02 0.  1.
       -2   -1    0    0    0  501  0.00000000000E+00  0.00000000000E+00 -0.10503742397E+04  0.10503742397E+04  0.25500000920E-02 0. -1.
    10030    2    1    2    0    0  0.00000000000E+00  0.00000000000E+00 -0.64823435093E+03  0.14525141284E+04  0.12998421133E+04 0.  0.
        5    1    3    3  502    0 -0.62530851783E+03  0.10293254818E+03 -0.16307407108E+03  0.65438604402E+03  0.46999998093E+01 0.  1.
       -5    1    3    3    0  502  0.62530851783E+03 -0.10293254818E+03 -0.48516027985E+03  0.79812808439E+03  0.46999998093E+01 0. -1.
</event>
<event>
 5   0  0.3689707E-05  0.1305671E+04  0.7818609E-02  0.9025080E-01
       -1   -1    0    0    0  501  0.00000000000E+00  0.00000000000E+00  0.51440298600E+03  0.51440298603E+03  0.50400001928E-02 0.  1.
        1   -1    0    0  501    0  0.00000000000E+00  0.00000000000E+00 -0.82852232958E+03  0.82852232959E+03  0.50400001928E-02 0. -1.
    10030    2    1    2    0    0  0.00000000000E+00  0.00000000000E+00 -0.31411934358E+03  0.13429253156E+04  0.13056712608E+04 0.  0.
        1    1    3    3  502    0 -0.50112481326E+03  0.34684813280E+03 -0.39775529457E+03  0.72776299719E+03  0.50400001928E-02 0.  1.
       -1    1    3    3    0  502  0.50112481326E+03 -0.34684813280E+03  0.83635950998E+02  0.61516231843E+03  0.50400001928E-02 0. -1.
</event>
<event>
 5   0  0.6742824E-05  0.1300038E+04  0.7818609E-02  0.9029535E-01
        2   -1    0    0  501    0  0.00000000000E+00  0.00000000000E+00  0.41310815700E+03  0.41310815701E+03  0.25500000920E-02 0.  1.
       -2   -1    0    0    0  501  0.00000000000E+00  0.00000000000E+00 -0.10227948355E+04  0.10227948355E+04  0.25500000920E-02 0. -1.
    10030    2    1    2    0    0  0.00000000000E+00  0.00000000000E+00 -0.60968667849E+03  0.14359029925E+04  0.13000382910E+04 0.  0.
        4    1    3    3  502    0  0.32935440596E+02  0.27216234631E+03  0.34612929130E+03  0.44154748917E+03  0.12699999809E+01 0.  1.
       -4    1    3    3    0  502 -0.32935440596E+02 -0.27216234631E+03 -0.95581596979E+03  0.99435550333E+03  0.12699999809E+01 0. -1.
</event>
<event>
 5   0  0.3718559E-05  0.1300142E+04  0.7818609E-02  0.9029452E-01
        1   -1    0    0  501    0  0.00000000000E+00  0.00000000000E+00  0.10535628501E+04  0.10535628501E+04  0.50400001928E-02 0.  1.
       -1   -1    0    0    0  501  0.00000000000E+00  0.00000000000E+00 -0.40110794518E+03  0.40110794521E+03  0.50400001928E-02 0. -1.
    10030    2    1    2    0    0  0.00000000000E+00  0.00000000000E+00  0.65245490491E+03  0.14546707953E+04  0.13001421921E+04 0.  0.
        2    1    3    3  502    0  0.51481578764E+03 -0.20627724103E+03 -0.53206065693E+02  0.55715032155E+03  0.25500000920E-02 0. -1.
       -2    1    3    3    0  502 -0.51481578764E+03  0.20627724103E+03  0.70566097060E+03  0.89752047375E+03  0.25500000920E-02 0.  1.
</event>
<event>
 5   0  0.3718559E-05  0.1300474E+04  0.7818609E-02  0.9029189E-01
       -1   -1    0    0    0  501  0.00000000000E+00  0.00000000000E+00  0.10690359125E+04  0.10690359125E+04  0.50400001928E-02 0.  1.
        1   -1    0    0  501    0  0.00000000000E+00  0.00000000000E+00 -0.39550418231E+03  0.39550418235E+03  0.50400001928E-02 0. -1.
    10030    2    1    2    0    0  0.00000000000E+00  0.00000000000E+00  0.67353173019E+03  0.14645400949E+04  0.13004740281E+04 0.  0.
        2    1    3    3  502    0 -0.29605387036E+03 -0.27490742905E+03  0.91053921305E+03  0.99614439074E+03  0.25500000920E-02 0.  1.
       -2    1    3    3    0  502  0.29605387036E+03  0.27490742905E+03 -0.23700748286E+03  0.46839570412E+03  0.25500000920E-02 0. -1.
</event>
<event>
 5   0  0.6618060E-05  0.1299582E+04  0.7818609E-02  0.9029896E-01
        2   -1    0    0  501    0  0.00000000000E+00  0.00000000000E+00  0.23115748434E+04  0.23115748434E+04  0.25500000920E-02 0. -1.
       -2   -1    0    0    0  501  0.00000000000E+00  0.00000000000E+00 -0.18265842336E+03  0.18265842338E+03  0.25500000920E-02 0.  1.
    10030    2    1    2    0    0  0.00000000000E+00  0.00000000000E+00  0.21289164200E+04  0.24942332668E+04  0.12995824197E+04 0.  0.
        2    1    3    3  502    0 -0.56570625786E+03  0.44256824131E+02  0.16721279192E+04  0.17657842492E+04  0.25500000920E-02 0. -1.
       -2    1    3    3    0  502  0.56570625786E+03 -0.44256824131E+02  0.45678850084E+03  0.72844901755E+03  0.25500000920E-02 0.  1.
</event>
<event>
 5   0  0.3552698E-05  0.1299468E+04  0.7818609E-02  0.9029987E-01
        1   -1    0    0  501    0  0.00000000000E+00  0.00000000000E+00  0.58388445518E+03  0.58388445520E+03  0.50400001928E-02 0. -1.
       -1   -1    0    0    0  501  0.00000000000E+00  0.00000000000E+00 -0.72300991919E+03  0.72300991920E+03  0.50400001928E-02 0.  1.
    10030    2    1    2    0    0  0.00000000000E+00  0.00000000000E+00 -0.13912546401E+03  0.13068943744E+04  0.12994679723E+04 0.  0.
        5    1    3    3  502    0 -0.31515840707E+03  0.54646837625E+03 -0.22594948346E+03  0.67009534162E+03  0.46999998093E+01 0.  1.
       -5    1    3    3    0  502  0.31515840707E+03 -0.54646837625E+03  0.86824019448E+02  0.63679903278E+03  0.46999998093E+01 0. -1.
</event>
<event>
 5   0  0.3551277E-05  0.1300226E+04  0.7818609E-02  0.9029386E-01
       -1   -1    0    0    0  501  0.00000000000E+00  0.00000000000E+00  0.29717812799E+03  0.29717812803E+03  0.50400001928E-02 0.  1.
        1   -1    0    0  501    0  0.00000000000E+00  0.00000000000E+00 -0.14221997096E+04  0.14221997096E+04  0.50400001928E-02 0. -1.
    10030    2    1    2    0    0  0.00000000000E+00  0.00000000000E+00 -0.11250215816E+04  0.17193778376E+04  0.13002255918E+04 0.  0.
        4    1    3    3  502    0 -0.38588990497E+03  0.38078785925E+03 -0.10369715459E+04  0.11701376040E+04  0.12699999809E+01 0. -1.
       -4    1    3    3    0  502  0.38588990497E+03 -0.38078785925E+03 -0.88050035718E+02  0.54924023360E+03  0.12699999809E+01 0.  1.
</event>
<event>
 5   0  0.3552698E-05  0.1298987E+04  0.7818609E-02  0.9030369E-01
       -1   -1    0    0    0  501  0.00000000000E+00  0.00000000000E+00  0.38597325930E+03  0.38597325933E+03  0.50400001928E-02 0. -1.
        1   -1    0    0  501    0  0.00000000000E+00  0.00000000000E+00 -0.10929295693E+04  0.10929295693E+04  0.50400001928E-02 0.  1.
    10030    2    1    2    0    0  0.00000000000E+00  0.00000000000E+00 -0.70695630997E+03  0.14789028286E+04  0.12989866636E+04 0.  0.
        5    1    3    3  502    0 -0.23915051448E+03  0.17090081909E+03 -0.10128479698E+04  0.10546483577E+04  0.46999998093E+01 0.  1.
       -5    1    3    3    0  502  0.23915051448E+03 -0.17090081909E+03  0.30589165981E+03  0.42425447090E+03  0.46999998093E+01 0. -1.
</event>
<event>
 5   0  0.6618060E-05  0.1299874E+04  0.7818609E-02  0.9029665E-01
       -2   -1    0    0    0  501  0.00000000000E+00  0.00000000000E+00  0.42782036760E+03  0.42782036761E+03  0.25500000920E-02 0. -1.
        2   -1    0    0  501    0  0.00000000000E+00  0.00000000000E+00 -0.98737208221E+03  0.98737208221E+03  0.25500000920E-02 0.  1.
    10030    2    1    2    0    0  0.00000000000E+00  0.00000000000E+00 -0.55955171461E+03  0.14151924498E+04  0.12998736664E+04 0.  0.
        2    1    3    3  502    0 -0.29649750322E+03 -0.31177191469E+03 -0.81013267914E+03  0.91729354844E+03  0.25500000920E-02 0.  1.
       -2    1    3    3    0  502  0.29649750322E+03  0.31177191469E+03  0.25058096453E+03  0.49789890138E+03  0.25500000920E-02 0. -1.
</event>
<event>
 5   0  0.6618060E-05  0.1300135E+04  0.7818609E-02  0.9029458E-01
       -2   -1    0    0    0  501  0.00000000000E+00  0.00000000000E+00  0.23872557279E+03  0.23872557281E+03  0.25500000920E-02 0.  1.
        2   -1    0    0  501    0  0.00000000000E+00  0.00000000000E+00 -0.17701824221E+04  0.17701824221E+04  0.25500000920E-02 0. -1.
    10030    2    1    2    0    0  0.00000000000E+00  0.00000000000E+00 -0.15314568493E+04  0.20089079949E+04  0.13001350894E+04 0.  0.
        2    1    3    3  502    0 -0.15648664359E+03 -0.97347532357E+02  0.19751472658E+03  0.27014196064E+03  0.25500000920E-02 0.  1.
       -2    1    3    3    0  502  0.15648664359E+03  0.97347532357E+02 -0.17289715759E+04  0.17387660342E+04  0.25500000920E-02 0. -1.
</event>
<event>
 5   0  0.3689707E-05  0.1299802E+04  0.7818609E-02  0.9029722E-01
       -1   -1    0    0    0  501  0.00000000000E+00  0.00000000000E+00  0.54781736557E+03  0.54781736559E+03  0.50400001928E-02 0.  1.
        1   -1    0    0  501    0  0.00000000000E+00  0.00000000000E+00 -0.77100784843E+03  0.77100784844E+03  0.50400001928E-02 0. -1.
    10030    2    1    2    0    0  0.00000000000E+00  0.00000000000E+00 -0.22319048286E+03  0.13188252140E+04  0.12998022748E+04 0.  0.
        1    1    3    3  502    0 -0.57201110035E+03  0.30848201499E+03 -0.10784852073E+03  0.65877853330E+03  0.50400001928E-02 0. -1.
       -1    1    3    3    0  502  0.57201110035E+03 -0.30848201499E+03 -0.11534196213E+03  0.66004668073E+03  0.50400001928E-02 0.  1.
</event>
<event>
 5   0  0.6458698E-05  0.1300506E+04  0.7818609E-02  0.9029164E-01
       -2   -1    0    0    0  501  0.00000000000E+00  0.00000000000E+00  0.37025963587E+03  0.37025963588E+03  0.25500000920E-02 0.  1.
        2   -1    0    0  501    0  0.00000000000E+00  0.00000000000E+00 -0.11419797405E+04  0.11419797405E+04  0.25500000920E-02 0. -1.
    10030    2    1    2    0    0  0.00000000000E+00  0.00000000000E+00 -0.77172010462E+03  0.15122393764E+04  0.13005060598E+04 0.  0.
        3    1    3    3  502    0  0.17282969884E+03  0.61306073552E+03 -0.53798553649E+03  0.83375177236E+03  0.10100000352E+00 0. -1.
       -3    1    3    3    0  502 -0.17282969884E+03 -0.61306073552E+03 -0.23373456812E+03  0.67848760400E+03  0.10100000352E+00 0.  1.
</event>
<event>
 5   0  0.6458698E-05  0.1301379E+04  0.7818609E-02  0.9028472E-01
        2   -1    0    0  501    0  0.00000000000E+00  0.00000000000E+00  0.17064047280E+04  0.17064047280E+04  0.25500000920E-02 0.  1.
       -2   -1    0    0    0  501  0.00000000000E+00  0.00000000000E+00 -0.24812216584E+03  0.24812216585E+03  0.25500000920E-02 0. -1.
    10030    2    1    2    0    0  0.00000000000E+00  0.00000000000E+00  0.14582825622E+04  0.19545268938E+04  0.13013790177E+04 0.  0.
        3    1    3    3  502    0 -0.64966921603E+02  0.51092842780E+03  0.13263726447E+04  0.14228608372E+04  0.10100000352E+00 0.  1.
       -3    1    3    3    0  502  0.64966921603E+02 -0.51092842780E+03  0.13190991743E+03  0.53166605662E+03  0.10100000352E+00 0. -1.
</event>
<event>
 5   0  0.6742824E-05  0.1300150E+04  0.7818609E-02  0.9029446E-01
        2   -1    0    0  501    0  0.00000000000E+00  0.00000000000E+00  0.56131740895E+03  0.56131740896E+03  0.25500000920E-02 0. -1.
       -2   -1    0    0    0  501  0.00000000000E+00  0.00000000000E+00 -0.75286758245E+03  0.75286758246E+03  0.25500000920E-02 0.  1.
    10030    2    1    2    0    0  0.00000000000E+00  0.00000000000E+00 -0.19155017350E+03  0.13141849914E+04  0.13001502693E+04 0.  0.
        4    1    3    3  502    0  0.22567713622E+02  0.33748039468E+03  0.46536961391E+03  0.57530236306E+03  0.12699999809E+01 0. -1.
       -4    1    3    3    0  502 -0.22567713622E+02 -0.33748039468E+03 -0.65691978741E+03  0.73888262835E+03  0.12699999809E+01 0.  1.
</event>
<event>
 5   0  0.3551277E-05  0.1299903E+04  0.7818609E-02  0.9029642E-01
       -1   -1    0    0    0  501  0.00000000000E+00  0.00000000000E+00  0.57928603948E+03  0.57928603950E+03  0.50400001928E-02 0.  1.
        1   -1    0    0  501    0  0.00000000000E+00  0.00000000000E+00 -0.72923687308E+03  0.72923687310E+03  0.50400001928E-02 0. -1.
    10030    2    1    2    0    0  0.00000000000E+00  0.00000000000E+00 -0.14995083360E+03  0.13085229126E+04  0.12999026734E+04 0.  0.
        4    1    3    3  502    0  0.11441314245E+03 -0.58464578066E+02  0.56637337175E+03  0.58076577308E+03  0.12699999809E+01 0.  1.
       -4    1    3    3    0  502 -0.11441314245E+03  0.58464578066E+02 -0.71632420535E+03  0.72775713952E+03  0.12699999809E+01 0. -1.
</event>
<event>
 5   0  0.3551277E-05  0.1300783E+04  0.7818609E-02  0.9028944E-01
       -1   -1    0    0    0  501  0.00000000000E+00  0.00000000000E+00  0.30972233010E+03  0.30972233014E+03  0.50400001928E-02 0. -1.
        1   -1    0    0  501    0  0.00000000000E+00  0.00000000000E+00 -0.13657698090E+04  0.13657698090E+04  0.50400001928E-02 0.  1.
    10030    2    1    2    0    0  0.00000000000E+00  0.00000000000E+00 -0.10560474789E+04  0.16754921391E+04  0.13007834680E+04 0.  0.
        4    1    3    3  502    0  0.64742316347E+03  0.56233811232E+02 -0.49421848906E+03  0.81643892726E+03  0.12699999809E+01 0. -1.
       -4    1    3    3    0  502 -0.64742316347E+03 -0.56233811232E+02 -0.56182898984E+03  0.85905321188E+03  0.12699999809E+01 0.  1.
</event>
<event>
 5   0  0.6688086E-05  0.1299890E+04  0.7818609E-02  0.9029652E-01
        2   -1    0    0  501    0  0.00000000000E+00  0.00000000000E+00  0.24691030376E+04  0.24691030376E+04  0.25500000920E-02 0.  1.
       -2   -1    0    0    0  501  0.00000000000E+00  0.00000000000E+00 -0.17108579934E+03  0.17108579936E+03  0.25500000920E-02 0. -1.
    10030    2    1    2    0    0  0.00000000000E+00  0.00000000000E+00  0.22980172382E+04  0.26401888369E+04  0.12998899444E+04 0.  0.
        5    1    3    3  502    0 -0.50717132256E+03  0.14793949126E+02  0.19739517361E+04  0.20381239309E+04  0.46999998093E+01 0.  1.
       -5    1    3    3    0  502  0.50717132256E+03 -0.14793949126E+02  0.32406550209E+03  0.60206490597E+03  0.46999998093E+01 0. -1.
</event>
<event>
 5   0  0.3551277E-05  0.1297713E+04  0.7818609E-02  0.9031381E-01
        1   -1    0    0  501    0  0.00000000000E+00  0.00000000000E+00  0.75937672224E+03  0.75937672226E+03  0.50400001928E-02 0. -1.
       -1   -1    0    0    0  501  0.00000000000E+00  0.00000000000E+00 -0.55442127105E+03  0.55442127107E+03  0.50400001928E-02 0.  1.
    10030    2    1    2    0    0  0.00000000000E+00  0.00000000000E+00  0.20495545119E+03  0.13137979933E+04  0.12977127688E+04 0.  0.
        4    1    3    3  502    0  0.16647730965E+03 -0.30759166778E+03  0.65577331327E+03  0.74321435670E+03  0.12699999809E+01 0. -1.
       -4    1    3    3    0  502 -0.16647730965E+03  0.30759166778E+03 -0.45081786208E+03  0.57058363662E+03  0.12699999809E+01 0.  1.
</event>
<event>
 5   0  0.6458698E-05  0.1300571E+04  0.7818609E-02  0.9029113E-01
        2   -1    0    0  501    0  0.00000000000E+00  0.00000000000E+00  0.10557536000E+04  0.10557536000E+04  0.25500000920E-02 0.  1.
       -2   -1    0    0    0  501  0.00000000000E+00  0.00000000000E+00 -0.40053945393E+03  0.40053945393E+03  0.25500000920E-02 0. -1.
    10030    2    1    2    0    0  0.00000000000E+00  0.00000000000E+00  0.65521414604E+03  0.14562930539E+04  0.13005705985E+04 0.  0.
        3    1    3    3  502    0  0.50440640033E+03  0.21314575064E+03 -0.65121205446E+02  0.55145055020E+03  0.10100000352E+00 0. -1.
       -3    1    3    3    0  502 -0.50440640033E+03 -0.21314575064E+03  0.72033535149E+03  0.90484250371E+03  0.10100000352E+00 0.  1.
</event>
<event>
 5   0  0.6458698E-05  0.1300345E+04  0.7818609E-02  0.9029292E-01
       -2   -1    0    0    0  501  0.00000000000E+00  0.00000000000E+00  0.22128437589E+03  0.22128437590E+03  0.25500000920E-02 0. -1.
        2   -1    0    0  501    0  0.00000000000E+00  0.00000000000E+00 -0.19103201754E+04  0.19103201754E+04  0.25500000920E-02 0.  1.
    10030    2    1    2    0    0  0.00000000000E+00  0.00000000000E+00 -0.16890357995E+04  0.21316045513E+04  0.13003445817E+04 0.  0.
        3    1    3    3  502    0 -0.43133911325E+03  0.78465883946E+01 -0.47140697409E+02  0.43397840398E+03  0.10100000352E+00 0. -1.
       -3    1    3    3    0  502  0.43133911325E+03 -0.78465883946E+01 -0.16418951021E+04  0.16976261473E+04  0.10100000352E+00 0.  1.
</event>
<event>
 5   0  0.3551277E-05  0.1300414E+04  0.7818609E-02  0.9029237E-01
       -1   -1    0    0    0  501  0.00000000000E+00  0.00000000000E+00  0.30106550595E+03  0.30106550599E+03  0.50400001928E-02 0.  1.
        1   -1    0    0  501    0  0.00000000000E+00  0.00000000000E+00 -0.14042419931E+04  0.14042419931E+04  0.50400001928E-02 0. -1.
    10030    2    1    2    0    0  0.00000000000E+00  0.00000000000E+00 -0.11031764871E+04  0.17053074991E+04  0.13004135129E+04 0.  0.
        4    1    3    3  502    0  0.33395473158E+02 -0.38012466229E+01 -0.14031003876E+04  0.14035034797E+04  0.12699999809E+01 0. -1.
       -4    1    3    3    0  502 -0.33395473158E+02  0.38012466229E+01  0.29992390047E+03  0.30180401932E+03  0.12699999809E+01 0.  1.
</event>
<event>
 5   0  0.3631841E-05  0.1300007E+04  0.7818609E-02  0.9029559E-01
        1   -1    0    0  501    0  0.00000000000E+00  0.00000000000E+00  0.17228490602E+04  0.17228490603E+04  0.50400001928E-02 0.  1.
       -1   -1    0    0    0  501  0.00000000000E+00  0.00000000000E+00 -0.24523606318E+03  0.24523606323E+03  0.50400001928E-02 0. -1.
    10030    2    1    2    0    0  0.00000000000E+00  0.00000000000E+00  0.14776129971E+04  0.19680851235E+04  0.13000072631E+04 0.  0.
        3    1    3    3  502    0 -0.37018911716E+03  0.49938104038E+03  0.10263815816E+04  0.11999502353E+04  0.10100000352E+00 0.  1.
       -3    1    3    3    0  502  0.37018911716E+03 -0.49938104038E+03  0.45123141549E+03  0.76813488820E+03  0.10100000352E+00 0. -1.
</event>
<event>
 5   0  0.3551277E-05  0.1300043E+04  0.7818609E-02  0.9029531E-01
        1   -1    0    0  501    0  0.00000000000E+00  0.00000000000E+00  0.13633026224E+04  0.13633026225E+04  0.50400001928E-02 0.  1.
       -1   -1    0    0    0  501  0.00000000000E+00  0.00000000000E+00 -0.30992975217E+03  0.30992975221E+03  0.50400001928E-02 0. -1.
    10030    2    1    2    0    0  0.00000000000E+00  0.00000000000E+00  0.10533728703E+04  0.16732323747E+04  0.13000431438E+04 0.  0.
        4    1    3    3  502    0 -0.53366634629E+03 -0.35209019354E+03  0.67765774213E+03  0.93165921984E+03  0.12699999809E+01 0. -1.
       -4    1    3    3    0  502  0.53366634629E+03  0.35209019354E+03  0.37571512814E+03  0.74157315483E+03  0.12699999809E+01 0.  1.
</event>
<event>
 5   0  0.6688086E-05  0.1299838E+04  0.7818609E-02  0.9029693E-01
       -2   -1    0    0    0  501  0.00000000000E+00  0.00000000000E+00  0.40974569725E+03  0.40974569725E+03  0.25500000920E-02 0.  1.
        2   -1    0    0  501    0  0.00000000000E+00  0.00000000000E+00 -0.10308711486E+04  0.10308711486E+04  0.25500000920E-02 0. -1.
    10030    2    1    2    0    0  0.00000000000E+00  0.00000000000E+00 -0.62112545134E+03  0.14406168458E+04  0.12998384785E+04 0.  0.
        5    1    3    3  502    0  0.28243825673E+03 -0.52160098231E+03 -0.16216632129E+02  0.59340038993E+03  0.46999998093E+01 0.  1.
       -5    1    3    3    0  502 -0.28243825673E+03  0.52160098231E+03 -0.60490881921E+03  0.84721645592E+03  0.46999998093E+01 0. -1.
</event>
<event>
 5   0  0.3551277E-05  0.1300106E+04  0.7818609E-02  0.9029481E-01
       -1   -1    0    0    0  501  0.00000000000E+00  0.00000000000E+00  0.45706193352E+03  0.45706193355E+03  0.50400001928E-02 0. -1.
        1   -1    0    0  501    0  0.00000000000E+00  0.00000000000E+00 -0.92453365126E+03  0.92453365128E+03  0.50400001928E-02 0.  1.
    10030    2    1    2    0    0  0.00000000000E+00  0.00000000000E+00 -0.46747171774E+03  0.13815955848E+04  0.13001063622E+04 0.  0.
        4    1    3    3  502    0 -0.24174161433E+03  0.12050817435E+03 -0.86207147325E+03  0.90339917316E+03  0.12699999809E+01 0.  1.
       -4    1    3    3    0  502  0.24174161433E+03 -0.12050817435E+03  0.39459975551E+03  0.47819641167E+03  0.12699999809E+01 0. -1.
</event>
<event>
 5   0  0.2512000E-05  0.1300140E+04  0.7818609E-02  0.9029454E-01
        3   -1    0    0  501    0  0.00000000000E+00  0.00000000000E+00  0.66333802999E+03  0.66333803768E+03  0.10100000352E+00 0.  1.
       -3   -1    0    0    0  501  0.00000000000E+00  0.00000000000E+00 -0.63706742451E+03  0.63706743252E+03  0.10100000352E+00 0. -1.
    10030    2    1    2    0    0  0.00000000000E+00  0.00000000000E+00  0.26270605481E+02  0.13004054702E+04  0.13001400856E+04 0.  0.
        4    1    3    3  502    0 -0.44974859008E+03 -0.27219215857E+03  0.39560985616E+03  0.65792943137E+03  0.12699999809E+01 0. -1.
       -4    1    3    3    0  502  0.44974859008E+03  0.27219215857E+03 -0.36933925068E+03  0.64247603883E+03  0.12699999809E+01 0.  1.
</event>
<event>
 5   0  0.3718559E-05  0.1300795E+04  0.7818609E-02  0.9028935E-01
       -1   -1    0    0    0  501  0.00000000000E+00  0.00000000000E+00  0.69430649377E+03  0.69430649379E+03  0.50400001928E-02 0.  1.
        1   -1    0    0  501    0  0.00000000000E+00  0.00000000000E+00 -0.60926560581E+03  0.60926560583E+03  0.50400001928E-02 0. -1.
    10030    2    1    2    0    0  0.00000000000E+00  0.00000000000E+00  0.85040887961E+02  0.13035720996E+04  0.13007952438E+04 0.  0.
        2    1    3    3  502    0 -0.28677559796E+03  0.48562849022E+03  0.36715919239E+03  0.67296444680E+03  0.25500000920E-02 0.  1.
       -2    1    3    3    0  502  0.28677559796E+03 -0.48562849022E+03 -0.28211830443E+03  0.63060765282E+03  0.25500000920E-02 0. -1.
</event>
<event>
 5   0  0.3552698E-05  0.1300245E+04  0.7818609E-02  0.9029371E-01
       -1   -1    0    0    0  501  0.00000000000E+00  0.00000000000E+00  0.51047096966E+03  0.51047096968E+03  0.50400001928E-02 0. -1.
        1   -1    0    0  501    0  0.00000000000E+00  0.00000000000E+00 -0.82797907645E+03  0.82797907647E+03  0.50400001928E-02 0.  1.
    10030    2    1    2    0    0  0.00000000000E+00  0.00000000000E+00 -0.31750810679E+03  0.13384500462E+04  0.13002450262E+04 0.  0.
        5    1    3    3  502    0  0.25208722272E+03 -0.52225788233E+03  0.14370928961E+03  0.59747444584E+03  0.46999998093E+01 0. -1.
       -5    1    3    3    0  502 -0.25208722272E+03  0.52225788233E+03 -0.46121739640E+03  0.74097560031E+03  0.46999998093E+01 0.  1.
</event>
<event>
 5   0  0.6618060E-05  0.1308342E+04  0.7818609E-02  0.9022976E-01
       -2   -1    0    0    0  501  0.00000000000E+00  0.00000000000E+00  0.52182196185E+03  0.52182196186E+03  0.25500000920E-02 0. -1.
        2   -1    0    0  501    0  0.00000000000E+00  0.00000000000E+00 -0.82008729754E+03  0.82008729754E+03  0.25500000920E-02 0.  1.
    10030    2    1    2    0    0  0.00000000000E+00  0.00000000000E+00 -0.29826533568E+03  0.13419092594E+04  0.13083417940E+04 0.  0.
        2    1    3    3  502    0  0.11235279231E+03 -0.25828253293E+03 -0.75471012990E+03  0.80555595519E+03  0.25500000920E-02 0.  1.
       -2    1    3    3    0  502 -0.11235279231E+03  0.25828253293E+03  0.45644479422E+03  0.53635330421E+03  0.25500000920E-02 0. -1.
</event>
<event>
 5   0  0.6742824E-05  0.1299238E+04  0.7818609E-02  0.9030169E-01
        2   -1    0    0  501    0  0.00000000000E+00  0.00000000000E+00  0.72652993030E+03  0.72652993031E+03  0.25500000920E-02 0. -1.
       -2   -1    0    0    0  501  0.00000000000E+00  0.00000000000E+00 -0.58085030936E+03  0.58085030936E+03  0.25500000920E-02 0.  1.
    10030    2    1    2    0    0  0.00000000000E+00  0.00000000000E+00  0.14567962094E+03  0.13073802397E+04  0.12992384458E+04 0.  0.
        4    1    3    3  502    0  0.62006642231E+03 -0.18352160802E+03  0.10475849463E+02  0.64674098757E+03  0.12699999809E+01 0. -1.
       -4    1    3    3    0  502 -0.62006642231E+03  0.18352160802E+03  0.13520377148E+03  0.66063925210E+03  0.12699999809E+01 0.  1.
</event>
<event>
 5   0  0.6458698E-05  0.1299970E+04  0.7818609E-02  0.9029589E-01
       -2   -1    0    0    0  501  0.00000000000E+00  0.00000000000E+00  0.51792036248E+03  0.51792036248E+03  0.25500000920E-02 0. -1.
        2   -1    0    0  501    0  0.00000000000E+00  0.00000000000E+00 -0.81572526559E+03  0.81572526560E+03  0.25500000920E-02 0.  1.
    10030    2    1    2    0    0  0.00000000000E+00  0.00000000000E+00 -0.29780490312E+03  0.13336456281E+04  0.12999703462E+04 0.  0.
        3    1    3    3  502    0  0.25966916837E+03  0.12067363108E+03  0.44972896853E+03  0.53314759455E+03  0.10100000352E+00 0. -1.
       -3    1    3    3    0  502 -0.25966916837E+03 -0.12067363108E+03 -0.74753387164E+03  0.80049803353E+03  0.10100000352E+00 0.  1.
</event>
<event>
 5   0  0.3551277E-05  0.1301200E+04  0.7818609E-02  0.9028614E-01
        1   -1    0    0  501    0  0.00000000000E+00  0.00000000000E+00  0.44424619990E+03  0.44424619993E+03  0.50400001928E-02 0. -1.
       -1   -1    0    0    0  501  0.00000000000E+00  0.00000000000E+00 -0.95280604352E+03  0.95280604353E+03  0.50400001928E-02 0.  1.
    10030    2    1    2    0    0  0.00000000000E+00  0.00000000000E+00 -0.50855984362E+03  0.13970522435E+04  0.13012001600E+04 0.  0.
        4    1    3    3  502    0  0.35369419470E+03  0.12872764308E+03 -0.82403917780E+03  0.90593187873E+03  0.12699999809E+01 0.  1.
       -4    1    3    3    0  502 -0.35369419470E+03 -0.12872764308E+03  0.31547933418E+03  0.49112036473E+03  0.12699999809E+01 0. -1.
</event>
<event>
 5   0  0.3631841E-05  0.1299467E+04  0.7818609E-02  0.9029988E-01
       -1   -1    0    0    0  501  0.00000000000E+00  0.00000000000E+00  0.20182270382E+03  0.20182270389E+03  0.50400001928E-02 0. -1.
        1   -1    0    0  501    0  0.00000000000E+00  0.00000000000E+00 -0.20917063835E+04  0.20917063835E+04  0.50400001928E-02 0.  1.
    10030    2    1    2    0    0  0.00000000000E+00  0.00000000000E+00 -0.18898836797E+04  0.22935290874E+04  0.12994673340E+04 0.  0.
        3    1    3    3  502    0  0.24271375159E+03 -0.47169773951E+03 -0.28279313241E+03  0.60114947277E+03  0.10100000352E+00 0. -1.
       -3    1    3    3    0  502 -0.24271375159E+03  0.47169773951E+03 -0.16070905473E+04  0.16923796146E+04  0.10100000352E+00 0.  1.
</event>
<event>
 5   0  0.3552698E-05  0.1302245E+04  0.7818609E-02  0.9027787E-01
       -1   -1    0    0    0  501  0.00000000000E+00  0.00000000000E+00  0.18536312610E+04  0.18536312610E+04  0.50400001928E-02 0. -1.
        1   -1    0    0  501    0  0.00000000000E+00  0.00000000000E+00 -0.22871881611E+03  0.22871881617E+03  0.50400001928E-02 0.  1.
    10030    2    1    2    0    0  0.00000000000E+00  0.00000000000E+00  0.16249124449E+04  0.20823500772E+04  0.13022447506E+04 0.  0.
        5    1    3    3  502    0  0.18290234232E+03 -0.12438081800E+03 -0.16677466037E+03  0.27705546746E+03  0.46999998093E+01 0.  1.
       -5    1    3    3    0  502 -0.18290234232E+03  0.12438081800E+03  0.17916871053E+04  0.18052946098E+04  0.46999998093E+01 0. -1.
</event>
<event>
 5   0  0.3552698E-05  0.1299403E+04  0.7818609E-02  0.9030038E-01
       -1   -1    0    0    0  501  0.00000000000E+00  0.00000000000E+00  0.21299226466E+03  0.21299226472E+03  0.50400001928E-02 0.  1.
        1   -1    0    0  501    0  0.00000000000E+00  0.00000000000E+00 -0.19818196663E+04  0.19818196663E+04  0.50400001928E-02 0. -1.
    10030    2    1    2    0    0  0.00000000000E+00  0.00000000000E+00 -0.17688274017E+04  0.21948119310E+04  0.12994033384E+04 0.  0.
        5    1    3    3  502    0  0.23072002510E+03 -0.16221072861E+02  0.14106876744E+03  0.27095634396E+03  0.46999998093E+01 0.  1.
       -5    1    3    3    0  502 -0.23072002510E+03  0.16221072861E+02 -0.19098961691E+04  0.19238555871E+04  0.46999998093E+01 0. -1.
</event>
<event>
 5   0  0.6618060E-05  0.1301400E+04  0.7818609E-02  0.9028456E-01
        2   -1    0    0  501    0  0.00000000000E+00  0.00000000000E+00  0.10846581096E+04  0.10846581096E+04  0.25500000920E-02 0. -1.
       -2   -1    0    0    0  501  0.00000000000E+00  0.00000000000E+00 -0.39036312456E+03  0.39036312457E+03  0.25500000920E-02 0.  1.
    10030    2    1    2    0    0  0.00000000000E+00  0.00000000000E+00  0.69429498508E+03  0.14750212342E+04  0.13014000596E+04 0.  0.
        2    1    3    3  502    0  0.19369449733E+03 -0.24372520129E+03 -0.30047668683E+03  0.43267282256E+03  0.25500000920E-02 0.  1.
       -2    1    3    3    0  502 -0.19369449733E+03  0.24372520129E+03  0.99477167191E+03  0.10423484117E+04  0.25500000920E-02 0. -1.
</event>
<event>
 5   0  0.6618060E-05  0.1299776E+04  0.7818609E-02  0.9029743E-01
        2   -1    0    0  501    0  0.00000000000E+00  0.00000000000E+00  0.14723623763E+04  0.14723623764E+04  0.25500000920E-02 0.  1.
       -2   -1    0    0    0  501  0.00000000000E+00  0.00000000000E+00 -0.28685486363E+03  0.28685486364E+03  0.25500000920E-02 0. -1.
    10030    2    1    2    0    0  0.00000000000E+00  0.00000000000E+00  0.11855075127E+04  0.17592172400E+04  0.12997758402E+04 0.  0.
        2    1    3    3  502    0  0.44388733514E+03 -0.47101788662E+03  0.67237335632E+03  0.93326295658E+03  0.25500000920E-02 0. -1.
       -2    1    3    3    0  502 -0.44388733514E+03  0.47101788662E+03  0.51313415640E+03  0.82595428341E+03  0.25500000920E-02 0.  1.
</event>
<event>
 5   0  0.3631841E-05  0.1298593E+04  0.7818609E-02  0.9030682E-01
       -1   -1    0    0    0  501  0.00000000000E+00  0.00000000000E+00  0.64591882683E+03  0.64591882685E+03  0.50400001928E-02 0. -1.
        1   -1    0    0  501    0  0.00000000000E+00  0.00000000000E+00 -0.65269199287E+03  0.65269199289E+03  0.50400001928E-02 0.  1.
    10030    2    1    2    0    0  0.00000000000E+00  0.00000000000E+00 -0.67731660338E+01  0.12986108197E+04  0.12985931562E+04 0.  0.
        3    1    3    3  502    0  0.15006993955E+03  0.52563376320E+03  0.34700967318E+03  0.64747784769E+03  0.10100000352E+00 0. -1.
       -3    1    3    3    0  502 -0.15006993955E+03 -0.52563376320E+03 -0.35378283921E+03  0.65113297205E+03  0.10100000352E+00 0.  1.
</event>
<event>
 5   0  0.3689707E-05  0.1299701E+04  0.7818609E-02  0.9029802E-01
       -1   -1    0    0    0  501  0.00000000000E+00  0.00000000000E+00  0.64349136163E+03  0.64349136165E+03  0.50400001928E-02 0.  1.
        1   -1    0    0  501    0  0.00000000000E+00  0.00000000000E+00 -0.65627242039E+03  0.65627242041E+03  0.50400001928E-02 0. -1.
    10030    2    1    2    0    0  0.00000000000E+00  0.00000000000E+00 -0.12781058761E+02  0.12997637821E+04  0.12997009401E+04 0.  0.
        1    1    3    3  502    0 -0.37766441864E+03  0.49199728351E+03 -0.20034292237E+03  0.65178909676E+03  0.50400001928E-02 0. -1.
       -1    1    3    3    0  502  0.37766441864E+03 -0.49199728351E+03  0.18756186361E+03  0.64797468530E+03  0.50400001928E-02 0.  1.
</event>
<event>
 5   0  0.6671239E-05  0.1299617E+04  0.7818609E-02  0.9029869E-01
        2   -1    0    0  501    0  0.00000000000E+00  0.00000000000E+00  0.15476982673E+04  0.15476982673E+04  0.25500000920E-02 0. -1.
       -2   -1    0    0    0  501  0.00000000000E+00  0.00000000000E+00 -0.27282536373E+03  0.27282536374E+03  0.25500000920E-02 0.  1.
    10030    2    1    2    0    0  0.00000000000E+00  0.00000000000E+00  0.12748729036E+04  0.18205236311E+04  0.12996173941E+04 0.  0.
        1    1    3    3  502    0 -0.41078756586E+03 -0.46458422382E+03  0.90930437073E+03  0.11006449763E+04  0.50400001928E-02 0. -1.
       -1    1    3    3    0  502  0.41078756586E+03  0.46458422382E+03  0.36556853288E+03  0.71987865473E+03  0.50400001928E-02 0.  1.
</event>
<event>
 5   0  0.6688086E-05  0.1299918E+04  0.7818609E-02  0.9029631E-01
       -2   -1    0    0    0  501  0.00000000000E+00  0.00000000000E+00  0.22784645788E+03  0.22784645789E+03  0.25500000920E-02 0. -1.
        2   -1    0    0  501    0  0.00000000000E+00  0.00000000000E+00 -0.18540836354E+04  0.18540836354E+04  0.25500000920E-02 0.  1.
    10030    2    1    2    0    0  0.00000000000E+00  0.00000000000E+00 -0.16262371775E+04  0.20819300933E+04  0.12999175188E+04 0.  0.
        5    1    3    3  502    0  0.42122767014E+03  0.37089549693E+02 -0.22616223794E+02  0.42348786094E+03  0.46999998093E+01 0. -1.
       -5    1    3    3    0  502 -0.42122767014E+03 -0.37089549693E+02 -0.16036209537E+04  0.16584422323E+04  0.46999998093E+01 0.  1.
</event>
<event>
 5   0  0.3718559E-05  0.1296447E+04  0.7818609E-02  0.9032387E-01
        1   -1    0    0  501    0  0.00000000000E+00  0.00000000000E+00  0.31518332725E+03  0.31518332729E+03  0.50400001928E-02 0.  1.
       -1   -1    0    0    0  501  0.00000000000E+00  0.00000000000E+00 -0.13331728852E+04  0.13331728852E+04  0.50400001928E-02 0. -1.
    10030    2    1    2    0    0  0.00000000000E+00  0.00000000000E+00 -0.10179895579E+04  0.16483562125E+04  0.12964472466E+04 0.  0.
        2    1    3    3  502    0 -0.16702148795E+03  0.62477519311E+03 -0.56519256477E+03  0.85888465735E+03  0.25500000920E-02 0.  1.
       -2    1    3    3    0  502  0.16702148795E+03 -0.62477519311E+03 -0.45279699318E+03  0.78947155515E+03  0.25500000920E-02 0. -1.
</event>
<event>
 5   0  0.3718559E-05  0.1299697E+04  0.7818609E-02  0.9029805E-01
        1   -1    0    0  501    0  0.00000000000E+00  0.00000000000E+00  0.17174291565E+04  0.17174291565E+04  0.50400001928E-02 0.  1.
       -1   -1    0    0    0  501  0.00000000000E+00  0.00000000000E+00 -0.24589264692E+03  0.24589264697E+03  0.50400001928E-02 0. -1.
    10030    2    1    2    0    0  0.00000000000E+00  0.00000000000E+00  0.14715365096E+04  0.19633218035E+04  0.12996971974E+04 0.  0.
        2    1    3    3  502    0 -0.29675756670E+03 -0.48618753560E+03  0.12083223502E+04  0.13358466511E+04  0.25500000920E-02 0.  1.
       -2    1    3    3    0  502  0.29675756670E+03  0.48618753560E+03  0.26321415935E+03  0.62747515238E+03  0.25500000920E-02 0. -1.
</event>
<event>
 5   0  0.3631841E-05  0.1307706E+04  0.7818609E-02  0.9023477E-01
        1   -1    0    0  501    0  0.00000000000E+00  0.00000000000E+00  0.67132728834E+03  0.67132728836E+03  0.50400001928E-02 0. -1.
       -1   -1    0    0    0  501  0.00000000000E+00  0.00000000000E+00 -0.63683325241E+03  0.63683325243E+03  0.50400001928E-02 0.  1.
    10030    2    1    2    0    0  0.00000000000E+00  0.00000000000E+00  0.34494035931E+02  0.13081605408E+04  0.13077056863E+04 0.  0.
        3    1    3    3  502    0  0.35065359044E+03 -0.42852592881E+03 -0.33062545699E+03  0.64490744697E+03  0.10100000352E+00 0.  1.
       -3    1    3    3    0  502 -0.35065359044E+03  0.42852592881E+03  0.36511949292E+03  0.66325309382E+03  0.10100000352E+00 0. -1.
</event>
<event>
 5   0  0.6458698E-05  0.1300004E+04  0.7818609E-02  0.9029562E-01
       -2   -1    0    0    0  501  0.00000000000E+00  0.00000000000E+00  0.22343211236E+03  0.22343211238E+03  0.25500000920E-02 0.  1.
        2   -1    0    0  501    0  0.00000000000E+00  0.00000000000E+00 -0.18909658518E+04  0.18909658518E+04  0.25500000920E-02 0. -1.
    10030    2    1    2    0    0  0.00000000000E+00  0.00000000000E+00 -0.16675337394E+04  0.21143979642E+04  0.13000038380E+04 0.  0.
        3    1    3    3  502    0 -0.21001515766E+03 -0.33098849945E+02 -0.18328136771E+04  0.18451037601E+04  0.10100000352E+00 0. -1.
       -3    1    3    3    0  502  0.21001515766E+03  0.33098849945E+02  0.16527993772E+03  0.26929420404E+03  0.10100000352E+00 0.  1.
</event>
<event>
 5   0  0.3552698E-05  0.1306031E+04  0.7818609E-02  0.9024796E-01
       -1   -1    0    0    0  501  0.00000000000E+00  0.00000000000E+00  0.19061289071E+04  0.19061289071E+04  0.50400001928E-02 0.  1.
        1   -1    0    0  501    0  0.00000000000E+00  0.00000000000E+00 -0.22371492858E+03  0.22371492864E+03  0.50400001928E-02 0. -1.
    10030    2    1    2    0    0  0.00000000000E+00  0.00000000000E+00  0.16824139785E+04  0.21298438357E+04  0.13060313815E+04 0.  0.
        5    1    3    3  502    0 -0.89797920624E+02 -0.41757126824E+03  0.16467142459E+04  0.17012111357E+04  0.46999998093E+01 0.  1.
       -5    1    3    3    0  502  0.89797920624E+02  0.41757126824E+03  0.35699732584E+02  0.42863270001E+03  0.46999998093E+01 0. -1.
</event>
<event>
 5   0  0.3718559E-05  0.1299429E+04  0.7818609E-02  0.9030018E-01
        1   -1    0    0  501    0  0.00000000000E+00  0.00000000000E+00  0.61367097931E+03  0.61367097933E+03  0.50400001928E-02 0. -1.
       -1   -1    0    0    0  501  0.00000000000E+00  0.00000000000E+00 -0.68787469934E+03  0.68787469936E+03  0.50400001928E-02 0.  1.
    10030    2    1    2    0    0  0.00000000000E+00  0.00000000000E+00 -0.74203720028E+02  0.13015456787E+04  0.12994287059E+04 0.  0.
        2    1    3    3  502    0 -0.48881324876E+03 -0.17354462175E+03  0.35478049133E+03  0.62843084339E+03  0.25500000920E-02 0.  1.
       -2    1    3    3    0  502  0.48881324876E+03  0.17354462175E+03 -0.42898421135E+03  0.67311483530E+03  0.25500000920E-02 0. -1.
</event>
<event>
 5   0  0.6458698E-05  0.1299503E+04  0.7818609E-02  0.9029960E-01
        2   -1    0    0  501    0  0.00000000000E+00  0.00000000000E+00  0.13373774445E+04  0.13373774445E+04  0.25500000920E-02 0. -1.
       -2   -1    0    0    0  501  0.00000000000E+00  0.00000000000E+00 -0.31567508536E+03  0.31567508537E+03  0.25500000920E-02 0.  1.
    10030    2    1    2    0    0  0.00000000000E+00  0.00000000000E+00  0.10217023591E+04  0.16530525299E+04  0.12995025802E+04 0.  0.
        3    1    3    3  502    0 -0.61319141808E+03 -0.85684761415E+02  0.76151955826E+03  0.98145689736E+03  0.10100000352E+00 0. -1.
       -3    1    3    3    0  502  0.61319141808E+03  0.85684761415E+02  0.26018280087E+03  0.67159563252E+03  0.10100000352E+00 0.  1.
</event>
<event>
 5   0  0.6688086E-05  0.1299993E+04  0.7818609E-02  0.9029570E-01
       -2   -1    0    0    0  501  0.00000000000E+00  0.00000000000E+00  0.37293135881E+03  0.37293135882E+03  0.25500000920E-02 0.  1.
        2   -1    0    0  501    0  0.00000000000E+00  0.00000000000E+00 -0.11329048996E+04  0.11329048996E+04  0.25500000920E-02 0. -1.
    10030    2    1    2    0    0  0.00000000000E+00  0.00000000000E+00 -0.75997354082E+03  0.15058362585E+04  0.12999934825E+04 0.  0.
        5    1    3    3  502    0 -0.59576413389E+03 -0.87242374768E+02 -0.66354992214E+03  0.89602830555E+03  0.46999998093E+01 0. -1.
       -5    1    3    3    0  502  0.59576413389E+03  0.87242374768E+02 -0.96423618684E+02  0.60980795290E+03  0.46999998093E+01 0.  1.
</event>
<event>
 5   0  0.6688086E-05  0.1299456E+04  0.7818609E-02  0.9029997E-01
       -2   -1    0    0    0  501  0.00000000000E+00  0.00000000000E+00  0.45269046014E+03  0.45269046014E+03  0.25500000920E-02 0. -1.
        2   -1    0    0  501    0  0.00000000000E+00  0.00000000000E+00 -0.93252817548E+03  0.93252817549E+03  0.25500000920E-02 0.  1.
    10030    2    1    2    0    0  0.00000000000E+00  0.00000000000E+00 -0.47983771535E+03  0.13852186356E+04  0.12994562076E+04 0.  0.
        5    1    3    3  502    0 -0.53243600568E+03  0.10959447890E+03  0.13941115956E+03  0.56120995301E+03  0.46999998093E+01 0. -1.
       -5    1    3    3    0  502  0.53243600568E+03 -0.10959447890E+03 -0.61924887491E+03  0.82400868262E+03  0.46999998093E+01 0.  1.
</event>
<event>
 5   0  0.6688086E-05  0.1300481E+04  0.7818609E-02  0.9029184E-01
        2   -1    0    0  501    0  0.00000000000E+00  0.00000000000E+00  0.10390380946E+04  0.10390380946E+04  0.25500000920E-02 0.  1.
       -2   -1    0    0    0  501  0.00000000000E+00  0.00000000000E+00 -0.40692722900E+03  0.40692722901E+03  0.25500000920E-02 0. -1.
    10030    2    1    2    0    0  0.00000000000E+00  0.00000000000E+00  0.63211086560E+03  0.14459653236E+04  0.13004812843E+04 0.  0.
        5    1    3    3  502    0 -0.19075265795E+03 -0.61381451735E+03  0.42519980980E+03  0.77069566398E+03  0.46999998093E+01 0.  1.
       -5    1    3    3    0  502  0.19075265795E+03  0.61381451735E+03  0.20691105580E+03  0.67526965964E+03  0.46999998093E+01 0. -1.
</event>
<event>
 5   0  0.6618060E-05  0.1299843E+04  0.7818609E-02  0.9029690E-01
        2   -1    0    0  501    0  0.00000000000E+00  0.00000000000E+00  0.70482675930E+03  0.70482675931E+03  0.25500000920E-02 0. -1.
       -2   -1    0    0    0  501  0.00000000000E+00  0.00000000000E+00 -0.59929317020E+03  0.59929317021E+03  0.25500000920E-02 0.  1.
    10030    2    1    2    0    0  0.00000000000E+00  0.00000000000E+00  0.10553358910E+03  0.13041199295E+04  0.12998428567E+04 0.  0.
        2    1    3    3  502    0  0.48774993388E+03 -0.33122234864E+03 -0.22160997946E+03  0.62985651163E+03  0.25500000920E-02 0.  1.
       -2    1    3    3    0  502 -0.48774993388E+03  0.33122234864E+03  0.32714356856E+03  0.67426341788E+03  0.25500000920E-02 0. -1.
</event>
<event>
 5   0  0.6742824E-05  0.1300565E+04  0.7818609E-02  0.9029117E-01
        2   -1    0    0  501    0  0.00000000000E+00  0.00000000000E+00  0.79753234267E+03  0.79753234267E+03  0.25500000920E-02 0.  1.
       -2   -1    0    0    0  501  0.00000000000E+00  0.00000000000E+00 -0.53021994481E+03  0.53021994482E+03  0.25500000920E-02 0. -1.
    10030    2    1    2    0    0  0.00000000000E+00  0.00000000000E+00  0.26731239786E+03  0.13277522875E+04  0.13005653459E+04 0.  0.
        4    1    3    3  502    0 -0.52022867396E+03  0.14342223619E+03  0.50408839208E+03  0.73845414955E+03  0.12699999809E+01 0.  1.
       -4    1    3    3    0  502  0.52022867396E+03 -0.14342223619E+03 -0.23677599423E+03  0.58929813795E+03  0.12699999809E+01 0. -1.
</event>
<event>
 5   0  0.6458698E-05  0.1299931E+04  0.7818609E-02  0.9029620E-01
        2   -1    0    0  501    0  0.00000000000E+00  0.00000000000E+00  0.11003268336E+04  0.11003268336E+04  0.25500000920E-02 0. -1.
       -2   -1    0    0    0  501  0.00000000000E+00  0.00000000000E+00 -0.38393623306E+03  0.38393623307E+03  0.25500000920E-02 0.  1.
    10030    2    1    2    0    0  0.00000000000E+00  0.00000000000E+00  0.71639060051E+03  0.14842630666E+04  0.12999312899E+04 0.  0.
        3    1    3    3  502    0 -0.29372490318E+03 -0.19778254058E+03  0.98051682307E+03  0.10424996415E+04  0.10100000352E+00 0. -1.
       -3    1    3    3    0  502  0.29372490318E+03  0.19778254058E+03 -0.26412622256E+03  0.44176342509E+03  0.10100000352E+00 0.  1.
</event>
<event>
 5   0  0.6688086E-05  0.1299596E+04  0.7818609E-02  0.9029886E-01
        2   -1    0    0  501    0  0.00000000000E+00  0.00000000000E+00  0.12337289751E+04  0.12337289751E+04  0.25500000920E-02 0.  1.
       -2   -1    0    0    0  501  0.00000000000E+00  0.00000000000E+00 -0.34224463802E+03  0.34224463803E+03  0.25500000920E-02 0. -1.
    10030    2    1    2    0    0  0.00000000000E+00  0.00000000000E+00  0.89148433710E+03  0.15759736131E+04  0.12995955163E+04 0.  0.
        5    1    3    3  502    0 -0.64545768682E+03  0.58153698937E+02  0.50284771138E+03  0.82028982014E+03  0.46999998093E+01 0.  1.
       -5    1    3    3    0  502  0.64545768682E+03 -0.58153698937E+02  0.38863662571E+03  0.75568379301E+03  0.46999998093E+01 0. -1.
</event>
<event>
 5   0  0.6671239E-05  0.1300045E+04  0.7818609E-02  0.9029529E-01
        2   -1    0    0  501    0  0.00000000000E+00  0.00000000000E+00  0.21848494794E+04  0.21848494794E+04  0.25500000920E-02 0.  1.
       -2   -1    0    0    0  501  0.00000000000E+00  0.00000000000E+00 -0.19339058209E+03  0.19339058211E+03  0.25500000920E-02 0. -1.
    10030    2    1    2    0    0  0.00000000000E+00  0.00000000000E+00  0.19914588973E+04  0.23782400615E+04  0.13000450956E+04 0.  0.
        1    1    3    3  502    0 -0.10738384863E+03 -0.30129301072E+03  0.20309237399E+04  0.20559571996E+04  0.50400001928E-02 0.  1.
       -1    1    3    3    0  502  0.10738384863E+03  0.30129301072E+03 -0.39464842599E+02  0.32228286191E+03  0.50400001928E-02 0. -1.
</event>
<event>
 5   0  0.2512000E-05  0.1306500E+04  0.7818609E-02  0.9024427E-01
        3   -1    0    0  501    0  0.00000000000E+00  0.00000000000E+00  0.22984619766E+03  0.22984621985E+03  0.10100000352E+00 0. -1.
       -3   -1    0    0    0  501  0.00000000000E+00  0.00000000000E+00 -0.18566126494E+04  0.18566126522E+04  0.10100000352E+00 0.  1.
    10030    2    1    2    0    0  0.00000000000E+00  0.00000000000E+00 -0.16267664518E+04  0.20864588720E+04  0.13064997268E+04 0.  0.
        2    1    3    3  502    0 -0.12432094147E+03  0.31699028285E+03  0.76921765201E+02  0.34907806272E+03  0.25500000920E-02 0. -1.
       -2    1    3    3    0  502  0.12432094147E+03 -0.31699028285E+03 -0.17036882170E+04  0.17373808093E+04  0.25500000920E-02 0.  1.
</event>
<event>
 5   0  0.6671239E-05  0.1301927E+04  0.7818609E-02  0.9028038E-01
       -2   -1    0    0    0  501  0.00000000000E+00  0.00000000000E+00  0.29414983407E+03  0.29414983408E+03  0.25500000920E-02 0.  1.
        2   -1    0    0  501    0  0.00000000000E+00  0.00000000000E+00 -0.14406047772E+04  0.14406047772E+04  0.25500000920E-02 0. -1.
    10030    2    1    2    0    0  0.00000000000E+00  0.00000000000E+00 -0.11464549431E+04  0.17347546112E+04  0.13019272732E+04 0.  0.
        1    1    3    3  502    0  0.58398012364E+03  0.31622863540E+02 -0.19232147877E+03  0.61564627955E+03  0.50400001928E-02 0.  1.
       -1    1    3    3    0  502 -0.58398012364E+03 -0.31622863540E+02 -0.95413346432E+03  0.11191083317E+04  0.50400001928E-02 0. -1.
</event>
<event>
 5   0  0.3718559E-05  0.1299912E+04  0.7818609E-02  0.9029635E-01
        1   -1    0    0  501    0  0.00000000000E+00  0.00000000000E+00  0.39058564921E+03  0.39058564924E+03  0.50400001928E-02 0.  1.
       -1   -1    0    0    0  501  0.00000000000E+00  0.00000000000E+00 -0.10815631202E+04  0.10815631202E+04  0.50400001928E-02 0. -1.
    10030    2    1    2    0    0  0.00000000000E+00  0.00000000000E+00 -0.69097747101E+03  0.14721487695E+04  0.12999123563E+04 0.  0.
        2    1    3    3  502    0  0.53218436351E+03  0.52177008806E+02 -0.76390117214E+03  0.93246320990E+03  0.25500000920E-02 0.  1.
       -2    1    3    3    0  502 -0.53218436351E+03 -0.52177008806E+02  0.72923701133E+02  0.53968555957E+03  0.25500000920E-02 0. -1.
</event>
<event>
 5   0  0.6458698E-05  0.1299764E+04  0.7818609E-02  0.9029752E-01
       -2   -1    0    0    0  501  0.00000000000E+00  0.00000000000E+00  0.52241062604E+03  0.52241062605E+03  0.25500000920E-02 0. -1.
        2   -1    0    0  501    0  0.00000000000E+00  0.00000000000E+00 -0.80845773744E+03  0.80845773745E+03  0.25500000920E-02 0.  1.
    10030    2    1    2    0    0  0.00000000000E+00  0.00000000000E+00 -0.28604711140E+03  0.13308683635E+04  0.12997644598E+04 0.  0.
        3    1    3    3  502    0 -0.54782706991E+02  0.35001059376E+03  0.41484314920E+03  0.54553039271E+03  0.10100000352E+00 0. -1.
       -3    1    3    3    0  502  0.54782706991E+02 -0.35001059376E+03 -0.70089026061E+03  0.78533797078E+03  0.10100000352E+00 0.  1.
</event>
<event>
 5   0  0.3551277E-05  0.1300210E+04  0.7818609E-02  0.9029399E-01
        1   -1    0    0  501    0  0.00000000000E+00  0.00000000000E+00  0.96195987244E+03  0.96195987245E+03  0.50400001928E-02 0. -1.
       -1   -1    0    0    0  501  0.00000000000E+00  0.00000000000E+00 -0.43934925196E+03  0.43934925199E+03  0.50400001928E-02 0.  1.
    10030    2    1    2    0    0  0.00000000000E+00  0.00000000000E+00  0.52261062048E+03  0.14013091244E+04  0.13002097529E+04 0.  0.
        4    1    3    3  502    0 -0.17234897207E+03 -0.58330995720E+03  0.13937221252E+02  0.60839997812E+03  0.12699999809E+01 0.  1.
       -4    1    3    3    0  502  0.17234897207E+03  0.58330995720E+03  0.50867339923E+03  0.79290914632E+03  0.12699999809E+01 0. -1.
</event>
<event>
 5   0  0.3689707E-05  0.1299672E+04  0.7818609E-02  0.9029826E-01
       -1   -1    0    0    0  501  0.00000000000E+00  0.00000000000E+00  0.20471873737E+04  0.20471873737E+04  0.50400001928E-02 0.  1.
        1   -1    0    0  501    0  0.00000000000E+00  0.00000000000E+00 -0.20627648272E+03  0.20627648278E+03  0.50400001928E-02 0. -1.
    10030    2    1    2    0    0  0.00000000000E+00  0.00000000000E+00  0.18409108910E+04  0.22534638565E+04  0.12996716677E+04 0.  0.
        1    1    3    3  502    0  0.15899595730E+03  0.58824295327E+03  0.13119309677E+04  0.14465380571E+04  0.50400001928E-02 0.  1.
       -1    1    3    3    0  502 -0.15899595730E+03 -0.58824295327E+03  0.52897992328E+03  0.80692579941E+03  0.50400001928E-02 0. -1.
</event>
<event>
 5   0  0.3552698E-05  0.1300574E+04  0.7818609E-02  0.9029110E-01
        1   -1    0    0  501    0  0.00000000000E+00  0.00000000000E+00  0.10851633154E+04  0.10851633154E+04  0.50400001928E-02 0. -1.
       -1   -1    0    0    0  501  0.00000000000E+00  0.00000000000E+00 -0.38968629264E+03  0.38968629267E+03  0.50400001928E-02 0.  1.
    10030    2    1    2    0    0  0.00000000000E+00  0.00000000000E+00  0.69547702274E+03  0.14748496081E+04  0.13005741337E+04 0.  0.
        5    1    3    3  502    0  0.21823910120E+03 -0.16185489377E+03  0.10176870318E+04  0.10533443390E+04  0.46999998093E+01 0. -1.
       -5    1    3    3    0  502 -0.21823910120E+03  0.16185489377E+03 -0.32221000902E+03  0.42150526905E+03  0.46999998093E+01 0.  1.
</event>
<event>
 5   0  0.6742824E-05  0.1300517E+04  0.7818609E-02  0.9029155E-01
        2   -1    0    0  501    0  0.00000000000E+00  0.00000000000E+00  0.13662743979E+04  0.13662743979E+04  0.25500000920E-02 0.  1.
       -2   -1    0    0    0  501  0.00000000000E+00  0.00000000000E+00 -0.30948122876E+03  0.30948122877E+03  0.25500000920E-02 0. -1.
    10030    2    1    2    0    0  0.00000000000E+00  0.00000000000E+00  0.10567931691E+04  0.16757556267E+04  0.13005172502E+04 0.  0.
        4    1    3    3  502    0  0.29182189756E+03  0.46191748632E+03  0.74097191406E+02  0.55137989693E+03  0.12699999809E+01 0. -1.
       -4    1    3    3    0  502 -0.29182189756E+03 -0.46191748632E+03  0.98269597774E+03  0.11243757297E+04  0.12699999809E+01 0.  1.
</event>
<event>
 5   0  0.3718559E-05  0.1299573E+04  0.7818609E-02  0.9029904E-01
        1   -1    0    0  501    0  0.00000000000E+00  0.00000000000E+00  0.11546757265E+04  0.11546757265E+04  0.50400001928E-02 0. -1.
       -1   -1    0    0    0  501  0.00000000000E+00  0.00000000000E+00 -0.36566315996E+03  0.36566316000E+03  0.50400001928E-02 0.  1.
    10030    2    1    2    0    0  0.00000000000E+00  0.00000000000E+00  0.78901256651E+03  0.15203388865E+04  0.12995728143E+04 0.  0.
        2    1    3    3  502    0 -0.26517905048E+03  0.34131387371E+03  0.96211588832E+03  0.10547426567E+04  0.25500000920E-02 0. -1.
       -2    1    3    3    0  502  0.26517905048E+03 -0.34131387371E+03 -0.17310332181E+03  0.46559622983E+03  0.25500000920E-02 0.  1.
</event>
<event>
 5   0  0.6618060E-05  0.1300604E+04  0.7818609E-02  0.9029086E-01
        2   -1    0    0  501    0  0.00000000000E+00  0.00000000000E+00  0.13262798872E+04  0.13262798872E+04  0.25500000920E-02 0.  1.
       -2   -1    0    0    0  501  0.00000000000E+00  0.00000000000E+00 -0.31885621822E+03  0.31885621823E+03  0.25500000920E-02 0. -1.
    10030    2    1    2    0    0  0.00000000000E+00  0.00000000000E+00  0.10074236690E+04  0.16451361055E+04  0.13006038431E+04 0.  0.
        2    1    3    3  502    0  0.17296583075E+03  0.32355979684E+03 -0.17544085269E+03  0.40667875964E+03  0.25500000920E-02 0. -1.
       -2    1    3    3    0  502 -0.17296583075E+03 -0.32355979684E+03  0.11828645217E+04  0.12384573458E+04  0.25500000920E-02 0.  1.
</event>
<event>
 5   0  0.6671239E-05  0.1299764E+04  0.7818609E-02  0.9029752E-01
       -2   -1    0    0    0  501  0.00000000000E+00  0.00000000000E+00  0.44110663937E+03  0.44110663938E+03  0.25500000920E-02 0.  1.
        2   -1    0    0  501    0  0.00000000000E+00  0.00000000000E+00 -0.95747063342E+03  0.95747063342E+03  0.25500000920E-02 0. -1.
    10030    2    1    2    0    0  0.00000000000E+00  0.00000000000E+00 -0.51636399404E+03  0.13985772728E+04  0.12997640608E+04 0.  0.
        1    1    3    3  502    0  0.14796709560E+03  0.30803288890E+03  0.33662486681E+03  0.47968200196E+03  0.50400001928E-02 0.  1.
       -1    1    3    3    0  502 -0.14796709560E+03 -0.30803288890E+03 -0.85298886085E+03  0.91889527085E+03  0.50400001928E-02 0. -1.
</event>
<event>
 5   0  0.6688086E-05  0.1299642E+04  0.7818609E-02  0.9029849E-01
       -2   -1    0    0    0  501  0.00000000000E+00  0.00000000000E+00  0.14805252712E+03  0.14805252714E+03  0.25500000920E-02 0. -1.
        2   -1    0    0  501    0  0.00000000000E+00  0.00000000000E+00 -0.28521435574E+04  0.28521435574E+04  0.25500000920E-02 0.  1.
    10030    2    1    2    0    0  0.00000000000E+00  0.00000000000E+00 -0.27040910303E+04  0.30001960845E+04  0.12996415835E+04 0.  0.
        5    1    3    3  502    0  0.22424336613E+03 -0.19737796228E+03 -0.26841839157E+04  0.27007607318E+04  0.46999998093E+01 0.  1.
       -5    1    3    3    0  502 -0.22424336613E+03  0.19737796228E+03 -0.19907114576E+02  0.29943535272E+03  0.46999998093E+01 0. -1.
</event>
<event>
 5   0  0.3718559E-05  0.1300297E+04  0.7818609E-02  0.9029330E-01
       -1   -1    0    0    0  501  0.00000000000E+00  0.00000000000E+00  0.22272864370E+03  0.22272864376E+03  0.50400001928E-02 0. -1.
        1   -1    0    0  501    0  0.00000000000E+00  0.00000000000E+00 -0.18977929159E+04  0.18977929159E+04  0.50400001928E-02 0.  1.
    10030    2    1    2    0    0  0.00000000000E+00  0.00000000000E+00 -0.16750642722E+04  0.21205215596E+04  0.13002966465E+04 0.  0.
        2    1    3    3  502    0 -0.46247738893E+03 -0.18789580548E+03 -0.15168191859E+04  0.15968502158E+04  0.25500000920E-02 0.  1.
       -2    1    3    3    0  502  0.46247738893E+03  0.18789580548E+03 -0.15824508624E+03  0.52367134380E+03  0.25500000920E-02 0. -1.
</event>
<event>
 5   0  0.3551277E-05  0.1300075E+04  0.7818609E-02  0.9029506E-01
        1   -1    0    0  501    0  0.00000000000E+00  0.00000000000E+00  0.19816608519E+04  0.19816608519E+04  0.50400001928E-02 0. -1.
       -1   -1    0    0    0  501  0.00000000000E+00  0.00000000000E+00 -0.21322948067E+03  0.21322948072E+03  0.50400001928E-02 0.  1.
    10030    2    1    2    0    0  0.00000000000E+00  0.00000000000E+00  0.17684313712E+04  0.21948903326E+04  0.13000746354E+04 0.  0.
        4    1    3    3  502    0 -0.13487703619E+03  0.49456477732E+03  0.15590227333E+04  0.16411397350E+04  0.12699999809E+01 0.  1.
       -4    1    3    3    0  502  0.13487703619E+03 -0.49456477732E+03  0.20940863791E+03  0.55375059764E+03  0.12699999809E+01 0. -1.
</event>
<event>
 5   0  0.6742824E-05  0.1299087E+04  0.7818609E-02  0.9030290E-01
        2   -1    0    0  501    0  0.00000000000E+00  0.00000000000E+00  0.25434137300E+04  0.25434137300E+04  0.25500000920E-02 0. -1.
       -2   -1    0    0    0  501  0.00000000000E+00  0.00000000000E+00 -0.16588201714E+03  0.16588201716E+03  0.25500000920E-02 0.  1.
    10030    2    1    2    0    0  0.00000000000E+00  0.00000000000E+00  0.23775317129E+04  0.27092957472E+04  0.12990867561E+04 0.  0.
        4    1    3    3  502    0 -0.60377886989E+03  0.16337435429E+03  0.15539727117E+04  0.16751336977E+04  0.12699999809E+01 0. -1.
       -4    1    3    3    0  502  0.60377886989E+03 -0.16337435429E+03  0.82355900113E+03  0.10341620495E+04  0.12699999809E+01 0.  1.
</event>
<event>
 5   0  0.6458698E-05  0.1299778E+04  0.7818609E-02  0.9029741E-01
        2   -1    0    0  501    0  0.00000000000E+00  0.00000000000E+00  0.40250465909E+03  0.40250465910E+03  0.25500000920E-02 0.  1.
       -2   -1    0    0    0  501  0.00000000000E+00  0.00000000000E+00 -0.10493189617E+04  0.10493189617E+04  0.25500000920E-02 0. -1.
    10030    2    1    2    0    0  0.00000000000E+00  0.00000000000E+00 -0.64681430261E+03  0.14518236208E+04  0.12997780902E+04 0.  0.
        3    1    3    3  502    0 -0.15785303348E+03 -0.45741928372E+03 -0.80798228455E+03  0.94179900385E+03  0.10100000352E+00 0.  1.
       -3    1    3    3    0  502  0.15785303348E+03  0.45741928372E+03  0.16116798195E+03  0.51002461696E+03  0.10100000352E+00 0. -1.
</event>
<event>
 5   0  0.3689707E-05  0.1299890E+04  0.7818609E-02  0.9029652E-01
        1   -1    0    0  501    0  0.00000000000E+00  0.00000000000E+00  0.70887431919E+03  0.70887431921E+03  0.50400001928E-02 0.  1.
       -1   -1    0    0    0  501  0.00000000000E+00  0.00000000000E+00 -0.59591479452E+03  0.59591479454E+03  0.50400001928E-02 0. -1.
    10030    2    1    2    0    0  0.00000000000E+00  0.00000000000E+00  0.11295952467E+03  0.13047891137E+04  0.12998902943E+04 0.  0.
        1    1    3    3  502    0  0.20766828795E+03  0.47933863281E+03 -0.33167778068E+03  0.61879058893E+03  0.50400001928E-02 0. -1.
       -1    1    3    3    0  502 -0.20766828795E+03 -0.47933863281E+03  0.44463730535E+03  0.68599852482E+03  0.50400001928E-02 0.  1.
</event>
<event>
 5   0  0.3689707E-05  0.1300069E+04  0.7818609E-02  0.9029511E-01
       -1   -1    0    0    0  501  0.00000000000E+00  0.00000000000E+00  0.72338341662E+03  0.72338341664E+03  0.50400001928E-02 0.  1.
        1   -1    0    0  501    0  0.00000000000E+00  0.00000000000E+00 -0.58412273152E+03  0.58412273154E+03  0.50400001928E-02 0. -1.
    10030    2    1    2    0    0  0.00000000000E+00  0.00000000000E+00  0.13926068511E+03  0.13075061482E+04  0.13000687632E+04 0.  0.
        1    1    3    3  502    0 -0.64470050965E+03 -0.36791391597E+01 -0.13865162412E+02  0.64486008246E+03  0.50400001928E-02 0.  1.
       -1    1    3    3    0  502  0.64470050965E+03  0.36791391597E+01  0.15312584752E+03  0.66264606571E+03  0.50400001928E-02 0. -1.
</event>
<event>
 5   0  0.3718559E-05  0.1300338E+04  0.7818609E-02  0.9029297E-01
       -1   -1    0    0    0  501  0.00000000000E+00  0.00000000000E+00  0.60334530420E+03  0.60334530422E+03  0.50400001928E-02 0. -1.
        1   -1    0    0  501    0  0.00000000000E+00  0.00000000000E+00 -0.70062636140E+03  0.70062636142E+03  0.50400001928E-02 0.  1.
    10030    2    1    2    0    0  0.00000000000E+00  0.00000000000E+00 -0.97281057200E+02  0.13039716656E+04  0.13003378410E+04 0.  0.
        2    1    3    3  502    0  0.26531347835E+03 -0.33322358479E+03  0.44394539667E+03  0.61523712053E+03  0.25500000920E-02 0. -1.
       -2    1    3    3    0  502 -0.26531347835E+03  0.33322358479E+03 -0.54122645387E+03  0.68873454511E+03  0.25500000920E-02 0.  1.
</event>
<event>
 5   0  0.3718559E-05  0.1299659E+04  0.7818609E-02  0.9029836E-01
       -1   -1    0    0    0  501  0.00000000000E+00  0.00000000000E+00  0.49198207963E+03  0.49198207966E+03  0.50400001928E-02 0.  1.
        1   -1    0    0  501    0  0.00000000000E+00  0.00000000000E+00 -0.85832071084E+03  0.85832071085E+03  0.50400001928E-02 0. -1.
    10030    2    1    2    0    0  0.00000000000E+00  0.00000000000E+00 -0.36633863121E+03  0.13503027905E+04  0.12996590450E+04 0.  0.
        2    1    3    3  502    0  0.64473419344E+02  0.73265594411E+02  0.48432448987E+03  0.49405959217E+03  0.25500000920E-02 0.  1.
       -2    1    3    3    0  502 -0.64473419344E+02 -0.73265594411E+02 -0.85066312108E+03  0.85624319834E+03  0.25500000920E-02 0. -1.
</event>
<event>
 5   0  0.6688086E-05  0.1300014E+04  0.7818609E-02  0.9029554E-01
        2   -1    0    0  501    0  0.00000000000E+00  0.00000000000E+00  0.15494544273E+04  0.15494544273E+04  0.25500000920E-02 0. -1.
       -2   -1    0    0    0  501  0.00000000000E+00  0.00000000000E+00 -0.27268249528E+03  0.27268249529E+03  0.25500000920E-02 0.  1.
    10030    2    1    2    0    0  0.00000000000E+00  0.00000000000E+00  0.12767719320E+04  0.18221369225E+04  0.13000139992E+04 0.  0.
        5    1    3    3  502    0 -0.26018612008E+03  0.56052345009E+03  0.92081903198E+03  0.11089694021E+04  0.46999998093E+01 0.  1.
       -5    1    3    3    0  502  0.26018612008E+03 -0.56052345009E+03  0.35595290000E+03  0.71316752043E+03  0.46999998093E+01 0. -1.
</event>
<event>
 5   0  0.3552698E-05  0.1299697E+04  0.7818609E-02  0.9029805E-01
       -1   -1    0    0    0  501  0.00000000000E+00  0.00000000000E+00  0.36802019193E+03  0.36802019197E+03  0.50400001928E-02 0. -1.
        1   -1    0    0  501    0  0.00000000000E+00  0.00000000000E+00 -0.11475003207E+04  0.11475003207E+04  0.50400001928E-02 0.  1.
    10030    2    1    2    0    0  0.00000000000E+00  0.00000000000E+00 -0.77948012878E+03  0.15155205127E+04  0.12996973314E+04 0.  0.
        5    1    3    3  502    0  0.48144879422E+03 -0.42280807026E+03 -0.26349543763E+03  0.69282865225E+03  0.46999998093E+01 0. -1.
       -5    1    3    3    0  502 -0.48144879422E+03  0.42280807026E+03 -0.51598469115E+03  0.82269186044E+03  0.46999998093E+01 0.  1.
</event>
<event>
 5   0  0.3631841E-05  0.1300922E+04  0.7818609E-02  0.9028834E-01
       -1   -1    0    0    0  501  0.00000000000E+00  0.00000000000E+00  0.71339735839E+03  0.71339735841E+03  0.50400001928E-02 0. -1.
        1   -1    0    0  501    0  0.00000000000E+00  0.00000000000E+00 -0.59307726267E+03  0.59307726269E+03  0.50400001928E-02 0.  1.
    10030    2    1    2    0    0  0.00000000000E+00  0.00000000000E+00  0.12032009572E+03  0.13064746211E+04  0.13009223690E+04 0.  0.
        3    1    3    3  502    0 -0.34673018538E+03 -0.30233661302E+03  0.52198190739E+03  0.69576890622E+03  0.10100000352E+00 0. -1.
       -3    1    3    3    0  502  0.34673018538E+03  0.30233661302E+03 -0.40166181166E+03  0.61070571487E+03  0.10100000352E+00 0.  1.
</event>
<event>
 5   0  0.3552698E-05  0.1299627E+04  0.7818609E-02  0.9029861E-01
        1   -1    0    0  501    0  0.00000000000E+00  0.00000000000E+00  0.95991982571E+03  0.95991982573E+03  0.50400001928E-02 0. -1.
       -1   -1    0    0    0  501  0.00000000000E+00  0.00000000000E+00 -0.43988854630E+03  0.43988854633E+03  0.50400001928E-02 0.  1.
    10030    2    1    2    0    0  0.00000000000E+00  0.00000000000E+00  0.52003127941E+03  0.13998083721E+04  0.12996272338E+04 0.  0.
        5    1    3    3  502    0 -0.12414196239E+03  0.53252338654E+03  0.63813714378E+03  0.84037699178E+03  0.46999998093E+01 0. -1.
       -5    1    3    3    0  502  0.12414196239E+03 -0.53252338654E+03 -0.11810586437E+03  0.55943138028E+03  0.46999998093E+01 0.  1.
</event>
<event>
 5   0  0.3551277E-05  0.1300003E+04  0.7818609E-02  0.9029563E-01
        1   -1    0    0  501    0  0.00000000000E+00  0.00000000000E+00  0.64071420383E+03  0.64071420385E+03  0.50400001928E-02 0. -1.
       -1   -1    0    0    0  501  0.00000000000E+00  0.00000000000E+00 -0.65942303986E+03  0.65942303988E+03  0.50400001928E-02 0.  1.
    10030    2    1    2    0    0  0.00000000000E+00  0.00000000000E+00 -0.18708836026E+02  0.13001372437E+04  0.13000026277E+04 0.  0.
        4    1    3    3  502    0 -0.62082139561E+03 -0.18349718539E+03 -0.67752868255E+02  0.65090896932E+03  0.12699999809E+01 0.  1.
       -4    1    3    3    0  502  0.62082139561E+03  0.18349718539E+03  0.49044032229E+02  0.64922827441E+03  0.12699999809E+01 0. -1.
</event>
<event>
 5   0  0.6618060E-05  0.1298861E+04  0.7818609E-02  0.9030469E-01
       -2   -1    0    0    0  501  0.00000000000E+00  0.00000000000E+00  0.36431163727E+03  0.36431163728E+03  0.25500000920E-02 0. -1.
        2   -1    0    0  501    0  0.00000000000E+00  0.00000000000E+00 -0.11576895479E+04  0.11576895479E+04  0.25500000920E-02 0.  1.
    10030    2    1    2    0    0  0.00000000000E+00  0.00000000000E+00 -0.79337791061E+03  0.15220011852E+04  0.12988606925E+04 0.  0.
        2    1    3    3  502    0  0.50498440698E+02 -0.37327610063E+03 -0.10166068695E+04  0.10841469767E+04  0.25500000920E-02 0.  1.
       -2    1    3    3    0  502 -0.50498440698E+02  0.37327610063E+03  0.22322895891E+03  0.43785420852E+03  0.25500000920E-02 0. -1.
</event>
<event>
 5   0  0.6671239E-05  0.1300855E+04  0.7818609E-02  0.9028888E-01
       -2   -1    0    0    0  501  0.00000000000E+00  0.00000000000E+00  0.41706366828E+03  0.41706366828E+03  0.25500000920E-02 0.  1.
        2   -1    0    0  501    0  0.00000000000E+00  0.00000000000E+00 -0.10143674726E+04  0.10143674726E+04  0.25500000920E-02 0. -1.
    10030    2    1    2    0    0  0.00000000000E+00  0.00000000000E+00 -0.59730380432E+03  0.14314311409E+04  0.13008548253E+04 0.  0.
        1    1    3    3  502    0 -0.61663628695E+03  0.12907447384E+03 -0.47661148932E+03  0.78997407676E+03  0.50400001928E-02 0. -1.
       -1    1    3    3    0  502  0.61663628695E+03 -0.12907447384E+03 -0.12069231500E+03  0.64145706412E+03  0.50400001928E-02 0.  1.
</event>
<event>
 5   0  0.3552698E-05  0.1300239E+04  0.7818609E-02  0.9029376E-01
        1   -1    0    0  501    0  0.00000000000E+00  0.00000000000E+00  0.10190732255E+04  0.10190732255E+04  0.50400001928E-02 0.  1.
       -1   -1    0    0    0  501  0.00000000000E+00  0.00000000000E+00 -0.41474481417E+03  0.41474481420E+03  0.50400001928E-02 0. -1.
    10030    2    1    2    0    0  0.00000000000E+00  0.00000000000E+00  0.60432841136E+03  0.14338180397E+04  0.13002389558E+04 0.  0.
        5    1    3    3  502    0  0.43201139325E+03 -0.47546046009E+03  0.19224005859E+03  0.67057797692E+03  0.46999998093E+01 0.  1.
       -5    1    3    3    0  502 -0.43201139325E+03  0.47546046009E+03  0.41208835276E+03  0.76324006281E+03  0.46999998093E+01 0. -1.
</event>
<event>
 5   0  0.3718559E-05  0.1299264E+04  0.7818609E-02  0.9030149E-01
        1   -1    0    0  501    0  0.00000000000E+00  0.00000000000E+00  0.56617840993E+03  0.56617840995E+03  0.50400001928E-02 0. -1.
       -1   -1    0    0    0  501  0.00000000000E+00  0.00000000000E+00 -0.74538684459E+03  0.74538684461E+03  0.50400001928E-02 0.  1.
    10030    2    1    2    0    0  0.00000000000E+00  0.00000000000E+00 -0.17920843466E+03  0.13115652546E+04  0.12992643126E+04 0.  0.
        2    1    3    3  502    0 -0.40669754200E+03 -0.25427370678E+03  0.35268078144E+03  0.59535010055E+03  0.25500000920E-02 0. -1.
       -2    1    3    3    0  502  0.40669754200E+03  0.25427370678E+03 -0.53188921609E+03  0.71621515401E+03  0.25500000920E-02 0.  1.
</event>
<event>
 5   0  0.3631841E-05  0.1298775E+04  0.7818609E-02  0.9030538E-01
       -1   -1    0    0    0  501  0.00000000000E+00  0.00000000000E+00  0.33508897496E+03  0.33508897500E+03  0.50400001928E-02 0.  1.
        1   -1    0    0  501    0  0.00000000000E+00  0.00000000000E+00 -0.12584831417E+04  0.12584831417E+04  0.50400001928E-02 0. -1.
    10030    2    1    2    0    0  0.00000000000E+00  0.00000000000E+00 -0.92339416671E+03  0.15935721167E+04  0.12987745393E+04 0.  0.
        3    1    3    3  502    0  0.55328483841E+03 -0.33748149377E+03 -0.41131691405E+03  0.76759330705E+03  0.10100000352E+00 0.  1.
       -3    1    3    3    0  502 -0.55328483841E+03  0.33748149377E+03 -0.51207725266E+03  0.82597880962E+03  0.10100000352E+00 0. -1.
</event>
<event>
 5   0  0.6618060E-05  0.1300017E+04  0.7818609E-02  0.9029552E-01
        2   -1    0    0  501    0  0.00000000000E+00  0.00000000000E+00  0.14446202333E+04  0.14446202334E+04  0.25500000920E-02 0.  1.
       -2   -1    0    0    0  501  0.00000000000E+00  0.00000000000E+00 -0.29247215518E+03  0.29247215520E+03  0.25500000920E-02 0. -1.
    10030    2    1    2    0    0  0.00000000000E+00  0.00000000000E+00  0.11521480782E+04  0.17370923885E+04  0.13000172200E+04 0.  0.
        2    1    3    3  502    0 -0.58114178237E+03  0.22217305940E+03  0.32458097912E+03  0.70174030207E+03  0.25500000920E-02 0. -1.
       -2    1    3    3    0  502  0.58114178237E+03 -0.22217305940E+03  0.82756709905E+03  0.10353520865E+04  0.25500000920E-02 0.  1.
</event>
<event>
 5   0  0.6671239E-05  0.1297778E+04  0.7818609E-02  0.9031329E-01
        2   -1    0    0  501    0  0.00000000000E+00  0.00000000000E+00  0.15185610798E+04  0.15185610798E+04  0.25500000920E-02 0. -1.
       -2   -1    0    0    0  501  0.00000000000E+00  0.00000000000E+00 -0.27727378901E+03  0.27727378902E+03  0.25500000920E-02 0.  1.
    10030    2    1    2    0    0  0.00000000000E+00  0.00000000000E+00  0.12412872908E+04  0.17958348688E+04  0.12977783855E+04 0.  0.
        1    1    3    3  502    0 -0.19579434009E+03 -0.50364933993E+03  0.12352484882E+03  0.55430719779E+03  0.50400001928E-02 0. -1.
       -1    1    3    3    0  502  0.19579434009E+03  0.50364933993E+03  0.11177624420E+04  0.12415276710E+04  0.50400001928E-02 0.  1.
</event>
<event>
 5   0  0.3689707E-05  0.1299976E+04  0.7818609E-02  0.9029584E-01
       -1   -1    0    0    0  501  0.00000000000E+00  0.00000000000E+00  0.68682545872E+03  0.68682545874E+03  0.50400001928E-02 0. -1.
        1   -1    0    0  501    0  0.00000000000E+00  0.00000000000E+00 -0.61512638894E+03  0.61512638896E+03  0.50400001928E-02 0.  1.
    10030    2    1    2    0    0  0.00000000000E+00  0.00000000000E+00  0.71699069782E+02  0.13019518477E+04  0.12999760987E+04 0.  0.
        1    1    3    3  502    0  0.22023751029E+03  0.36684987446E+02  0.64721494151E+03  0.68464408986E+03  0.50400001928E-02 0. -1.
       -1    1    3    3    0  502 -0.22023751029E+03 -0.36684987446E+02 -0.57551587173E+03  0.61730775783E+03  0.50400001928E-02 0.  1.
</event>
<event>
 5   0  0.6618060E-05  0.1299656E+04  0.7818609E-02  0.9029838E-01
       -2   -1    0    0    0  501  0.00000000000E+00  0.00000000000E+00  0.38053626739E+03  0.38053626740E+03  0.25500000920E-02 0.  1.
        2   -1    0    0  501    0  0.00000000000E+00  0.00000000000E+00 -0.11096874163E+04  0.11096874163E+04  0.25500000920E-02 0. -1.
    10030    2    1    2    0    0  0.00000000000E+00  0.00000000000E+00 -0.72915114886E+03  0.14902236837E+04  0.12996558119E+04 0.  0.
        2    1    3    3  502    0  0.30566702243E+03  0.33997567051E+03 -0.89409066577E+03  0.10041981397E+04  0.25500000920E-02 0. -1.
       -2    1    3    3    0  502 -0.30566702243E+03 -0.33997567051E+03  0.16493951691E+03  0.48602554397E+03  0.25500000920E-02 0.  1.
</event>
<event>
 5   0  0.3551277E-05  0.1299756E+04  0.7818609E-02  0.9029759E-01
       -1   -1    0    0    0  501  0.00000000000E+00  0.00000000000E+00  0.47179996317E+03  0.47179996320E+03  0.50400001928E-02 0. -1.
        1   -1    0    0  501    0  0.00000000000E+00  0.00000000000E+00 -0.89517077459E+03  0.89517077461E+03  0.50400001928E-02 0.  1.
    10030    2    1    2    0    0  0.00000000000E+00  0.00000000000E+00 -0.42337081142E+03  0.13669707378E+04  0.12997561902E+04 0.  0.
        4    1    3    3  502    0  0.11547069437E+03 -0.63952544051E+03 -0.21557180990E+03  0.68468904507E+03  0.12699999809E+01 0.  1.
       -4    1    3    3    0  502 -0.11547069437E+03  0.63952544051E+03 -0.20779900151E+03  0.68228169274E+03  0.12699999809E+01 0. -1.
</event>
<event>
 5   0  0.2512000E-05  0.1299927E+04  0.7818609E-02  0.9029623E-01
        3   -1    0    0  501    0  0.00000000000E+00  0.00000000000E+00  0.13082546731E+04  0.13082546770E+04  0.10100000352E+00 0.  1.
       -3   -1    0    0    0  501  0.00000000000E+00  0.00000000000E+00 -0.32291295571E+03  0.32291297151E+03  0.10100000352E+00 0. -1.
    10030    2    1    2    0    0  0.00000000000E+00  0.00000000000E+00  0.98534171738E+03  0.16311676485E+04  0.12999267662E+04 0.  0.
        1    1    3    3  502    0  0.50238048756E+03  0.40731632564E+03  0.57360064955E+03  0.86447119594E+03  0.50400001928E-02 0. -1.
       -1    1    3    3    0  502 -0.50238048756E+03 -0.40731632564E+03  0.41174106783E+03  0.76669645257E+03  0.50400001928E-02 0.  1.
</event>
<event>
 5   0  0.3631841E-05  0.1300060E+04  0.7818609E-02  0.9029518E-01
        1   -1    0    0  501    0  0.00000000000E+00  0.00000000000E+00  0.55788001248E+03  0.55788001250E+03  0.50400001928E-02 0. -1.
       -1   -1    0    0    0  501  0.00000000000E+00  0.00000000000E+00 -0.75740126989E+03  0.75740126990E+03  0.50400001928E-02 0.  1.
    10030    2    1    2    0    0  0.00000000000E+00  0.00000000000E+00 -0.19952125741E+03  0.13152812824E+04  0.13000600446E+04 0.  0.
        3    1    3    3  502    0  0.23473688807E+03  0.53955355610E+03  0.17973382564E+03  0.61524280150E+03  0.10100000352E+00 0. -1.
       -3    1    3    3    0  502 -0.23473688807E+03 -0.53955355610E+03 -0.37925508305E+03  0.70003848090E+03  0.10100000352E+00 0.  1.
</event>
<event>
 5   0  0.6688086E-05  0.1298815E+04  0.7818609E-02  0.9030505E-01
       -2   -1    0    0    0  501  0.00000000000E+00  0.00000000000E+00  0.65104602819E+03  0.65104602820E+03  0.25500000920E-02 0.  1.
        2   -1    0    0  501    0  0.00000000000E+00  0.00000000000E+00 -0.64777305950E+03  0.64777305951E+03  0.25500000920E-02 0. -1.
    10030    2    1    2    0    0  0.00000000000E+00  0.00000000000E+00  0.32729686874E+01  0.12988190877E+04  0.12988149638E+04 0.  0.
        5    1    3    3  502    0  0.14641366167E+03  0.62539360723E+03 -0.94039643321E+02  0.64916844409E+03  0.46999998093E+01 0. -1.
       -5    1    3    3    0  502 -0.14641366167E+03 -0.62539360723E+03  0.97312612009E+02  0.64965064361E+03  0.46999998093E+01 0.  1.
</event>
<event>
 5   0  0.6618060E-05  0.1301313E+04  0.7818609E-02  0.9028525E-01
        2   -1    0    0  501    0  0.00000000000E+00  0.00000000000E+00  0.12202633003E+04  0.12202633003E+04  0.25500000920E-02 0. -1.
       -2   -1    0    0    0  501  0.00000000000E+00  0.00000000000E+00 -0.34693631866E+03  0.34693631867E+03  0.25500000920E-02 0.  1.
    10030    2    1    2    0    0  0.00000000000E+00  0.00000000000E+00  0.87332698168E+03  0.15671996190E+04  0.13013126561E+04 0.  0.
        2    1    3    3  502    0  0.45545456971E+03  0.54552069970E+02  0.99240153724E+03  0.10932866068E+04  0.25500000920E-02 0. -1.
       -2    1    3    3    0  502 -0.45545456971E+03 -0.54552069970E+02 -0.11907455556E+03  0.47391301226E+03  0.25500000920E-02 0.  1.
</event>
<event>
 5   0  0.3552698E-05  0.1300088E+04  0.7818609E-02  0.9029495E-01
       -1   -1    0    0    0  501  0.00000000000E+00  0.00000000000E+00  0.51277962060E+03  0.51277962063E+03  0.50400001928E-02 0. -1.
        1   -1    0    0  501    0  0.00000000000E+00  0.00000000000E+00 -0.82405248270E+03  0.82405248272E+03  0.50400001928E-02 0.  1.
    10030    2    1    2    0    0  0.00000000000E+00  0.00000000000E+00 -0.31127286210E+03  0.13368321033E+04  0.13000881808E+04 0.  0.
        5    1    3    3  502    0  0.56658260429E+03  0.10571534989E+03 -0.46470359346E+03  0.74038037687E+03  0.46999998093E+01 0.  1.
       -5    1    3    3    0  502 -0.56658260429E+03 -0.10571534989E+03  0.15343073136E+03  0.59645172647E+03  0.46999998093E+01 0. -1.
</event>
<event>
 5   0  0.3552698E-05  0.1299865E+04  0.7818609E-02  0.9029672E-01
       -1   -1    0    0    0  501  0.00000000000E+00  0.00000000000E+00  0.59072284462E+03  0.59072284464E+03  0.50400001928E-02 0.  1.
        1   -1    0    0  501    0  0.00000000000E+00  0.00000000000E+00 -0.71507682922E+03  0.71507682924E+03  0.50400001928E-02 0. -1.
    10030    2    1    2    0    0  0.00000000000E+00  0.00000000000E+00 -0.12435398460E+03  0.13057996739E+04  0.12998649448E+04 0.  0.
        5    1    3    3  502    0  0.16919305070E+03  0.39875617911E+03  0.42455279260E+03  0.60654755995E+03  0.46999998093E+01 0.  1.
       -5    1    3    3    0  502 -0.16919305070E+03 -0.39875617911E+03 -0.54890677720E+03  0.69925211393E+03  0.46999998093E+01 0. -1.
</event>
<event>
 5   0  0.3718559E-05  0.1299304E+04  0.7818609E-02  0.9030117E-01
       -1   -1    0    0    0  501  0.00000000000E+00  0.00000000000E+00  0.41964722842E+03  0.41964722845E+03  0.50400001928E-02 0.  1.
        1   -1    0    0  501    0  0.00000000000E+00  0.00000000000E+00 -0.10057204067E+04  0.10057204067E+04  0.50400001928E-02 0. -1.
    10030    2    1    2    0    0  0.00000000000E+00  0.00000000000E+00 -0.58607317831E+03  0.14253676352E+04  0.12993040926E+04 0.  0.
        2    1    3    3  502    0 -0.59649147823E+02 -0.59405598502E+03 -0.57398448787E+03  0.82820210486E+03  0.25500000920E-02 0. -1.
       -2    1    3    3    0  502  0.59649147823E+02  0.59405598502E+03 -0.12088690433E+02  0.59716553033E+03  0.25500000920E-02 0.  1.
</event>
<event>
 5   0  0.3689707E-05  0.1299501E+04  0.7818609E-02  0.9029961E-01
        1   -1    0    0  501    0  0.00000000000E+00  0.00000000000E+00  0.11091216834E+04  0.11091216834E+04  0.50400001928E-02 0. -1.
       -1   -1    0    0    0  501  0.00000000000E+00  0.00000000000E+00 -0.38063974188E+03  0.38063974191E+03  0.50400001928E-02 0.  1.
    10030    2    1    2    0    0  0.00000000000E+00  0.00000000000E+00  0.72848194153E+03  0.14897614253E+04  0.12995011217E+04 0.  0.
        1    1    3    3  502    0  0.38018259634E+03 -0.31302878731E+03  0.85014850405E+03  0.98248577965E+03  0.50400001928E-02 0. -1.
       -1    1    3    3    0  502 -0.38018259634E+03  0.31302878731E+03 -0.12166656251E+03  0.50727564569E+03  0.50400001928E-02 0.  1.
</event>
<event>
 5   0  0.6618060E-05  0.1300635E+04  0.7818609E-02  0.9029062E-01
        2   -1    0    0  501    0  0.00000000000E+00  0.00000000000E+00  0.65702325570E+03  0.65702325571E+03  0.25500000920E-02 0. -1.
       -2   -1    0    0    0  501  0.00000000000E+00  0.00000000000E+00 -0.64368031557E+03  0.64368031557E+03  0.25500000920E-02 0.  1.
    10030    2    1    2    0    0  0.00000000000E+00  0.00000000000E+00  0.13342940133E+02  0.13007035713E+04  0.13006351319E+04 0.  0.
        2    1    3    3  502    0  0.18361756548E+03  0.52496682288E+03  0.34374611674E+03  0.65380958104E+03  0.25500000920E-02 0. -1.
       -2    1    3    3    0  502 -0.18361756548E+03 -0.52496682288E+03 -0.33040317661E+03  0.64689399024E+03  0.25500000920E-02 0.  1.
</event>
<event>
 5   0  0.3689707E-05  0.1303915E+04  0.7818609E-02  0.9026467E-01
        1   -1    0    0  501    0  0.00000000000E+00  0.00000000000E+00  0.14262792383E+04  0.14262792383E+04  0.50400001928E-02 0.  1.
       -1   -1    0    0    0  501  0.00000000000E+00  0.00000000000E+00 -0.29801198237E+03  0.29801198241E+03  0.50400001928E-02 0. -1.
    10030    2    1    2    0    0  0.00000000000E+00  0.00000000000E+00  0.11282672559E+04  0.17242912207E+04  0.13039145728E+04 0.  0.
        1    1    3    3  502    0  0.56986131569E+03 -0.24717810921E+03  0.82598592639E+03  0.10334852139E+04  0.50400001928E-02 0.  1.
       -1    1    3    3    0  502 -0.56986131569E+03  0.24717810921E+03  0.30228132952E+03  0.69080600677E+03  0.50400001928E-02 0. -1.
</event>
<event>
 5   0  0.6688086E-05  0.1297847E+04  0.7818609E-02  0.9031274E-01
        2   -1    0    0  501    0  0.00000000000E+00  0.00000000000E+00  0.90253301007E+03  0.90253301007E+03  0.25500000920E-02 0.  1.
       -2   -1    0    0    0  501  0.00000000000E+00  0.00000000000E+00 -0.46657741484E+03  0.46657741485E+03  0.25500000920E-02 0. -1.
    10030    2    1    2    0    0  0.00000000000E+00  0.00000000000E+00  0.43595559523E+03  0.13691104249E+04  0.12978467069E+04 0.  0.
        5    1    3    3  502    0 -0.42274962377E+03 -0.63997740362E+02  0.73290584322E+03  0.84851989970E+03  0.46999998093E+01 0.  1.
       -5    1    3    3    0  502  0.42274962377E+03  0.63997740362E+02 -0.29695024799E+03  0.52059052522E+03  0.46999998093E+01 0. -1.
</event>
<event>
 5   0  0.3631841E-05  0.1300289E+04  0.7818609E-02  0.9029336E-01
       -1   -1    0    0    0  501  0.00000000000E+00  0.00000000000E+00  0.14702663724E+04  0.14702663724E+04  0.50400001928E-02 0.  1.
        1   -1    0    0  501    0  0.00000000000E+00  0.00000000000E+00 -0.28749052338E+03  0.28749052343E+03  0.50400001928E-02 0. -1.
    10030    2    1    2    0    0  0.00000000000E+00  0.00000000000E+00  0.11827758490E+04  0.17577568958E+04  0.13002886587E+04 0.  0.
        3    1    3    3  502    0  0.31214466695E+03 -0.13808257066E+03  0.13394059957E+04  0.13822118220E+04  0.10100000352E+00 0.  1.
       -3    1    3    3    0  502 -0.31214466695E+03  0.13808257066E+03 -0.15663014667E+03  0.37554507382E+03  0.10100000352E+00 0. -1.
</event>
<event>
 5   0  0.3552698E-05  0.1300974E+04  0.7818609E-02  0.9028793E-01
        1   -1    0    0  501    0  0.00000000000E+00  0.00000000000E+00  0.50215034049E+03  0.50215034051E+03  0.50400001928E-02 0. -1.
       -1   -1    0    0    0  501  0.00000000000E+00  0.00000000000E+00 -0.84264261413E+03  0.84264261415E+03  0.50400001928E-02 0.  1.
    10030    2    1    2    0    0  0.00000000000E+00  0.00000000000E+00 -0.34049227365E+03  0.13447929547E+04  0.13009739054E+04 0.  0.
        5    1    3    3  502    0 -0.20132775681E+03  0.62612282161E+02 -0.80632420362E+03  0.83344704384E+03  0.46999998093E+01 0.  1.
       -5    1    3    3    0  502  0.20132775681E+03 -0.62612282161E+02  0.46583192997E+03  0.51134591083E+03  0.46999998093E+01 0. -1.
</event>
<event>
 5   0  0.3552698E-05  0.1300736E+04  0.7818609E-02  0.9028982E-01
        1   -1    0    0  501    0  0.00000000000E+00  0.00000000000E+00  0.22034691480E+04  0.22034691480E+04  0.50400001928E-02 0.  1.
       -1   -1    0    0    0  501  0.00000000000E+00  0.00000000000E+00 -0.19196028227E+03  0.19196028234E+03  0.50400001928E-02 0. -1.
    10030    2    1    2    0    0  0.00000000000E+00  0.00000000000E+00  0.20115088657E+04  0.23954294303E+04  0.13007360373E+04 0.  0.
        5    1    3    3  502    0  0.61255359205E+03  0.21828535914E+03  0.10228394924E+04  0.12120615159E+04  0.46999998093E+01 0. -1.
       -5    1    3    3    0  502 -0.61255359205E+03 -0.21828535914E+03  0.98866937326E+03  0.11833679144E+04  0.46999998093E+01 0.  1.
</event>
<event>
 5   0  0.6618060E-05  0.1300368E+04  0.7818609E-02  0.9029273E-01
       -2   -1    0    0    0  501  0.00000000000E+00  0.00000000000E+00  0.58082213300E+03  0.58082213300E+03  0.25500000920E-02 0.  1.
        2   -1    0    0  501    0  0.00000000000E+00  0.00000000000E+00 -0.72782937180E+03  0.72782937180E+03  0.25500000920E-02 0. -1.
    10030    2    1    2    0    0  0.00000000000E+00  0.00000000000E+00 -0.14700723880E+03  0.13086515048E+04  0.13003682681E+04 0.  0.
        2    1    3    3  502    0 -0.11736491181E+03  0.61047935238E+03  0.11818236654E+03  0.63279272592E+03  0.25500000920E-02 0.  1.
       -2    1    3    3    0  502  0.11736491181E+03 -0.61047935238E+03 -0.26518960534E+03  0.67585877888E+03  0.25500000920E-02 0. -1.
</event>
<event>
 5   0  0.3552698E-05  0.1300205E+04  0.7818609E-02  0.9029403E-01
        1   -1    0    0  501    0  0.00000000000E+00  0.00000000000E+00  0.74186639253E+03  0.74186639255E+03  0.50400001928E-02 0. -1.
       -1   -1    0    0    0  501  0.00000000000E+00  0.00000000000E+00 -0.56968877275E+03  0.56968877277E+03  0.50400001928E-02 0.  1.
    10030    2    1    2    0    0  0.00000000000E+00  0.00000000000E+00  0.17217761979E+03  0.13115551653E+04  0.13002045296E+04 0.  0.
        5    1    3    3  502    0 -0.39930944940E+03 -0.69466554142E+02 -0.42661717089E+03  0.58847084806E+03  0.46999998093E+01 0.  1.
       -5    1    3    3    0  502  0.39930944940E+03  0.69466554142E+02  0.59879479067E+03  0.72308431725E+03  0.46999998093E+01 0. -1.
</event>
<event>
 5   0  0.3689707E-05  0.1300324E+04  0.7818609E-02  0.9029308E-01
        1   -1    0    0  501    0  0.00000000000E+00  0.00000000000E+00  0.20260178501E+03  0.20260178507E+03  0.50400001928E-02 0. -1.
       -1   -1    0    0    0  501  0.00000000000E+00  0.00000000000E+00 -0.20864121260E+04  0.20864121260E+04  0.50400001928E-02 0.  1.
    10030    2    1    2    0    0  0.00000000000E+00  0.00000000000E+00 -0.18838103410E+04  0.22890139111E+04  0.13003242997E+04 0.  0.
        1    1    3    3  502    0 -0.22986362873E+03  0.37585472464E+03 -0.10023625701E+03  0.45183112896E+03  0.50400001928E-02 0. -1.
       -1    1    3    3    0  502  0.22986362873E+03 -0.37585472464E+03 -0.17835740840E+04  0.18371827821E+04  0.50400001928E-02 0.  1.
</event>
<event>
 5   0  0.6618060E-05  0.1301004E+04  0.7818609E-02  0.9028769E-01
        2   -1    0    0  501    0  0.00000000000E+00  0.00000000000E+00  0.60656474087E+03  0.60656474088E+03  0.25500000920E-02 0.  1.
       -2   -1    0    0    0  501  0.00000000000E+00  0.00000000000E+00 -0.69762210088E+03  0.69762210088E+03  0.25500000920E-02 0. -1.
    10030    2    1    2    0    0  0.00000000000E+00  0.00000000000E+00 -0.91057360000E+02  0.13041868418E+04  0.13010041796E+04 0.  0.
        2    1    3    3  502    0 -0.18479406289E+03  0.55773611114E+03  0.23432185933E+03  0.63255446336E+03  0.25500000920E-02 0.  1.
       -2    1    3    3    0  502  0.18479406289E+03 -0.55773611114E+03 -0.32537921933E+03  0.67163237841E+03  0.25500000920E-02 0. -1.
</event>
<event>
 5   0  0.3718559E-05  0.1300235E+04  0.7818609E-02  0.9029379E-01
        1   -1    0    0  501    0  0.00000000000E+00  0.00000000000E+00  0.13132879187E+04  0.13132879187E+04  0.50400001928E-02 0.  1.
       -1   -1    0    0    0  501  0.00000000000E+00  0.00000000000E+00 -0.32182780233E+03  0.32182780237E+03  0.50400001928E-02 0. -1.
    10030    2    1    2    0    0  0.00000000000E+00  0.00000000000E+00  0.99146011641E+03  0.16351157211E+04  0.13002346938E+04 0.  0.
        2    1    3    3  502    0 -0.29968594458E+03  0.45712008446E+03  0.93835009722E+03  0.10859426053E+04  0.25500000920E-02 0.  1.
       -2    1    3    3    0  502  0.29968594458E+03 -0.45712008446E+03  0.53110019183E+02  0.54917311583E+03  0.25500000920E-02 0. -1.
</event>
<event>
 5   0  0.3718559E-05  0.1299670E+04  0.7818609E-02  0.9029827E-01
        1   -1    0    0  501    0  0.00000000000E+00  0.00000000000E+00  0.40423388793E+03  0.40423388796E+03  0.50400001928E-02 0. -1.
       -1   -1    0    0    0  501  0.00000000000E+00  0.00000000000E+00 -0.10446563030E+04  0.10446563031E+04  0.50400001928E-02 0.  1.
    10030    2    1    2    0    0  0.00000000000E+00  0.00000000000E+00 -0.64042241511E+03  0.14488901910E+04  0.12996699257E+04 0.  0.
        2    1    3    3  502    0 -0.16683213933E+02  0.64901707093E+03 -0.28899659607E+03  0.71064795822E+03  0.25500000920E-02 0. -1.
       -2    1    3    3    0  502  0.16683213933E+02 -0.64901707093E+03 -0.35142581904E+03  0.73824223279E+03  0.25500000920E-02 0.  1.
</event>
<event>
 5   0  0.3551277E-05  0.1299386E+04  0.7818609E-02  0.9030052E-01
       -1   -1    0    0    0  501  0.00000000000E+00  0.00000000000E+00  0.28819206881E+03  0.28819206886E+03  0.50400001928E-02 0.  1.
        1   -1    0    0  501    0  0.00000000000E+00  0.00000000000E+00 -0.14646526021E+04  0.14646526021E+04  0.50400001928E-02 0. -1.
    10030    2    1    2    0    0  0.00000000000E+00  0.00000000000E+00 -0.11764605332E+04  0.17528446709E+04  0.12993864145E+04 0.  0.
        4    1    3    3  502    0 -0.50831315365E+03 -0.32849288463E+03 -0.26954616706E+03  0.66253044194E+03  0.12699999809E+01 0.  1.
       -4    1    3    3    0  502  0.50831315365E+03  0.32849288463E+03 -0.90691436618E+03  0.10903142290E+04  0.12699999809E+01 0. -1.
</event>
<event>
 5   0  0.3551277E-05  0.1298697E+04  0.7818609E-02  0.9030599E-01
       -1   -1    0    0    0  501  0.00000000000E+00  0.00000000000E+00  0.87615516743E+03  0.87615516744E+03  0.50400001928E-02 0.  1.
        1   -1    0    0  501    0  0.00000000000E+00  0.00000000000E+00 -0.48125438127E+03  0.48125438130E+03  0.50400001928E-02 0. -1.
    10030    2    1    2    0    0  0.00000000000E+00  0.00000000000E+00  0.39490078615E+03  0.13574095487E+04  0.12986970594E+04 0.  0.
        4    1    3    3  502    0  0.60035786593E+03  0.22850111390E+03  0.98240457306E+02  0.64984238596E+03  0.12699999809E+01 0. -1.
       -4    1    3    3    0  502 -0.60035786593E+03 -0.22850111390E+03  0.29666032885E+03  0.70756716278E+03  0.12699999809E+01 0.  1.
</event>
<event>
 5   0  0.3552698E-05  0.1301190E+04  0.7818609E-02  0.9028622E-01
       -1   -1    0    0    0  501  0.00000000000E+00  0.00000000000E+00  0.77376157333E+03  0.77376157335E+03  0.50400001928E-02 0. -1.
        1   -1    0    0  501    0  0.00000000000E+00  0.00000000000E+00 -0.54703392553E+03  0.54703392556E+03  0.50400001928E-02 0.  1.
    10030    2    1    2    0    0  0.00000000000E+00  0.00000000000E+00  0.22672764780E+03  0.13207954989E+04  0.13011899645E+04 0.  0.
        5    1    3    3  502    0  0.33654417176E+03 -0.79726782691E+02 -0.44596815171E+03  0.56438286806E+03  0.46999998093E+01 0.  1.
       -5    1    3    3    0  502 -0.33654417176E+03  0.79726782691E+02  0.67269579951E+03  0.75641263084E+03  0.46999998093E+01 0. -1.
</event>
<event>
 5   0  0.3631841E-05  0.1302812E+04  0.7818609E-02  0.9027338E-01
       -1   -1    0    0    0  501  0.00000000000E+00  0.00000000000E+00  0.59554374946E+03  0.59554374948E+03  0.50400001928E-02 0.  1.
        1   -1    0    0  501    0  0.00000000000E+00  0.00000000000E+00 -0.71250791682E+03  0.71250791684E+03  0.50400001928E-02 0. -1.
    10030    2    1    2    0    0  0.00000000000E+00  0.00000000000E+00 -0.11696416736E+03  0.13080516663E+04  0.13028117843E+04 0.  0.
        3    1    3    3  502    0  0.37934748369E+03 -0.26533299611E+03 -0.51860851388E+03  0.69516970092E+03  0.10100000352E+00 0. -1.
       -3    1    3    3    0  502 -0.37934748369E+03  0.26533299611E+03  0.40164434652E+03  0.61288196539E+03  0.10100000352E+00 0.  1.
</event>
<event>
 5   0  0.6688086E-05  0.1292099E+04  0.7818609E-02  0.9035854E-01
        2   -1    0    0  501    0  0.00000000000E+00  0.00000000000E+00  0.78641584451E+03  0.78641584451E+03  0.25500000920E-02 0.  1.
       -2   -1    0    0    0  501  0.00000000000E+00  0.00000000000E+00 -0.53073721178E+03  0.53073721178E+03  0.25500000920E-02 0. -1.
    10030    2    1    2    0    0  0.00000000000E+00  0.00000000000E+00  0.25567863273E+03  0.13171530563E+04  0.12920993036E+04 0.  0.
        5    1    3    3  502    0 -0.48833722117E+03  0.26623874702E+03 -0.20716912406E+03  0.59354650025E+03  0.46999998093E+01 0. -1.
       -5    1    3    3    0  502  0.48833722117E+03 -0.26623874702E+03  0.46284775679E+03  0.72360655605E+03  0.46999998093E+01 0.  1.
</event>
<event>
 5   0  0.3552698E-05  0.1300498E+04  0.7818609E-02  0.9029170E-01
       -1   -1    0    0    0  501  0.00000000000E+00  0.00000000000E+00  0.33789907778E+03  0.33789907781E+03  0.50400001928E-02 0. -1.
        1   -1    0    0  501    0  0.00000000000E+00  0.00000000000E+00 -0.12513315738E+04  0.12513315738E+04  0.50400001928E-02 0.  1.
    10030    2    1    2    0    0  0.00000000000E+00  0.00000000000E+00 -0.91343249602E+03  0.15892306516E+04  0.13004980351E+04 0.  0.
        5    1    3    3  502    0 -0.18773180479E+03  0.58304690808E+02  0.30069675021E+03  0.35928163477E+03  0.46999998093E+01 0. -1.
       -5    1    3    3    0  502  0.18773180479E+03 -0.58304690808E+02 -0.12141292462E+04  0.12299490168E+04  0.46999998093E+01 0.  1.
</event>
<event>
 5   0  0.6671239E-05  0.1300089E+04  0.7818609E-02  0.9029494E-01
        2   -1    0    0  501    0  0.00000000000E+00  0.00000000000E+00  0.40967192072E+03  0.40967192073E+03  0.25500000920E-02 0. -1.
       -2   -1    0    0    0  501  0.00000000000E+00  0.00000000000E+00 -0.10314547942E+04  0.10314547942E+04  0.25500000920E-02 0.  1.
    10030    2    1    2    0    0  0.00000000000E+00  0.00000000000E+00 -0.62178287346E+03  0.14411267149E+04  0.13000893303E+04 0.  0.
        1    1    3    3  502    0 -0.36884593403E+03 -0.32724349239E+03  0.15864289680E+03  0.51797991766E+03  0.50400001928E-02 0. -1.
       -1    1    3    3    0  502  0.36884593403E+03  0.32724349239E+03 -0.78042577027E+03  0.92314679726E+03  0.50400001928E-02 0.  1.
</event>
<event>
 5   0  0.3631841E-05  0.1301812E+04  0.7818609E-02  0.9028129E-01
        1   -1    0    0  501    0  0.00000000000E+00  0.00000000000E+00  0.17753847950E+04  0.17753847950E+04  0.50400001928E-02 0.  1.
       -1   -1    0    0    0  501  0.00000000000E+00  0.00000000000E+00 -0.23864062489E+03  0.23864062495E+03  0.50400001928E-02 0. -1.
    10030    2    1    2    0    0  0.00000000000E+00  0.00000000000E+00  0.15367441701E+04  0.20140254199E+04  0.13018124857E+04 0.  0.
        3    1    3    3  502    0  0.46011001813E+03 -0.37887712139E+03  0.11730776995E+04  0.13158116891E+04  0.10100000352E+00 0.  1.
       -3    1    3    3    0  502 -0.46011001813E+03  0.37887712139E+03  0.36366647059E+03  0.69821373084E+03  0.10100000352E+00 0. -1.
</event>
<event>
 5   0  0.3718559E-05  0.1299939E+04  0.7818609E-02  0.9029614E-01
        1   -1    0    0  501    0  0.00000000000E+00  0.00000000000E+00  0.80991403800E+03  0.80991403802E+03  0.50400001928E-02 0.  1.
       -1   -1    0    0    0  501  0.00000000000E+00  0.00000000000E+00 -0.52161136813E+03  0.52161136815E+03  0.50400001928E-02 0. -1.
    10030    2    1    2    0    0  0.00000000000E+00  0.00000000000E+00  0.28830266987E+03  0.13315254062E+04  0.12999390285E+04 0.  0.
        2    1    3    3  502    0 -0.47727196899E+03 -0.26565845017E+03  0.50498567283E+03  0.74389076772E+03  0.25500000920E-02 0.  1.
       -2    1    3    3    0  502  0.47727196899E+03  0.26565845017E+03 -0.21668300296E+03  0.58763463845E+03  0.25500000920E-02 0. -1.
</event>
<event>
 5   0  0.2512000E-05  0.1300080E+04  0.7818609E-02  0.9029502E-01
        3   -1    0    0  501    0  0.00000000000E+00  0.00000000000E+00  0.59642126654E+03  0.59642127510E+03  0.10100000352E+00 0.  1.
       -3   -1    0    0    0  501  0.00000000000E+00  0.00000000000E+00 -0.70847930452E+03  0.70847931172E+03  0.10100000352E+00 0. -1.
    10030    2    1    2    0    0  0.00000000000E+00  0.00000000000E+00 -0.11205803798E+03  0.13049005868E+04  0.13000802043E+04 0.  0.
        1    1    3    3  502    0  0.36437169521E+03  0.37687708499E+03 -0.44183561767E+03  0.68558134640E+03  0.50400001928E-02 0.  1.
       -1    1    3    3    0  502 -0.36437169521E+03 -0.37687708499E+03  0.32977757969E+03  0.61931924042E+03  0.50400001928E-02 0. -1.
</event>
<event>
 5   0  0.6671239E-05  0.1299787E+04  0.7818609E-02  0.9029734E-01
        2   -1    0    0  501    0  0.00000000000E+00  0.00000000000E+00  0.63565956593E+03  0.63565956594E+03  0.25500000920E-02 0. -1.
       -2   -1    0    0    0  501  0.00000000000E+00  0.00000000000E+00 -0.66444579964E+03  0.66444579964E+03  0.25500000920E-02 0.  1.
    10030    2    1    2    0    0  0.00000000000E+00  0.00000000000E+00 -0.28786233701E+02  0.13001053656E+04  0.12997866419E+04 0.  0.
        1    1    3    3  502    0 -0.77754117424E+02 -0.48502337838E+03 -0.44001825626E+03  0.65947664569E+03  0.50400001928E-02 0.  1.
       -1    1    3    3    0  502  0.77754117424E+02  0.48502337838E+03  0.41123202255E+03  0.64062871989E+03  0.50400001928E-02 0. -1.
</event>
<event>
 5   0  0.6458698E-05  0.1299650E+04  0.7818609E-02  0.9029843E-01
        2   -1    0    0  501    0  0.00000000000E+00  0.00000000000E+00  0.18281667832E+04  0.18281667832E+04  0.25500000920E-02 0. -1.
       -2   -1    0    0    0  501  0.00000000000E+00  0.00000000000E+00 -0.23098124060E+03  0.23098124061E+03  0.25500000920E-02 0.  1.
    10030    2    1    2    0    0  0.00000000000E+00  0.00000000000E+00  0.15971855426E+04  0.20591480239E+04  0.12996495399E+04 0.  0.
        3    1    3    3  502    0  0.48914537104E+03 -0.19387357965E+03  0.14027868435E+04  0.14982193088E+04  0.10100000352E+00 0. -1.
       -3    1    3    3    0  502 -0.48914537104E+03  0.19387357965E+03  0.19439869915E+03  0.56092871502E+03  0.10100000352E+00 0.  1.
</event>
<event>
 5   0  0.6671239E-05  0.1300523E+04  0.7818609E-02  0.9029151E-01
        2   -1    0    0  501    0  0.00000000000E+00  0.00000000000E+00  0.15183445988E+04  0.15183445988E+04  0.25500000920E-02 0. -1.
       -2   -1    0    0    0  501  0.00000000000E+00  0.00000000000E+00 -0.27848739395E+03  0.27848739396E+03  0.25500000920E-02 0.  1.
    10030    2    1    2    0    0  0.00000000000E+00  0.00000000000E+00  0.12398572049E+04  0.17968319928E+04  0.13005227110E+04 0.  0.
        1    1    3    3  502    0 -0.15459224280E+03  0.52848667907E+02 -0.24966895780E+03  0.29837280665E+03  0.50400001928E-02 0.  1.
       -1    1    3    3    0  502  0.15459224280E+03 -0.52848667907E+02  0.14895261627E+04  0.14984591861E+04  0.50400001928E-02 0. -1.
</event>
<event>
 5   0  0.6458698E-05  0.1298078E+04  0.7818609E-02  0.9031091E-01
       -2   -1    0    0    0  501  0.00000000000E+00  0.00000000000E+00  0.30236627128E+03  0.30236627129E+03  0.25500000920E-02 0.  1.
        2   -1    0    0  501    0  0.00000000000E+00  0.00000000000E+00 -0.13931822997E+04  0.13931822997E+04  0.25500000920E-02 0. -1.
    10030    2    1    2    0    0  0.00000000000E+00  0.00000000000E+00 -0.10908160284E+04  0.16955485710E+04  0.12980775588E+04 0.  0.
        3    1    3    3  502    0  0.54332460198E+03 -0.33045852068E+03 -0.37586917499E+03  0.73870298762E+03  0.10100000352E+00 0.  1.
       -3    1    3    3    0  502 -0.54332460198E+03  0.33045852068E+03 -0.71494685344E+03  0.95684558339E+03  0.10100000352E+00 0. -1.
</event>
<event>
 5   0  0.6618060E-05  0.1300029E+04  0.7818609E-02  0.9029542E-01
       -2   -1    0    0    0  501  0.00000000000E+00  0.00000000000E+00  0.12588760776E+04  0.12588760776E+04  0.25500000920E-02 0. -1.
        2   -1    0    0  501    0  0.00000000000E+00  0.00000000000E+00 -0.33563193637E+03  0.33563193638E+03  0.25500000920E-02 0.  1.
    10030    2    1    2    0    0  0.00000000000E+00  0.00000000000E+00  0.92324414124E+03  0.15945080140E+04  0.13000292544E+04 0.  0.
        2    1    3    3  502    0  0.14405083149E+03  0.34827505432E+03 -0.18793752478E+03  0.42114922384E+03  0.25500000920E-02 0.  1.
       -2    1    3    3    0  502 -0.14405083149E+03 -0.34827505432E+03  0.11111816660E+04  0.11733587901E+04  0.25500000920E-02 0. -1.
</event>
<event>
 5   0  0.6671239E-05  0.1300189E+04  0.7818609E-02  0.9029415E-01
       -2   -1    0    0    0  501  0.00000000000E+00  0.00000000000E+00  0.34978335808E+03  0.34978335809E+03  0.25500000920E-02 0.  1.
        2   -1    0    0  501    0  0.00000000000E+00  0.00000000000E+00 -0.12082425322E+04  0.12082425322E+04  0.25500000920E-02 0. -1.
    10030    2    1    2    0    0  0.00000000000E+00  0.00000000000E+00 -0.85845917413E+03  0.15580258903E+04  0.13001894174E+04 0.  0.
        1    1    3    3  502    0 -0.47051873487E+03 -0.74173302374E+02 -0.95938195289E+03  0.10711224441E+04  0.50400001928E-02 0. -1.
       -1    1    3    3    0  502  0.47051873487E+03  0.74173302374E+02  0.10092277876E+03  0.48690344623E+03  0.50400001928E-02 0.  1.
</event>
<event>
 5   0  0.3552698E-05  0.1299562E+04  0.7818609E-02  0.9029913E-01
       -1   -1    0    0    0  501  0.00000000000E+00  0.00000000000E+00  0.41076840047E+03  0.41076840050E+03  0.50400001928E-02 0.  1.
        1   -1    0    0  501    0  0.00000000000E+00  0.00000000000E+00 -0.10278671921E+04  0.10278671921E+04  0.50400001928E-02 0. -1.
    10030    2    1    2    0    0  0.00000000000E+00  0.00000000000E+00 -0.61709879161E+03  0.14386355926E+04  0.12995620223E+04 0.  0.
        5    1    3    3  502    0  0.62944618789E+03 -0.31338690384E+02 -0.13348454369E+03  0.64422420815E+03  0.46999998093E+01 0.  1.
       -5    1    3    3    0  502 -0.62944618789E+03  0.31338690384E+02 -0.48361424792E+03  0.79441138446E+03  0.46999998093E+01 0. -1.
</event>
<event>
 5   0  0.3552698E-05  0.1300131E+04  0.7818609E-02  0.9029461E-01
        1   -1    0    0  501    0  0.00000000000E+00  0.00000000000E+00  0.92441671718E+03  0.92441671719E+03  0.50400001928E-02 0.  1.
       -1   -1    0    0    0  501  0.00000000000E+00  0.00000000000E+00 -0.45713721331E+03  0.45713721333E+03  0.50400001928E-02 0. -1.
    10030    2    1    2    0    0  0.00000000000E+00  0.00000000000E+00  0.46727950387E+03  0.13815539305E+04  0.13001311965E+04 0.  0.
        5    1    3    3  502    0 -0.41042221343E+03 -0.27506895273E+03 -0.21525409121E+03  0.53894873208E+03  0.46999998093E+01 0. -1.
       -5    1    3    3    0  502  0.41042221343E+03  0.27506895273E+03  0.68253359508E+03  0.84260519845E+03  0.46999998093E+01 0.  1.
</event>
<event>
 5   0  0.6618060E-05  0.1300058E+04  0.7818609E-02  0.9029519E-01
        2   -1    0    0  501    0  0.00000000000E+00  0.00000000000E+00  0.39870839634E+03  0.39870839634E+03  0.25500000920E-02 0. -1.
       -2   -1    0    0    0  501  0.00000000000E+00  0.00000000000E+00 -0.10597659225E+04  0.10597659225E+04  0.25500000920E-02 0.  1.
    10030    2    1    2    0    0  0.00000000000E+00  0.00000000000E+00 -0.66105752612E+03  0.14584743188E+04  0.13000578009E+04 0.  0.
        2    1    3    3  502    0  0.22026003290E+03  0.32624102203E+03  0.24979582411E+03  0.46620343231E+03  0.25500000920E-02 0. -1.
       -2    1    3    3    0  502 -0.22026003290E+03 -0.32624102203E+03 -0.91085335023E+03  0.99227088649E+03  0.25500000920E-02 0.  1.
</event>
<event>
 5   0  0.3631841E-05  0.1298936E+04  0.7818609E-02  0.9030409E-01
        1   -1    0    0  501    0  0.00000000000E+00  0.00000000000E+00  0.56867722781E+03  0.56867722784E+03  0.50400001928E-02 0.  1.
       -1   -1    0    0    0  501  0.00000000000E+00  0.00000000000E+00 -0.74173701025E+03  0.74173701026E+03  0.50400001928E-02 0. -1.
    10030    2    1    2    0    0  0.00000000000E+00  0.00000000000E+00 -0.17305978243E+03  0.13104142381E+04  0.12989364061E+04 0.  0.
        3    1    3    3  502    0 -0.22456560359E+03  0.26471580271E+03 -0.64029261432E+03  0.72833976184E+03  0.10100000352E+00 0. -1.
       -3    1    3    3    0  502  0.22456560359E+03 -0.26471580271E+03  0.46723283189E+03  0.58207447626E+03  0.10100000352E+00 0.  1.
</event>
<event>
 5   0  0.3552698E-05  0.1300438E+04  0.7818609E-02  0.9029218E-01
        1   -1    0    0  501    0  0.00000000000E+00  0.00000000000E+00  0.10499575745E+04  0.10499575746E+04  0.50400001928E-02 0. -1.
       -1   -1    0    0    0  501  0.00000000000E+00  0.00000000000E+00 -0.40266828133E+03  0.40266828137E+03  0.50400001928E-02 0.  1.
    10030    2    1    2    0    0  0.00000000000E+00  0.00000000000E+00  0.64728929321E+03  0.14526258559E+04  0.13004377910E+04 0.  0.
        5    1    3    3  502    0 -0.21189618594E+03 -0.41508214390E+03  0.83010256021E+03  0.95199029946E+03  0.46999998093E+01 0. -1.
       -5    1    3    3    0  502  0.21189618594E+03  0.41508214390E+03 -0.18281326700E+03  0.50063555646E+03  0.46999998093E+01 0.  1.
</event>
<event>
 5   0  0.2512000E-05  0.1299977E+04  0.7818609E-02  0.9029584E-01
       -4   -1    0    0    0  501  0.00000000000E+00  0.00000000000E+00  0.97543549924E+03  0.97543632600E+03  0.12699999809E+01 0.  1.
        4   -1    0    0  501    0  0.00000000000E+00  0.00000000000E+00 -0.43312232897E+03  0.43312419091E+03  0.12699999809E+01 0. -1.
    10030    2    1    2    0    0  0.00000000000E+00  0.00000000000E+00  0.54231317027E+03  0.14085605169E+04  0.12999765979E+04 0.  0.
        2    1    3    3  502    0 -0.25902176146E+03 -0.34166379311E+03  0.80048878075E+03  0.90807968182E+03  0.25500000920E-02 0.  1.
       -2    1    3    3    0  502  0.25902176146E+03  0.34166379311E+03 -0.25817561048E+03  0.50048083508E+03  0.25500000920E-02 0. -1.
</event>
<event>
 5   0  0.6458698E-05  0.1299446E+04  0.7818609E-02  0.9030005E-01
       -2   -1    0    0    0  501  0.00000000000E+00  0.00000000000E+00  0.49166971039E+03  0.49166971040E+03  0.25500000920E-02 0.  1.
        2   -1    0    0  501    0  0.00000000000E+00  0.00000000000E+00 -0.85858392763E+03  0.85858392763E+03  0.25500000920E-02 0. -1.
    10030    2    1    2    0    0  0.00000000000E+00  0.00000000000E+00 -0.36691421724E+03  0.13502536380E+04  0.12994455911E+04 0.  0.
        3    1    3    3  502    0 -0.42455737642E+02 -0.67643001270E+02  0.48655007994E+03  0.49306090472E+03  0.10100000352E+00 0.  1.
       -3    1    3    3    0  502  0.42455737642E+02  0.67643001270E+02 -0.85346429718E+03  0.85719273331E+03  0.10100000352E+00 0. -1.
</event>
<event>
 5   0  0.3552698E-05  0.1299702E+04  0.7818609E-02  0.9029802E-01
        1   -1    0    0  501    0  0.00000000000E+00  0.00000000000E+00  0.46760795301E+03  0.46760795303E+03  0.50400001928E-02 0.  1.
       -1   -1    0    0    0  501  0.00000000000E+00  0.00000000000E+00 -0.90312032478E+03  0.90312032479E+03  0.50400001928E-02 0. -1.
    10030    2    1    2    0    0  0.00000000000E+00  0.00000000000E+00 -0.43551237177E+03  0.13707282778E+04  0.12997018834E+04 0.  0.
        5    1    3    3  502    0 -0.18287086419E+03 -0.35222051460E+03  0.32493499683E+03  0.51293848173E+03  0.46999998093E+01 0.  1.
       -5    1    3    3    0  502  0.18287086419E+03  0.35222051460E+03 -0.76044736860E+03  0.85778979610E+03  0.46999998093E+01 0. -1.
</event>
<event>
 5   0  0.6618060E-05  0.1299928E+04  0.7818609E-02  0.9029623E-01
       -2   -1    0    0    0  501  0.00000000000E+00  0.00000000000E+00  0.23509923763E+03  0.23509923764E+03  0.25500000920E-02 0.  1.
        2   -1    0    0  501    0  0.00000000000E+00  0.00000000000E+00 -0.17969134469E+04  0.17969134469E+04  0.25500000920E-02 0. -1.
    10030    2    1    2    0    0  0.00000000000E+00  0.00000000000E+00 -0.15618142093E+04  0.20320126845E+04  0.12999276618E+04 0.  0.
        2    1    3    3  502    0  0.99906791676E+02  0.31172935606E+01 -0.17848271978E+04  0.17876239008E+04  0.25500000920E-02 0. -1.
       -2    1    3    3    0  502 -0.99906791676E+02 -0.31172935606E+01  0.22301298857E+03  0.24438878375E+03  0.25500000920E-02 0.  1.
</event>
<event>
 5   0  0.3689707E-05  0.1300224E+04  0.7818609E-02  0.9029388E-01
        1   -1    0    0  501    0  0.00000000000E+00  0.00000000000E+00  0.40222679842E+03  0.40222679846E+03  0.50400001928E-02 0.  1.
       -1   -1    0    0    0  501  0.00000000000E+00  0.00000000000E+00 -0.10507637205E+04  0.10507637206E+04  0.50400001928E-02 0. -1.
    10030    2    1    2    0    0  0.00000000000E+00  0.00000000000E+00 -0.64853692212E+03  0.14529905190E+04  0.13002235612E+04 0.  0.
        1    1    3    3  502    0  0.16696763201E+02 -0.55964527510E+03  0.44950414356E+02  0.56169578565E+03  0.50400001928E-02 0.  1.
       -1    1    3    3    0  502 -0.16696763201E+02  0.55964527510E+03 -0.69348733648E+03  0.89129473336E+03  0.50400001928E-02 0. -1.
</event>
<event>
 5   0  0.2512000E-05  0.1300768E+04  0.7818609E-02  0.9028956E-01
       -3   -1    0    0    0  501  0.00000000000E+00  0.00000000000E+00  0.43818909335E+03  0.43818910499E+03  0.10100000352E+00 0. -1.
        3   -1    0    0  501    0  0.00000000000E+00  0.00000000000E+00 -0.96533503890E+03  0.96533504418E+03  0.10100000352E+00 0.  1.
    10030    2    1    2    0    0  0.00000000000E+00  0.00000000000E+00 -0.52714594555E+03  0.14035241492E+04  0.13007679230E+04 0.  0.
        4    1    3    3  502    0  0.21427781966E+03  0.44908331411E+03 -0.71547405313E+03  0.87149041338E+03  0.12699999809E+01 0.  1.
       -4    1    3    3    0  502 -0.21427781966E+03 -0.44908331411E+03  0.18832810758E+03  0.53203373579E+03  0.12699999809E+01 0. -1.
</event>
<event>
 5   0  0.6458698E-05  0.1298944E+04  0.7818609E-02  0.9030403E-01
        2   -1    0    0  501    0  0.00000000000E+00  0.00000000000E+00  0.89454138890E+03  0.89454138891E+03  0.25500000920E-02 0. -1.
       -2   -1    0    0    0  501  0.00000000000E+00  0.00000000000E+00 -0.47154228797E+03  0.47154228798E+03  0.25500000920E-02 0.  1.
    10030    2    1    2    0    0  0.00000000000E+00  0.00000000000E+00  0.42299910093E+03  0.13660836769E+04  0.12989443302E+04 0.  0.
        3    1    3    3  502    0  0.16742815491E+03  0.61671122507E+03  0.33346430805E+03  0.72080744803E+03  0.10100000352E+00 0. -1.
       -3    1    3    3    0  502 -0.16742815491E+03 -0.61671122507E+03  0.89534792880E+02  0.64527622886E+03  0.10100000352E+00 0.  1.
</event>
<event>
 5   0  0.3718559E-05  0.1300044E+04  0.7818609E-02  0.9029530E-01
        1   -1    0    0  501    0  0.00000000000E+00  0.00000000000E+00  0.74427689201E+03  0.74427689202E+03  0.50400001928E-02 0. -1.
       -1   -1    0    0    0  501  0.00000000000E+00  0.00000000000E+00 -0.56770383431E+03  0.56770383433E+03  0.50400001928E-02 0.  1.
    10030    2    1    2    0    0  0.00000000000E+00  0.00000000000E+00  0.17657305770E+03  0.13119807264E+04  0.13000443768E+04 0.  0.
        2    1    3    3  502    0 -0.20056498979E+03 -0.37440667052E+03 -0.40829042668E+03  0.58915850379E+03  0.25500000920E-02 0.  1.
       -2    1    3    3    0  502  0.20056498979E+03  0.37440667052E+03  0.58486348438E+03  0.72282222256E+03  0.25500000920E-02 0. -1.
</event>
<event>
 5   0  0.3631841E-05  0.1299035E+04  0.7818609E-02  0.9030331E-01
       -1   -1    0    0    0  501  0.00000000000E+00  0.00000000000E+00  0.90240619700E+03  0.90240619702E+03  0.50400001928E-02 0.  1.
        1   -1    0    0  501    0  0.00000000000E+00  0.00000000000E+00 -0.46749764962E+03  0.46749764965E+03  0.50400001928E-02 0. -1.
    10030    2    1    2    0    0  0.00000000000E+00  0.00000000000E+00  0.43490854738E+03  0.13699038467E+04  0.12990346818E+04 0.  0.
        3    1    3    3  502    0 -0.57928866360E+03  0.21599610435E+03  0.74862767960E+01  0.61829259045E+03  0.10100000352E+00 0. -1.
       -3    1    3    3    0  502  0.57928866360E+03 -0.21599610435E+03  0.42742227059E+03  0.75161125621E+03  0.10100000352E+00 0.  1.
</event>
<event>
 5   0  0.3552698E-05  0.1300390E+04  0.7818609E-02  0.9029256E-01
        1   -1    0    0  501    0  0.00000000000E+00  0.00000000000E+00  0.11907001124E+04  0.11907001124E+04  0.50400001928E-02 0.  1.
       -1   -1    0    0    0  501  0.00000000000E+00  0.00000000000E+00 -0.35504636457E+03  0.35504636460E+03  0.50400001928E-02 0. -1.
    10030    2    1    2    0    0  0.00000000000E+00  0.00000000000E+00  0.83565374784E+03  0.15457464770E+04  0.13003903202E+04 0.  0.
        5    1    3    3  502    0  0.27168852969E+03 -0.57498988180E+03  0.57864433800E+03  0.85981357353E+03  0.46999998093E+01 0.  1.
       -5    1    3    3    0  502 -0.27168852969E+03  0.57498988180E+03  0.25700940985E+03  0.68593290349E+03  0.46999998093E+01 0. -1.
</event>
<event>
 5   0  0.3718559E-05  0.1300852E+04  0.7818609E-02  0.9028890E-01
       -1   -1    0    0    0  501  0.00000000000E+00  0.00000000000E+00  0.87380790449E+03  0.87380790450E+03  0.50400001928E-02 0.  1.
        1   -1    0    0  501    0  0.00000000000E+00  0.00000000000E+00 -0.48414979629E+03  0.48414979631E+03  0.50400001928E-02 0. -1.
    10030    2    1    2    0    0  0.00000000000E+00  0.00000000000E+00  0.38965810820E+03  0.13579577008E+04  0.13008519039E+04 0.  0.
        2    1    3    3  502    0  0.34092533364E+03 -0.52171368535E+03  0.38911391769E+03  0.73472776833E+03  0.25500000920E-02 0.  1.
       -2    1    3    3    0  502 -0.34092533364E+03  0.52171368535E+03  0.54419050691E+00  0.62322993249E+03  0.25500000920E-02 0. -1.
</event>
<event>
 5   0  0.6742824E-05  0.1296674E+04  0.7818609E-02  0.9032207E-01
        2   -1    0    0  501    0  0.00000000000E+00  0.00000000000E+00  0.71984696437E+03  0.71984696437E+03  0.25500000920E-02 0.  1.
       -2   -1    0    0    0  501  0.00000000000E+00  0.00000000000E+00 -0.58393057599E+03  0.58393057600E+03  0.25500000920E-02 0. -1.
    10030    2    1    2    0    0  0.00000000000E+00  0.00000000000E+00  0.13591638837E+03  0.13037775404E+04  0.12966736714E+04 0.  0.
        4    1    3    3  502    0 -0.24359505367E+03 -0.41533736964E+03 -0.36858089036E+03  0.60638038097E+03  0.12699999809E+01 0. -1.
       -4    1    3    3    0  502  0.24359505367E+03  0.41533736964E+03  0.50449727873E+03  0.69739715940E+03  0.12699999809E+01 0.  1.
</event>
<event>
 5   0  0.3551277E-05  0.1300501E+04  0.7818609E-02  0.9029168E-01
        1   -1    0    0  501    0  0.00000000000E+00  0.00000000000E+00  0.10600140879E+04  0.10600140879E+04  0.50400001928E-02 0. -1.
       -1   -1    0    0    0  501  0.00000000000E+00  0.00000000000E+00 -0.39888670797E+03  0.39888670800E+03  0.50400001928E-02 0.  1.
    10030    2    1    2    0    0  0.00000000000E+00  0.00000000000E+00  0.66112737996E+03  0.14589007959E+04  0.13005007189E+04 0.  0.
        4    1    3    3  502    0  0.10822981185E+03  0.61861861753E+03  0.14144406136E+03  0.64374740506E+03  0.12699999809E+01 0.  1.
       -4    1    3    3    0  502 -0.10822981185E+03 -0.61861861753E+03  0.51968331860E+03  0.81515339087E+03  0.12699999809E+01 0. -1.
</event>
<event>
 5   0  0.3631841E-05  0.1299900E+04  0.7818609E-02  0.9029645E-01
       -1   -1    0    0    0  501  0.00000000000E+00  0.00000000000E+00  0.11404025870E+04  0.11404025870E+04  0.50400001928E-02 0. -1.
        1   -1    0    0  501    0  0.00000000000E+00  0.00000000000E+00 -0.37042603327E+03  0.37042603331E+03  0.50400001928E-02 0.  1.
    10030    2    1    2    0    0  0.00000000000E+00  0.00000000000E+00  0.76997655368E+03  0.15108286203E+04  0.12998996987E+04 0.  0.
        3    1    3    3  502    0  0.63043137242E+03  0.82117530886E+02  0.22798434662E+03  0.67539904998E+03  0.10100000352E+00 0.  1.
       -3    1    3    3    0  502 -0.63043137242E+03 -0.82117530886E+02  0.54199220706E+03  0.83542957029E+03  0.10100000352E+00 0. -1.
</event>
<event>
 5   0  0.2512000E-05  0.1300313E+04  0.7818609E-02  0.9029317E-01
       -4   -1    0    0    0  501  0.00000000000E+00  0.00000000000E+00  0.85666847603E+03  0.85666941741E+03  0.12699999809E+01 0.  1.
        4   -1    0    0  501    0  0.00000000000E+00  0.00000000000E+00 -0.49342497578E+03  0.49342661017E+03  0.12699999809E+01 0. -1.
    10030    2    1    2    0    0  0.00000000000E+00  0.00000000000E+00  0.36324350025E+03  0.13500960276E+04  0.13003128251E+04 0.  0.
        3    1    3    3  502    0 -0.20181946171E+03 -0.52855181308E+03 -0.15096242117E+03  0.58556620210E+03  0.10100000352E+00 0. -1.
       -3    1    3    3    0  502  0.20181946171E+03  0.52855181308E+03  0.51420592142E+03  0.76452982549E+03  0.10100000352E+00 0.  1.
</event>
<event>
 5   0  0.6671239E-05  0.1299882E+04  0.7818609E-02  0.9029659E-01
       -2   -1    0    0    0  501  0.00000000000E+00  0.00000000000E+00  0.51166905986E+03  0.51166905986E+03  0.25500000920E-02 0.  1.
        2   -1    0    0  501    0  0.00000000000E+00  0.00000000000E+00 -0.82557881742E+03  0.82557881742E+03  0.25500000920E-02 0. -1.
    10030    2    1    2    0    0  0.00000000000E+00  0.00000000000E+00 -0.31390975756E+03  0.13372478773E+04  0.12998817444E+04 0.  0.
        1    1    3    3  502    0 -0.33713551887E+03 -0.43443564401E+03  0.19945536052E+03  0.58495908210E+03  0.50400001928E-02 0.  1.
       -1    1    3    3    0  502  0.33713551887E+03  0.43443564401E+03 -0.51336511808E+03  0.75228879518E+03  0.50400001928E-02 0. -1.
</event>
<event>
 5   0  0.6458698E-05  0.1299828E+04  0.7818609E-02  0.9029702E-01
       -2   -1    0    0    0  501  0.00000000000E+00  0.00000000000E+00  0.37010251032E+03  0.37010251033E+03  0.25500000920E-02 0. -1.
        2   -1    0    0  501    0  0.00000000000E+00  0.00000000000E+00 -0.11412731972E+04  0.11412731972E+04  0.25500000920E-02 0.  1.
    10030    2    1    2    0    0  0.00000000000E+00  0.00000000000E+00 -0.77117068692E+03  0.15113757076E+04  0.12998277967E+04 0.  0.
        3    1    3    3  502    0 -0.47895921027E+03 -0.29832056378E+03 -0.10625762298E+02  0.56436690273E+03  0.10100000352E+00 0. -1.
       -3    1    3    3    0  502  0.47895921027E+03  0.29832056378E+03 -0.76054492462E+03  0.94700880484E+03  0.10100000352E+00 0.  1.
</event>
<event>
 5   0  0.6458698E-05  0.1300324E+04  0.7818609E-02  0.9029309E-01
        2   -1    0    0  501    0  0.00000000000E+00  0.00000000000E+00  0.40594143372E+03  0.40594143372E+03  0.25500000920E-02 0. -1.
       -2   -1    0    0    0  501  0.00000000000E+00  0.00000000000E+00 -0.10413087396E+04  0.10413087397E+04  0.25500000920E-02 0.  1.
    10030    2    1    2    0    0  0.00000000000E+00  0.00000000000E+00 -0.63536730593E+03  0.14472501734E+04  0.13003235947E+04 0.  0.
        3    1    3    3  502    0 -0.14078794820E+03  0.45321942114E+03  0.17691748898E+03  0.50648681934E+03  0.10100000352E+00 0. -1.
       -3    1    3    3    0  502  0.14078794820E+03 -0.45321942114E+03 -0.81228479491E+03  0.94076335404E+03  0.10100000352E+00 0.  1.
</event>
<event>
 5   0  0.3551277E-05  0.1295778E+04  0.7818609E-02  0.9032920E-01
       -1   -1    0    0    0  501  0.00000000000E+00  0.00000000000E+00  0.72199247361E+03  0.72199247363E+03  0.50400001928E-02 0. -1.
        1   -1    0    0  501    0  0.00000000000E+00  0.00000000000E+00 -0.58139101095E+03  0.58139101097E+03  0.50400001928E-02 0.  1.
    10030    2    1    2    0    0  0.00000000000E+00  0.00000000000E+00  0.14060146266E+03  0.13033834846E+04  0.12957776571E+04 0.  0.
        4    1    3    3  502    0  0.10224162857E+02 -0.61561813351E+03  0.27314777173E+03  0.67357370637E+03  0.12699999809E+01 0. -1.
       -4    1    3    3    0  502 -0.10224162857E+02  0.61561813351E+03 -0.13254630907E+03  0.62980977823E+03  0.12699999809E+01 0.  1.
</event>
<event>
 5   0  0.6671239E-05  0.1299800E+04  0.7818609E-02  0.9029724E-01
       -2   -1    0    0    0  501  0.00000000000E+00  0.00000000000E+00  0.52541310132E+03  0.52541310133E+03  0.25500000920E-02 0. -1.
        2   -1    0    0  501    0  0.00000000000E+00  0.00000000000E+00 -0.80388154111E+03  0.80388154111E+03  0.25500000920E-02 0.  1.
    10030    2    1    2    0    0  0.00000000000E+00  0.00000000000E+00 -0.27846843979E+03  0.13292946424E+04  0.12997998209E+04 0.  0.
        1    1    3    3  502    0 -0.62461304972E+03  0.11161644053E+03 -0.28303138822E+03  0.69477079560E+03  0.50400001928E-02 0. -1.
       -1    1    3    3    0  502  0.62461304972E+03 -0.11161644053E+03  0.45629484261E+01  0.63452384684E+03  0.50400001928E-02 0.  1.
</event>
<event>
 5   0  0.3718559E-05  0.1300883E+04  0.7818609E-02  0.9028865E-01
       -1   -1    0    0    0  501  0.00000000000E+00  0.00000000000E+00  0.11110800338E+04  0.11110800338E+04  0.50400001928E-02 0. -1.
        1   -1    0    0  501    0  0.00000000000E+00  0.00000000000E+00 -0.38077762523E+03  0.38077762526E+03  0.50400001928E-02 0.  1.
    10030    2    1    2    0    0  0.00000000000E+00  0.00000000000E+00  0.73030240859E+03  0.14918576591E+04  0.13008834179E+04 0.  0.
        2    1    3    3  502    0  0.64295442634E+03 -0.23053703536E+02  0.25543771048E+03  0.69222127354E+03  0.25500000920E-02 0. -1.
       -2    1    3    3    0  502 -0.64295442634E+03  0.23053703536E+02  0.47486469811E+03  0.79963638556E+03  0.25500000920E-02 0.  1.
</event>
<event>
 5   0  0.3689707E-05  0.1300950E+04  0.7818609E-02  0.9028812E-01
        1   -1    0    0  501    0  0.00000000000E+00  0.00000000000E+00  0.44529247571E+03  0.44529247574E+03  0.50400001928E-02 0.  1.
       -1   -1    0    0    0  501  0.00000000000E+00  0.00000000000E+00 -0.95020147294E+03  0.95020147295E+03  0.50400001928E-02 0. -1.
    10030    2    1    2    0    0  0.00000000000E+00  0.00000000000E+00 -0.50490899722E+03  0.13954939487E+04  0.13009497551E+04 0.  0.
        1    1    3    3  502    0  0.27098169946E+03 -0.44157682097E+03 -0.67435256206E+03  0.85039552459E+03  0.50400001928E-02 0. -1.
       -1    1    3    3    0  502 -0.27098169946E+03  0.44157682097E+03  0.16944356484E+03  0.54509842410E+03  0.50400001928E-02 0.  1.
</event>
<event>
 5   0  0.3552698E-05  0.1300100E+04  0.7818609E-02  0.9029486E-01
        1   -1    0    0  501    0  0.00000000000E+00  0.00000000000E+00  0.12919428635E+04  0.12919428635E+04  0.50400001928E-02 0. -1.
       -1   -1    0    0    0  501  0.00000000000E+00  0.00000000000E+00 -0.32707701055E+03  0.32707701059E+03  0.50400001928E-02 0.  1.
    10030    2    1    2    0    0  0.00000000000E+00  0.00000000000E+00  0.96486585291E+03  0.16190198741E+04  0.13000997033E+04 0.  0.
        5    1    3    3  502    0  0.49312722649E+03 -0.11614440213E+03 -0.24757303813E+02  0.50724648618E+03  0.46999998093E+01 0.  1.
       -5    1    3    3    0  502 -0.49312722649E+03  0.11614440213E+03  0.98962315673E+03  0.11117733879E+04  0.46999998093E+01 0. -1.
</event>
<event>
 5   0  0.6618060E-05  0.1300498E+04  0.7818609E-02  0.9029171E-01
        2   -1    0    0  501    0  0.00000000000E+00  0.00000000000E+00  0.59602244720E+03  0.59602244720E+03  0.25500000920E-02 0.  1.
       -2   -1    0    0    0  501  0.00000000000E+00  0.00000000000E+00 -0.70940873030E+03  0.70940873031E+03  0.25500000920E-02 0. -1.
    10030    2    1    2    0    0  0.00000000000E+00  0.00000000000E+00 -0.11338628311E+03  0.13054311775E+04  0.13004976394E+04 0.  0.
        2    1    3    3  502    0  0.41814010823E+03  0.32953195925E+03  0.31807432334E+03  0.62016428264E+03  0.25500000920E-02 0.  1.
       -2    1    3    3    0  502 -0.41814010823E+03 -0.32953195925E+03 -0.43146060645E+03  0.68526689487E+03  0.25500000920E-02 0. -1.
</event>
<event>
 5   0  0.6671239E-05  0.1296644E+04  0.7818609E-02  0.9032230E-01
        2   -1    0    0  501    0  0.00000000000E+00  0.00000000000E+00  0.61433720499E+03  0.61433720499E+03  0.25500000920E-02 0.  1.
       -2   -1    0    0    0  501  0.00000000000E+00  0.00000000000E+00 -0.68418722429E+03  0.68418722429E+03  0.25500000920E-02 0. -1.
    10030    2    1    2    0    0  0.00000000000E+00  0.00000000000E+00 -0.69850019298E+02  0.12985244293E+04  0.12966443877E+04 0.  0.
        1    1    3    3  502    0  0.56356146360E+01 -0.26785776316E+03 -0.62615557432E+03  0.68106559502E+03  0.50400001928E-02 0. -1.
       -1    1    3    3    0  502 -0.56356146360E+01  0.26785776316E+03  0.55630555502E+03  0.61745883427E+03  0.50400001928E-02 0.  1.
</event>
<event>
 5   0  0.6688086E-05  0.1299066E+04  0.7818609E-02  0.9030306E-01
       -2   -1    0    0    0  501  0.00000000000E+00  0.00000000000E+00  0.29229919744E+03  0.29229919745E+03  0.25500000920E-02 0. -1.
        2   -1    0    0  501    0  0.00000000000E+00  0.00000000000E+00 -0.14433604607E+04  0.14433604607E+04  0.25500000920E-02 0.  1.
    10030    2    1    2    0    0  0.00000000000E+00  0.00000000000E+00 -0.11510612633E+04  0.17356596582E+04  0.12990659788E+04 0.  0.
        5    1    3    3  502    0  0.53476448640E+03  0.24320528008E+03 -0.20538711425E+03  0.62235666693E+03  0.46999998093E+01 0. -1.
       -5    1    3    3    0  502 -0.53476448640E+03 -0.24320528008E+03 -0.94567414903E+03  0.11133029913E+04  0.46999998093E+01 0.  1.
</event>
<event>
 5   0  0.2512000E-05  0.1299683E+04  0.7818609E-02  0.9029817E-01
       -3   -1    0    0    0  501  0.00000000000E+00  0.00000000000E+00  0.68530245778E+03  0.68530246522E+03  0.10100000352E+00 0. -1.
        3   -1    0    0  501    0  0.00000000000E+00  0.00000000000E+00 -0.61621552814E+03  0.61621553642E+03  0.10100000352E+00 0.  1.
    10030    2    1    2    0    0  0.00000000000E+00  0.00000000000E+00  0.69086929635E+02  0.13015180016E+04  0.12996830786E+04 0.  0.
        2    1    3    3  502    0 -0.36725234910E+03  0.53465113211E+03  0.74196151048E+02  0.65286383713E+03  0.25500000920E-02 0.  1.
       -2    1    3    3    0  502  0.36725234910E+03 -0.53465113211E+03 -0.51092214125E+01  0.64865416452E+03  0.25500000920E-02 0. -1.
</event>
<event>
 5   0  0.2512000E-05  0.1300346E+04  0.7818609E-02  0.9029291E-01
        4   -1    0    0  501    0  0.00000000000E+00  0.00000000000E+00  0.52296792065E+03  0.52296946271E+03  0.12699999809E+01 0.  1.
       -4   -1    0    0    0  501  0.00000000000E+00  0.00000000000E+00 -0.80831522079E+03  0.80831621849E+03  0.12699999809E+01 0. -1.
    10030    2    1    2    0    0  0.00000000000E+00  0.00000000000E+00 -0.28534730014E+03  0.13312856812E+04  0.13003455246E+04 0.  0.
        1    1    3    3  502    0  0.26641509692E+03 -0.56376113475E+03  0.45885154537E+02  0.62522721338E+03  0.50400001928E-02 0. -1.
       -1    1    3    3    0  502 -0.26641509692E+03  0.56376113475E+03 -0.33123245468E+03  0.70605846782E+03  0.50400001928E-02 0.  1.
</event>
<event>
 5   0  0.6742824E-05  0.1300074E+04  0.7818609E-02  0.9029506E-01
        2   -1    0    0  501    0  0.00000000000E+00  0.00000000000E+00  0.78498593240E+03  0.78498593240E+03  0.25500000920E-02 0.  1.
       -2   -1    0    0    0  501  0.00000000000E+00  0.00000000000E+00 -0.53828758133E+03  0.53828758134E+03  0.25500000920E-02 0. -1.
    10030    2    1    2    0    0  0.00000000000E+00  0.00000000000E+00  0.24669835107E+03  0.13232735137E+04  0.13000741193E+04 0.  0.
        4    1    3    3  502    0 -0.31512863347E+03  0.17050486235E+03  0.67540076616E+03  0.76455593095E+03  0.12699999809E+01 0.  1.
       -4    1    3    3    0  502  0.31512863347E+03 -0.17050486235E+03 -0.42870241509E+03  0.55871758279E+03  0.12699999809E+01 0. -1.
</event>
<event>
 5   0  0.6671239E-05  0.1300076E+04  0.7818609E-02  0.9029505E-01
       -2   -1    0    0    0  501  0.00000000000E+00  0.00000000000E+00  0.66224567426E+03  0.66224567426E+03  0.25500000920E-02 0.  1.
        2   -1    0    0  501    0  0.00000000000E+00  0.00000000000E+00 -0.63805564827E+03  0.63805564828E+03  0.25500000920E-02 0. -1.
    10030    2    1    2    0    0  0.00000000000E+00  0.00000000000E+00  0.24190025986E+02  0.13003013225E+04  0.13000762947E+04 0.  0.
        1    1    3    3  502    0 -0.15954888504E+03  0.40223077941E+03 -0.47307053622E+03  0.64112493236E+03  0.50400001928E-02 0. -1.
       -1    1    3    3    0  502  0.15954888504E+03 -0.40223077941E+03  0.49726056221E+03  0.65917639018E+03  0.50400001928E-02 0.  1.
</event>
<event>
 5   0  0.3689707E-05  0.1301437E+04  0.7818609E-02  0.9028426E-01
        1   -1    0    0  501    0  0.00000000000E+00  0.00000000000E+00  0.38311964554E+03  0.38311964558E+03  0.50400001928E-02 0. -1.
       -1   -1    0    0    0  501  0.00000000000E+00  0.00000000000E+00 -0.11052283566E+04  0.11052283566E+04  0.50400001928E-02 0.  1.
    10030    2    1    2    0    0  0.00000000000E+00  0.00000000000E+00 -0.72210871102E+03  0.14883480022E+04  0.13014371998E+04 0.  0.
        1    1    3    3  502    0  0.17695689100E+03  0.61770024646E+03 -0.24349301386E+03  0.68713621908E+03  0.50400001928E-02 0. -1.
       -1    1    3    3    0  502 -0.17695689100E+03 -0.61770024646E+03 -0.47861569716E+03  0.80121178308E+03  0.50400001928E-02 0.  1.
</event>
<event>
 5   0  0.3552698E-05  0.1299520E+04  0.7818609E-02  0.9029946E-01
       -1   -1    0    0    0  501  0.00000000000E+00  0.00000000000E+00  0.12489755429E+04  0.12489755429E+04  0.50400001928E-02 0.  1.
        1   -1    0    0  501    0  0.00000000000E+00  0.00000000000E+00 -0.33802726821E+03  0.33802726825E+03  0.50400001928E-02 0. -1.
    10030    2    1    2    0    0  0.00000000000E+00  0.00000000000E+00  0.91094827472E+03  0.15870028112E+04  0.12995195895E+04 0.  0.
        5    1    3    3  502    0 -0.57706983463E+03 -0.29652842254E+03  0.49825183502E+03  0.81805603751E+03  0.46999998093E+01 0. -1.
       -5    1    3    3    0  502  0.57706983463E+03  0.29652842254E+03  0.41269643970E+03  0.76894677368E+03  0.46999998093E+01 0.  1.
</event>
<event>
 5   0  0.6688086E-05  0.1298876E+04  0.7818609E-02  0.9030457E-01
       -2   -1    0    0    0  501  0.00000000000E+00  0.00000000000E+00  0.52477702658E+03  0.52477702658E+03  0.25500000920E-02 0. -1.
        2   -1    0    0  501    0  0.00000000000E+00  0.00000000000E+00 -0.80371191630E+03  0.80371191630E+03  0.25500000920E-02 0.  1.
    10030    2    1    2    0    0  0.00000000000E+00  0.00000000000E+00 -0.27893488972E+03  0.13284889429E+04  0.12988757441E+04 0.  0.
        5    1    3    3  502    0 -0.34754559156E+03  0.51459240119E+03 -0.33394505455E+03  0.70507777375E+03  0.46999998093E+01 0. -1.
       -5    1    3    3    0  502  0.34754559156E+03 -0.51459240119E+03  0.55010164831E+02  0.62341116914E+03  0.46999998093E+01 0.  1.
</event>
<event>
 5   0  0.6688086E-05  0.1300354E+04  0.7818609E-02  0.9029285E-01
        2   -1    0    0  501    0  0.00000000000E+00  0.00000000000E+00  0.22115116771E+04  0.22115116771E+04  0.25500000920E-02 0. -1.
       -2   -1    0    0    0  501  0.00000000000E+00  0.00000000000E+00 -0.19114982397E+03  0.19114982399E+03  0.25500000920E-02 0.  1.
    10030    2    1    2    0    0  0.00000000000E+00  0.00000000000E+00  0.20203618531E+04  0.24026615011E+04  0.13003539023E+04 0.  0.
        5    1    3    3  502    0  0.52692419616E+03 -0.37875857245E+03  0.10841076299E+04  0.12634946014E+04  0.46999998093E+01 0. -1.
       -5    1    3    3    0  502 -0.52692419616E+03  0.37875857245E+03  0.93625422324E+03  0.11391668996E+04  0.46999998093E+01 0.  1.
</event>
<event>
 5   0  0.6688086E-05  0.1299949E+04  0.7818609E-02  0.9029606E-01
       -2   -1    0    0    0  501  0.00000000000E+00  0.00000000000E+00  0.43985278232E+03  0.43985278233E+03  0.25500000920E-02 0.  1.
        2   -1    0    0  501    0  0.00000000000E+00  0.00000000000E+00 -0.96047324586E+03  0.96047324586E+03  0.25500000920E-02 0. -1.
    10030    2    1    2    0    0  0.00000000000E+00  0.00000000000E+00 -0.52062046353E+03  0.14003260282E+04  0.12999489675E+04 0.  0.
        5    1    3    3  502    0 -0.59667695041E+03  0.12308462123E+03 -0.16393828885E+02  0.60947851050E+03  0.46999998093E+01 0.  1.
       -5    1    3    3    0  502  0.59667695041E+03 -0.12308462123E+03 -0.50422663465E+03  0.79084751768E+03  0.46999998093E+01 0. -1.
</event>
<event>
 5   0  0.6742824E-05  0.1299499E+04  0.7818609E-02  0.9029963E-01
        2   -1    0    0  501    0  0.00000000000E+00  0.00000000000E+00  0.10260172973E+04  0.10260172973E+04  0.25500000920E-02 0.  1.
       -2   -1    0    0    0  501  0.00000000000E+00  0.00000000000E+00 -0.41146881258E+03  0.41146881259E+03  0.25500000920E-02 0. -1.
    10030    2    1    2    0    0  0.00000000000E+00  0.00000000000E+00  0.61454848474E+03  0.14374861099E+04  0.12994985479E+04 0.  0.
        4    1    3    3  502    0 -0.57292686504E+03  0.24322171122E+03  0.51354297737E+03  0.80692626429E+03  0.12699999809E+01 0.  1.
       -4    1    3    3    0  502  0.57292686504E+03 -0.24322171122E+03  0.10100550737E+03  0.63055984562E+03  0.12699999809E+01 0. -1.
</event>
<event>
 5   0  0.6742824E-05  0.1299762E+04  0.7818609E-02  0.9029754E-01
       -2   -1    0    0    0  501  0.00000000000E+00  0.00000000000E+00  0.26421368216E+03  0.26421368217E+03  0.25500000920E-02 0.  1.
        2   -1    0    0  501    0  0.00000000000E+00  0.00000000000E+00 -0.15984999875E+04  0.15984999875E+04  0.25500000920E-02 0. -1.
    10030    2    1    2    0    0  0.00000000000E+00  0.00000000000E+00 -0.13342863053E+04  0.18627136697E+04  0.12997623900E+04 0.  0.
        4    1    3    3  502    0 -0.20691737836E+03  0.31771550060E+03 -0.14235610402E+04  0.14731889182E+04  0.12699999809E+01 0. -1.
       -4    1    3    3    0  502  0.20691737836E+03 -0.31771550060E+03  0.89274734861E+02  0.38952475142E+03  0.12699999809E+01 0.  1.
</event>
<event>
 5   0  0.3552698E-05  0.1299373E+04  0.7818609E-02  0.9030062E-01
        1   -1    0    0  501    0  0.00000000000E+00  0.00000000000E+00  0.14610426144E+04  0.14610426144E+04  0.50400001928E-02 0. -1.
       -1   -1    0    0    0  501  0.00000000000E+00  0.00000000000E+00 -0.28889823109E+03  0.28889823113E+03  0.50400001928E-02 0.  1.
    10030    2    1    2    0    0  0.00000000000E+00  0.00000000000E+00  0.11721443833E+04  0.17499408455E+04  0.12993731210E+04 0.  0.
        5    1    3    3  502    0 -0.23775435730E+03  0.41135215485E+02  0.13984376573E+04  0.14191085976E+04  0.46999998093E+01 0. -1.
       -5    1    3    3    0  502  0.23775435730E+03 -0.41135215485E+02 -0.22629327405E+03  0.33083224790E+03  0.46999998093E+01 0.  1.
</event>
<event>
 5   0  0.6458698E-05  0.1297382E+04  0.7818609E-02  0.9031644E-01
       -2   -1    0    0    0  501  0.00000000000E+00  0.00000000000E+00  0.49368438362E+03  0.49368438362E+03  0.25500000920E-02 0. -1.
        2   -1    0    0  501    0  0.00000000000E+00  0.00000000000E+00 -0.85236585167E+03  0.85236585168E+03  0.25500000920E-02 0.  1.
    10030    2    1    2    0    0  0.00000000000E+00  0.00000000000E+00 -0.35868146805E+03  0.13460502353E+04  0.12973815323E+04 0.  0.
        3    1    3    3  502    0 -0.21086613532E+03  0.60949609589E+02 -0.81266601242E+03  0.84178705138E+03  0.10100000352E+00 0.  1.
       -3    1    3    3    0  502  0.21086613532E+03 -0.60949609589E+02  0.45398454436E+03  0.50426318392E+03  0.10100000352E+00 0. -1.
</event>
<event>
 5   0  0.6618060E-05  0.1300982E+04  0.7818609E-02  0.9028786E-01
       -2   -1    0    0    0  501  0.00000000000E+00  0.00000000000E+00  0.22025294009E+03  0.22025294011E+03  0.25500000920E-02 0.  1.
        2   -1    0    0  501    0  0.00000000000E+00  0.00000000000E+00 -0.19211496807E+04  0.19211496807E+04  0.25500000920E-02 0. -1.
    10030    2    1    2    0    0  0.00000000000E+00  0.00000000000E+00 -0.17008967406E+04  0.21414026208E+04  0.13009824988E+04 0.  0.
        2    1    3    3  502    0 -0.12373384402E+03  0.61365273047E+03 -0.11414633226E+04  0.13018518558E+04  0.25500000920E-02 0.  1.
       -2    1    3    3    0  502  0.12373384402E+03 -0.61365273047E+03 -0.55943341807E+03  0.83955076501E+03  0.25500000920E-02 0. -1.
</event>
<event>
 5   0  0.3689707E-05  0.1299884E+04  0.7818609E-02  0.9029657E-01
        1   -1    0    0  501    0  0.00000000000E+00  0.00000000000E+00  0.50565000617E+03  0.50565000619E+03  0.50400001928E-02 0.  1.
       -1   -1    0    0    0  501  0.00000000000E+00  0.00000000000E+00 -0.83540932617E+03  0.83540932618E+03  0.50400001928E-02 0. -1.
    10030    2    1    2    0    0  0.00000000000E+00  0.00000000000E+00 -0.32975932000E+03  0.13410593324E+04  0.12998841963E+04 0.  0.
        1    1    3    3  502    0 -0.10182119099E+03  0.62940452826E+03 -0.29499816065E+03  0.70252510983E+03  0.50400001928E-02 0. -1.
       -1    1    3    3    0  502  0.10182119099E+03 -0.62940452826E+03 -0.34761159354E+02  0.63853422254E+03  0.50400001928E-02 0.  1.
</event>
<event>
 5   0  0.6688086E-05  0.1298242E+04  0.7818609E-02  0.9030960E-01
       -2   -1    0    0    0  501  0.00000000000E+00  0.00000000000E+00  0.94417628699E+03  0.94417628699E+03  0.25500000920E-02 0.  1.
        2   -1    0    0  501    0  0.00000000000E+00  0.00000000000E+00 -0.44627061241E+03  0.44627061241E+03  0.25500000920E-02 0. -1.
    10030    2    1    2    0    0  0.00000000000E+00  0.00000000000E+00  0.49790567458E+03  0.13904468994E+04  0.12982420881E+04 0.  0.
        5    1    3    3  502    0 -0.31938025872E+03  0.25915596920E+03  0.78678384940E+03  0.88781556739E+03  0.46999998093E+01 0.  1.
       -5    1    3    3    0  502  0.31938025872E+03 -0.25915596920E+03 -0.28887817482E+03  0.50263133201E+03  0.46999998093E+01 0. -1.
</event>
<event>
 5   0  0.6618060E-05  0.1300137E+04  0.7818609E-02  0.9029457E-01
       -2   -1    0    0    0  501  0.00000000000E+00  0.00000000000E+00  0.46804539058E+03  0.46804539058E+03  0.25500000920E-02 0.  1.
        2   -1    0    0  501    0  0.00000000000E+00  0.00000000000E+00 -0.90288051735E+03  0.90288051735E+03  0.25500000920E-02 0. -1.
    10030    2    1    2    0    0  0.00000000000E+00  0.00000000000E+00 -0.43483512677E+03  0.13709259079E+04  0.13001370149E+04 0.  0.
        2    1    3    3  502    0  0.67331202129E+02 -0.21933139568E+03 -0.85876885441E+03  0.88888902413E+03  0.25500000920E-02 0. -1.
       -2    1    3    3    0  502 -0.67331202129E+02  0.21933139568E+03  0.42393372764E+03  0.48203688380E+03  0.25500000920E-02 0.  1.
</event>
<event>
 5   0  0.3689707E-05  0.1300178E+04  0.7818609E-02  0.9029424E-01
       -1   -1    0    0    0  501  0.00000000000E+00  0.00000000000E+00  0.40234927393E+03  0.40234927397E+03  0.50400001928E-02 0.  1.
        1   -1    0    0  501    0  0.00000000000E+00  0.00000000000E+00 -0.10503708908E+04  0.10503708908E+04  0.50400001928E-02 0. -1.
    10030    2    1    2    0    0  0.00000000000E+00  0.00000000000E+00 -0.64802161684E+03  0.14527201648E+04  0.13001783959E+04 0.  0.
        1    1    3    3  502    0 -0.25907994169E+03 -0.57632891373E+03 -0.15331777761E+03  0.65021825101E+03  0.50400001928E-02 0.  1.
       -1    1    3    3    0  502  0.25907994169E+03  0.57632891373E+03 -0.49470383923E+03  0.80250191375E+03  0.50400001928E-02 0. -1.
</event>
<event>
 5   0  0.6688086E-05  0.1299866E+04  0.7818609E-02  0.9029671E-01
       -2   -1    0    0    0  501  0.00000000000E+00  0.00000000000E+00  0.26797364300E+03  0.26797364301E+03  0.25500000920E-02 0.  1.
        2   -1    0    0  501    0  0.00000000000E+00  0.00000000000E+00 -0.15763232803E+04  0.15763232803E+04  0.25500000920E-02 0. -1.
    10030    2    1    2    0    0  0.00000000000E+00  0.00000000000E+00 -0.13083496373E+04  0.18442969233E+04  0.12998662885E+04 0.  0.
        5    1    3    3  502    0  0.27079894499E+03  0.21574070532E+03  0.12620410743E+03  0.36854536663E+03  0.46999998093E+01 0.  1.
       -5    1    3    3    0  502 -0.27079894499E+03 -0.21574070532E+03 -0.14345537447E+04  0.14757515567E+04  0.46999998093E+01 0. -1.
</event>
<event>
 5   0  0.2512000E-05  0.1299903E+04  0.7818609E-02  0.9029642E-01
        4   -1    0    0  501    0  0.00000000000E+00  0.00000000000E+00  0.46301875389E+03  0.46302049561E+03  0.12699999809E+01 0. -1.
       -4   -1    0    0    0  501  0.00000000000E+00  0.00000000000E+00 -0.91235056999E+03  0.91235145391E+03  0.12699999809E+01 0.  1.
    10030    2    1    2    0    0  0.00000000000E+00  0.00000000000E+00 -0.44933181609E+03  0.13753719495E+04  0.12999034266E+04 0.  0.
        2    1    3    3  502    0  0.11147124882E+03 -0.34703627976E+03  0.34469974464E+03  0.50167512669E+03  0.25500000920E-02 0. -1.
       -2    1    3    3    0  502 -0.11147124882E+03  0.34703627976E+03 -0.79403156073E+03  0.87369682283E+03  0.25500000920E-02 0.  1.
</event>
<event>
 5   0  0.6458698E-05  0.1299612E+04  0.7818609E-02  0.9029873E-01
       -2   -1    0    0    0  501  0.00000000000E+00  0.00000000000E+00  0.45495987238E+03  0.45495987239E+03  0.25500000920E-02 0. -1.
        2   -1    0    0  501    0  0.00000000000E+00  0.00000000000E+00 -0.92809856401E+03  0.92809856401E+03  0.25500000920E-02 0.  1.
    10030    2    1    2    0    0  0.00000000000E+00  0.00000000000E+00 -0.47313869163E+03  0.13830584364E+04  0.12996116408E+04 0.  0.
        3    1    3    3  502    0  0.34900675565E+03  0.20932707800E+03 -0.77567714809E+03  0.87595581472E+03  0.10100000352E+00 0.  1.
       -3    1    3    3    0  502 -0.34900675565E+03 -0.20932707800E+03  0.30253845647E+03  0.50710262168E+03  0.10100000352E+00 0. -1.
</event>
<event>
 5   0  0.3718559E-05  0.1299968E+04  0.7818609E-02  0.9029590E-01
        1   -1    0    0  501    0  0.00000000000E+00  0.00000000000E+00  0.12054318936E+04  0.12054318936E+04  0.50400001928E-02 0.  1.
       -1   -1    0    0    0  501  0.00000000000E+00  0.00000000000E+00 -0.35047963289E+03  0.35047963292E+03  0.50400001928E-02 0. -1.
    10030    2    1    2    0    0  0.00000000000E+00  0.00000000000E+00  0.85495226074E+03  0.15559115266E+04  0.12999681959E+04 0.  0.
        2    1    3    3  502    0  0.57017914951E+03  0.12744509014E+03  0.76839452965E+03  0.96528579537E+03  0.25500000920E-02 0. -1.
       -2    1    3    3    0  502 -0.57017914951E+03 -0.12744509014E+03  0.86557731091E+02  0.59062573120E+03  0.25500000920E-02 0.  1.
</event>
<event>
 5   0  0.3552698E-05  0.1300452E+04  0.7818609E-02  0.9029207E-01
       -1   -1    0    0    0  501  0.00000000000E+00  0.00000000000E+00  0.19367676341E+03  0.19367676348E+03  0.50400001928E-02 0.  1.
        1   -1    0    0  501    0  0.00000000000E+00  0.00000000000E+00 -0.21829868543E+04  0.21829868543E+04  0.50400001928E-02 0. -1.
    10030    2    1    2    0    0  0.00000000000E+00  0.00000000000E+00 -0.19893100909E+04  0.23766636178E+04  0.13004519654E+04 0.  0.
        5    1    3    3  502    0  0.29466215132E+03 -0.61165272313E+02 -0.20480138535E+04  0.20700120309E+04  0.46999998093E+01 0. -1.
       -5    1    3    3    0  502 -0.29466215132E+03  0.61165272313E+02  0.58703762663E+02  0.30665158683E+03  0.46999998093E+01 0.  1.
</event>
<event>
 5   0  0.6618060E-05  0.1300809E+04  0.7818609E-02  0.9028924E-01
       -2   -1    0    0    0  501  0.00000000000E+00  0.00000000000E+00  0.22432793260E+03  0.22432793261E+03  0.25500000920E-02 0.  1.
        2   -1    0    0  501    0  0.00000000000E+00  0.00000000000E+00 -0.18857484424E+04  0.18857484424E+04  0.25500000920E-02 0. -1.
    10030    2    1    2    0    0  0.00000000000E+00  0.00000000000E+00 -0.16614205098E+04  0.21100763750E+04  0.13008090552E+04 0.  0.
        2    1    3    3  502    0 -0.63025496439E+03 -0.21808514560E+02 -0.57254686352E+03  0.85176689439E+03  0.25500000920E-02 0. -1.
       -2    1    3    3    0  502  0.63025496439E+03  0.21808514560E+02 -0.10888736463E+04  0.12583094806E+04  0.25500000920E-02 0.  1.
</event>
<event>
 5   0  0.6671239E-05  0.1300271E+04  0.7818609E-02  0.9029350E-01
        2   -1    0    0  501    0  0.00000000000E+00  0.00000000000E+00  0.56450591263E+03  0.56450591264E+03  0.25500000920E-02 0.  1.
       -2   -1    0    0    0  501  0.00000000000E+00  0.00000000000E+00 -0.74875404483E+03  0.74875404483E+03  0.25500000920E-02 0. -1.
    10030    2    1    2    0    0  0.00000000000E+00  0.00000000000E+00 -0.18424813219E+03  0.13132599575E+04  0.13002708724E+04 0.  0.
        1    1    3    3  502    0  0.14363409625E+01 -0.82241800547E+02  0.55922937344E+03  0.56524620209E+03  0.50400001928E-02 0.  1.
       -1    1    3    3    0  502 -0.14363409625E+01  0.82241800547E+02 -0.74347750563E+03  0.74801375538E+03  0.50400001928E-02 0. -1.
</event>
<event>
 5   0  0.3718559E-05  0.1299913E+04  0.7818609E-02  0.9029634E-01
       -1   -1    0    0    0  501  0.00000000000E+00  0.00000000000E+00  0.72989245798E+03  0.72989245799E+03  0.50400001928E-02 0.  1.
        1   -1    0    0  501    0  0.00000000000E+00  0.00000000000E+00 -0.57877521923E+03  0.57877521925E+03  0.50400001928E-02 0. -1.
    10030    2    1    2    0    0  0.00000000000E+00  0.00000000000E+00  0.15111723875E+03  0.13086676772E+04  0.12999133316E+04 0.  0.
        2    1    3    3  502    0 -0.32619985241E+03 -0.46901846341E+03 -0.23646252064E+03  0.61830347436E+03  0.25500000920E-02 0. -1.
       -2    1    3    3    0  502  0.32619985241E+03  0.46901846341E+03  0.38757975939E+03  0.69036420289E+03  0.25500000920E-02 0.  1.
</event>
<event>
 5   0  0.3631841E-05  0.1300031E+04  0.7818609E-02  0.9029541E-01
        1   -1    0    0  501    0  0.00000000000E+00  0.00000000000E+00  0.14169416738E+04  0.14169416738E+04  0.50400001928E-02 0. -1.
       -1   -1    0    0    0  501  0.00000000000E+00  0.00000000000E+00 -0.29819159654E+03  0.29819159658E+03  0.50400001928E-02 0.  1.
    10030    2    1    2    0    0  0.00000000000E+00  0.00000000000E+00  0.11187500773E+04  0.17151332704E+04  0.13000309227E+04 0.  0.
        3    1    3    3  502    0  0.25573766736E+03  0.13902197070E+03  0.13261507929E+04  0.13577204420E+04  0.10100000352E+00 0. -1.
       -3    1    3    3    0  502 -0.25573766736E+03 -0.13902197070E+03 -0.20740071566E+03  0.35741282840E+03  0.10100000352E+00 0.  1.
</event>
<event>
 5   0  0.6618060E-05  0.1299771E+04  0.7818609E-02  0.9029747E-01
        2   -1    0    0  501    0  0.00000000000E+00  0.00000000000E+00  0.18776990321E+04  0.18776990321E+04  0.25500000920E-02 0.  1.
       -2   -1    0    0    0  501  0.00000000000E+00  0.00000000000E+00 -0.22493009681E+03  0.22493009682E+03  0.25500000920E-02 0. -1.
    10030    2    1    2    0    0  0.00000000000E+00  0.00000000000E+00  0.16527689353E+04  0.21026291289E+04  0.12997707876E+04 0.  0.
        2    1    3    3  502    0 -0.33366575276E+03 -0.44559363973E+03  0.28387961076E+03  0.62487931615E+03  0.25500000920E-02 0. -1.
       -2    1    3    3    0  502  0.33366575276E+03  0.44559363973E+03  0.13688893245E+04  0.14777498127E+04  0.25500000920E-02 0.  1.
</event>
<event>
 5   0  0.3689707E-05  0.1300137E+04  0.7818609E-02  0.9029456E-01
        1   -1    0    0  501    0  0.00000000000E+00  0.00000000000E+00  0.63130038633E+03  0.63130038635E+03  0.50400001928E-02 0.  1.
       -1   -1    0    0    0  501  0.00000000000E+00  0.00000000000E+00 -0.66939481006E+03  0.66939481008E+03  0.50400001928E-02 0. -1.
    10030    2    1    2    0    0  0.00000000000E+00  0.00000000000E+00 -0.38094423734E+02  0.13006951964E+04  0.13001372269E+04 0.  0.
        1    1    3    3  502    0  0.23152849821E+03 -0.42296924150E+03 -0.45521686162E+03  0.66312202185E+03  0.50400001928E-02 0. -1.
       -1    1    3    3    0  502 -0.23152849821E+03  0.42296924150E+03  0.41712243788E+03  0.63757317458E+03  0.50400001928E-02 0.  1.
</event>
<event>
 5   0  0.3689707E-05  0.1300128E+04  0.7818609E-02  0.9029464E-01
        1   -1    0    0  501    0  0.00000000000E+00  0.00000000000E+00  0.54941968304E+03  0.54941968306E+03  0.50400001928E-02 0. -1.
       -1   -1    0    0    0  501  0.00000000000E+00  0.00000000000E+00 -0.76914475754E+03  0.76914475756E+03  0.50400001928E-02 0.  1.
    10030    2    1    2    0    0  0.00000000000E+00  0.00000000000E+00 -0.21972507450E+03  0.13185644406E+04  0.13001280997E+04 0.  0.
        1    1    3    3  502    0  0.48830623955E+03  0.96881570527E+02  0.31410156297E+03  0.58863300466E+03  0.50400001928E-02 0. -1.
       -1    1    3    3    0  502 -0.48830623955E+03 -0.96881570527E+02 -0.53382663747E+03  0.72993143595E+03  0.50400001928E-02 0.  1.
</event>
<event>
 5   0  0.3718559E-05  0.1300402E+04  0.7818609E-02  0.9029247E-01
       -1   -1    0    0    0  501  0.00000000000E+00  0.00000000000E+00  0.24335887731E+03  0.24335887736E+03  0.50400001928E-02 0. -1.
        1   -1    0    0  501    0  0.00000000000E+00  0.00000000000E+00 -0.17371920318E+04  0.17371920318E+04  0.50400001928E-02 0.  1.
    10030    2    1    2    0    0  0.00000000000E+00  0.00000000000E+00 -0.14938331545E+04  0.19805509092E+04  0.13004016342E+04 0.  0.
        2    1    3    3  502    0  0.41559514225E+03 -0.38433014664E+03 -0.12341246622E+04  0.13577527999E+04  0.25500000920E-02 0.  1.
       -2    1    3    3    0  502 -0.41559514225E+03  0.38433014664E+03 -0.25970849227E+03  0.62279810921E+03  0.25500000920E-02 0. -1.
</event>
<event>
 5   0  0.6742824E-05  0.1301272E+04  0.7818609E-02  0.9028557E-01
       -2   -1    0    0    0  501  0.00000000000E+00  0.00000000000E+00  0.23950855708E+03  0.23950855709E+03  0.25500000920E-02 0.  1.
        2   -1    0    0  501    0  0.00000000000E+00  0.00000000000E+00 -0.17674816514E+04  0.17674816514E+04  0.25500000920E-02 0. -1.
    10030    2    1    2    0    0  0.00000000000E+00  0.00000000000E+00 -0.15279730944E+04  0.20069902085E+04  0.13012716550E+04 0.  0.
        4    1    3    3  502    0  0.36133947351E+03 -0.42077271564E+03 -0.23934613189E+03  0.60407290711E+03  0.12699999809E+01 0.  1.
       -4    1    3    3    0  502 -0.36133947351E+03  0.42077271564E+03 -0.12886269625E+04  0.14029173014E+04  0.12699999809E+01 0. -1.
</event>
<event>
 5   0  0.2512000E-05  0.1298742E+04  0.7818609E-02  0.9030563E-01
       -4   -1    0    0    0  501  0.00000000000E+00  0.00000000000E+00  0.81477581913E+03  0.81477680891E+03  0.12699999809E+01 0.  1.
        4   -1    0    0  501    0  0.00000000000E+00  0.00000000000E+00 -0.51754261986E+03  0.51754417809E+03  0.12699999809E+01 0. -1.
    10030    2    1    2    0    0  0.00000000000E+00  0.00000000000E+00  0.29723319927E+03  0.13323209870E+04  0.12987423292E+04 0.  0.
        2    1    3    3  502    0 -0.45917249147E+03  0.34172308944E+02  0.61835927096E+03  0.77095739934E+03  0.25500000920E-02 0.  1.
       -2    1    3    3    0  502  0.45917249147E+03 -0.34172308944E+02 -0.32112607169E+03  0.56136358765E+03  0.25500000920E-02 0. -1.
</event>
<event>
 5   0  0.6742824E-05  0.1300485E+04  0.7818609E-02  0.9029181E-01
       -2   -1    0    0    0  501  0.00000000000E+00  0.00000000000E+00  0.16123780854E+04  0.16123780854E+04  0.25500000920E-02 0. -1.
        2   -1    0    0  501    0  0.00000000000E+00  0.00000000000E+00 -0.26223079135E+03  0.26223079136E+03  0.25500000920E-02 0.  1.
    10030    2    1    2    0    0  0.00000000000E+00  0.00000000000E+00  0.13501472940E+04  0.18746088767E+04  0.13004848039E+04 0.  0.
        4    1    3    3  502    0  0.38117488463E+03 -0.13896457067E+03  0.14075444844E+04  0.14648510276E+04  0.12699999809E+01 0. -1.
       -4    1    3    3    0  502 -0.38117488463E+03  0.13896457067E+03 -0.57397190367E+02  0.40975784915E+03  0.12699999809E+01 0.  1.
</event>
<event>
 5   0  0.6671239E-05  0.1299833E+04  0.7818609E-02  0.9029697E-01
        2   -1    0    0  501    0  0.00000000000E+00  0.00000000000E+00  0.42570956043E+03  0.42570956044E+03  0.25500000920E-02 0.  1.
       -2   -1    0    0    0  501  0.00000000000E+00  0.00000000000E+00 -0.99220614154E+03  0.99220614155E+03  0.25500000920E-02 0. -1.
    10030    2    1    2    0    0  0.00000000000E+00  0.00000000000E+00 -0.56649658111E+03  0.14179157020E+04  0.12998332822E+04 0.  0.
        1    1    3    3  502    0  0.22335285730E+03 -0.38532200558E+03  0.23307043687E+03  0.50267422395E+03  0.50400001928E-02 0.  1.
       -1    1    3    3    0  502 -0.22335285730E+03  0.38532200558E+03 -0.79956701799E+03  0.91524147804E+03  0.50400001928E-02 0. -1.
</event>
<event>
 5   0  0.6688086E-05  0.1299808E+04  0.7818609E-02  0.9029718E-01
       -2   -1    0    0    0  501  0.00000000000E+00  0.00000000000E+00  0.24931919177E+03  0.24931919178E+03  0.25500000920E-02 0. -1.
        2   -1    0    0  501    0  0.00000000000E+00  0.00000000000E+00 -0.16941133728E+04  0.16941133728E+04  0.25500000920E-02 0.  1.
    10030    2    1    2    0    0  0.00000000000E+00  0.00000000000E+00 -0.14447941810E+04  0.19434325645E+04  0.12998076425E+04 0.  0.
        5    1    3    3  502    0  0.11027088404E+03  0.45480209772E+03 -0.48163118105E+02  0.47047464533E+03  0.46999998093E+01 0. -1.
       -5    1    3    3    0  502 -0.11027088404E+03 -0.45480209772E+03 -0.13966310629E+04  0.14729579192E+04  0.46999998093E+01 0.  1.
</event>
<event>
 5   0  0.6458698E-05  0.1299890E+04  0.7818609E-02  0.9029653E-01
       -2   -1    0    0    0  501  0.00000000000E+00  0.00000000000E+00  0.29917603419E+03  0.29917603420E+03  0.25500000920E-02 0. -1.
        2   -1    0    0  501    0  0.00000000000E+00  0.00000000000E+00 -0.14119726982E+04  0.14119726982E+04  0.25500000920E-02 0.  1.
    10030    2    1    2    0    0  0.00000000000E+00  0.00000000000E+00 -0.11127966640E+04  0.17111487324E+04  0.12998898296E+04 0.  0.
        3    1    3    3  502    0 -0.31372758029E+03  0.33390407500E+03 -0.11632358000E+04  0.12502137668E+04  0.10100000352E+00 0.  1.
       -3    1    3    3    0  502  0.31372758029E+03 -0.33390407500E+03  0.50439135996E+02  0.46093496567E+03  0.10100000352E+00 0. -1.
</event>
<event>
 5   0  0.6742824E-05  0.1300066E+04  0.7818609E-02  0.9029513E-01
        2   -1    0    0  501    0  0.00000000000E+00  0.00000000000E+00  0.98717910927E+03  0.98717910927E+03  0.25500000920E-02 0.  1.
       -2   -1    0    0    0  501  0.00000000000E+00  0.00000000000E+00 -0.42803062964E+03  0.42803062965E+03  0.25500000920E-02 0. -1.
    10030    2    1    2    0    0  0.00000000000E+00  0.00000000000E+00  0.55914847963E+03  0.14152097389E+04  0.13000659917E+04 0.  0.
        4    1    3    3  502    0  0.32652240162E+03  0.66708073132E+01  0.89138401229E+03  0.94933052658E+03  0.12699999809E+01 0.  1.
       -4    1    3    3    0  502 -0.32652240162E+03 -0.66708073132E+01 -0.33223553266E+03  0.46587921234E+03  0.12699999809E+01 0. -1.
</event>
<event>
 5   0  0.3631841E-05  0.1299953E+04  0.7818609E-02  0.9029603E-01
        1   -1    0    0  501    0  0.00000000000E+00  0.00000000000E+00  0.53944049942E+03  0.53944049944E+03  0.50400001928E-02 0. -1.
       -1   -1    0    0    0  501  0.00000000000E+00  0.00000000000E+00 -0.78316181582E+03  0.78316181583E+03  0.50400001928E-02 0.  1.
    10030    2    1    2    0    0  0.00000000000E+00  0.00000000000E+00 -0.24372131640E+03  0.13226023153E+04  0.12999526162E+04 0.  0.
        3    1    3    3  502    0 -0.98424526346E+02 -0.64069905090E+03 -0.17051147952E+03  0.67026624267E+03  0.10100000352E+00 0. -1.
       -3    1    3    3    0  502  0.98424526346E+02  0.64069905090E+03 -0.73209836881E+02  0.65233607261E+03  0.10100000352E+00 0.  1.
</event>
<event>
 5   0  0.3718559E-05  0.1300879E+04  0.7818609E-02  0.9028868E-01
       -1   -1    0    0    0  501  0.00000000000E+00  0.00000000000E+00  0.25873329188E+03  0.25873329193E+03  0.50400001928E-02 0.  1.
        1   -1    0    0  501    0  0.00000000000E+00  0.00000000000E+00 -0.16351653022E+04  0.16351653022E+04  0.50400001928E-02 0. -1.
    10030    2    1    2    0    0  0.00000000000E+00  0.00000000000E+00 -0.13764320103E+04  0.18938985942E+04  0.13008792434E+04 0.  0.
        2    1    3    3  502    0 -0.60293379796E+03 -0.15632976981E+03 -0.96098511960E+03  0.11451901858E+04  0.25500000920E-02 0.  1.
       -2    1    3    3    0  502  0.60293379796E+03  0.15632976981E+03 -0.41544689073E+03  0.74870840831E+03  0.25500000920E-02 0. -1.
</event>
<event>
 5   0  0.3631841E-05  0.1302757E+04  0.7818609E-02  0.9027382E-01
        1   -1    0    0  501    0  0.00000000000E+00  0.00000000000E+00  0.16886387813E+04  0.16886387813E+04  0.50400001928E-02 0.  1.
       -1   -1    0    0    0  501  0.00000000000E+00  0.00000000000E+00 -0.25126386530E+03  0.25126386535E+03  0.50400001928E-02 0. -1.
    10030    2    1    2    0    0  0.00000000000E+00  0.00000000000E+00  0.14373749160E+04  0.19399026467E+04  0.13027569341E+04 0.  0.
        3    1    3    3  502    0 -0.96820878387E+02 -0.82854797580E+02  0.16698959807E+04  0.16747512641E+04  0.10100000352E+00 0.  1.
       -3    1    3    3    0  502  0.96820878387E+02  0.82854797580E+02 -0.23252106468E+03  0.26515138260E+03  0.10100000352E+00 0. -1.
</event>
<event>
 5   0  0.6742824E-05  0.1305834E+04  0.7818609E-02  0.9024951E-01
       -2   -1    0    0    0  501  0.00000000000E+00  0.00000000000E+00  0.51320309849E+03  0.51320309849E+03  0.25500000920E-02 0.  1.
        2   -1    0    0  501    0  0.00000000000E+00  0.00000000000E+00 -0.83066697683E+03  0.83066697684E+03  0.25500000920E-02 0. -1.
    10030    2    1    2    0    0  0.00000000000E+00  0.00000000000E+00 -0.31746387835E+03  0.13438700753E+04  0.13058343943E+04 0.  0.
        4    1    3    3  502    0  0.63028589646E+03  0.15604685589E+03 -0.22919765145E+03  0.68858122893E+03  0.12699999809E+01 0. -1.
       -4    1    3    3    0  502 -0.63028589646E+03 -0.15604685589E+03 -0.88266226900E+02  0.65528884640E+03  0.12699999809E+01 0.  1.
</event>
<event>
 5   0  0.3689707E-05  0.1293010E+04  0.7818609E-02  0.9035127E-01
        1   -1    0    0  501    0  0.00000000000E+00  0.00000000000E+00  0.21964175089E+04  0.21964175089E+04  0.50400001928E-02 0.  1.
       -1   -1    0    0    0  501  0.00000000000E+00  0.00000000000E+00 -0.19029562451E+03  0.19029562457E+03  0.50400001928E-02 0. -1.
    10030    2    1    2    0    0  0.00000000000E+00  0.00000000000E+00  0.20061218844E+04  0.23867131335E+04  0.12930098865E+04 0.  0.
        1    1    3    3  502    0  0.35906904608E+03  0.60998153492E+02  0.17093849569E+02  0.36461425412E+03  0.50400001928E-02 0. -1.
       -1    1    3    3    0  502 -0.35906904608E+03 -0.60998153492E+02  0.19890280349E+04  0.20220988794E+04  0.50400001928E-02 0.  1.
</event>
<event>
 5   0  0.3552698E-05  0.1299519E+04  0.7818609E-02  0.9029947E-01
        1   -1    0    0  501    0  0.00000000000E+00  0.00000000000E+00  0.24491901312E+04  0.24491901312E+04  0.50400001928E-02 0. -1.
       -1   -1    0    0    0  501  0.00000000000E+00  0.00000000000E+00 -0.17237837518E+03  0.17237837526E+03  0.50400001928E-02 0.  1.
    10030    2    1    2    0    0  0.00000000000E+00  0.00000000000E+00  0.22768117560E+04  0.26215685064E+04  0.12995190117E+04 0.  0.
        5    1    3    3  502    0  0.53043264675E+03  0.36498465918E+03  0.13141891677E+04  0.14634506663E+04  0.46999998093E+01 0. -1.
       -5    1    3    3    0  502 -0.53043264675E+03 -0.36498465918E+03  0.96262258824E+03  0.11581178401E+04  0.46999998093E+01 0.  1.
</event>
<event>
 5   0  0.3689707E-05  0.1300407E+04  0.7818609E-02  0.9029242E-01
       -1   -1    0    0    0  501  0.00000000000E+00  0.00000000000E+00  0.53353573815E+03  0.53353573817E+03  0.50400001928E-02 0.  1.
        1   -1    0    0  501    0  0.00000000000E+00  0.00000000000E+00 -0.79238301489E+03  0.79238301491E+03  0.50400001928E-02 0. -1.
    10030    2    1    2    0    0  0.00000000000E+00  0.00000000000E+00 -0.25884727674E+03  0.13259187531E+04  0.13004071005E+04 0.  0.
        1    1    3    3  502    0  0.44696545740E+02 -0.47110445584E+03 -0.58407214723E+03  0.75171634458E+03  0.50400001928E-02 0. -1.
       -1    1    3    3    0  502 -0.44696545740E+02  0.47110445584E+03  0.32522487049E+03  0.57420240850E+03  0.50400001928E-02 0.  1.
</event>
<event>
 5   0  0.3718559E-05  0.1299243E+04  0.7818609E-02  0.9030166E-01
        1   -1    0    0  501    0  0.00000000000E+00  0.00000000000E+00  0.47537576374E+03  0.47537576377E+03  0.50400001928E-02 0.  1.
       -1   -1    0    0    0  501  0.00000000000E+00  0.00000000000E+00 -0.88773515976E+03  0.88773515978E+03  0.50400001928E-02 0. -1.
    10030    2    1    2    0    0  0.00000000000E+00  0.00000000000E+00 -0.41235939602E+03  0.13631109235E+04  0.12992425172E+04 0.  0.
        2    1    3    3  502    0 -0.50472206322E+02  0.32769814754E+03  0.37991790958E+03  0.50425304911E+03  0.25500000920E-02 0.  1.
       -2    1    3    3    0  502  0.50472206322E+02 -0.32769814754E+03 -0.79227730560E+03  0.85885787444E+03  0.25500000920E-02 0. -1.
</event>
<event>
 5   0  0.6688086E-05  0.1300336E+04  0.7818609E-02  0.9029299E-01
       -2   -1    0    0    0  501  0.00000000000E+00  0.00000000000E+00  0.28825559105E+03  0.28825559106E+03  0.25500000920E-02 0. -1.
        2   -1    0    0  501    0  0.00000000000E+00  0.00000000000E+00 -0.14664714843E+04  0.14664714843E+04  0.25500000920E-02 0.  1.
    10030    2    1    2    0    0  0.00000000000E+00  0.00000000000E+00 -0.11782158933E+04  0.17547270754E+04  0.13003362711E+04 0.  0.
        5    1    3    3  502    0 -0.48295533550E+03  0.53435433433E+02 -0.11720216509E+04  0.12687624056E+04  0.46999998093E+01 0.  1.
       -5    1    3    3    0  502  0.48295533550E+03 -0.53435433433E+02 -0.61942423388E+01  0.48596466978E+03  0.46999998093E+01 0. -1.
</event>
<event>
 5   0  0.6742824E-05  0.1299687E+04  0.7818609E-02  0.9029814E-01
        2   -1    0    0  501    0  0.00000000000E+00  0.00000000000E+00  0.71573273568E+03  0.71573273568E+03  0.25500000920E-02 0. -1.
       -2   -1    0    0    0  501  0.00000000000E+00  0.00000000000E+00 -0.59001980622E+03  0.59001980623E+03  0.25500000920E-02 0.  1.
    10030    2    1    2    0    0  0.00000000000E+00  0.00000000000E+00  0.12571292946E+03  0.13057525419E+04  0.12996868700E+04 0.  0.
        4    1    3    3  502    0 -0.23741127408E+03  0.58627747771E+03  0.21258044873E+03  0.66729113138E+03  0.12699999809E+01 0. -1.
       -4    1    3    3    0  502  0.23741127408E+03 -0.58627747771E+03 -0.86867519272E+02  0.63846141053E+03  0.12699999809E+01 0.  1.
</event>
<event>
 5   0  0.3631841E-05  0.1300007E+04  0.7818609E-02  0.9029560E-01
        1   -1    0    0  501    0  0.00000000000E+00  0.00000000000E+00  0.37550021933E+03  0.37550021936E+03  0.50400001928E-02 0.  1.
       -1   -1    0    0    0  501  0.00000000000E+00  0.00000000000E+00 -0.11251777684E+04  0.11251777684E+04  0.50400001928E-02 0. -1.
    10030    2    1    2    0    0  0.00000000000E+00  0.00000000000E+00 -0.74967754904E+03  0.15006779877E+04  0.13000069213E+04 0.  0.
        3    1    3    3  502    0  0.17490971419E+03 -0.36416146405E+03 -0.96265425562E+03  0.10439876465E+04  0.10100000352E+00 0. -1.
       -3    1    3    3    0  502 -0.17490971419E+03  0.36416146405E+03  0.21297670658E+03  0.45669034122E+03  0.10100000352E+00 0.  1.
</event>
<event>
 5   0  0.3718559E-05  0.1299809E+04  0.7818609E-02  0.9029717E-01
        1   -1    0    0  501    0  0.00000000000E+00  0.00000000000E+00  0.48531933120E+03  0.48531933122E+03  0.50400001928E-02 0.  1.
       -1   -1    0    0    0  501  0.00000000000E+00  0.00000000000E+00 -0.87030522422E+03  0.87030522423E+03  0.50400001928E-02 0. -1.
    10030    2    1    2    0    0  0.00000000000E+00  0.00000000000E+00 -0.38498589302E+03  0.13556245555E+04  0.12998091389E+04 0.  0.
        2    1    3    3  502    0  0.22440529685E+03 -0.58032091860E+03  0.33075530101E+01  0.62220659409E+03  0.25500000920E-02 0.  1.
       -2    1    3    3    0  502 -0.22440529685E+03  0.58032091860E+03 -0.38829344603E+03  0.73341796136E+03  0.25500000920E-02 0. -1.
</event>
<event>
 5   0  0.6742824E-05  0.1301201E+04  0.7818609E-02  0.9028613E-01
        2   -1    0    0  501    0  0.00000000000E+00  0.00000000000E+00  0.57694837141E+03  0.57694837142E+03  0.25500000920E-02 0. -1.
       -2   -1    0    0    0  501  0.00000000000E+00  0.00000000000E+00 -0.73365539569E+03  0.73365539570E+03  0.25500000920E-02 0.  1.
    10030    2    1    2    0    0  0.00000000000E+00  0.00000000000E+00 -0.15670702428E+03  0.13106037671E+04  0.13012014229E+04 0.  0.
        4    1    3    3  502    0  0.33148478302E+03 -0.55815166873E+03 -0.34864836756E+02  0.65010200463E+03  0.12699999809E+01 0.  1.
       -4    1    3    3    0  502 -0.33148478302E+03  0.55815166873E+03 -0.12184218753E+03  0.66050176248E+03  0.12699999809E+01 0. -1.
</event>
<event>
 5   0  0.3689707E-05  0.1300280E+04  0.7818609E-02  0.9029343E-01
       -1   -1    0    0    0  501  0.00000000000E+00  0.00000000000E+00  0.37445318243E+03  0.37445318246E+03  0.50400001928E-02 0. -1.
        1   -1    0    0  501    0  0.00000000000E+00  0.00000000000E+00 -0.11287980267E+04  0.11287980267E+04  0.50400001928E-02 0.  1.
    10030    2    1    2    0    0  0.00000000000E+00  0.00000000000E+00 -0.75434484426E+03  0.15032512092E+04  0.13002799905E+04 0.  0.
        1    1    3    3  502    0  0.15156384476E+03  0.57432396420E+01 -0.11080581716E+04  0.11183905827E+04  0.50400001928E-02 0.  1.
       -1    1    3    3    0  502 -0.15156384476E+03 -0.57432396420E+01  0.35371332733E+03  0.38486062646E+03  0.50400001928E-02 0. -1.
</event>
<event>
 5   0  0.6671239E-05  0.1299735E+04  0.7818609E-02  0.9029775E-01
        2   -1    0    0  501    0  0.00000000000E+00  0.00000000000E+00  0.23710892247E+04  0.23710892247E+04  0.25500000920E-02 0. -1.
       -2   -1    0    0    0  501  0.00000000000E+00  0.00000000000E+00 -0.17811561640E+03  0.17811561642E+03  0.25500000920E-02 0.  1.
    10030    2    1    2    0    0  0.00000000000E+00  0.00000000000E+00  0.21929736083E+04  0.25492048411E+04  0.12997353866E+04 0.  0.
        1    1    3    3  502    0  0.12535146908E+03 -0.63356121845E+03  0.12381267367E+04  0.13964492918E+04  0.50400001928E-02 0. -1.
       -1    1    3    3    0  502 -0.12535146908E+03  0.63356121845E+03  0.95484687162E+03  0.11527555494E+04  0.50400001928E-02 0.  1.
</event>
<event>
 5   0  0.3689707E-05  0.1300139E+04  0.7818609E-02  0.9029455E-01
        1   -1    0    0  501    0  0.00000000000E+00  0.00000000000E+00  0.44610679246E+03  0.44610679249E+03  0.50400001928E-02 0. -1.
       -1   -1    0    0    0  501  0.00000000000E+00  0.00000000000E+00 -0.94728582060E+03  0.94728582061E+03  0.50400001928E-02 0.  1.
    10030    2    1    2    0    0  0.00000000000E+00  0.00000000000E+00 -0.50117902814E+03  0.13933926131E+04  0.13001394371E+04 0.  0.
        1    1    3    3  502    0 -0.58496587606E+03 -0.14001948193E+03  0.13673111421E+02  0.60164564777E+03  0.50400001928E-02 0. -1.
       -1    1    3    3    0  502  0.58496587606E+03  0.14001948193E+03 -0.51485213956E+03  0.79174696533E+03  0.50400001928E-02 0.  1.
</event>
<event>
 5   0  0.3689707E-05  0.1300909E+04  0.7818609E-02  0.9028844E-01
       -1   -1    0    0    0  501  0.00000000000E+00  0.00000000000E+00  0.96202942411E+03  0.96202942413E+03  0.50400001928E-02 0. -1.
        1   -1    0    0  501    0  0.00000000000E+00  0.00000000000E+00 -0.43979034575E+03  0.43979034578E+03  0.50400001928E-02 0.  1.
    10030    2    1    2    0    0  0.00000000000E+00  0.00000000000E+00  0.52223907836E+03  0.14018197699E+04  0.13009093021E+04 0.  0.
        1    1    3    3  502    0  0.16372607689E+02 -0.57479160233E+03 -0.66500134046E+02  0.57885725032E+03  0.50400001928E-02 0.  1.
       -1    1    3    3    0  502 -0.16372607689E+02  0.57479160233E+03  0.58873921241E+03  0.82296251959E+03  0.50400001928E-02 0. -1.
</event>
<event>
 5   0  0.6458698E-05  0.1300020E+04  0.7818609E-02  0.9029549E-01
       -2   -1    0    0    0  501  0.00000000000E+00  0.00000000000E+00  0.33501500065E+03  0.33501500066E+03  0.25500000920E-02 0. -1.
        2   -1    0    0  501    0  0.00000000000E+00  0.00000000000E+00 -0.12611766853E+04  0.12611766853E+04  0.25500000920E-02 0.  1.
    10030    2    1    2    0    0  0.00000000000E+00  0.00000000000E+00 -0.92616168463E+03  0.15961916859E+04  0.13000201661E+04 0.  0.
        3    1    3    3  502    0  0.17828431314E+03 -0.31285980063E+03 -0.11275196783E+04  0.11836245969E+04  0.10100000352E+00 0.  1.
       -3    1    3    3    0  502 -0.17828431314E+03  0.31285980063E+03  0.20135799368E+03  0.41256708907E+03  0.10100000352E+00 0. -1.
</event>
<event>
 5   0  0.3552698E-05  0.1300120E+04  0.7818609E-02  0.9029470E-01
       -1   -1    0    0    0  501  0.00000000000E+00  0.00000000000E+00  0.12332229791E+04  0.12332229792E+04  0.50400001928E-02 0. -1.
        1   -1    0    0  501    0  0.00000000000E+00  0.00000000000E+00 -0.34266156719E+03  0.34266156723E+03  0.50400001928E-02 0.  1.
    10030    2    1    2    0    0  0.00000000000E+00  0.00000000000E+00  0.89056141195E+03  0.15758845464E+04  0.13001201772E+04 0.  0.
        5    1    3    3  502    0 -0.41703935483E+03 -0.11958598382E+03  0.10320373193E+04  0.11195292535E+04  0.46999998093E+01 0. -1.
       -5    1    3    3    0  502  0.41703935483E+03  0.11958598382E+03 -0.14147590733E+03  0.45635529290E+03  0.46999998093E+01 0.  1.
</event>
<event>
 5   0  0.6458698E-05  0.1302438E+04  0.7818609E-02  0.9027634E-01
       -2   -1    0    0    0  501  0.00000000000E+00  0.00000000000E+00  0.26933650747E+03  0.26933650749E+03  0.25500000920E-02 0. -1.
        2   -1    0    0  501    0  0.00000000000E+00  0.00000000000E+00 -0.15745586646E+04  0.15745586646E+04  0.25500000920E-02 0.  1.
    10030    2    1    2    0    0  0.00000000000E+00  0.00000000000E+00 -0.13052221571E+04  0.18438951721E+04  0.13024379164E+04 0.  0.
        3    1    3    3  502    0  0.26716969831E+02  0.61353339606E+02  0.26445604411E+03  0.27279119895E+03  0.10100000352E+00 0. -1.
       -3    1    3    3    0  502 -0.26716969831E+02 -0.61353339606E+02 -0.15696782012E+04  0.15711039731E+04  0.10100000352E+00 0.  1.
</event>
<event>
 5   0  0.6742824E-05  0.1299936E+04  0.7818609E-02  0.9029616E-01
        2   -1    0    0  501    0  0.00000000000E+00  0.00000000000E+00  0.50105370871E+03  0.50105370872E+03  0.25500000920E-02 0.  1.
       -2   -1    0    0    0  501  0.00000000000E+00  0.00000000000E+00 -0.84313997047E+03  0.84313997047E+03  0.25500000920E-02 0. -1.
    10030    2    1    2    0    0  0.00000000000E+00  0.00000000000E+00 -0.34208626176E+03  0.13441936792E+04  0.12999360125E+04 0.  0.
        4    1    3    3  502    0 -0.14521688735E+03 -0.72891926477E+02 -0.82179880440E+03  0.83770881882E+03  0.12699999809E+01 0. -1.
       -4    1    3    3    0  502  0.14521688735E+03  0.72891926477E+02  0.47971254264E+03  0.50648486037E+03  0.12699999809E+01 0.  1.
</event>
<event>
 5   0  0.6458698E-05  0.1300532E+04  0.7818609E-02  0.9029143E-01
       -2   -1    0    0    0  501  0.00000000000E+00  0.00000000000E+00  0.26529011653E+03  0.26529011654E+03  0.25500000920E-02 0. -1.
        2   -1    0    0  501    0  0.00000000000E+00  0.00000000000E+00 -0.15939002233E+04  0.15939002233E+04  0.25500000920E-02 0.  1.
    10030    2    1    2    0    0  0.00000000000E+00  0.00000000000E+00 -0.13286101068E+04  0.18591903399E+04  0.13005321618E+04 0.  0.
        3    1    3    3  502    0 -0.21863087464E+03  0.10998131817E+03 -0.15255496823E+04  0.15450557249E+04  0.10100000352E+00 0.  1.
       -3    1    3    3    0  502  0.21863087464E+03 -0.10998131817E+03  0.19693957553E+03  0.31413461494E+03  0.10100000352E+00 0. -1.
</event>
<event>
 5   0  0.6671239E-05  0.1300258E+04  0.7818609E-02  0.9029361E-01
       -2   -1    0    0    0  501  0.00000000000E+00  0.00000000000E+00  0.33852640308E+03  0.33852640308E+03  0.25500000920E-02 0. -1.
        2   -1    0    0  501    0  0.00000000000E+00  0.00000000000E+00 -0.12485509272E+04  0.12485509272E+04  0.25500000920E-02 0.  1.
    10030    2    1    2    0    0  0.00000000000E+00  0.00000000000E+00 -0.91002452415E+03  0.15870773303E+04  0.13002575967E+04 0.  0.
        1    1    3    3  502    0  0.33448702352E+03  0.49742659209E+03 -0.14779108171E+03  0.61737912766E+03  0.50400001928E-02 0. -1.
       -1    1    3    3    0  502 -0.33448702352E+03 -0.49742659209E+03 -0.76223344244E+03  0.96969820265E+03  0.50400001928E-02 0.  1.
</event>
<event>
 5   0  0.3718559E-05  0.1300106E+04  0.7818609E-02  0.9029481E-01
       -1   -1    0    0    0  501  0.00000000000E+00  0.00000000000E+00  0.47858662651E+03  0.47858662653E+03  0.50400001928E-02 0. -1.
        1   -1    0    0  501    0  0.00000000000E+00  0.00000000000E+00 -0.88295223763E+03  0.88295223764E+03  0.50400001928E-02 0.  1.
    10030    2    1    2    0    0  0.00000000000E+00  0.00000000000E+00 -0.40436561112E+03  0.13615388642E+04  0.13001063538E+04 0.  0.
        2    1    3    3  502    0 -0.53598584385E+03 -0.36689372318E+03 -0.17492800923E+03  0.67267498641E+03  0.25500000920E-02 0.  1.
       -2    1    3    3    0  502  0.53598584385E+03  0.36689372318E+03 -0.22943760189E+03  0.68886387776E+03  0.25500000920E-02 0. -1.
</event>
<event>
 5   0  0.3551277E-05  0.1301822E+04  0.7818609E-02  0.9028121E-01
       -1   -1    0    0    0  501  0.00000000000E+00  0.00000000000E+00  0.65505120754E+03  0.65505120756E+03  0.50400001928E-02 0. -1.
        1   -1    0    0  501    0  0.00000000000E+00  0.00000000000E+00 -0.64679705949E+03  0.64679705951E+03  0.50400001928E-02 0.  1.
    10030    2    1    2    0    0  0.00000000000E+00  0.00000000000E+00  0.82541480483E+01  0.13018482671E+04  0.13018220998E+04 0.  0.
        4    1    3    3  502    0  0.84927975581E+02  0.29665067914E+03  0.57726091566E+03  0.65455799141E+03  0.12699999809E+01 0. -1.
       -4    1    3    3    0  502 -0.84927975581E+02 -0.29665067914E+03 -0.56900676761E+03  0.64729027566E+03  0.12699999809E+01 0.  1.
</event>
<event>
 5   0  0.6688086E-05  0.1303351E+04  0.7818609E-02  0.9026912E-01
        2   -1    0    0  501    0  0.00000000000E+00  0.00000000000E+00  0.78782582817E+03  0.78782582817E+03  0.25500000920E-02 0. -1.
       -2   -1    0    0    0  501  0.00000000000E+00  0.00000000000E+00 -0.53905469500E+03  0.53905469500E+03  0.25500000920E-02 0.  1.
    10030    2    1    2    0    0  0.00000000000E+00  0.00000000000E+00  0.24877113317E+03  0.13268805232E+04  0.13033513901E+04 0.  0.
        5    1    3    3  502    0 -0.40063673177E+02  0.36444124382E+03  0.67284737496E+03  0.76626901157E+03  0.46999998093E+01 0. -1.
       -5    1    3    3    0  502  0.40063673177E+02 -0.36444124382E+03 -0.42407624179E+03  0.56061151161E+03  0.46999998093E+01 0.  1.
</event>
<event>
 5   0  0.3689707E-05  0.1300023E+04  0.7818609E-02  0.9029547E-01
       -1   -1    0    0    0  501  0.00000000000E+00  0.00000000000E+00  0.74027686230E+03  0.74027686232E+03  0.50400001928E-02 0.  1.
        1   -1    0    0  501    0  0.00000000000E+00  0.00000000000E+00 -0.57075230697E+03  0.57075230699E+03  0.50400001928E-02 0. -1.
    10030    2    1    2    0    0  0.00000000000E+00  0.00000000000E+00  0.16952455533E+03  0.13110291693E+04  0.13000226567E+04 0.  0.
        1    1    3    3  502    0  0.22794650246E+03 -0.22815300724E+03  0.65389958450E+03  0.72910772135E+03  0.50400001928E-02 0.  1.
       -1    1    3    3    0  502 -0.22794650246E+03  0.22815300724E+03 -0.48437502916E+03  0.58192144796E+03  0.50400001928E-02 0. -1.
</event>
<event>
 5   0  0.3551277E-05  0.1300404E+04  0.7818609E-02  0.9029245E-01
        1   -1    0    0  501    0  0.00000000000E+00  0.00000000000E+00  0.12380084095E+04  0.12380084095E+04  0.50400001928E-02 0.  1.
       -1   -1    0    0    0  501  0.00000000000E+00  0.00000000000E+00 -0.34148585182E+03  0.34148585185E+03  0.50400001928E-02 0. -1.
    10030    2    1    2    0    0  0.00000000000E+00  0.00000000000E+00  0.89652255770E+03  0.15794942614E+04  0.13004035625E+04 0.  0.
        4    1    3    3  502    0  0.57582945379E+03  0.30137454539E+03  0.42539007454E+03  0.77676541174E+03  0.12699999809E+01 0. -1.
       -4    1    3    3    0  502 -0.57582945379E+03 -0.30137454539E+03  0.47113248317E+03  0.80272884965E+03  0.12699999809E+01 0.  1.
</event>
<event>
 5   0  0.3552698E-05  0.1299780E+04  0.7818609E-02  0.9029740E-01
       -1   -1    0    0    0  501  0.00000000000E+00  0.00000000000E+00  0.29060866496E+03  0.29060866501E+03  0.50400001928E-02 0.  1.
        1   -1    0    0  501    0  0.00000000000E+00  0.00000000000E+00 -0.14533530739E+04  0.14533530739E+04  0.50400001928E-02 0. -1.
    10030    2    1    2    0    0  0.00000000000E+00  0.00000000000E+00 -0.11627444089E+04  0.17439617389E+04  0.12997799761E+04 0.  0.
        5    1    3    3  502    0 -0.43954806153E+03 -0.33925373486E+03 -0.12827184789E+03  0.56988713968E+03  0.46999998093E+01 0.  1.
       -5    1    3    3    0  502  0.43954806153E+03  0.33925373486E+03 -0.10344725610E+04  0.11740745992E+04  0.46999998093E+01 0. -1.
</event>
<event>
 5   0  0.6742824E-05  0.1301166E+04  0.7818609E-02  0.9028641E-01
        2   -1    0    0  501    0  0.00000000000E+00  0.00000000000E+00  0.20508859049E+04  0.20508859049E+04  0.25500000920E-02 0.  1.
       -2   -1    0    0    0  501  0.00000000000E+00  0.00000000000E+00 -0.20637823711E+03  0.20637823713E+03  0.25500000920E-02 0. -1.
    10030    2    1    2    0    0  0.00000000000E+00  0.00000000000E+00  0.18445076678E+04  0.22572641421E+04  0.13011659657E+04 0.  0.
        4    1    3    3  502    0 -0.17075122159E+03 -0.34850998472E+03  0.16426124723E+02  0.38844126917E+03  0.12699999809E+01 0. -1.
       -4    1    3    3    0  502  0.17075122159E+03  0.34850998472E+03  0.18280815431E+04  0.18688228729E+04  0.12699999809E+01 0.  1.
</event>
<event>
 5   0  0.3689707E-05  0.1299941E+04  0.7818609E-02  0.9029612E-01
        1   -1    0    0  501    0  0.00000000000E+00  0.00000000000E+00  0.62388816785E+03  0.62388816787E+03  0.50400001928E-02 0.  1.
       -1   -1    0    0    0  501  0.00000000000E+00  0.00000000000E+00 -0.67714345059E+03  0.67714345061E+03  0.50400001928E-02 0. -1.
    10030    2    1    2    0    0  0.00000000000E+00  0.00000000000E+00 -0.53255282737E+02  0.13010316185E+04  0.12999412091E+04 0.  0.
        1    1    3    3  502    0  0.23263330039E+02 -0.84553379957E+02  0.61794000777E+03  0.62413164462E+03  0.50400001928E-02 0.  1.
       -1    1    3    3    0  502 -0.23263330039E+02  0.84553379957E+02 -0.67119529051E+03  0.67689997386E+03  0.50400001928E-02 0. -1.
</event>
<event>
 5   0  0.6618060E-05  0.1299920E+04  0.7818609E-02  0.9029628E-01
        2   -1    0    0  501    0  0.00000000000E+00  0.00000000000E+00  0.68007873487E+03  0.68007873488E+03  0.25500000920E-02 0.  1.
       -2   -1    0    0    0  501  0.00000000000E+00  0.00000000000E+00 -0.62117554859E+03  0.62117554860E+03  0.25500000920E-02 0. -1.
    10030    2    1    2    0    0  0.00000000000E+00  0.00000000000E+00  0.58903186280E+02  0.13012542835E+04  0.12999204302E+04 0.  0.
        2    1    3    3  502    0  0.47739192599E+03  0.95667732631E+02 -0.40156299489E+03  0.63111663338E+03  0.25500000920E-02 0. -1.
       -2    1    3    3    0  502 -0.47739192599E+03 -0.95667732631E+02  0.46046618117E+03  0.67013765009E+03  0.25500000920E-02 0.  1.
</event>
<event>
 5   0  0.6688086E-05  0.1299688E+04  0.7818609E-02  0.9029812E-01
        2   -1    0    0  501    0  0.00000000000E+00  0.00000000000E+00  0.73125192740E+03  0.73125192740E+03  0.25500000920E-02 0.  1.
       -2   -1    0    0    0  501  0.00000000000E+00  0.00000000000E+00 -0.57749910794E+03  0.57749910794E+03  0.25500000920E-02 0. -1.
    10030    2    1    2    0    0  0.00000000000E+00  0.00000000000E+00  0.15375281946E+03  0.13087510353E+04  0.12996881715E+04 0.  0.
        5    1    3    3  502    0 -0.24544114100E+03 -0.31298038158E+03 -0.44059135719E+03  0.59358310873E+03  0.46999998093E+01 0. -1.
       -5    1    3    3    0  502  0.24544114100E+03  0.31298038158E+03  0.59434417665E+03  0.71516792662E+03  0.46999998093E+01 0.  1.
</event>
<event>
 5   0  0.3631841E-05  0.1300931E+04  0.7818609E-02  0.9028827E-01
       -1   -1    0    0    0  501  0.00000000000E+00  0.00000000000E+00  0.79949793939E+03  0.79949793940E+03  0.50400001928E-02 0. -1.
        1   -1    0    0  501    0  0.00000000000E+00  0.00000000000E+00 -0.52921406514E+03  0.52921406516E+03  0.50400001928E-02 0.  1.
    10030    2    1    2    0    0  0.00000000000E+00  0.00000000000E+00  0.27028387425E+03  0.13287120046E+04  0.13009312889E+04 0.  0.
        3    1    3    3  502    0  0.13842239541E+03 -0.59325989671E+03  0.36801855334E+03  0.71172728653E+03  0.10100000352E+00 0. -1.
       -3    1    3    3    0  502 -0.13842239541E+03  0.59325989671E+03 -0.97734679089E+02  0.61698471804E+03  0.10100000352E+00 0.  1.
</event>
<event>
 5   0  0.2512000E-05  0.1300090E+04  0.7818609E-02  0.9029494E-01
        3   -1    0    0  501    0  0.00000000000E+00  0.00000000000E+00  0.34224586194E+03  0.34224587684E+03  0.10100000352E+00 0.  1.
       -3   -1    0    0    0  501  0.00000000000E+00  0.00000000000E+00 -0.12346632240E+04  0.12346632281E+04  0.10100000352E+00 0. -1.
    10030    2    1    2    0    0  0.00000000000E+00  0.00000000000E+00 -0.89241736201E+03  0.15769091049E+04  0.13000898343E+04 0.  0.
        1    1    3    3  502    0 -0.26670297804E+03  0.19968326640E+03  0.23080947992E+03  0.40531087010E+03  0.50400001928E-02 0.  1.
       -1    1    3    3    0  502  0.26670297804E+03 -0.19968326640E+03 -0.11232268419E+04  0.11715982348E+04  0.50400001928E-02 0. -1.
</event>
<event>
 5   0  0.3552698E-05  0.1300431E+04  0.7818609E-02  0.9029223E-01
       -1   -1    0    0    0  501  0.00000000000E+00  0.00000000000E+00  0.36328373476E+03  0.36328373480E+03  0.50400001928E-02 0. -1.
        1   -1    0    0  501    0  0.00000000000E+00  0.00000000000E+00 -0.11637744307E+04  0.11637744307E+04  0.50400001928E-02 0.  1.
    10030    2    1    2    0    0  0.00000000000E+00  0.00000000000E+00 -0.80049069593E+03  0.15270581655E+04  0.13004311925E+04 0.  0.
        5    1    3    3  502    0 -0.39778477669E+03 -0.31184698815E+01  0.20369492762E+03  0.44694089873E+03  0.46999998093E+01 0. -1.
       -5    1    3    3    0  502  0.39778477669E+03  0.31184698815E+01 -0.10041856235E+04  0.10801172668E+04  0.46999998093E+01 0.  1.
</event>
<event>
 5   0  0.6618060E-05  0.1300310E+04  0.7818609E-02  0.9029320E-01
        2   -1    0    0  501    0  0.00000000000E+00  0.00000000000E+00  0.11797442619E+04  0.11797442619E+04  0.25500000920E-02 0.  1.
       -2   -1    0    0    0  501  0.00000000000E+00  0.00000000000E+00 -0.35829906736E+03  0.35829906737E+03  0.25500000920E-02 0. -1.
    10030    2    1    2    0    0  0.00000000000E+00  0.00000000000E+00  0.82144519456E+03  0.15380433293E+04  0.13003096074E+04 0.  0.
        2    1    3    3  502    0 -0.50999627309E+03  0.34314828089E+02  0.88596003319E+03  0.10228386414E+04  0.25500000920E-02 0.  1.
       -2    1    3    3    0  502  0.50999627309E+03 -0.34314828089E+02 -0.64514838628E+02  0.51520468787E+03  0.25500000920E-02 0. -1.
</event>
<event>
 5   0  0.3551277E-05  0.1300225E+04  0.7818609E-02  0.9029387E-01
        1   -1    0    0  501    0  0.00000000000E+00  0.00000000000E+00  0.18430809436E+04  0.18430809436E+04  0.50400001928E-02 0. -1.
       -1   -1    0    0    0  501  0.00000000000E+00  0.00000000000E+00 -0.22931494788E+03  0.22931494794E+03  0.50400001928E-02 0.  1.
    10030    2    1    2    0    0  0.00000000000E+00  0.00000000000E+00  0.16137659957E+04  0.20723958916E+04  0.13002246123E+04 0.  0.
        4    1    3    3  502    0  0.53870940205E+03 -0.87422020722E+02  0.24382758586E+03  0.59774905612E+03  0.12699999809E+01 0.  1.
       -4    1    3    3    0  502 -0.53870940205E+03  0.87422020722E+02  0.13699384099E+04  0.14746468355E+04  0.12699999809E+01 0. -1.
</event>
<event>
 5   0  0.6458698E-05  0.1300008E+04  0.7818609E-02  0.9029559E-01
        2   -1    0    0  501    0  0.00000000000E+00  0.00000000000E+00  0.61445018535E+03  0.61445018535E+03  0.25500000920E-02 0. -1.
       -2   -1    0    0    0  501  0.00000000000E+00  0.00000000000E+00 -0.68761456194E+03  0.68761456194E+03  0.25500000920E-02 0.  1.
    10030    2    1    2    0    0  0.00000000000E+00  0.00000000000E+00 -0.73164376589E+02  0.13020647473E+04  0.13000075308E+04 0.  0.
        3    1    3    3  502    0 -0.46392711160E+03 -0.29821452459E+03  0.30797472440E+03  0.63167136125E+03  0.10100000352E+00 0. -1.
       -3    1    3    3    0  502  0.46392711160E+03  0.29821452459E+03 -0.38113910099E+03  0.67039338605E+03  0.10100000352E+00 0.  1.
</event>
<event>
 5   0  0.6688086E-05  0.1300311E+04  0.7818609E-02  0.9029318E-01
       -2   -1    0    0    0  501  0.00000000000E+00  0.00000000000E+00  0.10217464223E+04  0.10217464223E+04  0.25500000920E-02 0.  1.
        2   -1    0    0  501    0  0.00000000000E+00  0.00000000000E+00 -0.41370572405E+03  0.41370572406E+03  0.25500000920E-02 0. -1.
    10030    2    1    2    0    0  0.00000000000E+00  0.00000000000E+00  0.60804069829E+03  0.14354521464E+04  0.13003112604E+04 0.  0.
        5    1    3    3  502    0  0.52771725587E+03 -0.22742470573E+03  0.63971799275E+03  0.85992365891E+03  0.46999998093E+01 0.  1.
       -5    1    3    3    0  502 -0.52771725587E+03  0.22742470573E+03 -0.31677294461E+02  0.57552848748E+03  0.46999998093E+01 0. -1.
</event>
<event>
 5   0  0.6671239E-05  0.1299910E+04  0.7818609E-02  0.9029636E-01
        2   -1    0    0  501    0  0.00000000000E+00  0.00000000000E+00  0.66256185209E+03  0.66256185209E+03  0.25500000920E-02 0. -1.
       -2   -1    0    0    0  501  0.00000000000E+00  0.00000000000E+00 -0.63758834732E+03  0.63758834733E+03  0.25500000920E-02 0.  1.
    10030    2    1    2    0    0  0.00000000000E+00  0.00000000000E+00  0.24973504764E+02  0.13001501994E+04  0.12999103296E+04 0.  0.
        1    1    3    3  502    0 -0.38653313386E+03 -0.12753467908E+03  0.51930380919E+03  0.65981012739E+03  0.50400001928E-02 0. -1.
       -1    1    3    3    0  502  0.38653313386E+03  0.12753467908E+03 -0.49433030443E+03  0.64034007203E+03  0.50400001928E-02 0.  1.
</event>
<event>
 5   0  0.3551277E-05  0.1300094E+04  0.7818609E-02  0.9029491E-01
       -1   -1    0    0    0  501  0.00000000000E+00  0.00000000000E+00  0.20757092240E+03  0.20757092246E+03  0.50400001928E-02 0.  1.
        1   -1    0    0  501    0  0.00000000000E+00  0.00000000000E+00 -0.20357418052E+04  0.20357418052E+04  0.50400001928E-02 0. -1.
    10030    2    1    2    0    0  0.00000000000E+00  0.00000000000E+00 -0.18281708828E+04  0.22433127277E+04  0.13000935418E+04 0.  0.
        4    1    3    3  502    0  0.32733486018E+03  0.39803710105E+03 -0.23043517317E+03  0.56452070505E+03  0.12699999809E+01 0.  1.
       -4    1    3    3    0  502 -0.32733486018E+03 -0.39803710105E+03 -0.15977357096E+04  0.16787920226E+04  0.12699999809E+01 0. -1.
</event>
<event>
 5   0  0.6671239E-05  0.1295562E+04  0.7818609E-02  0.9033092E-01
        2   -1    0    0  501    0  0.00000000000E+00  0.00000000000E+00  0.76102356391E+03  0.76102356391E+03  0.25500000920E-02 0. -1.
       -2   -1    0    0    0  501  0.00000000000E+00  0.00000000000E+00 -0.55138930298E+03  0.55138930299E+03  0.25500000920E-02 0.  1.
    10030    2    1    2    0    0  0.00000000000E+00  0.00000000000E+00  0.20963426092E+03  0.13124128669E+04  0.12955620440E+04 0.  0.
        1    1    3    3  502    0  0.25311979456E+03 -0.56148840015E+03 -0.98495581681E+02  0.62373089833E+03  0.50400001928E-02 0.  1.
       -1    1    3    3    0  502 -0.25311979456E+03  0.56148840015E+03  0.30812984260E+03  0.68868196857E+03  0.50400001928E-02 0. -1.
</event>
<event>
 5   0  0.3551277E-05  0.1300601E+04  0.7818609E-02  0.9029089E-01
       -1   -1    0    0    0  501  0.00000000000E+00  0.00000000000E+00  0.14106355733E+04  0.14106355733E+04  0.50400001928E-02 0.  1.
        1   -1    0    0  501    0  0.00000000000E+00  0.00000000000E+00 -0.29978736756E+03  0.29978736760E+03  0.50400001928E-02 0. -1.
    10030    2    1    2    0    0  0.00000000000E+00  0.00000000000E+00  0.11108482058E+04  0.17104229409E+04  0.13006009767E+04 0.  0.
        4    1    3    3  502    0  0.25148355219E+03  0.98751852377E+02 -0.22248202469E+03  0.34999395649E+03  0.12699999809E+01 0. -1.
       -4    1    3    3    0  502 -0.25148355219E+03 -0.98751852377E+02  0.13333302305E+04  0.13604289845E+04  0.12699999809E+01 0.  1.
</event>
<event>
 5   0  0.6742824E-05  0.1300537E+04  0.7818609E-02  0.9029139E-01
        2   -1    0    0  501    0  0.00000000000E+00  0.00000000000E+00  0.75656796767E+03  0.75656796768E+03  0.25500000920E-02 0. -1.
       -2   -1    0    0    0  501  0.00000000000E+00  0.00000000000E+00 -0.55890429675E+03  0.55890429675E+03  0.25500000920E-02 0.  1.
    10030    2    1    2    0    0  0.00000000000E+00  0.00000000000E+00  0.19766367092E+03  0.13154722644E+04  0.13005369475E+04 0.  0.
        4    1    3    3  502    0 -0.50808191588E+03 -0.28657775995E+03 -0.19182407698E+03  0.61406199618E+03  0.12699999809E+01 0. -1.
       -4    1    3    3    0  502  0.50808191588E+03  0.28657775995E+03  0.38948774790E+03  0.70141026825E+03  0.12699999809E+01 0.  1.
</event>
<event>
 5   0  0.3689707E-05  0.1299422E+04  0.7818609E-02  0.9030024E-01
       -1   -1    0    0    0  501  0.00000000000E+00  0.00000000000E+00  0.18076038808E+04  0.18076038808E+04  0.50400001928E-02 0.  1.
        1   -1    0    0  501    0  0.00000000000E+00  0.00000000000E+00 -0.23352700870E+03  0.23352700875E+03  0.50400001928E-02 0. -1.
    10030    2    1    2    0    0  0.00000000000E+00  0.00000000000E+00  0.15740768721E+04  0.20411308895E+04  0.12994219134E+04 0.  0.
        1    1    3    3  502    0  0.35317169867E+03 -0.54443545515E+03  0.73776154507E+03  0.98256415107E+03  0.50400001928E-02 0. -1.
       -1    1    3    3    0  502 -0.35317169867E+03  0.54443545515E+03  0.83631532702E+03  0.10585667385E+04  0.50400001928E-02 0.  1.
</event>
<event>
 5   0  0.6688086E-05  0.1300397E+04  0.7818609E-02  0.9029250E-01
        2   -1    0    0  501    0  0.00000000000E+00  0.00000000000E+00  0.16512830856E+04  0.16512830856E+04  0.25500000920E-02 0. -1.
       -2   -1    0    0    0  501  0.00000000000E+00  0.00000000000E+00 -0.25601789222E+03  0.25601789223E+03  0.25500000920E-02 0.  1.
    10030    2    1    2    0    0  0.00000000000E+00  0.00000000000E+00  0.13952651933E+04  0.19073009778E+04  0.13003968856E+04 0.  0.
        5    1    3    3  502    0 -0.14175797111E+03  0.50271351983E+03  0.12973152085E+03  0.53820866111E+03  0.46999998093E+01 0.  1.
       -5    1    3    3    0  502  0.14175797111E+03 -0.50271351983E+03  0.12655336725E+04  0.13690923167E+04  0.46999998093E+01 0. -1.
</event>
<event>
 5   0  0.6688086E-05  0.1299975E+04  0.7818609E-02  0.9029585E-01
       -2   -1    0    0    0  501  0.00000000000E+00  0.00000000000E+00  0.22148030459E+03  0.22148030461E+03  0.25500000920E-02 0. -1.
        2   -1    0    0  501    0  0.00000000000E+00  0.00000000000E+00 -0.19075458463E+04  0.19075458463E+04  0.25500000920E-02 0.  1.
    10030    2    1    2    0    0  0.00000000000E+00  0.00000000000E+00 -0.16860655418E+04  0.21290261510E+04  0.12999751307E+04 0.  0.
        5    1    3    3  502    0 -0.15638893070E+03 -0.55376801299E+02  0.18619198739E+03  0.24942661031E+03  0.46999998093E+01 0. -1.
       -5    1    3    3    0  502  0.15638893070E+03  0.55376801299E+02 -0.18722575291E+04  0.18795995406E+04  0.46999998093E+01 0.  1.
</event>
<event>
 5   0  0.6618060E-05  0.1300564E+04  0.7818609E-02  0.9029118E-01
        2   -1    0    0  501    0  0.00000000000E+00  0.00000000000E+00  0.17365013594E+04  0.17365013594E+04  0.25500000920E-02 0.  1.
       -2   -1    0    0    0  501  0.00000000000E+00  0.00000000000E+00 -0.24351642674E+03  0.24351642675E+03  0.25500000920E-02 0. -1.
    10030    2    1    2    0    0  0.00000000000E+00  0.00000000000E+00  0.14929849326E+04  0.19800177861E+04  0.13005638870E+04 0.  0.
        2    1    3    3  502    0  0.38681663900E+03 -0.89593252413E+02 -0.37540692694E+02  0.39882748990E+03  0.25500000920E-02 0. -1.
       -2    1    3    3    0  502 -0.38681663900E+03  0.89593252413E+02  0.15305256253E+04  0.15811902962E+04  0.25500000920E-02 0.  1.
</event>
<event>
 5   0  0.6618060E-05  0.1297861E+04  0.7818609E-02  0.9031263E-01
       -2   -1    0    0    0  501  0.00000000000E+00  0.00000000000E+00  0.49128350765E+03  0.49128350766E+03  0.25500000920E-02 0. -1.
        2   -1    0    0  501    0  0.00000000000E+00  0.00000000000E+00 -0.85716421707E+03  0.85716421707E+03  0.25500000920E-02 0.  1.
    10030    2    1    2    0    0  0.00000000000E+00  0.00000000000E+00 -0.36588070942E+03  0.13484477247E+04  0.12978607679E+04 0.  0.
        2    1    3    3  502    0 -0.49271979070E+03  0.18667888166E+03 -0.57650409734E+03  0.78101137716E+03  0.25500000920E-02 0.  1.
       -2    1    3    3    0  502  0.49271979070E+03 -0.18667888166E+03  0.21062338792E+03  0.56743634757E+03  0.25500000920E-02 0. -1.
</event>
<event>
 5   0  0.6671239E-05  0.1299813E+04  0.7818609E-02  0.9029713E-01
        2   -1    0    0  501    0  0.00000000000E+00  0.00000000000E+00  0.14730779681E+04  0.14730779681E+04  0.25500000920E-02 0. -1.
       -2   -1    0    0    0  501  0.00000000000E+00  0.00000000000E+00 -0.28673201850E+03  0.28673201851E+03  0.25500000920E-02 0.  1.
    10030    2    1    2    0    0  0.00000000000E+00  0.00000000000E+00  0.11863459496E+04  0.17598099867E+04  0.12998132469E+04 0.  0.
        1    1    3    3  502    0  0.11150291565E+03 -0.57127346195E+03  0.98461557556E+03  0.11437893601E+04  0.50400001928E-02 0. -1.
       -1    1    3    3    0  502 -0.11150291565E+03  0.57127346195E+03  0.20173037409E+03  0.61602062659E+03  0.50400001928E-02 0.  1.
</event>
<event>
 5   0  0.3631841E-05  0.1299954E+04  0.7818609E-02  0.9029602E-01
       -1   -1    0    0    0  501  0.00000000000E+00  0.00000000000E+00  0.20111200880E+03  0.20111200886E+03  0.50400001928E-02 0.  1.
        1   -1    0    0  501    0  0.00000000000E+00  0.00000000000E+00 -0.21006702462E+04  0.21006702462E+04  0.50400001928E-02 0. -1.
    10030    2    1    2    0    0  0.00000000000E+00  0.00000000000E+00 -0.18995582374E+04  0.23017822551E+04  0.12999538655E+04 0.  0.
        3    1    3    3  502    0 -0.19663598699E+03  0.61556381494E+03 -0.10735418755E+04  0.12530270110E+04  0.10100000352E+00 0.  1.
       -3    1    3    3    0  502  0.19663598699E+03 -0.61556381494E+03 -0.82601636195E+03  0.10487552441E+04  0.10100000352E+00 0. -1.
</event>
<event>
 5   0  0.3631841E-05  0.1300001E+04  0.7818609E-02  0.9029565E-01
        1   -1    0    0  501    0  0.00000000000E+00  0.00000000000E+00  0.64420011928E+03  0.64420011930E+03  0.50400001928E-02 0. -1.
       -1   -1    0    0    0  501  0.00000000000E+00  0.00000000000E+00 -0.65585262018E+03  0.65585262020E+03  0.50400001928E-02 0.  1.
    10030    2    1    2    0    0  0.00000000000E+00  0.00000000000E+00 -0.11652500908E+02  0.13000527395E+04  0.13000005172E+04 0.  0.
        3    1    3    3  502    0 -0.49692786097E+03  0.10427929769E+03 -0.41166129913E+03  0.65366390931E+03  0.10100000352E+00 0.  1.
       -3    1    3    3    0  502  0.49692786097E+03 -0.10427929769E+03  0.40000879822E+03  0.64638883019E+03  0.10100000352E+00 0. -1.
</event>
<event>
 5   0  0.2512000E-05  0.1300772E+04  0.7818609E-02  0.9028953E-01
       -3   -1    0    0    0  501  0.00000000000E+00  0.00000000000E+00  0.11056899366E+04  0.11056899412E+04  0.10100000352E+00 0.  1.
        3   -1    0    0  501    0  0.00000000000E+00  0.00000000000E+00 -0.38256852754E+03  0.38256854087E+03  0.10100000352E+00 0. -1.
    10030    2    1    2    0    0  0.00000000000E+00  0.00000000000E+00  0.72312140906E+03  0.14882584821E+04  0.13007723618E+04 0.  0.
        4    1    3    3  502    0 -0.20168290753E+02  0.47146584402E+03  0.87363440014E+03  0.99293780270E+03  0.12699999809E+01 0.  1.
       -4    1    3    3    0  502  0.20168290753E+02 -0.47146584402E+03 -0.15051299108E+03  0.49532067937E+03  0.12699999809E+01 0. -1.
</event>
<event>
 5   0  0.6458698E-05  0.1300402E+04  0.7818609E-02  0.9029247E-01
       -2   -1    0    0    0  501  0.00000000000E+00  0.00000000000E+00  0.31333248048E+03  0.31333248049E+03  0.25500000920E-02 0. -1.
        2   -1    0    0  501    0  0.00000000000E+00  0.00000000000E+00 -0.13492410776E+04  0.13492410776E+04  0.25500000920E-02 0.  1.
    10030    2    1    2    0    0  0.00000000000E+00  0.00000000000E+00 -0.10359085971E+04  0.16625735580E+04  0.13004015589E+04 0.  0.
        3    1    3    3  502    0  0.19779249603E+03  0.15035533546E+03  0.25024959485E+03  0.35263787135E+03  0.10100000352E+00 0. -1.
       -3    1    3    3    0  502 -0.19779249603E+03 -0.15035533546E+03 -0.12861581919E+04  0.13099356867E+04  0.10100000352E+00 0.  1.
</event>
<event>
 5   0  0.3689707E-05  0.1299759E+04  0.7818609E-02  0.9029756E-01
        1   -1    0    0  501    0  0.00000000000E+00  0.00000000000E+00  0.60052171176E+03  0.60052171178E+03  0.50400001928E-02 0.  1.
       -1   -1    0    0    0  501  0.00000000000E+00  0.00000000000E+00 -0.70329445635E+03  0.70329445637E+03  0.50400001928E-02 0. -1.
    10030    2    1    2    0    0  0.00000000000E+00  0.00000000000E+00 -0.10277274459E+03  0.13038161681E+04  0.12997593482E+04 0.  0.
        1    1    3    3  502    0  0.24385855513E+02  0.28002968242E+03 -0.63916087489E+03  0.69823915459E+03  0.50400001928E-02 0. -1.
       -1    1    3    3    0  502 -0.24385855513E+02 -0.28002968242E+03  0.53638813030E+03  0.60557701355E+03  0.50400001928E-02 0.  1.
</event>
<event>
 5   0  0.6618060E-05  0.1299635E+04  0.7818609E-02  0.9029855E-01
       -2   -1    0    0    0  501  0.00000000000E+00  0.00000000000E+00  0.69080430712E+03  0.69080430712E+03  0.25500000920E-02 0. -1.
        2   -1    0    0  501    0  0.00000000000E+00  0.00000000000E+00 -0.61126267836E+03  0.61126267837E+03  0.25500000920E-02 0.  1.
    10030    2    1    2    0    0  0.00000000000E+00  0.00000000000E+00  0.79541628754E+02  0.13020669855E+04  0.12996351657E+04 0.  0.
        2    1    3    3  502    0 -0.18901783502E+03 -0.12906654649E+03  0.64908392392E+03  0.68825566157E+03  0.25500000920E-02 0. -1.
       -2    1    3    3    0  502  0.18901783502E+03  0.12906654649E+03 -0.56954229517E+03  0.61381132392E+03  0.25500000920E-02 0.  1.
</event>
<event>
 5   0  0.3551277E-05  0.1302354E+04  0.7818609E-02  0.9027700E-01
       -1   -1    0    0    0  501  0.00000000000E+00  0.00000000000E+00  0.44942310603E+03  0.44942310606E+03  0.50400001928E-02 0.  1.
        1   -1    0    0  501    0  0.00000000000E+00  0.00000000000E+00 -0.94350203932E+03  0.94350203933E+03  0.50400001928E-02 0. -1.
    10030    2    1    2    0    0  0.00000000000E+00  0.00000000000E+00 -0.49407893329E+03  0.13929251454E+04  0.13023542023E+04 0.  0.
        4    1    3    3  502    0 -0.47996826525E+03 -0.77682752897E+02  0.21624208753E+03  0.53213381688E+03  0.12699999809E+01 0.  1.
       -4    1    3    3    0  502  0.47996826525E+03  0.77682752897E+02 -0.71032102081E+03  0.86079132852E+03  0.12699999809E+01 0. -1.
</event>
<event>
 5   0  0.3689707E-05  0.1299817E+04  0.7818609E-02  0.9029711E-01
       -1   -1    0    0    0  501  0.00000000000E+00  0.00000000000E+00  0.33831671553E+03  0.33831671557E+03  0.50400001928E-02 0.  1.
        1   -1    0    0  501    0  0.00000000000E+00  0.00000000000E+00 -0.12484776019E+04  0.12484776019E+04  0.50400001928E-02 0. -1.
    10030    2    1    2    0    0  0.00000000000E+00  0.00000000000E+00 -0.91016088635E+03  0.15867943175E+04  0.12998166666E+04 0.  0.
        1    1    3    3  502    0  0.28488717453E+03  0.46780475859E+03 -0.28017671491E+02  0.54844050208E+03  0.50400001928E-02 0.  1.
       -1    1    3    3    0  502 -0.28488717453E+03 -0.46780475859E+03 -0.88214321485E+03  0.10383538154E+04  0.50400001928E-02 0. -1.
</event>
<event>
 5   0  0.3718559E-05  0.1299673E+04  0.7818609E-02  0.9029824E-01
       -1   -1    0    0    0  501  0.00000000000E+00  0.00000000000E+00  0.86559327609E+03  0.86559327610E+03  0.50400001928E-02 0. -1.
        1   -1    0    0  501    0  0.00000000000E+00  0.00000000000E+00 -0.48785905224E+03  0.48785905227E+03  0.50400001928E-02 0.  1.
    10030    2    1    2    0    0  0.00000000000E+00  0.00000000000E+00  0.37773422385E+03  0.13534523284E+04  0.12996730594E+04 0.  0.
        2    1    3    3  502    0  0.26790784740E+03 -0.58194925622E+03  0.30221950839E+03  0.70836161865E+03  0.25500000920E-02 0.  1.
       -2    1    3    3    0  502 -0.26790784740E+03  0.58194925622E+03  0.75514715460E+02  0.64509070972E+03  0.25500000920E-02 0. -1.
</event>
<event>
 5   0  0.3631841E-05  0.1301105E+04  0.7818609E-02  0.9028690E-01
       -1   -1    0    0    0  501  0.00000000000E+00  0.00000000000E+00  0.37641555191E+03  0.37641555195E+03  0.50400001928E-02 0.  1.
        1   -1    0    0  501    0  0.00000000000E+00  0.00000000000E+00 -0.11243382135E+04  0.11243382135E+04  0.50400001928E-02 0. -1.
    10030    2    1    2    0    0  0.00000000000E+00  0.00000000000E+00 -0.74792266158E+03  0.15007537655E+04  0.13011047447E+04 0.  0.
        3    1    3    3  502    0  0.16764488915E+03 -0.62819530151E+03 -0.34857940863E+03  0.73772742935E+03  0.10100000352E+00 0. -1.
       -3    1    3    3    0  502 -0.16764488915E+03  0.62819530151E+03 -0.39934325295E+03  0.76302633610E+03  0.10100000352E+00 0.  1.
</event>
<event>
 5   0  0.6742824E-05  0.1299460E+04  0.7818609E-02  0.9029994E-01
       -2   -1    0    0    0  501  0.00000000000E+00  0.00000000000E+00  0.26737975140E+03  0.26737975142E+03  0.25500000920E-02 0.  1.
        2   -1    0    0  501    0  0.00000000000E+00  0.00000000000E+00 -0.15788359539E+04  0.15788359539E+04  0.25500000920E-02 0. -1.
    10030    2    1    2    0    0  0.00000000000E+00  0.00000000000E+00 -0.13114562025E+04  0.18462157053E+04  0.12994595259E+04 0.  0.
        4    1    3    3  502    0 -0.40491639488E+03 -0.36248822556E+03 -0.11616294876E+04  0.12824740465E+04  0.12699999809E+01 0. -1.
       -4    1    3    3    0  502  0.40491639488E+03  0.36248822556E+03 -0.14982671490E+03  0.56374165884E+03  0.12699999809E+01 0.  1.
</event>
<event>
 5   0  0.6742824E-05  0.1300030E+04  0.7818609E-02  0.9029541E-01
       -2   -1    0    0    0  501  0.00000000000E+00  0.00000000000E+00  0.84532707473E+03  0.84532707473E+03  0.25500000920E-02 0. -1.
        2   -1    0    0  501    0  0.00000000000E+00  0.00000000000E+00 -0.49982971668E+03  0.49982971669E+03  0.25500000920E-02 0.  1.
    10030    2    1    2    0    0  0.00000000000E+00  0.00000000000E+00  0.34549735805E+03  0.13451567914E+04  0.13000301416E+04 0.  0.
        4    1    3    3  502    0 -0.53786388030E+03 -0.33419668092E+03  0.20913712357E+02  0.63358028026E+03  0.12699999809E+01 0. -1.
       -4    1    3    3    0  502  0.53786388030E+03  0.33419668092E+03  0.32458364569E+03  0.71157651115E+03  0.12699999809E+01 0.  1.
</event>
<event>
 5   0  0.3718559E-05  0.1300401E+04  0.7818609E-02  0.9029247E-01
        1   -1    0    0  501    0  0.00000000000E+00  0.00000000000E+00  0.70694963454E+03  0.70694963456E+03  0.50400001928E-02 0. -1.
       -1   -1    0    0    0  501  0.00000000000E+00  0.00000000000E+00 -0.59800671233E+03  0.59800671235E+03  0.50400001928E-02 0.  1.
    10030    2    1    2    0    0  0.00000000000E+00  0.00000000000E+00  0.10894292221E+03  0.13049563469E+04  0.13004009024E+04 0.  0.
        2    1    3    3  502    0  0.10676742763E+03  0.53974717947E+03 -0.29320192698E+03  0.62345302257E+03  0.25500000920E-02 0.  1.
       -2    1    3    3    0  502 -0.10676742763E+03 -0.53974717947E+03  0.40214484919E+03  0.68150332434E+03  0.25500000920E-02 0. -1.
</event>
<event>
 5   0  0.6742824E-05  0.1300180E+04  0.7818609E-02  0.9029423E-01
       -2   -1    0    0    0  501  0.00000000000E+00  0.00000000000E+00  0.65696570209E+03  0.65696570210E+03  0.25500000920E-02 0. -1.
        2   -1    0    0  501    0  0.00000000000E+00  0.00000000000E+00 -0.64328591670E+03  0.64328591671E+03  0.25500000920E-02 0.  1.
    10030    2    1    2    0    0  0.00000000000E+00  0.00000000000E+00  0.13679785391E+02  0.13002516188E+04  0.13001796552E+04 0.  0.
        4    1    3    3  502    0 -0.58766377804E+03  0.27778735483E+03  0.16872421890E+02  0.65023136039E+03  0.12699999809E+01 0. -1.
       -4    1    3    3    0  502  0.58766377804E+03 -0.27778735483E+03 -0.31926364995E+01  0.65002025841E+03  0.12699999809E+01 0.  1.
</event>
<event>
 5   0  0.6671239E-05  0.1301277E+04  0.7818609E-02  0.9028553E-01
       -2   -1    0    0    0  501  0.00000000000E+00  0.00000000000E+00  0.71631791373E+03  0.71631791374E+03  0.25500000920E-02 0.  1.
        2   -1    0    0  501    0  0.00000000000E+00  0.00000000000E+00 -0.59098109959E+03  0.59098109959E+03  0.25500000920E-02 0. -1.
    10030    2    1    2    0    0  0.00000000000E+00  0.00000000000E+00  0.12533681414E+03  0.13072990133E+04  0.13012768319E+04 0.  0.
        1    1    3    3  502    0 -0.15056118370E+03  0.25731473718E+03  0.64366202007E+03  0.70935205654E+03  0.50400001928E-02 0.  1.
       -1    1    3    3    0  502  0.15056118370E+03 -0.25731473718E+03 -0.51832520593E+03  0.59794695679E+03  0.50400001928E-02 0. -1.
</event>
<event>
 5   0  0.6742824E-05  0.1299922E+04  0.7818609E-02  0.9029627E-01
       -2   -1    0    0    0  501  0.00000000000E+00  0.00000000000E+00  0.50291672560E+03  0.50291672560E+03  0.25500000920E-02 0.  1.
        2   -1    0    0  501    0  0.00000000000E+00  0.00000000000E+00 -0.83999795346E+03  0.83999795347E+03  0.25500000920E-02 0. -1.
    10030    2    1    2    0    0  0.00000000000E+00  0.00000000000E+00 -0.33708122787E+03  0.13429146791E+04  0.12999215673E+04 0.  0.
        4    1    3    3  502    0 -0.34671943412E+03  0.51864067802E+03 -0.35690279561E+03  0.71873759976E+03  0.12699999809E+01 0. -1.
       -4    1    3    3    0  502  0.34671943412E+03 -0.51864067802E+03  0.19821567739E+02  0.62417707931E+03  0.12699999809E+01 0.  1.
</event>
<event>
 5   0  0.3631841E-05  0.1299766E+04  0.7818609E-02  0.9029751E-01
        1   -1    0    0  501    0  0.00000000000E+00  0.00000000000E+00  0.33646972446E+03  0.33646972450E+03  0.50400001928E-02 0. -1.
       -1   -1    0    0    0  501  0.00000000000E+00  0.00000000000E+00 -0.12552336021E+04  0.12552336021E+04  0.50400001928E-02 0.  1.
    10030    2    1    2    0    0  0.00000000000E+00  0.00000000000E+00 -0.91876387765E+03  0.15917033266E+04  0.12997662933E+04 0.  0.
        3    1    3    3  502    0  0.52050039123E+03 -0.35404323202E+03 -0.65715062571E+03  0.91000781452E+03  0.10100000352E+00 0.  1.
       -3    1    3    3    0  502 -0.52050039123E+03  0.35404323202E+03 -0.26161325194E+03  0.68169551209E+03  0.10100000352E+00 0. -1.
</event>
<event>
 5   0  0.6688086E-05  0.1299409E+04  0.7818609E-02  0.9030034E-01
        2   -1    0    0  501    0  0.00000000000E+00  0.00000000000E+00  0.11667146965E+04  0.11667146965E+04  0.25500000920E-02 0. -1.
       -2   -1    0    0    0  501  0.00000000000E+00  0.00000000000E+00 -0.36179853983E+03  0.36179853984E+03  0.25500000920E-02 0.  1.
    10030    2    1    2    0    0  0.00000000000E+00  0.00000000000E+00  0.80491615663E+03  0.15285132363E+04  0.12994085941E+04 0.  0.
        5    1    3    3  502    0  0.53046631908E+02  0.28648395159E+03 -0.28062179922E+03  0.40454626914E+03  0.46999998093E+01 0.  1.
       -5    1    3    3    0  502 -0.53046631908E+02 -0.28648395159E+03  0.10855379559E+04  0.11239669672E+04  0.46999998093E+01 0. -1.
</event>
<event>
 5   0  0.3631841E-05  0.1300334E+04  0.7818609E-02  0.9029300E-01
       -1   -1    0    0    0  501  0.00000000000E+00  0.00000000000E+00  0.51283570002E+03  0.51283570004E+03  0.50400001928E-02 0. -1.
        1   -1    0    0  501    0  0.00000000000E+00  0.00000000000E+00 -0.82427398712E+03  0.82427398713E+03  0.50400001928E-02 0.  1.
    10030    2    1    2    0    0  0.00000000000E+00  0.00000000000E+00 -0.31143828710E+03  0.13371096872E+04  0.13003339990E+04 0.  0.
        3    1    3    3  502    0 -0.45469208281E+03 -0.11794730597E+03 -0.61794368552E+03  0.77621573408E+03  0.10100000352E+00 0.  1.
       -3    1    3    3    0  502  0.45469208281E+03  0.11794730597E+03  0.30650539842E+03  0.56089395309E+03  0.10100000352E+00 0. -1.
</event>
<event>
 5   0  0.3631841E-05  0.1299990E+04  0.7818609E-02  0.9029573E-01
       -1   -1    0    0    0  501  0.00000000000E+00  0.00000000000E+00  0.42841141852E+03  0.42841141855E+03  0.50400001928E-02 0. -1.
        1   -1    0    0  501    0  0.00000000000E+00  0.00000000000E+00 -0.98618608366E+03  0.98618608367E+03  0.50400001928E-02 0.  1.
    10030    2    1    2    0    0  0.00000000000E+00  0.00000000000E+00 -0.55777466513E+03  0.14145975022E+04  0.12999898139E+04 0.  0.
        3    1    3    3  502    0 -0.47657247074E+03 -0.29745437370E+03 -0.63465580401E+03  0.84757797521E+03  0.10100000352E+00 0.  1.
       -3    1    3    3    0  502  0.47657247074E+03  0.29745437370E+03  0.76881138879E+02  0.56701952701E+03  0.10100000352E+00 0. -1.
</event>
<event>
 5   0  0.6458698E-05  0.1300476E+04  0.7818609E-02  0.9029188E-01
       -2   -1    0    0    0  501  0.00000000000E+00  0.00000000000E+00  0.44870988684E+03  0.44870988685E+03  0.25500000920E-02 0.  1.
        2   -1    0    0  501    0  0.00000000000E+00  0.00000000000E+00 -0.94227803830E+03  0.94227803831E+03  0.25500000920E-02 0. -1.
    10030    2    1    2    0    0  0.00000000000E+00  0.00000000000E+00 -0.49356815146E+03  0.13909879252E+04  0.13004760235E+04 0.  0.
        3    1    3    3  502    0  0.47498755708E+03  0.31079038915E+03  0.92475506877E+02  0.57511353222E+03  0.10100000352E+00 0. -1.
       -3    1    3    3    0  502 -0.47498755708E+03 -0.31079038915E+03 -0.58604365834E+03  0.81587439293E+03  0.10100000352E+00 0.  1.
</event>
<event>
 5   0  0.3689707E-05  0.1300744E+04  0.7818609E-02  0.9028976E-01
       -1   -1    0    0    0  501  0.00000000000E+00  0.00000000000E+00  0.33158893185E+03  0.33158893189E+03  0.50400001928E-02 0. -1.
        1   -1    0    0  501    0  0.00000000000E+00  0.00000000000E+00 -0.12756262874E+04  0.12756262874E+04  0.50400001928E-02 0.  1.
    10030    2    1    2    0    0  0.00000000000E+00  0.00000000000E+00 -0.94403735554E+03  0.16072152193E+04  0.13007437228E+04 0.  0.
        1    1    3    3  502    0  0.33700811302E+03 -0.40140365792E+03  0.37871169322E+01  0.52413138345E+03  0.50400001928E-02 0. -1.
       -1    1    3    3    0  502 -0.33700811302E+03  0.40140365792E+03 -0.94782447247E+03  0.10830838358E+04  0.50400001928E-02 0.  1.
</event>
<event>
 5   0  0.3551277E-05  0.1300415E+04  0.7818609E-02  0.9029236E-01
        1   -1    0    0  501    0  0.00000000000E+00  0.00000000000E+00  0.87897548636E+03  0.87897548637E+03  0.50400001928E-02 0.  1.
       -1   -1    0    0    0  501  0.00000000000E+00  0.00000000000E+00 -0.48098050668E+03  0.48098050671E+03  0.50400001928E-02 0. -1.
    10030    2    1    2    0    0  0.00000000000E+00  0.00000000000E+00  0.39799497967E+03  0.13599559931E+04  0.13004154333E+04 0.  0.
        4    1    3    3  502    0 -0.54065556725E+03  0.33924636801E+03  0.32865772844E+03  0.71792343323E+03  0.12699999809E+01 0. -1.
       -4    1    3    3    0  502  0.54065556725E+03 -0.33924636801E+03  0.69337251227E+02  0.64203255986E+03  0.12699999809E+01 0.  1.
</event>
<event>
 5   0  0.3552698E-05  0.1299922E+04  0.7818609E-02  0.9029627E-01
       -1   -1    0    0    0  501  0.00000000000E+00  0.00000000000E+00  0.67971203385E+03  0.67971203387E+03  0.50400001928E-02 0. -1.
        1   -1    0    0  501    0  0.00000000000E+00  0.00000000000E+00 -0.62151201019E+03  0.62151201021E+03  0.50400001928E-02 0.  1.
    10030    2    1    2    0    0  0.00000000000E+00  0.00000000000E+00  0.58200023658E+02  0.13012240441E+04  0.12999218323E+04 0.  0.
        5    1    3    3  502    0  0.23887656183E+02 -0.55162924508E+03  0.37231614471E+03  0.66596309640E+03  0.46999998093E+01 0. -1.
       -5    1    3    3    0  502 -0.23887656183E+02  0.55162924508E+03 -0.31411612106E+03  0.63526094769E+03  0.46999998093E+01 0.  1.
</event>
<event>
 5   0  0.3551277E-05  0.1300586E+04  0.7818609E-02  0.9029100E-01
        1   -1    0    0  501    0  0.00000000000E+00  0.00000000000E+00  0.48881682606E+03  0.48881682609E+03  0.50400001928E-02 0.  1.
       -1   -1    0    0    0  501  0.00000000000E+00  0.00000000000E+00 -0.86511181422E+03  0.86511181423E+03  0.50400001928E-02 0. -1.
    10030    2    1    2    0    0  0.00000000000E+00  0.00000000000E+00 -0.37629498816E+03  0.13539286403E+04  0.13005863466E+04 0.  0.
        4    1    3    3  502    0 -0.58555466552E+03 -0.22438747370E+03 -0.88765539687E+01  0.62713986540E+03  0.12699999809E+01 0.  1.
       -4    1    3    3    0  502  0.58555466552E+03  0.22438747370E+03 -0.36741843419E+03  0.72678877492E+03  0.12699999809E+01 0. -1.
</event>
<event>
 5   0  0.3689707E-05  0.1299070E+04  0.7818609E-02  0.9030303E-01
        1   -1    0    0  501    0  0.00000000000E+00  0.00000000000E+00  0.52476689177E+03  0.52476689180E+03  0.50400001928E-02 0. -1.
       -1   -1    0    0    0  501  0.00000000000E+00  0.00000000000E+00 -0.80396733122E+03  0.80396733123E+03  0.50400001928E-02 0.  1.
    10030    2    1    2    0    0  0.00000000000E+00  0.00000000000E+00 -0.27920043944E+03  0.13287342230E+04  0.12990695709E+04 0.  0.
        1    1    3    3  502    0 -0.31736996512E+03  0.74090094533E+02  0.43508614909E+03  0.54361106871E+03  0.50400001928E-02 0. -1.
       -1    1    3    3    0  502  0.31736996512E+03 -0.74090094533E+02 -0.71428658853E+03  0.78512315432E+03  0.50400001928E-02 0.  1.
</event>
<event>
 5   0  0.6742824E-05  0.1300000E+04  0.7818609E-02  0.9029565E-01
       -2   -1    0    0    0  501  0.00000000000E+00  0.00000000000E+00  0.33757358665E+03  0.33757358666E+03  0.25500000920E-02 0.  1.
        2   -1    0    0  501    0  0.00000000000E+00  0.00000000000E+00 -0.12515796554E+04  0.12515796554E+04  0.25500000920E-02 0. -1.
    10030    2    1    2    0    0  0.00000000000E+00  0.00000000000E+00 -0.91400606870E+03  0.15891532420E+04  0.13000003588E+04 0.  0.
        4    1    3    3  502    0  0.10152051100E+03 -0.73450138381E+02 -0.12366739395E+04  0.12430065899E+04  0.12699999809E+01 0. -1.
       -4    1    3    3    0  502 -0.10152051100E+03  0.73450138381E+02  0.32266787083E+03  0.34614665209E+03  0.12699999809E+01 0.  1.
</event>
<event>
 5   0  0.3551277E-05  0.1300138E+04  0.7818609E-02  0.9029456E-01
       -1   -1    0    0    0  501  0.00000000000E+00  0.00000000000E+00  0.31752158497E+03  0.31752158501E+03  0.50400001928E-02 0.  1.
        1   -1    0    0  501    0  0.00000000000E+00  0.00000000000E+00 -0.13309005771E+04  0.13309005771E+04  0.50400001928E-02 0. -1.
    10030    2    1    2    0    0  0.00000000000E+00  0.00000000000E+00 -0.10133789922E+04  0.16484221622E+04  0.13001379323E+04 0.  0.
        4    1    3    3  502    0  0.49227684981E+03  0.40916471764E+03 -0.36304459011E+03  0.73590437580E+03  0.12699999809E+01 0.  1.
       -4    1    3    3    0  502 -0.49227684981E+03 -0.40916471764E+03 -0.65033440206E+03  0.91251778636E+03  0.12699999809E+01 0. -1.
</event>
<event>
 5   0  0.3551277E-05  0.1300187E+04  0.7818609E-02  0.9029417E-01
       -1   -1    0    0    0  501  0.00000000000E+00  0.00000000000E+00  0.36494406268E+03  0.36494406272E+03  0.50400001928E-02 0.  1.
        1   -1    0    0  501    0  0.00000000000E+00  0.00000000000E+00 -0.11580447083E+04  0.11580447083E+04  0.50400001928E-02 0. -1.
    10030    2    1    2    0    0  0.00000000000E+00  0.00000000000E+00 -0.79310064564E+03  0.15229887710E+04  0.13001869722E+04 0.  0.
        4    1    3    3  502    0  0.98262134568E+02  0.60965865604E+03 -0.63454375031E+03  0.88543012595E+03  0.12699999809E+01 0. -1.
       -4    1    3    3    0  502 -0.98262134568E+02 -0.60965865604E+03 -0.15855689532E+03  0.63755864509E+03  0.12699999809E+01 0.  1.
</event>
<event>
 5   0  0.3631841E-05  0.1295741E+04  0.7818609E-02  0.9032950E-01
       -1   -1    0    0    0  501  0.00000000000E+00  0.00000000000E+00  0.50140067193E+03  0.50140067196E+03  0.50400001928E-02 0. -1.
        1   -1    0    0  501    0  0.00000000000E+00  0.00000000000E+00 -0.83712690356E+03  0.83712690357E+03  0.50400001928E-02 0.  1.
    10030    2    1    2    0    0  0.00000000000E+00  0.00000000000E+00 -0.33572623163E+03  0.13385275755E+04  0.12957407024E+04 0.  0.
        3    1    3    3  502    0  0.47732188913E+03 -0.10217134142E+02 -0.62026908008E+03  0.78273515162E+03  0.10100000352E+00 0.  1.
       -3    1    3    3    0  502 -0.47732188913E+03  0.10217134142E+02  0.28454284846E+03  0.55579242391E+03  0.10100000352E+00 0. -1.
</event>
<event>
 5   0  0.3631841E-05  0.1299717E+04  0.7818609E-02  0.9029790E-01
       -1   -1    0    0    0  501  0.00000000000E+00  0.00000000000E+00  0.37265549601E+03  0.37265549604E+03  0.50400001928E-02 0. -1.
        1   -1    0    0  501    0  0.00000000000E+00  0.00000000000E+00 -0.11332605447E+04  0.11332605447E+04  0.50400001928E-02 0.  1.
    10030    2    1    2    0    0  0.00000000000E+00  0.00000000000E+00 -0.76060504866E+03  0.15059160407E+04  0.12997165390E+04 0.  0.
        3    1    3    3  502    0  0.12627440907E+03  0.21097715076E+03 -0.10772850802E+04  0.11049885696E+04  0.10100000352E+00 0.  1.
       -3    1    3    3    0  502 -0.12627440907E+03 -0.21097715076E+03  0.31668003159E+03  0.40092747117E+03  0.10100000352E+00 0. -1.
</event>
<event>
 5   0  0.6742824E-05  0.1299702E+04  0.7818609E-02  0.9029802E-01
       -2   -1    0    0    0  501  0.00000000000E+00  0.00000000000E+00  0.32612334778E+03  0.32612334779E+03  0.25500000920E-02 0.  1.
        2   -1    0    0  501    0  0.00000000000E+00  0.00000000000E+00 -0.12949281124E+04  0.12949281124E+04  0.25500000920E-02 0. -1.
    10030    2    1    2    0    0  0.00000000000E+00  0.00000000000E+00 -0.96880476462E+03  0.16210514602E+04  0.12997019522E+04 0.  0.
        4    1    3    3  502    0 -0.25515635300E+03 -0.54043894193E+03 -0.16610789863E+03  0.62030029931E+03  0.12699999809E+01 0.  1.
       -4    1    3    3    0  502  0.25515635300E+03  0.54043894193E+03 -0.80269686599E+03  0.10007511609E+04  0.12699999809E+01 0. -1.
</event>
<event>
 5   0  0.3718559E-05  0.1299559E+04  0.7818609E-02  0.9029915E-01
       -1   -1    0    0    0  501  0.00000000000E+00  0.00000000000E+00  0.60802780610E+03  0.60802780612E+03  0.50400001928E-02 0. -1.
        1   -1    0    0  501    0  0.00000000000E+00  0.00000000000E+00 -0.69439811121E+03  0.69439811123E+03  0.50400001928E-02 0.  1.
    10030    2    1    2    0    0  0.00000000000E+00  0.00000000000E+00 -0.86370305113E+02  0.13024259173E+04  0.12995589408E+04 0.  0.
        2    1    3    3  502    0  0.39875517075E+03 -0.48678153544E+03  0.11919515944E+03  0.64044471696E+03  0.25500000920E-02 0. -1.
       -2    1    3    3    0  502 -0.39875517075E+03  0.48678153544E+03 -0.20556546455E+03  0.66198120039E+03  0.25500000920E-02 0.  1.
</event>
<event>
 5   0  0.3551277E-05  0.1299579E+04  0.7818609E-02  0.9029899E-01
       -1   -1    0    0    0  501  0.00000000000E+00  0.00000000000E+00  0.56185865667E+03  0.56185865669E+03  0.50400001928E-02 0.  1.
        1   -1    0    0  501    0  0.00000000000E+00  0.00000000000E+00 -0.75148093808E+03  0.75148093810E+03  0.50400001928E-02 0. -1.
    10030    2    1    2    0    0  0.00000000000E+00  0.00000000000E+00 -0.18962228142E+03  0.13133395948E+04  0.12995785015E+04 0.  0.
        4    1    3    3  502    0 -0.34440555616E+03 -0.27019084192E+03 -0.58011080349E+03  0.72673821656E+03  0.12699999809E+01 0. -1.
       -4    1    3    3    0  502  0.34440555616E+03  0.27019084192E+03  0.39048852208E+03  0.58660137823E+03  0.12699999809E+01 0.  1.
</event>
<event>
 5   0  0.6742824E-05  0.1300179E+04  0.7818609E-02  0.9029423E-01
       -2   -1    0    0    0  501  0.00000000000E+00  0.00000000000E+00  0.33892922441E+03  0.33892922442E+03  0.25500000920E-02 0. -1.
        2   -1    0    0  501    0  0.00000000000E+00  0.00000000000E+00 -0.12469156747E+04  0.12469156747E+04  0.25500000920E-02 0.  1.
    10030    2    1    2    0    0  0.00000000000E+00  0.00000000000E+00 -0.90798645025E+03  0.15858448991E+04  0.13001786993E+04 0.  0.
        4    1    3    3  502    0  0.26589694025E+03 -0.49816695615E+03 -0.61133806094E+02  0.56798807574E+03  0.12699999809E+01 0. -1.
       -4    1    3    3    0  502 -0.26589694025E+03  0.49816695615E+03 -0.84685264416E+03  0.10178568234E+04  0.12699999809E+01 0.  1.
</event>
<event>
 5   0  0.6688086E-05  0.1299305E+04  0.7818609E-02  0.9030116E-01
       -2   -1    0    0    0  501  0.00000000000E+00  0.00000000000E+00  0.98256219922E+03  0.98256219923E+03  0.25500000920E-02 0.  1.
        2   -1    0    0  501    0  0.00000000000E+00  0.00000000000E+00 -0.42953862828E+03  0.42953862829E+03  0.25500000920E-02 0. -1.
    10030    2    1    2    0    0  0.00000000000E+00  0.00000000000E+00  0.55302357094E+03  0.14121008275E+04  0.12993050747E+04 0.  0.
        5    1    3    3  502    0  0.38929004284E+03  0.34331352750E+02 -0.28748095720E+03  0.48517292792E+03  0.46999998093E+01 0. -1.
       -5    1    3    3    0  502 -0.38929004284E+03 -0.34331352750E+02  0.84050452814E+03  0.92692789960E+03  0.46999998093E+01 0.  1.
</event>
<event>
 5   0  0.3551277E-05  0.1299867E+04  0.7818609E-02  0.9029671E-01
       -1   -1    0    0    0  501  0.00000000000E+00  0.00000000000E+00  0.26946000399E+03  0.26946000404E+03  0.50400001928E-02 0.  1.
        1   -1    0    0  501    0  0.00000000000E+00  0.00000000000E+00 -0.15676298891E+04  0.15676298891E+04  0.50400001928E-02 0. -1.
    10030    2    1    2    0    0  0.00000000000E+00  0.00000000000E+00 -0.12981698851E+04  0.18370898932E+04  0.12998670028E+04 0.  0.
        4    1    3    3  502    0 -0.62895250547E+03 -0.20399964812E+02 -0.87878068086E+03  0.10808582287E+04  0.12699999809E+01 0. -1.
       -4    1    3    3    0  502  0.62895250547E+03  0.20399964812E+02 -0.41938920428E+03  0.75623166442E+03  0.12699999809E+01 0.  1.
</event>
<event>
 5   0  0.6742824E-05  0.1299354E+04  0.7818609E-02  0.9030077E-01
       -2   -1    0    0    0  501  0.00000000000E+00  0.00000000000E+00  0.36905579716E+03  0.36905579716E+03  0.25500000920E-02 0.  1.
        2   -1    0    0  501    0  0.00000000000E+00  0.00000000000E+00 -0.11436765963E+04  0.11436765963E+04  0.25500000920E-02 0. -1.
    10030    2    1    2    0    0  0.00000000000E+00  0.00000000000E+00 -0.77462079913E+03  0.15127323935E+04  0.12993544212E+04 0.  0.
        4    1    3    3  502    0 -0.55331110773E+03  0.23370007996E+03 -0.67558075242E+03  0.90398001928E+03  0.12699999809E+01 0. -1.
       -4    1    3    3    0  502  0.55331110773E+03 -0.23370007996E+03 -0.99040046715E+02  0.60875237418E+03  0.12699999809E+01 0.  1.
</event>
<event>
 5   0  0.6458698E-05  0.1300087E+04  0.7818609E-02  0.9029496E-01
       -2   -1    0    0    0  501  0.00000000000E+00  0.00000000000E+00  0.33812611814E+03  0.33812611815E+03  0.25500000920E-02 0. -1.
        2   -1    0    0  501    0  0.00000000000E+00  0.00000000000E+00 -0.12497006012E+04  0.12497006012E+04  0.25500000920E-02 0.  1.
    10030    2    1    2    0    0  0.00000000000E+00  0.00000000000E+00 -0.91157448306E+03  0.15878267194E+04  0.13000867865E+04 0.  0.
        3    1    3    3  502    0  0.18248136234E+03  0.35172759266E+03  0.17357334845E+03  0.43259619107E+03  0.10100000352E+00 0. -1.
       -3    1    3    3    0  502 -0.18248136234E+03 -0.35172759266E+03 -0.10851478315E+04  0.11552305283E+04  0.10100000352E+00 0.  1.
</event>
<event>
 5   0  0.3552698E-05  0.1299945E+04  0.7818609E-02  0.9029608E-01
       -1   -1    0    0    0  501  0.00000000000E+00  0.00000000000E+00  0.25669652738E+03  0.25669652743E+03  0.50400001928E-02 0. -1.
        1   -1    0    0  501    0  0.00000000000E+00  0.00000000000E+00 -0.16457742287E+04  0.16457742288E+04  0.50400001928E-02 0.  1.
    10030    2    1    2    0    0  0.00000000000E+00  0.00000000000E+00 -0.13890777014E+04  0.19024707562E+04  0.12999454287E+04 0.  0.
        5    1    3    3  502    0 -0.72334345756E+02  0.23958291189E+03  0.18332994095E+03  0.31026470392E+03  0.46999998093E+01 0. -1.
       -5    1    3    3    0  502  0.72334345756E+02 -0.23958291189E+03 -0.15724076423E+04  0.15922060523E+04  0.46999998093E+01 0.  1.
</event>
<event>
 5   0  0.6618060E-05  0.1300223E+04  0.7818609E-02  0.9029388E-01
        2   -1    0    0  501    0  0.00000000000E+00  0.00000000000E+00  0.41884487408E+03  0.41884487409E+03  0.25500000920E-02 0. -1.
       -2   -1    0    0    0  501  0.00000000000E+00  0.00000000000E+00 -0.10090733408E+04  0.10090733408E+04  0.25500000920E-02 0.  1.
    10030    2    1    2    0    0  0.00000000000E+00  0.00000000000E+00 -0.59022846674E+03  0.14279182149E+04  0.13002233599E+04 0.  0.
        2    1    3    3  502    0  0.91838037680E+02 -0.61616139115E+03 -0.49926348921E+03  0.79834398399E+03  0.25500000920E-02 0.  1.
       -2    1    3    3    0  502 -0.91838037680E+02  0.61616139115E+03 -0.90964977533E+02  0.62957423093E+03  0.25500000920E-02 0. -1.
</event>
<event>
 5   0  0.3552698E-05  0.1301006E+04  0.7818609E-02  0.9028768E-01
        1   -1    0    0  501    0  0.00000000000E+00  0.00000000000E+00  0.83741878122E+03  0.83741878123E+03  0.50400001928E-02 0. -1.
       -1   -1    0    0    0  501  0.00000000000E+00  0.00000000000E+00 -0.50530744992E+03  0.50530744994E+03  0.50400001928E-02 0.  1.
    10030    2    1    2    0    0  0.00000000000E+00  0.00000000000E+00  0.33211133130E+03  0.13427262312E+04  0.13010056862E+04 0.  0.
        5    1    3    3  502    0 -0.46858520708E+03  0.36783619239E+03  0.43569276342E+03  0.73805544156E+03  0.46999998093E+01 0. -1.
       -5    1    3    3    0  502  0.46858520708E+03 -0.36783619239E+03 -0.10358143212E+03  0.60467078961E+03  0.46999998093E+01 0.  1.
</event>
<event>
 5   0  0.6618060E-05  0.1300511E+04  0.7818609E-02  0.9029160E-01
       -2   -1    0    0    0  501  0.00000000000E+00  0.00000000000E+00  0.70970954220E+03  0.70970954221E+03  0.25500000920E-02 0. -1.
        2   -1    0    0  501    0  0.00000000000E+00  0.00000000000E+00 -0.59578163274E+03  0.59578163275E+03  0.25500000920E-02 0.  1.
    10030    2    1    2    0    0  0.00000000000E+00  0.00000000000E+00  0.11392790946E+03  0.13054911750E+04  0.13005105303E+04 0.  0.
        2    1    3    3  502    0 -0.40054304855E+02  0.64899640318E+03  0.51354068809E+02  0.65225602264E+03  0.25500000920E-02 0. -1.
       -2    1    3    3    0  502  0.40054304855E+02 -0.64899640318E+03  0.62573840648E+02  0.65323515232E+03  0.25500000920E-02 0.  1.
</event>
<event>
 5   0  0.3631841E-05  0.1299964E+04  0.7818609E-02  0.9029594E-01
        1   -1    0    0  501    0  0.00000000000E+00  0.00000000000E+00  0.28722498461E+03  0.28722498466E+03  0.50400001928E-02 0. -1.
       -1   -1    0    0    0  501  0.00000000000E+00  0.00000000000E+00 -0.14708902790E+04  0.14708902791E+04  0.50400001928E-02 0.  1.
    10030    2    1    2    0    0  0.00000000000E+00  0.00000000000E+00 -0.11836652944E+04  0.17581152637E+04  0.12999637500E+04 0.  0.
        3    1    3    3  502    0  0.51779453582E+03  0.11221232790E+01 -0.60472356050E+02  0.52131502619E+03  0.10100000352E+00 0. -1.
       -3    1    3    3    0  502 -0.51779453582E+03 -0.11221232790E+01 -0.11231929384E+04  0.12368002375E+04  0.10100000352E+00 0.  1.
</event>
<event>
 5   0  0.6458698E-05  0.1299927E+04  0.7818609E-02  0.9029623E-01
        2   -1    0    0  501    0  0.00000000000E+00  0.00000000000E+00  0.15299172271E+04  0.15299172271E+04  0.25500000920E-02 0.  1.
       -2   -1    0    0    0  501  0.00000000000E+00  0.00000000000E+00 -0.27612779659E+03  0.27612779660E+03  0.25500000920E-02 0. -1.
    10030    2    1    2    0    0  0.00000000000E+00  0.00000000000E+00  0.12537894305E+04  0.18060450237E+04  0.12999271870E+04 0.  0.
        3    1    3    3  502    0 -0.50277211638E+03 -0.18444984306E+03  0.11518786225E+03  0.54778627166E+03  0.10100000352E+00 0. -1.
       -3    1    3    3    0  502  0.50277211638E+03  0.18444984306E+03  0.11386015682E+04  0.12582587520E+04  0.10100000352E+00 0.  1.
</event>
<event>
 5   0  0.3718559E-05  0.1300496E+04  0.7818609E-02  0.9029172E-01
       -1   -1    0    0    0  501  0.00000000000E+00  0.00000000000E+00  0.76858928651E+03  0.76858928652E+03  0.50400001928E-02 0.  1.
        1   -1    0    0  501    0  0.00000000000E+00  0.00000000000E+00 -0.55012813685E+03  0.55012813687E+03  0.50400001928E-02 0. -1.
    10030    2    1    2    0    0  0.00000000000E+00  0.00000000000E+00  0.21846114966E+03  0.13187174234E+04  0.13004962010E+04 0.  0.
        2    1    3    3  502    0  0.31907088103E+03 -0.23464462501E+03  0.63216761207E+03  0.74598942145E+03  0.25500000920E-02 0.  1.
       -2    1    3    3    0  502 -0.31907088103E+03  0.23464462501E+03 -0.41370646241E+03  0.57272800194E+03  0.25500000920E-02 0. -1.
</event>
<event>
 5   0  0.3689707E-05  0.1300372E+04  0.7818609E-02  0.9029270E-01
       -1   -1    0    0    0  501  0.00000000000E+00  0.00000000000E+00  0.31194942684E+03  0.31194942688E+03  0.50400001928E-02 0. -1.
        1   -1    0    0  501    0  0.00000000000E+00  0.00000000000E+00 -0.13551615549E+04  0.13551615549E+04  0.50400001928E-02 0.  1.
    10030    2    1    2    0    0  0.00000000000E+00  0.00000000000E+00 -0.10432121280E+04  0.16671109817E+04  0.13003720550E+04 0.  0.
        1    1    3    3  502    0 -0.10654732688E+03  0.24558668484E+03  0.23801657425E+03  0.35821368243E+03  0.50400001928E-02 0. -1.
       -1    1    3    3    0  502  0.10654732688E+03 -0.24558668484E+03 -0.12812287023E+04  0.13088972993E+04  0.50400001928E-02 0.  1.
</event>
<event>
 5   0  0.6618060E-05  0.1300188E+04  0.7818609E-02  0.9029416E-01
       -2   -1    0    0    0  501  0.00000000000E+00  0.00000000000E+00  0.38213986362E+03  0.38213986363E+03  0.25500000920E-02 0.  1.
        2   -1    0    0  501    0  0.00000000000E+00  0.00000000000E+00 -0.11059353069E+04  0.11059353069E+04  0.25500000920E-02 0. -1.
    10030    2    1    2    0    0  0.00000000000E+00  0.00000000000E+00 -0.72379544329E+03  0.14880751705E+04  0.13001876286E+04 0.  0.
        2    1    3    3  502    0 -0.37380089226E+03  0.26347057933E+03 -0.89070268127E+03  0.10012467826E+04  0.25500000920E-02 0. -1.
       -2    1    3    3    0  502  0.37380089226E+03 -0.26347057933E+03  0.16690723797E+03  0.48682838796E+03  0.25500000920E-02 0.  1.
</event>
<event>
 5   0  0.3631841E-05  0.1300791E+04  0.7818609E-02  0.9028938E-01
       -1   -1    0    0    0  501  0.00000000000E+00  0.00000000000E+00  0.40366234486E+03  0.40366234490E+03  0.50400001928E-02 0.  1.
        1   -1    0    0  501    0  0.00000000000E+00  0.00000000000E+00 -0.10479404744E+04  0.10479404744E+04  0.50400001928E-02 0. -1.
    10030    2    1    2    0    0  0.00000000000E+00  0.00000000000E+00 -0.64427812953E+03  0.14516028193E+04  0.13007906968E+04 0.  0.
        3    1    3    3  502    0 -0.53028694233E+03  0.12033885002E+03 -0.72034071369E+03  0.90253888228E+03  0.10100000352E+00 0. -1.
       -3    1    3    3    0  502  0.53028694233E+03 -0.12033885002E+03  0.76062584163E+02  0.54906393702E+03  0.10100000352E+00 0.  1.
</event>
<event>
 5   0  0.6742824E-05  0.1299885E+04  0.7818609E-02  0.9029656E-01
       -2   -1    0    0    0  501  0.00000000000E+00  0.00000000000E+00  0.71007535718E+03  0.71007535718E+03  0.25500000920E-02 0.  1.
        2   -1    0    0  501    0  0.00000000000E+00  0.00000000000E+00 -0.59490198447E+03  0.59490198447E+03  0.25500000920E-02 0. -1.
    10030    2    1    2    0    0  0.00000000000E+00  0.00000000000E+00  0.11517337271E+03  0.13049773417E+04  0.12998849782E+04 0.  0.
        4    1    3    3  502    0 -0.23947875725E+03  0.23267611253E+03  0.61738697130E+03  0.70189495920E+03  0.12699999809E+01 0.  1.
       -4    1    3    3    0  502  0.23947875725E+03 -0.23267611253E+03 -0.50221359859E+03  0.60308238246E+03  0.12699999809E+01 0. -1.
</event>
<event>
 5   0  0.6458698E-05  0.1300392E+04  0.7818609E-02  0.9029254E-01
       -2   -1    0    0    0  501  0.00000000000E+00  0.00000000000E+00  0.44588869451E+03  0.44588869451E+03  0.25500000920E-02 0.  1.
        2   -1    0    0  501    0  0.00000000000E+00  0.00000000000E+00 -0.94811719281E+03  0.94811719281E+03  0.25500000920E-02 0. -1.
    10030    2    1    2    0    0  0.00000000000E+00  0.00000000000E+00 -0.50222849830E+03  0.13940058873E+04  0.13003918446E+04 0.  0.
        3    1    3    3  502    0  0.72106180152E+01  0.17504889115E+03 -0.92233748462E+03  0.93882935246E+03  0.10100000352E+00 0. -1.
       -3    1    3    3    0  502 -0.72106180152E+01 -0.17504889115E+03  0.42010898632E+03  0.45517653486E+03  0.10100000352E+00 0.  1.
</event>
<event>
 5   0  0.6688086E-05  0.1300010E+04  0.7818609E-02  0.9029557E-01
        2   -1    0    0  501    0  0.00000000000E+00  0.00000000000E+00  0.12283721887E+04  0.12283721887E+04  0.25500000920E-02 0. -1.
       -2   -1    0    0    0  501  0.00000000000E+00  0.00000000000E+00 -0.34395628831E+03  0.34395628832E+03  0.25500000920E-02 0.  1.
    10030    2    1    2    0    0  0.00000000000E+00  0.00000000000E+00  0.88441590044E+03  0.15723284771E+04  0.13000097518E+04 0.  0.
        5    1    3    3  502    0  0.48887821963E+02 -0.45142243428E+03 -0.12031078538E+03  0.46975419997E+03  0.46999998093E+01 0.  1.
       -5    1    3    3    0  502 -0.48887821963E+02  0.45142243428E+03  0.10047266858E+04  0.11025742771E+04  0.46999998093E+01 0. -1.
</event>
<event>
 5   0  0.3551277E-05  0.1299776E+04  0.7818609E-02  0.9029743E-01
        1   -1    0    0  501    0  0.00000000000E+00  0.00000000000E+00  0.12972210039E+04  0.12972210039E+04  0.50400001928E-02 0.  1.
       -1   -1    0    0    0  501  0.00000000000E+00  0.00000000000E+00 -0.32558382200E+03  0.32558382204E+03  0.50400001928E-02 0. -1.
    10030    2    1    2    0    0  0.00000000000E+00  0.00000000000E+00  0.97163718188E+03  0.16228048259E+04  0.12997756306E+04 0.  0.
        4    1    3    3  502    0  0.12069091173E+03  0.34314325249E+03  0.11582160734E+04  0.12139932757E+04  0.12699999809E+01 0.  1.
       -4    1    3    3    0  502 -0.12069091173E+03 -0.34314325249E+03 -0.18657889154E+03  0.40881155019E+03  0.12699999809E+01 0. -1.
</event>
<event>
 5   0  0.3631841E-05  0.1299649E+04  0.7818609E-02  0.9029843E-01
        1   -1    0    0  501    0  0.00000000000E+00  0.00000000000E+00  0.15789372213E+04  0.15789372213E+04  0.50400001928E-02 0.  1.
       -1   -1    0    0    0  501  0.00000000000E+00  0.00000000000E+00 -0.26744065586E+03  0.26744065590E+03  0.50400001928E-02 0. -1.
    10030    2    1    2    0    0  0.00000000000E+00  0.00000000000E+00  0.13114965654E+04  0.18463778772E+04  0.12996491928E+04 0.  0.
        3    1    3    3  502    0 -0.76403024610E+02  0.12397347976E+03  0.15554569611E+04  0.15622590099E+04  0.10100000352E+00 0.  1.
       -3    1    3    3    0  502  0.76403024610E+02 -0.12397347976E+03 -0.24396039574E+03  0.28411886727E+03  0.10100000352E+00 0. -1.
</event>
<event>
 5   0  0.3552698E-05  0.1302606E+04  0.7818609E-02  0.9027501E-01
       -1   -1    0    0    0  501  0.00000000000E+00  0.00000000000E+00  0.32565781887E+03  0.32565781891E+03  0.50400001928E-02 0. -1.
        1   -1    0    0  501    0  0.00000000000E+00  0.00000000000E+00 -0.13025808890E+04  0.13025808890E+04  0.50400001928E-02 0.  1.
    10030    2    1    2    0    0  0.00000000000E+00  0.00000000000E+00 -0.97692307016E+03  0.16282387080E+04  0.13026060821E+04 0.  0.
        5    1    3    3  502    0 -0.40898201939E+03  0.44717892774E+03 -0.19019321466E+03  0.63516205374E+03  0.46999998093E+01 0. -1.
       -5    1    3    3    0  502  0.40898201939E+03 -0.44717892774E+03 -0.78672985550E+03  0.99307665422E+03  0.46999998093E+01 0.  1.
</event>
<event>
 5   0  0.6742824E-05  0.1300038E+04  0.7818609E-02  0.9029535E-01
        2   -1    0    0  501    0  0.00000000000E+00  0.00000000000E+00  0.11687821544E+04  0.11687821544E+04  0.25500000920E-02 0. -1.
       -2   -1    0    0    0  501  0.00000000000E+00  0.00000000000E+00 -0.36150826594E+03  0.36150826595E+03  0.25500000920E-02 0.  1.
    10030    2    1    2    0    0  0.00000000000E+00  0.00000000000E+00  0.80727388845E+03  0.15302904204E+04  0.13000375532E+04 0.  0.
        4    1    3    3  502    0 -0.44631848047E+03  0.45177115933E+03  0.24042347363E+03  0.67904523118E+03  0.12699999809E+01 0.  1.
       -4    1    3    3    0  502  0.44631848047E+03 -0.45177115933E+03  0.56685041482E+03  0.85124518918E+03  0.12699999809E+01 0. -1.
</event>
<event>
 5   0  0.6671239E-05  0.1301150E+04  0.7818609E-02  0.9028654E-01
        2   -1    0    0  501    0  0.00000000000E+00  0.00000000000E+00  0.99936767471E+03  0.99936767472E+03  0.25500000920E-02 0. -1.
       -2   -1    0    0    0  501  0.00000000000E+00  0.00000000000E+00 -0.42351530527E+03  0.42351530528E+03  0.25500000920E-02 0.  1.
    10030    2    1    2    0    0  0.00000000000E+00  0.00000000000E+00  0.57585236945E+03  0.14228829800E+04  0.13011495008E+04 0.  0.
        1    1    3    3  502    0  0.51131427638E+03 -0.22530295416E+03 -0.76482848292E+02  0.56396217648E+03  0.50400001928E-02 0.  1.
       -1    1    3    3    0  502 -0.51131427638E+03  0.22530295416E+03  0.65233521774E+03  0.85892080352E+03  0.50400001928E-02 0. -1.
</event>
<event>
 5   0  0.6688086E-05  0.1299931E+04  0.7818609E-02  0.9029620E-01
       -2   -1    0    0    0  501  0.00000000000E+00  0.00000000000E+00  0.83648937645E+03  0.83648937645E+03  0.25500000920E-02 0.  1.
        2   -1    0    0  501    0  0.00000000000E+00  0.00000000000E+00 -0.50503378671E+03  0.50503378672E+03  0.25500000920E-02 0. -1.
    10030    2    1    2    0    0  0.00000000000E+00  0.00000000000E+00  0.33145558974E+03  0.13415231632E+04  0.12999313787E+04 0.  0.
        5    1    3    3  502    0 -0.12180484862E+03  0.63111429971E+03  0.66250577215E+02  0.64618334041E+03  0.46999998093E+01 0.  1.
       -5    1    3    3    0  502  0.12180484862E+03 -0.63111429971E+03  0.26520501252E+03  0.69533982276E+03  0.46999998093E+01 0. -1.
</event>
<event>
 5   0  0.6742824E-05  0.1300100E+04  0.7818609E-02  0.9029486E-01
        2   -1    0    0  501    0  0.00000000000E+00  0.00000000000E+00  0.13996943390E+04  0.13996943390E+04  0.25500000920E-02 0. -1.
       -2   -1    0    0    0  501  0.00000000000E+00  0.00000000000E+00 -0.30189799857E+03  0.30189799858E+03  0.25500000920E-02 0.  1.
    10030    2    1    2    0    0  0.00000000000E+00  0.00000000000E+00  0.10977963405E+04  0.17015923376E+04  0.13000998724E+04 0.  0.
        4    1    3    3  502    0  0.23554246475E+03 -0.57786866327E+03  0.78719936418E+03  0.10045381509E+04  0.12699999809E+01 0. -1.
       -4    1    3    3    0  502 -0.23554246475E+03  0.57786866327E+03  0.31059697629E+03  0.69705418676E+03  0.12699999809E+01 0.  1.
</event>
<event>
 5   0  0.6618060E-05  0.1299418E+04  0.7818609E-02  0.9030027E-01
        2   -1    0    0  501    0  0.00000000000E+00  0.00000000000E+00  0.74883556218E+03  0.74883556219E+03  0.25500000920E-02 0. -1.
       -2   -1    0    0    0  501  0.00000000000E+00  0.00000000000E+00 -0.56370458135E+03  0.56370458136E+03  0.25500000920E-02 0.  1.
    10030    2    1    2    0    0  0.00000000000E+00  0.00000000000E+00  0.18513098083E+03  0.13125401435E+04  0.12994183885E+04 0.  0.
        2    1    3    3  502    0  0.59618262255E+03  0.25612860852E+03  0.59271245579E+02  0.65157398973E+03  0.25500000920E-02 0. -1.
       -2    1    3    3    0  502 -0.59618262255E+03 -0.25612860852E+03  0.12585973525E+03  0.66096615382E+03  0.25500000920E-02 0.  1.
</event>
<event>
 5   0  0.6688086E-05  0.1300203E+04  0.7818609E-02  0.9029404E-01
        2   -1    0    0  501    0  0.00000000000E+00  0.00000000000E+00  0.11333845137E+04  0.11333845137E+04  0.25500000920E-02 0. -1.
       -2   -1    0    0    0  501  0.00000000000E+00  0.00000000000E+00 -0.37289356145E+03  0.37289356146E+03  0.25500000920E-02 0.  1.
    10030    2    1    2    0    0  0.00000000000E+00  0.00000000000E+00  0.76049095225E+03  0.15062780752E+04  0.13002027347E+04 0.  0.
        5    1    3    3  502    0  0.51722957396E+03 -0.33750612694E+03  0.14517412562E+03  0.63445601475E+03  0.46999998093E+01 0.  1.
       -5    1    3    3    0  502 -0.51722957396E+03  0.33750612694E+03  0.61531682663E+03  0.87182206042E+03  0.46999998093E+01 0. -1.
</event>
<event>
 5   0  0.6688086E-05  0.1300080E+04  0.7818609E-02  0.9029502E-01
        2   -1    0    0  501    0  0.00000000000E+00  0.00000000000E+00  0.94664522086E+03  0.94664522086E+03  0.25500000920E-02 0. -1.
       -2   -1    0    0    0  501  0.00000000000E+00  0.00000000000E+00 -0.44636791984E+03  0.44636791985E+03  0.25500000920E-02 0.  1.
    10030    2    1    2    0    0  0.00000000000E+00  0.00000000000E+00  0.50027730102E+03  0.13930131407E+04  0.13000800869E+04 0.  0.
        5    1    3    3  502    0  0.32980315475E+03  0.54259413243E+03  0.10108524086E+03  0.64297653872E+03  0.46999998093E+01 0.  1.
       -5    1    3    3    0  502 -0.32980315475E+03 -0.54259413243E+03  0.39919206016E+03  0.75003660199E+03  0.46999998093E+01 0. -1.
</event>
<event>
 5   0  0.3718559E-05  0.1300085E+04  0.7818609E-02  0.9029498E-01
       -1   -1    0    0    0  501  0.00000000000E+00  0.00000000000E+00  0.59956441206E+03  0.59956441208E+03  0.50400001928E-02 0.  1.
        1   -1    0    0  501    0  0.00000000000E+00  0.00000000000E+00 -0.70477052480E+03  0.70477052482E+03  0.50400001928E-02 0. -1.
    10030    2    1    2    0    0  0.00000000000E+00  0.00000000000E+00 -0.10520611274E+03  0.13043349369E+04  0.13000851132E+04 0.  0.
        2    1    3    3  502    0 -0.36847593128E+03 -0.53188950609E+03  0.98448245152E+01  0.64713049627E+03  0.25500000920E-02 0.  1.
       -2    1    3    3    0  502  0.36847593128E+03  0.53188950609E+03 -0.11505093726E+03  0.65720444064E+03  0.25500000920E-02 0. -1.
</event>
<event>
 5   0  0.3718559E-05  0.1299741E+04  0.7818609E-02  0.9029771E-01
       -1   -1    0    0    0  501  0.00000000000E+00  0.00000000000E+00  0.24357335337E+03  0.24357335343E+03  0.50400001928E-02 0. -1.
        1   -1    0    0  501    0  0.00000000000E+00  0.00000000000E+00 -0.17338982642E+04  0.17338982642E+04  0.50400001928E-02 0.  1.
    10030    2    1    2    0    0  0.00000000000E+00  0.00000000000E+00 -0.14903249108E+04  0.19774716176E+04  0.12997406121E+04 0.  0.
        2    1    3    3  502    0 -0.30605514116E+03  0.53866421855E+02 -0.16135278280E+04  0.16431808764E+04  0.25500000920E-02 0.  1.
       -2    1    3    3    0  502  0.30605514116E+03 -0.53866421855E+02  0.12320291721E+03  0.33429074120E+03  0.25500000920E-02 0. -1.
</event>
<event>
 5   0  0.2512000E-05  0.1299816E+04  0.7818609E-02  0.9029711E-01
       -4   -1    0    0    0  501  0.00000000000E+00  0.00000000000E+00  0.36948496977E+03  0.36948715240E+03  0.12699999809E+01 0. -1.
        4   -1    0    0  501    0  0.00000000000E+00  0.00000000000E+00 -0.11431536664E+04  0.11431543719E+04  0.12699999809E+01 0.  1.
    10030    2    1    2    0    0  0.00000000000E+00  0.00000000000E+00 -0.77366869666E+03  0.15126415243E+04  0.12998158057E+04 0.  0.
        3    1    3    3  502    0 -0.56192997507E+03 -0.76091396180E+02 -0.75635480034E+03  0.94531888358E+03  0.10100000352E+00 0.  1.
       -3    1    3    3    0  502  0.56192997507E+03  0.76091396180E+02 -0.17313896325E+02  0.56732264071E+03  0.10100000352E+00 0. -1.
</event>
<event>
 5   0  0.3552698E-05  0.1299750E+04  0.7818609E-02  0.9029764E-01
        1   -1    0    0  501    0  0.00000000000E+00  0.00000000000E+00  0.15341450498E+04  0.15341450498E+04  0.50400001928E-02 0.  1.
       -1   -1    0    0    0  501  0.00000000000E+00  0.00000000000E+00 -0.27529168749E+03  0.27529168754E+03  0.50400001928E-02 0. -1.
    10030    2    1    2    0    0  0.00000000000E+00  0.00000000000E+00  0.12588533623E+04  0.18094367373E+04  0.12997497908E+04 0.  0.
        5    1    3    3  502    0  0.42108464199E+03  0.48529785769E+03  0.49381598491E+03  0.81037189200E+03  0.46999998093E+01 0. -1.
       -5    1    3    3    0  502 -0.42108464199E+03 -0.48529785769E+03  0.76503737739E+03  0.99906484534E+03  0.46999998093E+01 0.  1.
</event>
<event>
 5   0  0.6458698E-05  0.1300131E+04  0.7818609E-02  0.9029461E-01
        2   -1    0    0  501    0  0.00000000000E+00  0.00000000000E+00  0.50632422065E+03  0.50632422065E+03  0.25500000920E-02 0.  1.
       -2   -1    0    0    0  501  0.00000000000E+00  0.00000000000E+00 -0.83461378630E+03  0.83461378630E+03  0.25500000920E-02 0. -1.
    10030    2    1    2    0    0  0.00000000000E+00  0.00000000000E+00 -0.32828956565E+03  0.13409380070E+04  0.13001310317E+04 0.  0.
        3    1    3    3  502    0 -0.18743708135E+03  0.51993575475E+03  0.18882362845E+03  0.58405498148E+03  0.10100000352E+00 0.  1.
       -3    1    3    3    0  502  0.18743708135E+03 -0.51993575475E+03 -0.51711319411E+03  0.75688302547E+03  0.10100000352E+00 0. -1.
</event>
<event>
 5   0  0.3689707E-05  0.1299855E+04  0.7818609E-02  0.9029680E-01
        1   -1    0    0  501    0  0.00000000000E+00  0.00000000000E+00  0.47510545846E+03  0.47510545848E+03  0.50400001928E-02 0.  1.
       -1   -1    0    0    0  501  0.00000000000E+00  0.00000000000E+00 -0.88907808171E+03  0.88907808172E+03  0.50400001928E-02 0. -1.
    10030    2    1    2    0    0  0.00000000000E+00  0.00000000000E+00 -0.41397262325E+03  0.13641835402E+04  0.12998551452E+04 0.  0.
        1    1    3    3  502    0 -0.61081609207E+03 -0.18361254877E+03 -0.75922067494E+02  0.64231925610E+03  0.50400001928E-02 0.  1.
       -1    1    3    3    0  502  0.61081609207E+03  0.18361254877E+03 -0.33805055576E+03  0.72186428411E+03  0.50400001928E-02 0. -1.
</event>
<event>
 5   0  0.3718559E-05  0.1299315E+04  0.7818609E-02  0.9030109E-01
        1   -1    0    0  501    0  0.00000000000E+00  0.00000000000E+00  0.71748164392E+03  0.71748164393E+03  0.50400001928E-02 0. -1.
       -1   -1    0    0    0  501  0.00000000000E+00  0.00000000000E+00 -0.58824479896E+03  0.58824479898E+03  0.50400001928E-02 0.  1.
    10030    2    1    2    0    0  0.00000000000E+00  0.00000000000E+00  0.12923684496E+03  0.13057264429E+04  0.12993149663E+04 0.  0.
        2    1    3    3  502    0  0.41111550733E+03 -0.28905074648E+03 -0.34910293574E+03  0.61191433563E+03  0.25500000920E-02 0.  1.
       -2    1    3    3    0  502 -0.41111550733E+03  0.28905074648E+03  0.47833978070E+03  0.69381210728E+03  0.25500000920E-02 0. -1.
</event>
<event>
 5   0  0.3552698E-05  0.1300392E+04  0.7818609E-02  0.9029254E-01
       -1   -1    0    0    0  501  0.00000000000E+00  0.00000000000E+00  0.83733341287E+03  0.83733341289E+03  0.50400001928E-02 0. -1.
        1   -1    0    0  501    0  0.00000000000E+00  0.00000000000E+00 -0.50488263574E+03  0.50488263577E+03  0.50400001928E-02 0.  1.
    10030    2    1    2    0    0  0.00000000000E+00  0.00000000000E+00  0.33245077713E+03  0.13422160487E+04  0.13003924031E+04 0.  0.
        5    1    3    3  502    0 -0.41979627985E+02  0.64882209483E+03  0.16703193896E+03  0.67130779716E+03  0.46999998093E+01 0. -1.
       -5    1    3    3    0  502  0.41979627985E+02 -0.64882209483E+03  0.16541883817E+03  0.67090825149E+03  0.46999998093E+01 0.  1.
</event>
<event>
 5   0  0.6618060E-05  0.1292747E+04  0.7818609E-02  0.9035336E-01
        2   -1    0    0  501    0  0.00000000000E+00  0.00000000000E+00  0.14652222225E+04  0.14652222225E+04  0.25500000920E-02 0.  1.
       -2   -1    0    0    0  501  0.00000000000E+00  0.00000000000E+00 -0.28514376091E+03  0.28514376092E+03  0.25500000920E-02 0. -1.
    10030    2    1    2    0    0  0.00000000000E+00  0.00000000000E+00  0.11800784615E+04  0.17503659834E+04  0.12927474233E+04 0.  0.
        2    1    3    3  502    0 -0.41728301709E+03 -0.35139283269E+03  0.10594595475E+04  0.11916612656E+04  0.25500000920E-02 0. -1.
       -2    1    3    3    0  502  0.41728301709E+03  0.35139283269E+03  0.12061891406E+03  0.55870471777E+03  0.25500000920E-02 0.  1.
</event>
<event>
 5   0  0.6742824E-05  0.1300443E+04  0.7818609E-02  0.9029214E-01
       -2   -1    0    0    0  501  0.00000000000E+00  0.00000000000E+00  0.56272819063E+03  0.56272819063E+03  0.25500000920E-02 0.  1.
        2   -1    0    0  501    0  0.00000000000E+00  0.00000000000E+00 -0.75131831886E+03  0.75131831886E+03  0.25500000920E-02 0. -1.
    10030    2    1    2    0    0  0.00000000000E+00  0.00000000000E+00 -0.18859012823E+03  0.13140465095E+04  0.13004429986E+04 0.  0.
        4    1    3    3  502    0  0.43849816735E+03  0.74837465385E+02 -0.57349755229E+03  0.72579772965E+03  0.12699999809E+01 0. -1.
       -4    1    3    3    0  502 -0.43849816735E+03 -0.74837465385E+02  0.38490742406E+03  0.58824877984E+03  0.12699999809E+01 0.  1.
</event>
<event>
 5   0  0.3631841E-05  0.1299803E+04  0.7818609E-02  0.9029721E-01
       -1   -1    0    0    0  501  0.00000000000E+00  0.00000000000E+00  0.31723540724E+03  0.31723540728E+03  0.50400001928E-02 0. -1.
        1   -1    0    0  501    0  0.00000000000E+00  0.00000000000E+00 -0.13314155390E+04  0.13314155390E+04  0.50400001928E-02 0.  1.
    10030    2    1    2    0    0  0.00000000000E+00  0.00000000000E+00 -0.10141801317E+04  0.16486509463E+04  0.12998032940E+04 0.  0.
        3    1    3    3  502    0 -0.32939615373E+03  0.50485863303E+03 -0.19903156670E+03  0.63482095128E+03  0.10100000352E+00 0. -1.
       -3    1    3    3    0  502  0.32939615373E+03 -0.50485863303E+03 -0.81514856503E+03  0.10138299950E+04  0.10100000352E+00 0.  1.
</event>
<event>
 5   0  0.6618060E-05  0.1300070E+04  0.7818609E-02  0.9029510E-01
       -2   -1    0    0    0  501  0.00000000000E+00  0.00000000000E+00  0.83757476491E+03  0.83757476492E+03  0.25500000920E-02 0. -1.
        2   -1    0    0  501    0  0.00000000000E+00  0.00000000000E+00 -0.50448674110E+03  0.50448674111E+03  0.25500000920E-02 0.  1.
    10030    2    1    2    0    0  0.00000000000E+00  0.00000000000E+00  0.33308802381E+03  0.13420615060E+04  0.13000697883E+04 0.  0.
        2    1    3    3  502    0 -0.17625076534E+03 -0.21612302946E+02 -0.47896435211E+03  0.51082117666E+03  0.25500000920E-02 0.  1.
       -2    1    3    3    0  502  0.17625076534E+03  0.21612302946E+02  0.81205237592E+03  0.83124032937E+03  0.25500000920E-02 0. -1.
</event>
<event>
 5   0  0.3552698E-05  0.1300294E+04  0.7818609E-02  0.9029332E-01
        1   -1    0    0  501    0  0.00000000000E+00  0.00000000000E+00  0.16824737762E+04  0.16824737762E+04  0.50400001928E-02 0.  1.
       -1   -1    0    0    0  501  0.00000000000E+00  0.00000000000E+00 -0.25123175169E+03  0.25123175175E+03  0.50400001928E-02 0. -1.
    10030    2    1    2    0    0  0.00000000000E+00  0.00000000000E+00  0.14312420245E+04  0.19337055279E+04  0.13002935577E+04 0.  0.
        5    1    3    3  502    0  0.36703572686E+03  0.53575557386E+03  0.67052677040E+03  0.93347603051E+03  0.46999998093E+01 0.  1.
       -5    1    3    3    0  502 -0.36703572686E+03 -0.53575557386E+03  0.76071525408E+03  0.10002294974E+04  0.46999998093E+01 0. -1.
</event>
<event>
 5   0  0.2512000E-05  0.1300331E+04  0.7818609E-02  0.9029303E-01
        3   -1    0    0  501    0  0.00000000000E+00  0.00000000000E+00  0.36292850818E+03  0.36292852223E+03  0.10100000352E+00 0. -1.
       -3   -1    0    0    0  501  0.00000000000E+00  0.00000000000E+00 -0.11647335182E+04  0.11647335226E+04  0.10100000352E+00 0.  1.
    10030    2    1    2    0    0  0.00000000000E+00  0.00000000000E+00 -0.80180501000E+03  0.15276620448E+04  0.13003307460E+04 0.  0.
        4    1    3    3  502    0 -0.59155065214E+03 -0.50066205170E+02 -0.71234125639E+03  0.92729201301E+03  0.12699999809E+01 0.  1.
       -4    1    3    3    0  502  0.59155065214E+03  0.50066205170E+02 -0.89463753609E+02  0.60037003178E+03  0.12699999809E+01 0. -1.
</event>
<event>
 5   0  0.3551277E-05  0.1300025E+04  0.7818609E-02  0.9029545E-01
        1   -1    0    0  501    0  0.00000000000E+00  0.00000000000E+00  0.85755831727E+03  0.85755831728E+03  0.50400001928E-02 0.  1.
       -1   -1    0    0    0  501  0.00000000000E+00  0.00000000000E+00 -0.49269692100E+03  0.49269692103E+03  0.50400001928E-02 0. -1.
    10030    2    1    2    0    0  0.00000000000E+00  0.00000000000E+00  0.36486139626E+03  0.13502552383E+04  0.13000251421E+04 0.  0.
        4    1    3    3  502    0 -0.11862837368E+03 -0.18475978240E+03 -0.45301352120E+03  0.50342003489E+03  0.12699999809E+01 0. -1.
       -4    1    3    3    0  502  0.11862837368E+03  0.18475978240E+03  0.81787491747E+03  0.84683520342E+03  0.12699999809E+01 0.  1.
</event>
<event>
 5   0  0.3718559E-05  0.1298372E+04  0.7818609E-02  0.9030857E-01
       -1   -1    0    0    0  501  0.00000000000E+00  0.00000000000E+00  0.79663843193E+03  0.79663843195E+03  0.50400001928E-02 0. -1.
        1   -1    0    0  501    0  0.00000000000E+00  0.00000000000E+00 -0.52902611945E+03  0.52902611947E+03  0.50400001928E-02 0.  1.
    10030    2    1    2    0    0  0.00000000000E+00  0.00000000000E+00  0.26761231249E+03  0.13256645514E+04  0.12983721166E+04 0.  0.
        2    1    3    3  502    0 -0.26656926097E+03  0.30796046290E+03  0.64994562446E+03  0.76702550959E+03  0.25500000920E-02 0. -1.
       -2    1    3    3    0  502  0.26656926097E+03 -0.30796046290E+03 -0.38233331198E+03  0.55863904183E+03  0.25500000920E-02 0.  1.
</event>
<event>
 5   0  0.3552698E-05  0.1300208E+04  0.7818609E-02  0.9029401E-01
        1   -1    0    0  501    0  0.00000000000E+00  0.00000000000E+00  0.12836674420E+04  0.12836674420E+04  0.50400001928E-02 0.  1.
       -1   -1    0    0    0  501  0.00000000000E+00  0.00000000000E+00 -0.32924017285E+03  0.32924017289E+03  0.50400001928E-02 0. -1.
    10030    2    1    2    0    0  0.00000000000E+00  0.00000000000E+00  0.95442726917E+03  0.16129076149E+04  0.13002075073E+04 0.  0.
        5    1    3    3  502    0 -0.32573568861E+03  0.42121772500E+03  0.93984650471E+03  0.10802137071E+04  0.46999998093E+01 0.  1.
       -5    1    3    3    0  502  0.32573568861E+03 -0.42121772500E+03  0.14580764461E+02  0.53269390777E+03  0.46999998093E+01 0. -1.
</event>
<event>
 5   0  0.3689707E-05  0.1299431E+04  0.7818609E-02  0.9030017E-01
       -1   -1    0    0    0  501  0.00000000000E+00  0.00000000000E+00  0.47546001660E+03  0.47546001662E+03  0.50400001928E-02 0. -1.
        1   -1    0    0  501    0  0.00000000000E+00  0.00000000000E+00 -0.88783520133E+03  0.88783520134E+03  0.50400001928E-02 0.  1.
    10030    2    1    2    0    0  0.00000000000E+00  0.00000000000E+00 -0.41237518473E+03  0.13632952180E+04  0.12994308594E+04 0.  0.
        1    1    3    3  502    0 -0.29055823310E+03 -0.32097192733E+03  0.30206267954E+03  0.52790996140E+03  0.50400001928E-02 0. -1.
       -1    1    3    3    0  502  0.29055823310E+03  0.32097192733E+03 -0.71443786427E+03  0.83538525656E+03  0.50400001928E-02 0.  1.
</event>
<event>
 5   0  0.6458698E-05  0.1300225E+04  0.7818609E-02  0.9029387E-01
        2   -1    0    0  501    0  0.00000000000E+00  0.00000000000E+00  0.16762116434E+04  0.16762116434E+04  0.25500000920E-02 0. -1.
       -2   -1    0    0    0  501  0.00000000000E+00  0.00000000000E+00 -0.25214366361E+03  0.25214366362E+03  0.25500000920E-02 0.  1.
    10030    2    1    2    0    0  0.00000000000E+00  0.00000000000E+00  0.14240679798E+04  0.19283553071E+04  0.13002248187E+04 0.  0.
        3    1    3    3  502    0 -0.71586386260E+02  0.44490766201E+03  0.17067751839E+02  0.45095316472E+03  0.10100000352E+00 0.  1.
       -3    1    3    3    0  502  0.71586386260E+02 -0.44490766201E+03  0.14070002280E+04  0.14774021423E+04  0.10100000352E+00 0. -1.
</event>
<event>
 5   0  0.6458698E-05  0.1299733E+04  0.7818609E-02  0.9029777E-01
        2   -1    0    0  501    0  0.00000000000E+00  0.00000000000E+00  0.14406141549E+04  0.14406141549E+04  0.25500000920E-02 0.  1.
       -2   -1    0    0    0  501  0.00000000000E+00  0.00000000000E+00 -0.29315725523E+03  0.29315725525E+03  0.25500000920E-02 0. -1.
    10030    2    1    2    0    0  0.00000000000E+00  0.00000000000E+00  0.11474568996E+04  0.17337714101E+04  0.12997330364E+04 0.  0.
        3    1    3    3  502    0  0.11955987656E+03 -0.59435377476E+02 -0.27466360941E+03  0.30539685118E+03  0.10100000352E+00 0. -1.
       -3    1    3    3    0  502 -0.11955987656E+03  0.59435377476E+02  0.14221205090E+04  0.14283745589E+04  0.10100000352E+00 0.  1.
</event>
<event>
 5   0  0.3552698E-05  0.1299720E+04  0.7818609E-02  0.9029788E-01
        1   -1    0    0  501    0  0.00000000000E+00  0.00000000000E+00  0.15420681726E+04  0.15420681726E+04  0.50400001928E-02 0.  1.
       -1   -1    0    0    0  501  0.00000000000E+00  0.00000000000E+00 -0.27386450805E+03  0.27386450810E+03  0.50400001928E-02 0. -1.
    10030    2    1    2    0    0  0.00000000000E+00  0.00000000000E+00  0.12682036646E+04  0.18159326807E+04  0.12997195721E+04 0.  0.
        5    1    3    3  502    0 -0.59520867804E+03 -0.61720578790E+02  0.98814894975E+03  0.11552243233E+04  0.46999998093E+01 0. -1.
       -5    1    3    3    0  502  0.59520867804E+03  0.61720578790E+02  0.28005471480E+03  0.66070835740E+03  0.46999998093E+01 0.  1.
</event>
<event>
 5   0  0.3631841E-05  0.1299274E+04  0.7818609E-02  0.9030141E-01
       -1   -1    0    0    0  501  0.00000000000E+00  0.00000000000E+00  0.53104278749E+03  0.53104278751E+03  0.50400001928E-02 0.  1.
        1   -1    0    0  501    0  0.00000000000E+00  0.00000000000E+00 -0.79471616071E+03  0.79471616073E+03  0.50400001928E-02 0. -1.
    10030    2    1    2    0    0  0.00000000000E+00  0.00000000000E+00 -0.26367337323E+03  0.13257589482E+04  0.12992740824E+04 0.  0.
        3    1    3    3  502    0  0.54310885406E+03  0.20137317512E+02 -0.49497818448E+03  0.73510281746E+03  0.10100000352E+00 0. -1.
       -3    1    3    3    0  502 -0.54310885406E+03 -0.20137317512E+02  0.23130481125E+03  0.59065613078E+03  0.10100000352E+00 0.  1.
</event>
<event>
 5   0  0.3631841E-05  0.1297659E+04  0.7818609E-02  0.9031424E-01
        1   -1    0    0  501    0  0.00000000000E+00  0.00000000000E+00  0.52642017024E+03  0.52642017026E+03  0.50400001928E-02 0.  1.
       -1   -1    0    0    0  501  0.00000000000E+00  0.00000000000E+00 -0.79970233515E+03  0.79970233517E+03  0.50400001928E-02 0. -1.
    10030    2    1    2    0    0  0.00000000000E+00  0.00000000000E+00 -0.27328216491E+03  0.13261225054E+04  0.12976585675E+04 0.  0.
        3    1    3    3  502    0  0.49458407153E+03  0.28094031782E+02  0.29156882464E+03  0.57481742157E+03  0.10100000352E+00 0.  1.
       -3    1    3    3    0  502 -0.49458407153E+03 -0.28094031782E+02 -0.56485098955E+03  0.75130508386E+03  0.10100000352E+00 0. -1.
</event>
<event>
 5   0  0.6618060E-05  0.1299900E+04  0.7818609E-02  0.9029644E-01
       -2   -1    0    0    0  501  0.00000000000E+00  0.00000000000E+00  0.61331139829E+03  0.61331139829E+03  0.25500000920E-02 0.  1.
        2   -1    0    0  501    0  0.00000000000E+00  0.00000000000E+00 -0.68877788348E+03  0.68877788349E+03  0.25500000920E-02 0. -1.
    10030    2    1    2    0    0  0.00000000000E+00  0.00000000000E+00 -0.75466485198E+02  0.13020892818E+04  0.12999004990E+04 0.  0.
        2    1    3    3  502    0  0.34828368676E+03 -0.54724360683E+03  0.30567579607E+01  0.64868053421E+03  0.25500000920E-02 0.  1.
       -2    1    3    3    0  502 -0.34828368676E+03  0.54724360683E+03 -0.78523243159E+02  0.65340874757E+03  0.25500000920E-02 0. -1.
</event>
<event>
 5   0  0.6618060E-05  0.1299973E+04  0.7818609E-02  0.9029587E-01
       -2   -1    0    0    0  501  0.00000000000E+00  0.00000000000E+00  0.26623453033E+03  0.26623453034E+03  0.25500000920E-02 0.  1.
        2   -1    0    0  501    0  0.00000000000E+00  0.00000000000E+00 -0.15868804485E+04  0.15868804485E+04  0.25500000920E-02 0. -1.
    10030    2    1    2    0    0  0.00000000000E+00  0.00000000000E+00 -0.13206459182E+04  0.18531149789E+04  0.12999728780E+04 0.  0.
        2    1    3    3  502    0  0.50798473565E+03  0.12970856265E+03 -0.12080010017E+04  0.13168672002E+04  0.25500000920E-02 0. -1.
       -2    1    3    3    0  502 -0.50798473565E+03 -0.12970856265E+03 -0.11264491648E+03  0.53624777864E+03  0.25500000920E-02 0.  1.
</event>
<event>
 5   0  0.3551277E-05  0.1300032E+04  0.7818609E-02  0.9029540E-01
       -1   -1    0    0    0  501  0.00000000000E+00  0.00000000000E+00  0.24696124595E+03  0.24696124600E+03  0.50400001928E-02 0. -1.
        1   -1    0    0  501    0  0.00000000000E+00  0.00000000000E+00 -0.17108779068E+04  0.17108779068E+04  0.50400001928E-02 0.  1.
    10030    2    1    2    0    0  0.00000000000E+00  0.00000000000E+00 -0.14639166608E+04  0.19578391528E+04  0.13000315990E+04 0.  0.
        4    1    3    3  502    0 -0.58056158758E+03  0.26410470320E+03 -0.92075415709E+03  0.11200861047E+04  0.12699999809E+01 0.  1.
       -4    1    3    3    0  502  0.58056158758E+03 -0.26410470320E+03 -0.54316250373E+03  0.83775304809E+03  0.12699999809E+01 0. -1.
</event>
<event>
 5   0  0.6671239E-05  0.1301147E+04  0.7818609E-02  0.9028656E-01
        2   -1    0    0  501    0  0.00000000000E+00  0.00000000000E+00  0.75922583700E+03  0.75922583701E+03  0.25500000920E-02 0. -1.
       -2   -1    0    0    0  501  0.00000000000E+00  0.00000000000E+00 -0.55747002953E+03  0.55747002953E+03  0.25500000920E-02 0.  1.
    10030    2    1    2    0    0  0.00000000000E+00  0.00000000000E+00  0.20175580748E+03  0.13166958665E+04  0.13011466478E+04 0.  0.
        1    1    3    3  502    0  0.55461157886E+02 -0.63279519004E+03  0.24305587999E+03  0.68013370258E+03  0.50400001928E-02 0. -1.
       -1    1    3    3    0  502 -0.55461157886E+02  0.63279519004E+03 -0.41300072510E+02  0.63656216396E+03  0.50400001928E-02 0.  1.
</event>
<event>
 5   0  0.2512000E-05  0.1299972E+04  0.7818609E-02  0.9029587E-01
       -3   -1    0    0    0  501  0.00000000000E+00  0.00000000000E+00  0.17892694244E+04  0.17892694273E+04  0.10100000352E+00 0.  1.
        3   -1    0    0  501    0  0.00000000000E+00  0.00000000000E+00 -0.23611968987E+03  0.23611971147E+03  0.10100000352E+00 0. -1.
    10030    2    1    2    0    0  0.00000000000E+00  0.00000000000E+00  0.15531497345E+04  0.20253891387E+04  0.12999719479E+04 0.  0.
        4    1    3    3  502    0 -0.63130260801E+03  0.12808567857E+03  0.64136529539E+03  0.90901043941E+03  0.12699999809E+01 0. -1.
       -4    1    3    3    0  502  0.63130260801E+03 -0.12808567857E+03  0.91178443915E+03  0.11163786993E+04  0.12699999809E+01 0.  1.
</event>
<event>
 5   0  0.6688086E-05  0.1300919E+04  0.7818609E-02  0.9028837E-01
       -2   -1    0    0    0  501  0.00000000000E+00  0.00000000000E+00  0.19880078779E+03  0.19880078781E+03  0.25500000920E-02 0.  1.
        2   -1    0    0  501    0  0.00000000000E+00  0.00000000000E+00 -0.21282492979E+04  0.21282492979E+04  0.25500000920E-02 0. -1.
    10030    2    1    2    0    0  0.00000000000E+00  0.00000000000E+00 -0.19294485101E+04  0.23270500857E+04  0.13009191167E+04 0.  0.
        5    1    3    3  502    0 -0.25277589125E+03 -0.72359672881E+02  0.99474377040E+02  0.28115621128E+03  0.46999998093E+01 0.  1.
       -5    1    3    3    0  502  0.25277589125E+03  0.72359672881E+02 -0.20289228871E+04  0.20458938744E+04  0.46999998093E+01 0. -1.
</event>
<event>
 5   0  0.6688086E-05  0.1302448E+04  0.7818609E-02  0.9027626E-01
       -2   -1    0    0    0  501  0.00000000000E+00  0.00000000000E+00  0.31419215343E+03  0.31419215344E+03  0.25500000920E-02 0. -1.
        2   -1    0    0  501    0  0.00000000000E+00  0.00000000000E+00 -0.13497867710E+04  0.13497867710E+04  0.25500000920E-02 0.  1.
    10030    2    1    2    0    0  0.00000000000E+00  0.00000000000E+00 -0.10355946176E+04  0.16639789244E+04  0.13024475610E+04 0.  0.
        5    1    3    3  502    0  0.24325065697E+03  0.52523723553E+03 -0.89898973630E+03  0.10692285404E+04  0.46999998093E+01 0.  1.
       -5    1    3    3    0  502 -0.24325065697E+03 -0.52523723553E+03 -0.13660488127E+03  0.59475038401E+03  0.46999998093E+01 0. -1.
</event>
<event>
 5   0  0.6618060E-05  0.1298654E+04  0.7818609E-02  0.9030633E-01
        2   -1    0    0  501    0  0.00000000000E+00  0.00000000000E+00  0.17118060858E+04  0.17118060858E+04  0.25500000920E-02 0. -1.
       -2   -1    0    0    0  501  0.00000000000E+00  0.00000000000E+00 -0.24630464431E+03  0.24630464432E+03  0.25500000920E-02 0.  1.
    10030    2    1    2    0    0  0.00000000000E+00  0.00000000000E+00  0.14655014415E+04  0.19581107301E+04  0.12986543637E+04 0.  0.
        2    1    3    3  502    0 -0.53419821278E+03  0.36803085557E+03  0.77569914440E+03  0.10111990921E+04  0.25500000920E-02 0.  1.
       -2    1    3    3    0  502  0.53419821278E+03 -0.36803085557E+03  0.68980229707E+03  0.94691163803E+03  0.25500000920E-02 0. -1.
</event>
<event>
 5   0  0.3552698E-05  0.1299691E+04  0.7818609E-02  0.9029810E-01
        1   -1    0    0  501    0  0.00000000000E+00  0.00000000000E+00  0.58167932017E+03  0.58167932020E+03  0.50400001928E-02 0.  1.
       -1   -1    0    0    0  501  0.00000000000E+00  0.00000000000E+00 -0.72599961479E+03  0.72599961481E+03  0.50400001928E-02 0. -1.
    10030    2    1    2    0    0  0.00000000000E+00  0.00000000000E+00 -0.14432029462E+03  0.13076789350E+04  0.12996906746E+04 0.  0.
        5    1    3    3  502    0 -0.61510365854E+00 -0.18866450008E+03  0.55349960110E+03  0.58478933845E+03  0.46999998093E+01 0.  1.
       -5    1    3    3    0  502  0.61510365854E+00  0.18866450008E+03 -0.69781989572E+03  0.72288959655E+03  0.46999998093E+01 0. -1.
</event>
<event>
 5   0  0.6458698E-05  0.1299054E+04  0.7818609E-02  0.9030316E-01
        2   -1    0    0  501    0  0.00000000000E+00  0.00000000000E+00  0.61417838483E+03  0.61417838484E+03  0.25500000920E-02 0.  1.
       -2   -1    0    0    0  501  0.00000000000E+00  0.00000000000E+00 -0.68690960669E+03  0.68690960669E+03  0.25500000920E-02 0. -1.
    10030    2    1    2    0    0  0.00000000000E+00  0.00000000000E+00 -0.72731221854E+02  0.13010879915E+04  0.12990535520E+04 0.  0.
        3    1    3    3  502    0 -0.17673043621E+03  0.50332938838E+03 -0.40750079185E+03  0.67129056737E+03  0.10100000352E+00 0. -1.
       -3    1    3    3    0  502  0.17673043621E+03 -0.50332938838E+03  0.33476956999E+03  0.62979742416E+03  0.10100000352E+00 0.  1.
</event>
<event>
 5   0  0.3631841E-05  0.1299746E+04  0.7818609E-02  0.9029767E-01
        1   -1    0    0  501    0  0.00000000000E+00  0.00000000000E+00  0.92747018513E+03  0.92747018515E+03  0.50400001928E-02 0. -1.
       -1   -1    0    0    0  501  0.00000000000E+00  0.00000000000E+00 -0.45536217241E+03  0.45536217244E+03  0.50400001928E-02 0.  1.
    10030    2    1    2    0    0  0.00000000000E+00  0.00000000000E+00  0.47210801272E+03  0.13828323576E+04  0.12997458804E+04 0.  0.
        3    1    3    3  502    0  0.23578134377E+01 -0.57014841740E+03 -0.95747482325E+02  0.57813698006E+03  0.10100000352E+00 0.  1.
       -3    1    3    3    0  502 -0.23578134377E+01  0.57014841740E+03  0.56785549505E+03  0.80469537752E+03  0.10100000352E+00 0. -1.
</event>
<event>
 5   0  0.6742824E-05  0.1299276E+04  0.7818609E-02  0.9030140E-01
        2   -1    0    0  501    0  0.00000000000E+00  0.00000000000E+00  0.15990045099E+04  0.15990045099E+04  0.25500000920E-02 0. -1.
       -2   -1    0    0    0  501  0.00000000000E+00  0.00000000000E+00 -0.26393256563E+03  0.26393256564E+03  0.25500000920E-02 0.  1.
    10030    2    1    2    0    0  0.00000000000E+00  0.00000000000E+00  0.13350719443E+04  0.18629370755E+04  0.12992757410E+04 0.  0.
        4    1    3    3  502    0 -0.64621232696E+03 -0.42154975271E+01  0.76285700251E+03  0.99978025642E+03  0.12699999809E+01 0. -1.
       -4    1    3    3    0  502  0.64621232696E+03  0.42154975271E+01  0.57221494175E+03  0.86315681913E+03  0.12699999809E+01 0.  1.
</event>
<event>
 5   0  0.3718559E-05  0.1299032E+04  0.7818609E-02  0.9030333E-01
       -1   -1    0    0    0  501  0.00000000000E+00  0.00000000000E+00  0.50495252003E+03  0.50495252006E+03  0.50400001928E-02 0.  1.
        1   -1    0    0  501    0  0.00000000000E+00  0.00000000000E+00 -0.83546666212E+03  0.83546666214E+03  0.50400001928E-02 0. -1.
    10030    2    1    2    0    0  0.00000000000E+00  0.00000000000E+00 -0.33051414209E+03  0.13404191822E+04  0.12990319418E+04 0.  0.
        2    1    3    3  502    0 -0.28364775677E+03 -0.44636116794E+03  0.22381938310E+03  0.57427298249E+03  0.25500000920E-02 0.  1.
       -2    1    3    3    0  502  0.28364775677E+03  0.44636116794E+03 -0.55433352519E+03  0.76614619970E+03  0.25500000920E-02 0. -1.
</event>
<event>
 5   0  0.3689707E-05  0.1300169E+04  0.7818609E-02  0.9029431E-01
        1   -1    0    0  501    0  0.00000000000E+00  0.00000000000E+00  0.76711730336E+03  0.76711730338E+03  0.50400001928E-02 0.  1.
       -1   -1    0    0    0  501  0.00000000000E+00  0.00000000000E+00 -0.55090666426E+03  0.55090666428E+03  0.50400001928E-02 0. -1.
    10030    2    1    2    0    0  0.00000000000E+00  0.00000000000E+00  0.21621063911E+03  0.13180239677E+04  0.13001692732E+04 0.  0.
        1    1    3    3  502    0 -0.28003153978E+03  0.33557852541E+03  0.59594081286E+03  0.73903725376E+03  0.50400001928E-02 0.  1.
       -1    1    3    3    0  502  0.28003153978E+03 -0.33557852541E+03 -0.37973017375E+03  0.57898671390E+03  0.50400001928E-02 0. -1.
</event>
<event>
 5   0  0.6688086E-05  0.1300817E+04  0.7818609E-02  0.9028918E-01
       -2   -1    0    0    0  501  0.00000000000E+00  0.00000000000E+00  0.28131387488E+03  0.28131387489E+03  0.25500000920E-02 0. -1.
        2   -1    0    0  501    0  0.00000000000E+00  0.00000000000E+00 -0.15037686751E+04  0.15037686751E+04  0.25500000920E-02 0.  1.
    10030    2    1    2    0    0  0.00000000000E+00  0.00000000000E+00 -0.12224548002E+04  0.17850825500E+04  0.13008166557E+04 0.  0.
        5    1    3    3  502    0  0.25482257393E+02 -0.45167655485E+03  0.30006793405E+02  0.45341322575E+03  0.46999998093E+01 0. -1.
       -5    1    3    3    0  502 -0.25482257393E+02  0.45167655485E+03 -0.12524615936E+04  0.13316693243E+04  0.46999998093E+01 0.  1.
</event>
<event>
 5   0  0.3552698E-05  0.1299650E+04  0.7818609E-02  0.9029843E-01
       -1   -1    0    0    0  501  0.00000000000E+00  0.00000000000E+00  0.61057733801E+03  0.61057733803E+03  0.50400001928E-02 0.  1.
        1   -1    0    0  501    0  0.00000000000E+00  0.00000000000E+00 -0.69159514532E+03  0.69159514533E+03  0.50400001928E-02 0. -1.
    10030    2    1    2    0    0  0.00000000000E+00  0.00000000000E+00 -0.81017807302E+02  0.13021724834E+04  0.12996496802E+04 0.  0.
        5    1    3    3  502    0  0.25841109541E+03 -0.42089218394E+03 -0.46361253507E+03  0.67741065640E+03  0.46999998093E+01 0. -1.
       -5    1    3    3    0  502 -0.25841109541E+03  0.42089218394E+03  0.38259472776E+03  0.62476182697E+03  0.46999998093E+01 0.  1.
</event>
<event>
 5   0  0.6458698E-05  0.1299217E+04  0.7818609E-02  0.9030186E-01
        2   -1    0    0  501    0  0.00000000000E+00  0.00000000000E+00  0.78822631269E+03  0.78822631270E+03  0.25500000920E-02 0.  1.
       -2   -1    0    0    0  501  0.00000000000E+00  0.00000000000E+00 -0.53536809274E+03  0.53536809275E+03  0.25500000920E-02 0. -1.
    10030    2    1    2    0    0  0.00000000000E+00  0.00000000000E+00  0.25285821995E+03  0.13235944054E+04  0.12992170222E+04 0.  0.
        3    1    3    3  502    0 -0.17131406224E+03 -0.62246309920E+03  0.53089557699E+02  0.64778648421E+03  0.10100000352E+00 0. -1.
       -3    1    3    3    0  502  0.17131406224E+03  0.62246309920E+03  0.19976866225E+03  0.67580792123E+03  0.10100000352E+00 0.  1.
</event>
<event>
 5   0  0.6671239E-05  0.1300203E+04  0.7818609E-02  0.9029404E-01
       -2   -1    0    0    0  501  0.00000000000E+00  0.00000000000E+00  0.15586417940E+04  0.15586417940E+04  0.25500000920E-02 0.  1.
        2   -1    0    0  501    0  0.00000000000E+00  0.00000000000E+00 -0.27115395822E+03  0.27115395823E+03  0.25500000920E-02 0. -1.
    10030    2    1    2    0    0  0.00000000000E+00  0.00000000000E+00  0.12874878358E+04  0.18297957523E+04  0.13002028948E+04 0.  0.
        1    1    3    3  502    0 -0.20106022328E+03 -0.45294539057E+02 -0.22396065743E+03  0.30436028774E+03  0.50400001928E-02 0. -1.
       -1    1    3    3    0  502  0.20106022328E+03  0.45294539057E+02  0.15114484932E+04  0.15254354645E+04  0.50400001928E-02 0.  1.
</event>
<event>
 5   0  0.3718559E-05  0.1300069E+04  0.7818609E-02  0.9029510E-01
        1   -1    0    0  501    0  0.00000000000E+00  0.00000000000E+00  0.11263167753E+04  0.11263167753E+04  0.50400001928E-02 0. -1.
       -1   -1    0    0    0  501  0.00000000000E+00  0.00000000000E+00 -0.37515629481E+03  0.37515629484E+03  0.50400001928E-02 0.  1.
    10030    2    1    2    0    0  0.00000000000E+00  0.00000000000E+00  0.75116048048E+03  0.15014730701E+04  0.13000689647E+04 0.  0.
        2    1    3    3  502    0  0.14831167080E+03 -0.60138503348E+03  0.60332034523E+03  0.86467089066E+03  0.25500000920E-02 0. -1.
       -2    1    3    3    0  502 -0.14831167080E+03  0.60138503348E+03  0.14784013525E+03  0.63680217948E+03  0.25500000920E-02 0.  1.
</event>
<event>
 5   0  0.3718559E-05  0.1300351E+04  0.7818609E-02  0.9029287E-01
        1   -1    0    0  501    0  0.00000000000E+00  0.00000000000E+00  0.14886982478E+04  0.14886982478E+04  0.50400001928E-02 0. -1.
       -1   -1    0    0    0  501  0.00000000000E+00  0.00000000000E+00 -0.28395822934E+03  0.28395822938E+03  0.50400001928E-02 0.  1.
    10030    2    1    2    0    0  0.00000000000E+00  0.00000000000E+00  0.12047400185E+04  0.17726564772E+04  0.13003509042E+04 0.  0.
        2    1    3    3  502    0  0.10303830600E+03  0.28410884017E+03 -0.18238833227E+03  0.35298757672E+03  0.25500000920E-02 0.  1.
       -2    1    3    3    0  502 -0.10303830600E+03 -0.28410884017E+03  0.13871283507E+04  0.14196689005E+04  0.25500000920E-02 0. -1.
</event>
<event>
 5   0  0.6458698E-05  0.1300077E+04  0.7818609E-02  0.9029504E-01
        2   -1    0    0  501    0  0.00000000000E+00  0.00000000000E+00  0.11457502983E+04  0.11457502983E+04  0.25500000920E-02 0.  1.
       -2   -1    0    0    0  501  0.00000000000E+00  0.00000000000E+00 -0.36879767899E+03  0.36879767900E+03  0.25500000920E-02 0. -1.
    10030    2    1    2    0    0  0.00000000000E+00  0.00000000000E+00  0.77695261932E+03  0.15145479773E+04  0.13000769988E+04 0.  0.
        3    1    3    3  502    0 -0.15031936612E+03 -0.29423482299E+02 -0.34747402314E+03  0.37973656672E+03  0.10100000352E+00 0. -1.
       -3    1    3    3    0  502  0.15031936612E+03  0.29423482299E+02  0.11244266425E+04  0.11348114106E+04  0.10100000352E+00 0.  1.
</event>
<event>
 5   0  0.6458698E-05  0.1300410E+04  0.7818609E-02  0.9029240E-01
        2   -1    0    0  501    0  0.00000000000E+00  0.00000000000E+00  0.21465733812E+04  0.21465733812E+04  0.25500000920E-02 0.  1.
       -2   -1    0    0    0  501  0.00000000000E+00  0.00000000000E+00 -0.19694949377E+03  0.19694949379E+03  0.25500000920E-02 0. -1.
    10030    2    1    2    0    0  0.00000000000E+00  0.00000000000E+00  0.19496238874E+04  0.23435228750E+04  0.13004099981E+04 0.  0.
        3    1    3    3  502    0 -0.43024248453E+03  0.81581659533E+02  0.10865395964E+03  0.45118716273E+03  0.10100000352E+00 0. -1.
       -3    1    3    3    0  502  0.43024248453E+03 -0.81581659533E+02  0.18409699278E+04  0.18923357122E+04  0.10100000352E+00 0.  1.
</event>
<event>
 5   0  0.3551277E-05  0.1299851E+04  0.7818609E-02  0.9029683E-01
        1   -1    0    0  501    0  0.00000000000E+00  0.00000000000E+00  0.86673854173E+03  0.86673854174E+03  0.50400001928E-02 0.  1.
       -1   -1    0    0    0  501  0.00000000000E+00  0.00000000000E+00 -0.48734816020E+03  0.48734816022E+03  0.50400001928E-02 0. -1.
    10030    2    1    2    0    0  0.00000000000E+00  0.00000000000E+00  0.37939038153E+03  0.13540867020E+04  0.12998514280E+04 0.  0.
        4    1    3    3  502    0 -0.63492500700E+03 -0.21447065695E+02  0.33257509884E+03  0.71707569364E+03  0.12699999809E+01 0. -1.
       -4    1    3    3    0  502  0.63492500700E+03  0.21447065695E+02  0.46815282687E+02  0.63701100833E+03  0.12699999809E+01 0.  1.
</event>
<event>
 5   0  0.3551277E-05  0.1300309E+04  0.7818609E-02  0.9029320E-01
       -1   -1    0    0    0  501  0.00000000000E+00  0.00000000000E+00  0.34341155798E+03  0.34341155801E+03  0.50400001928E-02 0. -1.
        1   -1    0    0  501    0  0.00000000000E+00  0.00000000000E+00 -0.12308878839E+04  0.12308878839E+04  0.50400001928E-02 0.  1.
    10030    2    1    2    0    0  0.00000000000E+00  0.00000000000E+00 -0.88747632594E+03  0.15742994419E+04  0.13003093877E+04 0.  0.
        4    1    3    3  502    0 -0.53690284445E+03 -0.13966882603E+03 -0.33295437948E+02  0.55577175569E+03  0.12699999809E+01 0. -1.
       -4    1    3    3    0  502  0.53690284445E+03  0.13966882603E+03 -0.85418088799E+03  0.10185276862E+04  0.12699999809E+01 0.  1.
</event>
<event>
 5   0  0.3689707E-05  0.1299944E+04  0.7818609E-02  0.9029610E-01
       -1   -1    0    0    0  501  0.00000000000E+00  0.00000000000E+00  0.59756292478E+03  0.59756292480E+03  0.50400001928E-02 0.  1.
        1   -1    0    0  501    0  0.00000000000E+00  0.00000000000E+00 -0.70697721656E+03  0.70697721658E+03  0.50400001928E-02 0. -1.
    10030    2    1    2    0    0  0.00000000000E+00  0.00000000000E+00 -0.10941429178E+03  0.13045401414E+04  0.12999436500E+04 0.  0.
        1    1    3    3  502    0  0.42747195653E+03  0.12812046108E+03  0.41952728357E+03  0.61249511659E+03  0.50400001928E-02 0.  1.
       -1    1    3    3    0  502 -0.42747195653E+03 -0.12812046108E+03 -0.52894157535E+03  0.69204502478E+03  0.50400001928E-02 0. -1.
</event>
<event>
 5   0  0.3689707E-05  0.1299910E+04  0.7818609E-02  0.9029636E-01
        1   -1    0    0  501    0  0.00000000000E+00  0.00000000000E+00  0.15797952339E+04  0.15797952339E+04  0.50400001928E-02 0. -1.
       -1   -1    0    0    0  501  0.00000000000E+00  0.00000000000E+00 -0.26740288000E+03  0.26740288005E+03  0.50400001928E-02 0.  1.
    10030    2    1    2    0    0  0.00000000000E+00  0.00000000000E+00  0.13123923539E+04  0.18471981139E+04  0.12999104514E+04 0.  0.
        1    1    3    3  502    0 -0.46529860196E+03  0.44191185683E+03  0.80286382106E+03  0.10278030908E+04  0.50400001928E-02 0. -1.
       -1    1    3    3    0  502  0.46529860196E+03 -0.44191185683E+03  0.50952853279E+03  0.81939502314E+03  0.50400001928E-02 0.  1.
</event>
<event>
 5   0  0.3718559E-05  0.1300174E+04  0.7818609E-02  0.9029427E-01
        1   -1    0    0  501    0  0.00000000000E+00  0.00000000000E+00  0.52558542183E+03  0.52558542185E+03  0.50400001928E-02 0. -1.
       -1   -1    0    0    0  501  0.00000000000E+00  0.00000000000E+00 -0.80408032368E+03  0.80408032370E+03  0.50400001928E-02 0.  1.
    10030    2    1    2    0    0  0.00000000000E+00  0.00000000000E+00 -0.27849490185E+03  0.13296657455E+04  0.13001736748E+04 0.  0.
        2    1    3    3  502    0  0.42906654675E+03  0.10748311960E+03  0.34796441098E+03  0.56278766320E+03  0.25500000920E-02 0. -1.
       -2    1    3    3    0  502 -0.42906654675E+03 -0.10748311960E+03 -0.62645931283E+03  0.76687808235E+03  0.25500000920E-02 0.  1.
</event>
<event>
 5   0  0.3552698E-05  0.1304949E+04  0.7818609E-02  0.9025650E-01
       -1   -1    0    0    0  501  0.00000000000E+00  0.00000000000E+00  0.15078763945E+03  0.15078763954E+03  0.50400001928E-02 0.  1.
        1   -1    0    0  501    0  0.00000000000E+00  0.00000000000E+00 -0.28233269431E+04  0.28233269431E+04  0.50400001928E-02 0. -1.
    10030    2    1    2    0    0  0.00000000000E+00  0.00000000000E+00 -0.26725393036E+04  0.29741145826E+04  0.13049487427E+04 0.  0.
        5    1    3    3  502    0  0.21675298402E+03 -0.58904305846E+03 -0.17423542414E+04  0.18519648953E+04  0.46999998093E+01 0.  1.
       -5    1    3    3    0  502 -0.21675298402E+03  0.58904305846E+03 -0.93018506218E+03  0.11221496873E+04  0.46999998093E+01 0. -1.
</event>
<event>
 5   0  0.3718559E-05  0.1299613E+04  0.7818609E-02  0.9029872E-01
        1   -1    0    0  501    0  0.00000000000E+00  0.00000000000E+00  0.17544521752E+04  0.17544521752E+04  0.50400001928E-02 0.  1.
       -1   -1    0    0    0  501  0.00000000000E+00  0.00000000000E+00 -0.24067267017E+03  0.24067267023E+03  0.50400001928E-02 0. -1.
    10030    2    1    2    0    0  0.00000000000E+00  0.00000000000E+00  0.15137795050E+04  0.19951248454E+04  0.12996133113E+04 0.  0.
        2    1    3    3  502    0 -0.71878032843E+02 -0.62894268606E+02 -0.22983830761E+03  0.24889312622E+03  0.25500000920E-02 0. -1.
       -2    1    3    3    0  502  0.71878032843E+02  0.62894268606E+02  0.17436178126E+04  0.17462317192E+04  0.25500000920E-02 0.  1.
</event>
<event>
 5   0  0.6671239E-05  0.1297260E+04  0.7818609E-02  0.9031741E-01
       -2   -1    0    0    0  501  0.00000000000E+00  0.00000000000E+00  0.15621758643E+03  0.15621758645E+03  0.25500000920E-02 0.  1.
        2   -1    0    0  501    0  0.00000000000E+00  0.00000000000E+00 -0.26931729984E+04  0.26931729984E+04  0.25500000920E-02 0. -1.
    10030    2    1    2    0    0  0.00000000000E+00  0.00000000000E+00 -0.25369554120E+04  0.28493905849E+04  0.12972601677E+04 0.  0.
        1    1    3    3  502    0  0.58123956465E+03  0.26887191290E+03 -0.14945053587E+04  0.16259390530E+04  0.50400001928E-02 0. -1.
       -1    1    3    3    0  502 -0.58123956465E+03 -0.26887191290E+03 -0.10424500533E+04  0.12234515319E+04  0.50400001928E-02 0.  1.
</event>
<event>
 5   0  0.6671239E-05  0.1300815E+04  0.7818609E-02  0.9028919E-01
        2   -1    0    0  501    0  0.00000000000E+00  0.00000000000E+00  0.14994586514E+04  0.14994586514E+04  0.25500000920E-02 0.  1.
       -2   -1    0    0    0  501  0.00000000000E+00  0.00000000000E+00 -0.28212155625E+03  0.28212155626E+03  0.25500000920E-02 0. -1.
    10030    2    1    2    0    0  0.00000000000E+00  0.00000000000E+00  0.12173370952E+04  0.17815802077E+04  0.13008145268E+04 0.  0.
        1    1    3    3  502    0  0.47660562037E+03 -0.18135335694E+03  0.11615949793E+04  0.12685995639E+04  0.50400001928E-02 0.  1.
       -1    1    3    3    0  502 -0.47660562037E+03  0.18135335694E+03  0.55742115881E+02  0.51298064384E+03  0.50400001928E-02 0. -1.
</event>
<event>
 5   0  0.6618060E-05  0.1299981E+04  0.7818609E-02  0.9029581E-01
       -2   -1    0    0    0  501  0.00000000000E+00  0.00000000000E+00  0.37246245915E+03  0.37246245915E+03  0.25500000920E-02 0. -1.
        2   -1    0    0  501    0  0.00000000000E+00  0.00000000000E+00 -0.11343085103E+04  0.11343085103E+04  0.25500000920E-02 0.  1.
    10030    2    1    2    0    0  0.00000000000E+00  0.00000000000E+00 -0.76184605118E+03  0.15067709695E+04  0.12999805186E+04 0.  0.
        2    1    3    3  502    0  0.37265699892E+01 -0.45821340922E+03 -0.91524630111E+03  0.10235473645E+04  0.25500000920E-02 0.  1.
       -2    1    3    3    0  502 -0.37265699892E+01  0.45821340922E+03  0.15340024993E+03  0.48322360496E+03  0.25500000920E-02 0. -1.
</event>
<event>
 5   0  0.3551277E-05  0.1291760E+04  0.7818609E-02  0.9036125E-01
       -1   -1    0    0    0  501  0.00000000000E+00  0.00000000000E+00  0.49778716310E+03  0.49778716313E+03  0.50400001928E-02 0.  1.
        1   -1    0    0  501    0  0.00000000000E+00  0.00000000000E+00 -0.83803107119E+03  0.83803107121E+03  0.50400001928E-02 0. -1.
    10030    2    1    2    0    0  0.00000000000E+00  0.00000000000E+00 -0.34024390809E+03  0.13358182343E+04  0.12917602092E+04 0.  0.
        4    1    3    3  502    0  0.97831620906E+02 -0.64745201859E+02  0.48667562538E+03  0.50061736332E+03  0.12699999809E+01 0.  1.
       -4    1    3    3    0  502 -0.97831620906E+02  0.64745201859E+02 -0.82691953347E+03  0.83520087102E+03  0.12699999809E+01 0. -1.
</event>
<event>
 5   0  0.3551277E-05  0.1300318E+04  0.7818609E-02  0.9029313E-01
        1   -1    0    0  501    0  0.00000000000E+00  0.00000000000E+00  0.44243410541E+03  0.44243410544E+03  0.50400001928E-02 0.  1.
       -1   -1    0    0    0  501  0.00000000000E+00  0.00000000000E+00 -0.95541200686E+03  0.95541200687E+03  0.50400001928E-02 0. -1.
    10030    2    1    2    0    0  0.00000000000E+00  0.00000000000E+00 -0.51297790145E+03  0.13978461123E+04  0.13003182019E+04 0.  0.
        4    1    3    3  502    0  0.57928305735E+03  0.28634129156E+03 -0.33359783729E+03  0.72722027318E+03  0.12699999809E+01 0. -1.
       -4    1    3    3    0  502 -0.57928305735E+03 -0.28634129156E+03 -0.17938006416E+03  0.67062583912E+03  0.12699999809E+01 0.  1.
</event>
<event>
 5   0  0.3689707E-05  0.1299914E+04  0.7818609E-02  0.9029634E-01
        1   -1    0    0  501    0  0.00000000000E+00  0.00000000000E+00  0.16497112723E+04  0.16497112723E+04  0.50400001928E-02 0. -1.
       -1   -1    0    0    0  501  0.00000000000E+00  0.00000000000E+00 -0.25607143056E+03  0.25607143061E+03  0.50400001928E-02 0.  1.
    10030    2    1    2    0    0  0.00000000000E+00  0.00000000000E+00  0.13936398417E+04  0.19057827029E+04  0.12999137288E+04 0.  0.
        1    1    3    3  502    0 -0.25766600657E+03  0.10525409096E+03 -0.16427665698E+03  0.32319810435E+03  0.50400001928E-02 0.  1.
       -1    1    3    3    0  502  0.25766600657E+03 -0.10525409096E+03  0.15579164987E+04  0.15825845985E+04  0.50400001928E-02 0. -1.
</event>
<event>
 5   0  0.3718559E-05  0.1299779E+04  0.7818609E-02  0.9029740E-01
       -1   -1    0    0    0  501  0.00000000000E+00  0.00000000000E+00  0.40604803568E+03  0.40604803571E+03  0.50400001928E-02 0. -1.
        1   -1    0    0  501    0  0.00000000000E+00  0.00000000000E+00 -0.10401640648E+04  0.10401640648E+04  0.50400001928E-02 0.  1.
    10030    2    1    2    0    0  0.00000000000E+00  0.00000000000E+00 -0.63411602908E+03  0.14462121005E+04  0.12997793279E+04 0.  0.
        2    1    3    3  502    0 -0.23728082013E+03 -0.87848502442E+01 -0.99017320083E+03  0.10182447294E+04  0.25500000920E-02 0.  1.
       -2    1    3    3    0  502  0.23728082013E+03  0.87848502442E+01  0.35605717176E+03  0.42796737114E+03  0.25500000920E-02 0. -1.
</event>
<event>
 5   0  0.3718559E-05  0.1297038E+04  0.7818609E-02  0.9031917E-01
       -1   -1    0    0    0  501  0.00000000000E+00  0.00000000000E+00  0.53341844544E+03  0.53341844546E+03  0.50400001928E-02 0.  1.
        1   -1    0    0  501    0  0.00000000000E+00  0.00000000000E+00 -0.78845618059E+03  0.78845618060E+03  0.50400001928E-02 0. -1.
    10030    2    1    2    0    0  0.00000000000E+00  0.00000000000E+00 -0.25503773515E+03  0.13218746261E+04  0.12970382726E+04 0.  0.
        2    1    3    3  502    0 -0.53945083769E+03  0.16527423093E+03 -0.45341428142E+03  0.72381440183E+03  0.25500000920E-02 0. -1.
       -2    1    3    3    0  502  0.53945083769E+03 -0.16527423093E+03  0.19837654627E+03  0.59806022423E+03  0.25500000920E-02 0.  1.
</event>
<event>
 5   0  0.6458698E-05  0.1301461E+04  0.7818609E-02  0.9028408E-01
       -2   -1    0    0    0  501  0.00000000000E+00  0.00000000000E+00  0.30680141769E+03  0.30680141770E+03  0.25500000920E-02 0. -1.
        2   -1    0    0  501    0  0.00000000000E+00  0.00000000000E+00 -0.13802083458E+04  0.13802083458E+04  0.25500000920E-02 0.  1.
    10030    2    1    2    0    0  0.00000000000E+00  0.00000000000E+00 -0.10734069281E+04  0.16870097635E+04  0.13014605291E+04 0.  0.
        3    1    3    3  502    0 -0.43019072282E+03 -0.24346893157E+03  0.11882790301E+02  0.49445160486E+03  0.10100000352E+00 0. -1.
       -3    1    3    3    0  502  0.43019072282E+03  0.24346893157E+03 -0.10852897184E+04  0.11925581586E+04  0.10100000352E+00 0.  1.
</event>
<event>
 5   0  0.6671239E-05  0.1300343E+04  0.7818609E-02  0.9029293E-01
        2   -1    0    0  501    0  0.00000000000E+00  0.00000000000E+00  0.12150107668E+04  0.12150107668E+04  0.25500000920E-02 0.  1.
       -2   -1    0    0    0  501  0.00000000000E+00  0.00000000000E+00 -0.34791695198E+03  0.34791695199E+03  0.25500000920E-02 0. -1.
    10030    2    1    2    0    0  0.00000000000E+00  0.00000000000E+00  0.86709381484E+03  0.15629277188E+04  0.13003427896E+04 0.  0.
        1    1    3    3  502    0  0.57859532242E+03  0.94795993882E+02  0.95796679392E+02  0.59408402722E+03  0.50400001928E-02 0. -1.
       -1    1    3    3    0  502 -0.57859532242E+03 -0.94795993882E+02  0.77129713545E+03  0.96884369160E+03  0.50400001928E-02 0.  1.
</event>
<event>
 5   0  0.6458698E-05  0.1300399E+04  0.7818609E-02  0.9029249E-01
        2   -1    0    0  501    0  0.00000000000E+00  0.00000000000E+00  0.60891403063E+03  0.60891403063E+03  0.25500000920E-02 0. -1.
       -2   -1    0    0    0  501  0.00000000000E+00  0.00000000000E+00 -0.69428444767E+03  0.69428444767E+03  0.25500000920E-02 0.  1.
    10030    2    1    2    0    0  0.00000000000E+00  0.00000000000E+00 -0.85370417041E+02  0.13031984783E+04  0.13003992332E+04 0.  0.
        3    1    3    3  502    0 -0.39886603538E+03  0.51281022331E+03 -0.69030424741E+02  0.65332507151E+03  0.10100000352E+00 0.  1.
       -3    1    3    3    0  502  0.39886603538E+03 -0.51281022331E+03 -0.16339992300E+02  0.64987340680E+03  0.10100000352E+00 0. -1.
</event>
<event>
 5   0  0.3689707E-05  0.1296996E+04  0.7818609E-02  0.9031950E-01
       -1   -1    0    0    0  501  0.00000000000E+00  0.00000000000E+00  0.48600877378E+03  0.48600877381E+03  0.50400001928E-02 0.  1.
        1   -1    0    0  501    0  0.00000000000E+00  0.00000000000E+00 -0.86531343951E+03  0.86531343953E+03  0.50400001928E-02 0. -1.
    10030    2    1    2    0    0  0.00000000000E+00  0.00000000000E+00 -0.37930466573E+03  0.13513222133E+04  0.12969964128E+04 0.  0.
        1    1    3    3  502    0 -0.84615555118E+02 -0.57603219827E+03  0.10792791917E+03  0.59213285788E+03  0.50400001928E-02 0.  1.
       -1    1    3    3    0  502  0.84615555118E+02  0.57603219827E+03 -0.48723258490E+03  0.75918935545E+03  0.50400001928E-02 0. -1.
</event>
<event>
 5   0  0.6618060E-05  0.1300407E+04  0.7818609E-02  0.9029242E-01
        2   -1    0    0  501    0  0.00000000000E+00  0.00000000000E+00  0.69260721398E+03  0.69260721398E+03  0.25500000920E-02 0.  1.
       -2   -1    0    0    0  501  0.00000000000E+00  0.00000000000E+00 -0.61039600435E+03  0.61039600435E+03  0.25500000920E-02 0. -1.
    10030    2    1    2    0    0  0.00000000000E+00  0.00000000000E+00  0.82211209628E+02  0.13030032183E+04  0.13004071301E+04 0.  0.
        2    1    3    3  502    0  0.37665745875E+02 -0.45355273006E+02  0.68992348813E+03  0.69243788796E+03  0.25500000920E-02 0.  1.
       -2    1    3    3    0  502 -0.37665745875E+02  0.45355273006E+02 -0.60771227850E+03  0.61056533037E+03  0.25500000920E-02 0. -1.
</event>
<event>
 5   0  0.6618060E-05  0.1299497E+04  0.7818609E-02  0.9029964E-01
        2   -1    0    0  501    0  0.00000000000E+00  0.00000000000E+00  0.15331391871E+04  0.15331391871E+04  0.25500000920E-02 0.  1.
       -2   -1    0    0    0  501  0.00000000000E+00  0.00000000000E+00 -0.27536524616E+03  0.27536524617E+03  0.25500000920E-02 0. -1.
    10030    2    1    2    0    0  0.00000000000E+00  0.00000000000E+00  0.12577739409E+04  0.18085044333E+04  0.12994972099E+04 0.  0.
        2    1    3    3  502    0 -0.20426352684E+03 -0.37570416118E+03  0.13096751183E+04  0.13777249800E+04  0.25500000920E-02 0. -1.
       -2    1    3    3    0  502  0.20426352684E+03  0.37570416118E+03 -0.51901177342E+02  0.43077945325E+03  0.25500000920E-02 0.  1.
</event>
<event>
 5   0  0.3551277E-05  0.1299722E+04  0.7818609E-02  0.9029786E-01
       -1   -1    0    0    0  501  0.00000000000E+00  0.00000000000E+00  0.73578163728E+03  0.73578163729E+03  0.50400001928E-02 0.  1.
        1   -1    0    0  501    0  0.00000000000E+00  0.00000000000E+00 -0.57397373940E+03  0.57397373942E+03  0.50400001928E-02 0. -1.
    10030    2    1    2    0    0  0.00000000000E+00  0.00000000000E+00  0.16180789788E+03  0.13097553767E+04  0.12997220284E+04 0.  0.
        4    1    3    3  502    0 -0.21015216169E+03 -0.24245039615E+03  0.65039624939E+03  0.72523307963E+03  0.12699999809E+01 0.  1.
       -4    1    3    3    0  502  0.21015216169E+03  0.24245039615E+03 -0.48858835151E+03  0.58452229709E+03  0.12699999809E+01 0. -1.
</event>
<event>
 5   0  0.3718559E-05  0.1304212E+04  0.7818609E-02  0.9026232E-01
       -1   -1    0    0    0  501  0.00000000000E+00  0.00000000000E+00  0.60416926554E+03  0.60416926556E+03  0.50400001928E-02 0. -1.
        1   -1    0    0  501    0  0.00000000000E+00  0.00000000000E+00 -0.70384583885E+03  0.70384583887E+03  0.50400001928E-02 0.  1.
    10030    2    1    2    0    0  0.00000000000E+00  0.00000000000E+00 -0.99676573310E+02  0.13080151044E+04  0.13042116754E+04 0.  0.
        2    1    3    3  502    0 -0.20649893826E+03  0.50297729348E+03 -0.41090771888E+03  0.68152265017E+03  0.25500000920E-02 0.  1.
       -2    1    3    3    0  502  0.20649893826E+03 -0.50297729348E+03  0.31123114557E+03  0.62649245425E+03  0.25500000920E-02 0. -1.
</event>
<event>
 5   0  0.3552698E-05  0.1299447E+04  0.7818609E-02  0.9030004E-01
        1   -1    0    0  501    0  0.00000000000E+00  0.00000000000E+00  0.14218005877E+04  0.14218005878E+04  0.50400001928E-02 0. -1.
       -1   -1    0    0    0  501  0.00000000000E+00  0.00000000000E+00 -0.29690573416E+03  0.29690573421E+03  0.50400001928E-02 0.  1.
    10030    2    1    2    0    0  0.00000000000E+00  0.00000000000E+00  0.11248948536E+04  0.17187063220E+04  0.12994471861E+04 0.  0.
        5    1    3    3  502    0 -0.12314204723E+03  0.23008422701E+03  0.13494106756E+04  0.13744213243E+04  0.46999998093E+01 0. -1.
       -5    1    3    3    0  502  0.12314204723E+03 -0.23008422701E+03 -0.22451582198E+03  0.34428499768E+03  0.46999998093E+01 0.  1.
</event>
<event>
 5   0  0.6742824E-05  0.1299962E+04  0.7818609E-02  0.9029595E-01
        2   -1    0    0  501    0  0.00000000000E+00  0.00000000000E+00  0.36678794853E+03  0.36678794854E+03  0.25500000920E-02 0. -1.
       -2   -1    0    0    0  501  0.00000000000E+00  0.00000000000E+00 -0.11518241185E+04  0.11518241185E+04  0.25500000920E-02 0.  1.
    10030    2    1    2    0    0  0.00000000000E+00  0.00000000000E+00 -0.78503616993E+03  0.15186120670E+04  0.12999618540E+04 0.  0.
        4    1    3    3  502    0 -0.69567290103E+02  0.63229446413E+03 -0.23649616813E+03  0.67865156573E+03  0.12699999809E+01 0. -1.
       -4    1    3    3    0  502  0.69567290103E+02 -0.63229446413E+03 -0.54854000179E+03  0.83996050127E+03  0.12699999809E+01 0.  1.
</event>
<event>
 5   0  0.3552698E-05  0.1299624E+04  0.7818609E-02  0.9029863E-01
        1   -1    0    0  501    0  0.00000000000E+00  0.00000000000E+00  0.16294579340E+04  0.16294579340E+04  0.50400001928E-02 0.  1.
       -1   -1    0    0    0  501  0.00000000000E+00  0.00000000000E+00 -0.25913877260E+03  0.25913877265E+03  0.50400001928E-02 0. -1.
    10030    2    1    2    0    0  0.00000000000E+00  0.00000000000E+00  0.13703191614E+04  0.18885967066E+04  0.12996241442E+04 0.  0.
        5    1    3    3  502    0 -0.32123827806E+03 -0.31152552656E+03  0.13698426438E+04  0.14410874865E+04  0.46999998093E+01 0.  1.
       -5    1    3    3    0  502  0.32123827806E+03  0.31152552656E+03  0.47651753116E+00  0.44750922008E+03  0.46999998093E+01 0. -1.
</event>
<event>
 5   0  0.6671239E-05  0.1299716E+04  0.7818609E-02  0.9029790E-01
        2   -1    0    0  501    0  0.00000000000E+00  0.00000000000E+00  0.44804142593E+03  0.44804142594E+03  0.25500000920E-02 0. -1.
       -2   -1    0    0    0  501  0.00000000000E+00  0.00000000000E+00 -0.94258135867E+03  0.94258135868E+03  0.25500000920E-02 0.  1.
    10030    2    1    2    0    0  0.00000000000E+00  0.00000000000E+00 -0.49453993274E+03  0.13906227846E+04  0.12997161167E+04 0.  0.
        1    1    3    3  502    0  0.50373833573E+02 -0.49474386052E+03 -0.69486773002E+03  0.85448825204E+03  0.50400001928E-02 0. -1.
       -1    1    3    3    0  502 -0.50373833573E+02  0.49474386052E+03  0.20032779727E+03  0.53613453257E+03  0.50400001928E-02 0.  1.
</event>
<event>
 5   0  0.3552698E-05  0.1299865E+04  0.7818609E-02  0.9029672E-01
       -1   -1    0    0    0  501  0.00000000000E+00  0.00000000000E+00  0.72705499608E+03  0.72705499610E+03  0.50400001928E-02 0. -1.
        1   -1    0    0  501    0  0.00000000000E+00  0.00000000000E+00 -0.58099122111E+03  0.58099122113E+03  0.50400001928E-02 0.  1.
    10030    2    1    2    0    0  0.00000000000E+00  0.00000000000E+00  0.14606377497E+03  0.13080462172E+04  0.12998654854E+04 0.  0.
        5    1    3    3  502    0 -0.22803679272E+03  0.60463149718E+03  0.32379499485E+01  0.64622952620E+03  0.46999998093E+01 0. -1.
       -5    1    3    3    0  502  0.22803679272E+03 -0.60463149718E+03  0.14282582502E+03  0.66181669102E+03  0.46999998093E+01 0.  1.
</event>
<event>
 5   0  0.3631841E-05  0.1300742E+04  0.7818609E-02  0.9028977E-01
        1   -1    0    0  501    0  0.00000000000E+00  0.00000000000E+00  0.11302314579E+04  0.11302314579E+04  0.50400001928E-02 0.  1.
       -1   -1    0    0    0  501  0.00000000000E+00  0.00000000000E+00 -0.37424407181E+03  0.37424407184E+03  0.50400001928E-02 0. -1.
    10030    2    1    2    0    0  0.00000000000E+00  0.00000000000E+00  0.75598738612E+03  0.15044755298E+04  0.13007419774E+04 0.  0.
        3    1    3    3  502    0  0.49039698212E+03  0.41528874948E+03  0.26216630795E+03  0.69403539444E+03  0.10100000352E+00 0. -1.
       -3    1    3    3    0  502 -0.49039698212E+03 -0.41528874948E+03  0.49382107817E+03  0.81044013533E+03  0.10100000352E+00 0.  1.
</event>
<event>
 5   0  0.3631841E-05  0.1299948E+04  0.7818609E-02  0.9029607E-01
        1   -1    0    0  501    0  0.00000000000E+00  0.00000000000E+00  0.11550684359E+04  0.11550684359E+04  0.50400001928E-02 0.  1.
       -1   -1    0    0    0  501  0.00000000000E+00  0.00000000000E+00 -0.36574969901E+03  0.36574969905E+03  0.50400001928E-02 0. -1.
    10030    2    1    2    0    0  0.00000000000E+00  0.00000000000E+00  0.78931873688E+03  0.15208181349E+04  0.12999475879E+04 0.  0.
        3    1    3    3  502    0 -0.11072312694E+03 -0.33761425262E+02 -0.35359349223E+03  0.37205888327E+03  0.10100000352E+00 0. -1.
       -3    1    3    3    0  502  0.11072312694E+03  0.33761425262E+02  0.11429122291E+04  0.11487592517E+04  0.10100000352E+00 0.  1.
</event>
<event>
 5   0  0.3552698E-05  0.1300098E+04  0.7818609E-02  0.9029488E-01
        1   -1    0    0  501    0  0.00000000000E+00  0.00000000000E+00  0.67076722519E+03  0.67076722521E+03  0.50400001928E-02 0. -1.
       -1   -1    0    0    0  501  0.00000000000E+00  0.00000000000E+00 -0.62997058158E+03  0.62997058160E+03  0.50400001928E-02 0.  1.
    10030    2    1    2    0    0  0.00000000000E+00  0.00000000000E+00  0.40796643615E+02  0.13007378068E+04  0.13000978717E+04 0.  0.
        5    1    3    3  502    0 -0.92982873866E+02  0.45561097828E+03  0.47484029282E+03  0.66462212726E+03  0.46999998093E+01 0. -1.
       -5    1    3    3    0  502  0.92982873866E+02 -0.45561097828E+03 -0.43404364920E+03  0.63611567955E+03  0.46999998093E+01 0.  1.
</event>
<event>
 5   0  0.6742824E-05  0.1300215E+04  0.7818609E-02  0.9029395E-01
        2   -1    0    0  501    0  0.00000000000E+00  0.00000000000E+00  0.13089765630E+04  0.13089765630E+04  0.25500000920E-02 0.  1.
       -2   -1    0    0    0  501  0.00000000000E+00  0.00000000000E+00 -0.32287798944E+03  0.32287798945E+03  0.25500000920E-02 0. -1.
    10030    2    1    2    0    0  0.00000000000E+00  0.00000000000E+00  0.98609857352E+03  0.16318545524E+04  0.13002149374E+04 0.  0.
        4    1    3    3  502    0  0.24628181798E+03 -0.32606785147E+03 -0.14155112177E+03  0.43245035623E+03  0.12699999809E+01 0. -1.
       -4    1    3    3    0  502 -0.24628181798E+03  0.32606785147E+03  0.11276496953E+04  0.11994041962E+04  0.12699999809E+01 0.  1.
</event>
<event>
 5   0  0.6458698E-05  0.1299622E+04  0.7818609E-02  0.9029865E-01
        2   -1    0    0  501    0  0.00000000000E+00  0.00000000000E+00  0.45437302327E+03  0.45437302328E+03  0.25500000920E-02 0. -1.
       -2   -1    0    0    0  501  0.00000000000E+00  0.00000000000E+00 -0.92931257435E+03  0.92931257435E+03  0.25500000920E-02 0.  1.
    10030    2    1    2    0    0  0.00000000000E+00  0.00000000000E+00 -0.47493955108E+03  0.13836855976E+04  0.12996223513E+04 0.  0.
        3    1    3    3  502    0  0.40763674976E+03 -0.38282943160E+03  0.11488790298E+03  0.57089870722E+03  0.10100000352E+00 0.  1.
       -3    1    3    3    0  502 -0.40763674976E+03  0.38282943160E+03 -0.58982745406E+03  0.81278689041E+03  0.10100000352E+00 0. -1.
</event>
<event>
 5   0  0.6618060E-05  0.1299680E+04  0.7818609E-02  0.9029819E-01
        2   -1    0    0  501    0  0.00000000000E+00  0.00000000000E+00  0.10205186394E+04  0.10205186394E+04  0.25500000920E-02 0. -1.
       -2   -1    0    0    0  501  0.00000000000E+00  0.00000000000E+00 -0.41380125138E+03  0.41380125139E+03  0.25500000920E-02 0.  1.
    10030    2    1    2    0    0  0.00000000000E+00  0.00000000000E+00  0.60671738802E+03  0.14343198908E+04  0.12996797914E+04 0.  0.
        2    1    3    3  502    0  0.53347836851E+03  0.14358236764E+03 -0.74252727150E+02  0.55743029471E+03  0.25500000920E-02 0.  1.
       -2    1    3    3    0  502 -0.53347836851E+03 -0.14358236764E+03  0.68097011517E+03  0.87688959608E+03  0.25500000920E-02 0. -1.
</event>
<event>
 5   0  0.6671239E-05  0.1299902E+04  0.7818609E-02  0.9029643E-01
       -2   -1    0    0    0  501  0.00000000000E+00  0.00000000000E+00  0.29739356549E+03  0.29739356550E+03  0.25500000920E-02 0. -1.
        2   -1    0    0  501    0  0.00000000000E+00  0.00000000000E+00 -0.14204624330E+04  0.14204624330E+04  0.25500000920E-02 0.  1.
    10030    2    1    2    0    0  0.00000000000E+00  0.00000000000E+00 -0.11230688675E+04  0.17178559985E+04  0.12999021311E+04 0.  0.
        1    1    3    3  502    0 -0.59700935257E+03  0.57145699000E+02 -0.23049097918E+03  0.64250438869E+03  0.50400001928E-02 0. -1.
       -1    1    3    3    0  502  0.59700935257E+03 -0.57145699000E+02 -0.89257788832E+03  0.10753516098E+04  0.50400001928E-02 0.  1.
</event>
<event>
 5   0  0.6688086E-05  0.1299845E+04  0.7818609E-02  0.9029688E-01
        2   -1    0    0  501    0  0.00000000000E+00  0.00000000000E+00  0.15405473028E+04  0.15405473028E+04  0.25500000920E-02 0.  1.
       -2   -1    0    0    0  501  0.00000000000E+00  0.00000000000E+00 -0.27418769267E+03  0.27418769268E+03  0.25500000920E-02 0. -1.
    10030    2    1    2    0    0  0.00000000000E+00  0.00000000000E+00  0.12663596102E+04  0.18147349955E+04  0.12998447760E+04 0.  0.
        5    1    3    3  502    0  0.39169810478E+03 -0.50610800496E+03  0.79115892249E+03  0.10176085930E+04  0.46999998093E+01 0. -1.
       -5    1    3    3    0  502 -0.39169810478E+03  0.50610800496E+03  0.47520068767E+03  0.79712640248E+03  0.46999998093E+01 0.  1.
</event>
<event>
 5   0  0.6458698E-05  0.1300151E+04  0.7818609E-02  0.9029445E-01
       -2   -1    0    0    0  501  0.00000000000E+00  0.00000000000E+00  0.23686330674E+03  0.23686330675E+03  0.25500000920E-02 0.  1.
        2   -1    0    0  501    0  0.00000000000E+00  0.00000000000E+00 -0.17841436720E+04  0.17841436720E+04  0.25500000920E-02 0. -1.
    10030    2    1    2    0    0  0.00000000000E+00  0.00000000000E+00 -0.15472803653E+04  0.20210069788E+04  0.13001510218E+04 0.  0.
        3    1    3    3  502    0  0.65819757151E+02 -0.37321257843E+03 -0.15946705412E+04  0.16390832847E+04  0.10100000352E+00 0. -1.
       -3    1    3    3    0  502 -0.65819757151E+02  0.37321257843E+03  0.47390175877E+02  0.38192369408E+03  0.10100000352E+00 0.  1.
</event>
<event>
 5   0  0.3689707E-05  0.1299932E+04  0.7818609E-02  0.9029619E-01
       -1   -1    0    0    0  501  0.00000000000E+00  0.00000000000E+00  0.69469448992E+03  0.69469448993E+03  0.50400001928E-02 0. -1.
        1   -1    0    0  501    0  0.00000000000E+00  0.00000000000E+00 -0.60811693504E+03  0.60811693506E+03  0.50400001928E-02 0.  1.
    10030    2    1    2    0    0  0.00000000000E+00  0.00000000000E+00  0.86577554875E+02  0.13028114250E+04  0.12999315121E+04 0.  0.
        1    1    3    3  502    0 -0.69528911160E+02 -0.61350055231E+03  0.24681079263E+03  0.66493064642E+03  0.50400001928E-02 0. -1.
       -1    1    3    3    0  502  0.69528911160E+02  0.61350055231E+03 -0.16023323776E+03  0.63788077857E+03  0.50400001928E-02 0.  1.
</event>
<event>
 5   0  0.3631841E-05  0.1300007E+04  0.7818609E-02  0.9029560E-01
        1   -1    0    0  501    0  0.00000000000E+00  0.00000000000E+00  0.50019651751E+03  0.50019651754E+03  0.50400001928E-02 0.  1.
       -1   -1    0    0    0  501  0.00000000000E+00  0.00000000000E+00 -0.84467653043E+03  0.84467653044E+03  0.50400001928E-02 0. -1.
    10030    2    1    2    0    0  0.00000000000E+00  0.00000000000E+00 -0.34448001292E+03  0.13448730480E+04  0.13000065522E+04 0.  0.
        3    1    3    3  502    0  0.57040588294E+03 -0.17718197552E+03 -0.43750306607E+03  0.74038183849E+03  0.10100000352E+00 0. -1.
       -3    1    3    3    0  502 -0.57040588294E+03  0.17718197552E+03  0.93023053155E+02  0.60449120950E+03  0.10100000352E+00 0.  1.
</event>
<event>
 5   0  0.3552698E-05  0.1299944E+04  0.7818609E-02  0.9029609E-01
        1   -1    0    0  501    0  0.00000000000E+00  0.00000000000E+00  0.83352154399E+03  0.83352154401E+03  0.50400001928E-02 0. -1.
       -1   -1    0    0    0  501  0.00000000000E+00  0.00000000000E+00 -0.50684208347E+03  0.50684208350E+03  0.50400001928E-02 0.  1.
    10030    2    1    2    0    0  0.00000000000E+00  0.00000000000E+00  0.32667946052E+03  0.13403636275E+04  0.12999443003E+04 0.  0.
        5    1    3    3  502    0  0.58448990271E+03 -0.21906151933E+03  0.35015067236E+03  0.71571221799E+03  0.46999998093E+01 0.  1.
       -5    1    3    3    0  502 -0.58448990271E+03  0.21906151933E+03 -0.23471211840E+02  0.62465140951E+03  0.46999998093E+01 0. -1.
</event>
<event>
 5   0  0.3631841E-05  0.1300179E+04  0.7818609E-02  0.9029423E-01
        1   -1    0    0  501    0  0.00000000000E+00  0.00000000000E+00  0.19177111587E+04  0.19177111587E+04  0.50400001928E-02 0.  1.
       -1   -1    0    0    0  501  0.00000000000E+00  0.00000000000E+00 -0.22037547258E+03  0.22037547264E+03  0.50400001928E-02 0. -1.
    10030    2    1    2    0    0  0.00000000000E+00  0.00000000000E+00  0.16973356861E+04  0.21380866313E+04  0.13001792229E+04 0.  0.
        3    1    3    3  502    0  0.54042206286E+03  0.28419279533E+03  0.48171125344E+03  0.77773214723E+03  0.10100000352E+00 0. -1.
       -3    1    3    3    0  502 -0.54042206286E+03 -0.28419279533E+03  0.12156244327E+04  0.13603544841E+04  0.10100000352E+00 0.  1.
</event>
<event>
 5   0  0.6618060E-05  0.1299742E+04  0.7818609E-02  0.9029770E-01
        2   -1    0    0  501    0  0.00000000000E+00  0.00000000000E+00  0.55603334854E+03  0.55603334854E+03  0.25500000920E-02 0.  1.
       -2   -1    0    0    0  501  0.00000000000E+00  0.00000000000E+00 -0.75954476487E+03  0.75954476487E+03  0.25500000920E-02 0. -1.
    10030    2    1    2    0    0  0.00000000000E+00  0.00000000000E+00 -0.20351141633E+03  0.13155781134E+04  0.12997418497E+04 0.  0.
        2    1    3    3  502    0  0.54419795774E+03  0.22071467009E+03  0.17996232227E+03  0.61420910141E+03  0.25500000920E-02 0. -1.
       -2    1    3    3    0  502 -0.54419795774E+03 -0.22071467009E+03 -0.38347373860E+03  0.70136901201E+03  0.25500000920E-02 0.  1.
</event>
<event>
 5   0  0.6458698E-05  0.1300051E+04  0.7818609E-02  0.9029525E-01
        2   -1    0    0  501    0  0.00000000000E+00  0.00000000000E+00  0.18700431520E+04  0.18700431520E+04  0.25500000920E-02 0. -1.
       -2   -1    0    0    0  501  0.00000000000E+00  0.00000000000E+00 -0.22594822633E+03  0.22594822634E+03  0.25500000920E-02 0.  1.
    10030    2    1    2    0    0  0.00000000000E+00  0.00000000000E+00  0.16440949257E+04  0.20959913784E+04  0.13000506657E+04 0.  0.
        3    1    3    3  502    0 -0.23686980648E+03  0.30442608524E+03  0.16655892016E+04  0.17096695427E+04  0.10100000352E+00 0. -1.
       -3    1    3    3    0  502  0.23686980648E+03 -0.30442608524E+03 -0.21494275914E+02  0.38632183565E+03  0.10100000352E+00 0.  1.
</event>
<event>
 5   0  0.3631841E-05  0.1308869E+04  0.7818609E-02  0.9022561E-01
       -1   -1    0    0    0  501  0.00000000000E+00  0.00000000000E+00  0.50293659226E+03  0.50293659228E+03  0.50400001928E-02 0.  1.
        1   -1    0    0  501    0  0.00000000000E+00  0.00000000000E+00 -0.85156754665E+03  0.85156754667E+03  0.50400001928E-02 0. -1.
    10030    2    1    2    0    0  0.00000000000E+00  0.00000000000E+00 -0.34863095439E+03  0.13545041390E+04  0.13088689469E+04 0.  0.
        3    1    3    3  502    0 -0.58658421695E+03  0.28730386481E+03 -0.21647805579E+03  0.68810414412E+03  0.10100000352E+00 0. -1.
       -3    1    3    3    0  502  0.58658421695E+03 -0.28730386481E+03 -0.13215289860E+03  0.66639999484E+03  0.10100000352E+00 0.  1.
</event>
<event>
 5   0  0.3718559E-05  0.1299974E+04  0.7818609E-02  0.9029586E-01
        1   -1    0    0  501    0  0.00000000000E+00  0.00000000000E+00  0.17566632582E+04  0.17566632583E+04  0.50400001928E-02 0.  1.
       -1   -1    0    0    0  501  0.00000000000E+00  0.00000000000E+00 -0.24050329060E+03  0.24050329065E+03  0.50400001928E-02 0. -1.
    10030    2    1    2    0    0  0.00000000000E+00  0.00000000000E+00  0.15161599676E+04  0.19971665489E+04  0.12999742984E+04 0.  0.
        2    1    3    3  502    0 -0.57736247410E+03  0.94065375634E+02  0.32276493440E+03  0.66811146097E+03  0.25500000920E-02 0. -1.
       -2    1    3    3    0  502  0.57736247410E+03 -0.94065375634E+02  0.11933950332E+04  0.13290550879E+04  0.25500000920E-02 0.  1.
</event>
<event>
 5   0  0.6618060E-05  0.1300503E+04  0.7818609E-02  0.9029166E-01
        2   -1    0    0  501    0  0.00000000000E+00  0.00000000000E+00  0.25643411336E+04  0.25643411336E+04  0.25500000920E-02 0.  1.
       -2   -1    0    0    0  501  0.00000000000E+00  0.00000000000E+00 -0.16488720489E+03  0.16488720491E+03  0.25500000920E-02 0. -1.
    10030    2    1    2    0    0  0.00000000000E+00  0.00000000000E+00  0.23994539287E+04  0.27292283385E+04  0.13005030441E+04 0.  0.
        2    1    3    3  502    0  0.61323758573E+03  0.14729257637E+03  0.86743522552E+03  0.10724734543E+04  0.25500000920E-02 0. -1.
       -2    1    3    3    0  502 -0.61323758573E+03 -0.14729257637E+03  0.15320187032E+04  0.16567548843E+04  0.25500000920E-02 0.  1.
</event>
<event>
 5   0  0.3551277E-05  0.1293806E+04  0.7818609E-02  0.9034492E-01
       -1   -1    0    0    0  501  0.00000000000E+00  0.00000000000E+00  0.27386959889E+03  0.27386959893E+03  0.50400001928E-02 0.  1.
        1   -1    0    0  501    0  0.00000000000E+00  0.00000000000E+00 -0.15280381126E+04  0.15280381127E+04  0.50400001928E-02 0. -1.
    10030    2    1    2    0    0  0.00000000000E+00  0.00000000000E+00 -0.12541685138E+04  0.18019077116E+04  0.12938055264E+04 0.  0.
        4    1    3    3  502    0 -0.98223347779E+02 -0.22924158891E+02 -0.15170178657E+04  0.15203677716E+04  0.12699999809E+01 0. -1.
       -4    1    3    3    0  502  0.98223347779E+02  0.22924158891E+02  0.26284935193E+03  0.28153994001E+03  0.12699999809E+01 0.  1.
</event>
<event>
 5   0  0.2512000E-05  0.1299938E+04  0.7818609E-02  0.9029614E-01
        3   -1    0    0  501    0  0.00000000000E+00  0.00000000000E+00  0.66440162246E+03  0.66440163014E+03  0.10100000352E+00 0.  1.
       -3   -1    0    0    0  501  0.00000000000E+00  0.00000000000E+00 -0.63585029286E+03  0.63585030088E+03  0.10100000352E+00 0. -1.
    10030    2    1    2    0    0  0.00000000000E+00  0.00000000000E+00  0.28551329602E+02  0.13002519310E+04  0.12999384238E+04 0.  0.
        1    1    3    3  502    0  0.53897337725E+03  0.22081018732E+03 -0.27425626919E+03  0.64379029305E+03  0.50400001928E-02 0. -1.
       -1    1    3    3    0  502 -0.53897337725E+03 -0.22081018732E+03  0.30280759879E+03  0.65646163797E+03  0.50400001928E-02 0.  1.
</event>
<event>
 5   0  0.6671239E-05  0.1302072E+04  0.7818609E-02  0.9027924E-01
       -2   -1    0    0    0  501  0.00000000000E+00  0.00000000000E+00  0.10830822122E+04  0.10830822122E+04  0.25500000920E-02 0.  1.
        2   -1    0    0  501    0  0.00000000000E+00  0.00000000000E+00 -0.39133476724E+03  0.39133476725E+03  0.25500000920E-02 0. -1.
    10030    2    1    2    0    0  0.00000000000E+00  0.00000000000E+00  0.69174744492E+03  0.14744169794E+04  0.13020717728E+04 0.  0.
        1    1    3    3  502    0 -0.36620751217E+03 -0.12749811593E+03 -0.24630305481E+03  0.45937882664E+03  0.50400001928E-02 0. -1.
       -1    1    3    3    0  502  0.36620751217E+03  0.12749811593E+03  0.93805049973E+03  0.10150381528E+04  0.50400001928E-02 0.  1.
</event>
<event>
 5   0  0.3551277E-05  0.1299655E+04  0.7818609E-02  0.9029839E-01
        1   -1    0    0  501    0  0.00000000000E+00  0.00000000000E+00  0.92937766954E+03  0.92937766956E+03  0.50400001928E-02 0.  1.
       -1   -1    0    0    0  501  0.00000000000E+00  0.00000000000E+00 -0.45436370341E+03  0.45436370344E+03  0.50400001928E-02 0. -1.
    10030    2    1    2    0    0  0.00000000000E+00  0.00000000000E+00  0.47501396614E+03  0.13837413730E+04  0.12996545384E+04 0.  0.
        4    1    3    3  502    0  0.12550380495E+02 -0.40878972081E+03 -0.30014756175E+03  0.50730338026E+03  0.12699999809E+01 0. -1.
       -4    1    3    3    0  502 -0.12550380495E+02  0.40878972081E+03  0.77516152789E+03  0.87643799274E+03  0.12699999809E+01 0.  1.
</event>
<event>
 5   0  0.3689707E-05  0.1307041E+04  0.7818609E-02  0.9024000E-01
       -1   -1    0    0    0  501  0.00000000000E+00  0.00000000000E+00  0.37173383042E+03  0.37173383046E+03  0.50400001928E-02 0.  1.
        1   -1    0    0  501    0  0.00000000000E+00  0.00000000000E+00 -0.11489104096E+04  0.11489104096E+04  0.50400001928E-02 0. -1.
    10030    2    1    2    0    0  0.00000000000E+00  0.00000000000E+00 -0.77717657915E+03  0.15206442400E+04  0.13070407299E+04 0.  0.
        1    1    3    3  502    0 -0.64536443459E+03  0.36606720682E+02 -0.50050449276E+03  0.81752067419E+03  0.50400001928E-02 0. -1.
       -1    1    3    3    0  502  0.64536443459E+03 -0.36606720682E+02 -0.27667208639E+03  0.70312356585E+03  0.50400001928E-02 0.  1.
</event>
<event>
 5   0  0.3718559E-05  0.1300068E+04  0.7818609E-02  0.9029511E-01
       -1   -1    0    0    0  501  0.00000000000E+00  0.00000000000E+00  0.36724216498E+03  0.36724216501E+03  0.50400001928E-02 0.  1.
        1   -1    0    0  501    0  0.00000000000E+00  0.00000000000E+00 -0.11505881648E+04  0.11505881649E+04  0.50400001928E-02 0. -1.
    10030    2    1    2    0    0  0.00000000000E+00  0.00000000000E+00 -0.78334599987E+03  0.15178303299E+04  0.13000684423E+04 0.  0.
        2    1    3    3  502    0 -0.41492814734E+03 -0.14068384466E+03 -0.95230074475E+03  0.10482528417E+04  0.25500000920E-02 0. -1.
       -2    1    3    3    0  502  0.41492814734E+03  0.14068384466E+03  0.16895474488E+03  0.46957748820E+03  0.25500000920E-02 0.  1.
</event>
<event>
 5   0  0.6671239E-05  0.1300272E+04  0.7818609E-02  0.9029349E-01
       -2   -1    0    0    0  501  0.00000000000E+00  0.00000000000E+00  0.39162698606E+03  0.39162698607E+03  0.25500000920E-02 0.  1.
        2   -1    0    0  501    0  0.00000000000E+00  0.00000000000E+00 -0.10792843341E+04  0.10792843341E+04  0.25500000920E-02 0. -1.
    10030    2    1    2    0    0  0.00000000000E+00  0.00000000000E+00 -0.68765734801E+03  0.14709113201E+04  0.13002720806E+04 0.  0.
        1    1    3    3  502    0 -0.55848365174E+03  0.22550770879E+03 -0.62073641227E+03  0.86491121482E+03  0.50400001928E-02 0. -1.
       -1    1    3    3    0  502  0.55848365174E+03 -0.22550770879E+03 -0.66920935736E+02  0.60600010532E+03  0.50400001928E-02 0.  1.
</event>
<event>
 5   0  0.6688086E-05  0.1299061E+04  0.7818609E-02  0.9030310E-01
        2   -1    0    0  501    0  0.00000000000E+00  0.00000000000E+00  0.34574777666E+03  0.34574777667E+03  0.25500000920E-02 0.  1.
       -2   -1    0    0    0  501  0.00000000000E+00  0.00000000000E+00 -0.12202235440E+04  0.12202235440E+04  0.25500000920E-02 0. -1.
    10030    2    1    2    0    0  0.00000000000E+00  0.00000000000E+00 -0.87447576736E+03  0.15659713207E+04  0.12990605488E+04 0.  0.
        5    1    3    3  502    0 -0.29796039689E+03  0.34180052173E+02 -0.11317348368E+04  0.11708093376E+04  0.46999998093E+01 0. -1.
       -5    1    3    3    0  502  0.29796039689E+03 -0.34180052173E+02  0.25725906946E+03  0.39516198312E+03  0.46999998093E+01 0.  1.
</event>
<event>
 5   0  0.3631841E-05  0.1299987E+04  0.7818609E-02  0.9029576E-01
        1   -1    0    0  501    0  0.00000000000E+00  0.00000000000E+00  0.22052926089E+04  0.22052926089E+04  0.50400001928E-02 0. -1.
       -1   -1    0    0    0  501  0.00000000000E+00  0.00000000000E+00 -0.19158062763E+03  0.19158062769E+03  0.50400001928E-02 0.  1.
    10030    2    1    2    0    0  0.00000000000E+00  0.00000000000E+00  0.20137119813E+04  0.23968732366E+04  0.12999866802E+04 0.  0.
        3    1    3    3  502    0  0.37425540524E+03 -0.33453454301E+03  0.24550978077E+03  0.55879829230E+03  0.10100000352E+00 0.  1.
       -3    1    3    3    0  502 -0.37425540524E+03  0.33453454301E+03  0.17682022005E+04  0.18380749443E+04  0.10100000352E+00 0. -1.
</event>
<event>
 5   0  0.6742824E-05  0.1299872E+04  0.7818609E-02  0.9029667E-01
        2   -1    0    0  501    0  0.00000000000E+00  0.00000000000E+00  0.93384151920E+03  0.93384151921E+03  0.25500000920E-02 0. -1.
       -2   -1    0    0    0  501  0.00000000000E+00  0.00000000000E+00 -0.45234307464E+03  0.45234307464E+03  0.25500000920E-02 0.  1.
    10030    2    1    2    0    0  0.00000000000E+00  0.00000000000E+00  0.48149844457E+03  0.13861845938E+04  0.12998719076E+04 0.  0.
        4    1    3    3  502    0 -0.58793514974E+03 -0.83431384366E+02  0.52246197933E+03  0.79094669160E+03  0.12699999809E+01 0. -1.
       -4    1    3    3    0  502  0.58793514974E+03  0.83431384366E+02 -0.40963534766E+02  0.59523790225E+03  0.12699999809E+01 0.  1.
</event>
<event>
 5   0  0.3551277E-05  0.1300292E+04  0.7818609E-02  0.9029334E-01
        1   -1    0    0  501    0  0.00000000000E+00  0.00000000000E+00  0.61202606632E+03  0.61202606634E+03  0.50400001928E-02 0.  1.
       -1   -1    0    0    0  501  0.00000000000E+00  0.00000000000E+00 -0.69063997896E+03  0.69063997897E+03  0.50400001928E-02 0. -1.
    10030    2    1    2    0    0  0.00000000000E+00  0.00000000000E+00 -0.78613912639E+02  0.13026660453E+04  0.13002917666E+04 0.  0.
        4    1    3    3  502    0 -0.11627569506E+03 -0.11917400634E+03  0.59030345809E+03  0.61333699267E+03  0.12699999809E+01 0.  1.
       -4    1    3    3    0  502  0.11627569506E+03  0.11917400634E+03 -0.66891737073E+03  0.68932905264E+03  0.12699999809E+01 0. -1.
</event>
<event>
 5   0  0.3552698E-05  0.1299954E+04  0.7818609E-02  0.9029602E-01
        1   -1    0    0  501    0  0.00000000000E+00  0.00000000000E+00  0.19751796164E+04  0.19751796164E+04  0.50400001928E-02 0. -1.
       -1   -1    0    0    0  501  0.00000000000E+00  0.00000000000E+00 -0.21388950992E+03  0.21388950998E+03  0.50400001928E-02 0.  1.
    10030    2    1    2    0    0  0.00000000000E+00  0.00000000000E+00  0.17612901064E+04  0.21890691264E+04  0.12999541534E+04 0.  0.
        5    1    3    3  502    0  0.96088831920E+02 -0.37848828823E+03  0.56965615525E+01  0.39056496100E+03  0.46999998093E+01 0.  1.
       -5    1    3    3    0  502 -0.96088831920E+02  0.37848828823E+03  0.17555935449E+04  0.17985041654E+04  0.46999998093E+01 0. -1.
</event>
<event>
 5   0  0.3718559E-05  0.1301596E+04  0.7818609E-02  0.9028301E-01
        1   -1    0    0  501    0  0.00000000000E+00  0.00000000000E+00  0.66582760196E+03  0.66582760197E+03  0.50400001928E-02 0.  1.
       -1   -1    0    0    0  501  0.00000000000E+00  0.00000000000E+00 -0.63610717899E+03  0.63610717901E+03  0.50400001928E-02 0. -1.
    10030    2    1    2    0    0  0.00000000000E+00  0.00000000000E+00  0.29720422961E+02  0.13019347810E+04  0.13015955095E+04 0.  0.
        2    1    3    3  502    0 -0.28171107865E+03  0.49151340681E+03 -0.30552182000E+03  0.64365374497E+03  0.25500000920E-02 0. -1.
       -2    1    3    3    0  502  0.28171107865E+03 -0.49151340681E+03  0.33524224296E+03  0.65828103602E+03  0.25500000920E-02 0.  1.
</event>
<event>
 5   0  0.3718559E-05  0.1299905E+04  0.7818609E-02  0.9029640E-01
        1   -1    0    0  501    0  0.00000000000E+00  0.00000000000E+00  0.89904014155E+03  0.89904014156E+03  0.50400001928E-02 0. -1.
       -1   -1    0    0    0  501  0.00000000000E+00  0.00000000000E+00 -0.46987712782E+03  0.46987712784E+03  0.50400001928E-02 0.  1.
    10030    2    1    2    0    0  0.00000000000E+00  0.00000000000E+00  0.42916301373E+03  0.13689172694E+04  0.12999052266E+04 0.  0.
        2    1    3    3  502    0 -0.13844241717E+03  0.16425785724E+03  0.86057432443E+03  0.88698089856E+03  0.25500000920E-02 0. -1.
       -2    1    3    3    0  502  0.13844241717E+03 -0.16425785724E+03 -0.43141131070E+03  0.48193637085E+03  0.25500000920E-02 0.  1.
</event>
<event>
 5   0  0.3552698E-05  0.1299391E+04  0.7818609E-02  0.9030048E-01
       -1   -1    0    0    0  501  0.00000000000E+00  0.00000000000E+00  0.11856382918E+04  0.11856382918E+04  0.50400001928E-02 0.  1.
        1   -1    0    0  501    0  0.00000000000E+00  0.00000000000E+00 -0.35601444163E+03  0.35601444166E+03  0.50400001928E-02 0. -1.
    10030    2    1    2    0    0  0.00000000000E+00  0.00000000000E+00  0.82962385018E+03  0.15416527335E+04  0.12993911720E+04 0.  0.
        5    1    3    3  502    0  0.59535501968E+03 -0.24416065360E+03  0.52106471303E+03  0.82800516266E+03  0.46999998093E+01 0.  1.
       -5    1    3    3    0  502 -0.59535501968E+03  0.24416065360E+03  0.30855913714E+03  0.71364757082E+03  0.46999998093E+01 0. -1.
</event>
<event>
 5   0  0.3552698E-05  0.1300204E+04  0.7818609E-02  0.9029404E-01
        1   -1    0    0  501    0  0.00000000000E+00  0.00000000000E+00  0.10274556942E+04  0.10274556942E+04  0.50400001928E-02 0.  1.
       -1   -1    0    0    0  501  0.00000000000E+00  0.00000000000E+00 -0.41133883001E+03  0.41133883005E+03  0.50400001928E-02 0. -1.
    10030    2    1    2    0    0  0.00000000000E+00  0.00000000000E+00  0.61611686420E+03  0.14387945243E+04  0.13002037120E+04 0.  0.
        5    1    3    3  502    0  0.45663701250E+03  0.84203344471E+02 -0.19541371763E+03  0.50380172235E+03  0.46999998093E+01 0. -1.
       -5    1    3    3    0  502 -0.45663701250E+03 -0.84203344471E+02  0.81153058182E+03  0.93499280192E+03  0.46999998093E+01 0.  1.
</event>
<event>
 5   0  0.3718559E-05  0.1299379E+04  0.7818609E-02  0.9030057E-01
       -1   -1    0    0    0  501  0.00000000000E+00  0.00000000000E+00  0.42138889952E+03  0.42138889955E+03  0.50400001928E-02 0. -1.
        1   -1    0    0  501    0  0.00000000000E+00  0.00000000000E+00 -0.10016796648E+04  0.10016796648E+04  0.50400001928E-02 0.  1.
    10030    2    1    2    0    0  0.00000000000E+00  0.00000000000E+00 -0.58029076530E+03  0.14230685644E+04  0.12993793775E+04 0.  0.
        2    1    3    3  502    0  0.54741531150E+03 -0.31468004072E+03 -0.12257887192E+03  0.64320496821E+03  0.25500000920E-02 0.  1.
       -2    1    3    3    0  502 -0.54741531150E+03  0.31468004072E+03 -0.45771189338E+03  0.77986359617E+03  0.25500000920E-02 0. -1.
</event>
<event>
 5   0  0.3718559E-05  0.1299882E+04  0.7818609E-02  0.9029659E-01
       -1   -1    0    0    0  501  0.00000000000E+00  0.00000000000E+00  0.10342447601E+04  0.10342447601E+04  0.50400001928E-02 0.  1.
        1   -1    0    0  501    0  0.00000000000E+00  0.00000000000E+00 -0.40843620856E+03  0.40843620859E+03  0.50400001928E-02 0. -1.
    10030    2    1    2    0    0  0.00000000000E+00  0.00000000000E+00  0.62580855156E+03  0.14426809687E+04  0.12998815463E+04 0.  0.
        2    1    3    3  502    0 -0.26308498471E+03  0.45976623661E+03  0.73087114642E+03  0.90264684910E+03  0.25500000920E-02 0. -1.
       -2    1    3    3    0  502  0.26308498471E+03 -0.45976623661E+03 -0.10506259486E+03  0.54003411962E+03  0.25500000920E-02 0.  1.
</event>
<event>
 5   0  0.2512000E-05  0.1299743E+04  0.7818609E-02  0.9029769E-01
        4   -1    0    0  501    0  0.00000000000E+00  0.00000000000E+00  0.72457284647E+03  0.72457395947E+03  0.12699999809E+01 0. -1.
       -4   -1    0    0    0  501  0.00000000000E+00  0.00000000000E+00 -0.58286901090E+03  0.58287039448E+03  0.12699999809E+01 0.  1.
    10030    2    1    2    0    0  0.00000000000E+00  0.00000000000E+00  0.14170383557E+03  0.13074443539E+04  0.12997425751E+04 0.  0.
        1    1    3    3  502    0  0.52889011847E+03  0.34458713050E+03 -0.84555101421E+02  0.63687880568E+03  0.50400001928E-02 0. -1.
       -1    1    3    3    0  502 -0.52889011847E+03 -0.34458713050E+03  0.22625893699E+03  0.67056554826E+03  0.50400001928E-02 0.  1.
</event>
<event>
 5   0  0.6671239E-05  0.1300054E+04  0.7818609E-02  0.9029522E-01
        2   -1    0    0  501    0  0.00000000000E+00  0.00000000000E+00  0.45430009274E+03  0.45430009275E+03  0.25500000920E-02 0.  1.
       -2   -1    0    0    0  501  0.00000000000E+00  0.00000000000E+00 -0.93007977070E+03  0.93007977070E+03  0.25500000920E-02 0. -1.
    10030    2    1    2    0    0  0.00000000000E+00  0.00000000000E+00 -0.47577967796E+03  0.13843798634E+04  0.13000543467E+04 0.  0.
        1    1    3    3  502    0 -0.48926684100E+03 -0.41836203276E+03 -0.14189555515E+03  0.65919889317E+03  0.50400001928E-02 0.  1.
       -1    1    3    3    0  502  0.48926684100E+03  0.41836203276E+03 -0.33388412281E+03  0.72518097028E+03  0.50400001928E-02 0. -1.
</event>
<event>
 5   0  0.3552698E-05  0.1299907E+04  0.7818609E-02  0.9029639E-01
       -1   -1    0    0    0  501  0.00000000000E+00  0.00000000000E+00  0.44287421129E+03  0.44287421132E+03  0.50400001928E-02 0.  1.
        1   -1    0    0  501    0  0.00000000000E+00  0.00000000000E+00 -0.95385854681E+03  0.95385854683E+03  0.50400001928E-02 0. -1.
    10030    2    1    2    0    0  0.00000000000E+00  0.00000000000E+00 -0.51098433552E+03  0.13967327581E+04  0.12999066915E+04 0.  0.
        5    1    3    3  502    0  0.59433998534E+03 -0.24686965555E+03 -0.15799991957E+03  0.66269956209E+03  0.46999998093E+01 0.  1.
       -5    1    3    3    0  502 -0.59433998534E+03  0.24686965555E+03 -0.35298441595E+03  0.73403319605E+03  0.46999998093E+01 0. -1.
</event>
<event>
 5   0  0.3718559E-05  0.1300082E+04  0.7818609E-02  0.9029500E-01
        1   -1    0    0  501    0  0.00000000000E+00  0.00000000000E+00  0.27185274118E+04  0.27185274118E+04  0.50400001928E-02 0.  1.
       -1   -1    0    0    0  501  0.00000000000E+00  0.00000000000E+00 -0.15543468622E+03  0.15543468630E+03  0.50400001928E-02 0. -1.
    10030    2    1    2    0    0  0.00000000000E+00  0.00000000000E+00  0.25630927256E+04  0.28739620981E+04  0.13000822364E+04 0.  0.
        2    1    3    3  502    0  0.19130602425E+03  0.58874177575E+03  0.17199958457E+04  0.18280045357E+04  0.25500000920E-02 0.  1.
       -2    1    3    3    0  502 -0.19130602425E+03 -0.58874177575E+03  0.84309687994E+03  0.10459575624E+04  0.25500000920E-02 0. -1.
</event>
<event>
 5   0  0.3689707E-05  0.1300621E+04  0.7818609E-02  0.9029073E-01
        1   -1    0    0  501    0  0.00000000000E+00  0.00000000000E+00  0.75305544325E+03  0.75305544327E+03  0.50400001928E-02 0.  1.
       -1   -1    0    0    0  501  0.00000000000E+00  0.00000000000E+00 -0.56158408967E+03  0.56158408969E+03  0.50400001928E-02 0. -1.
    10030    2    1    2    0    0  0.00000000000E+00  0.00000000000E+00  0.19147135358E+03  0.13146395330E+04  0.13006213217E+04 0.  0.
        1    1    3    3  502    0 -0.24217425331E+03  0.41563700416E+03 -0.34658971585E+03  0.59289705628E+03  0.50400001928E-02 0. -1.
       -1    1    3    3    0  502  0.24217425331E+03 -0.41563700416E+03  0.53806106943E+03  0.72174247669E+03  0.50400001928E-02 0.  1.
</event>
<event>
 5   0  0.6688086E-05  0.1300180E+04  0.7818609E-02  0.9029423E-01
       -2   -1    0    0    0  501  0.00000000000E+00  0.00000000000E+00  0.30737180213E+03  0.30737180214E+03  0.25500000920E-02 0. -1.
        2   -1    0    0  501    0  0.00000000000E+00  0.00000000000E+00 -0.13749366847E+04  0.13749366847E+04  0.25500000920E-02 0.  1.
    10030    2    1    2    0    0  0.00000000000E+00  0.00000000000E+00 -0.10675648826E+04  0.16823084869E+04  0.13001796285E+04 0.  0.
        5    1    3    3  502    0  0.32730457620E+03  0.50825680003E+03 -0.84308091635E+03  0.10374298925E+04  0.46999998093E+01 0.  1.
       -5    1    3    3    0  502 -0.32730457620E+03 -0.50825680003E+03 -0.22448396625E+03  0.64487859437E+03  0.46999998093E+01 0. -1.
</event>
<event>
 5   0  0.6688086E-05  0.1300449E+04  0.7818609E-02  0.9029209E-01
        2   -1    0    0  501    0  0.00000000000E+00  0.00000000000E+00  0.54848117080E+03  0.54848117081E+03  0.25500000920E-02 0.  1.
       -2   -1    0    0    0  501  0.00000000000E+00  0.00000000000E+00 -0.77084144817E+03  0.77084144817E+03  0.25500000920E-02 0. -1.
    10030    2    1    2    0    0  0.00000000000E+00  0.00000000000E+00 -0.22236027737E+03  0.13193226190E+04  0.13004491839E+04 0.  0.
        5    1    3    3  502    0 -0.67519469988E+02  0.29925719590E+03 -0.69278566510E+03  0.75768582928E+03  0.46999998093E+01 0. -1.
       -5    1    3    3    0  502  0.67519469988E+02 -0.29925719590E+03  0.47042538773E+03  0.56163678970E+03  0.46999998093E+01 0.  1.
</event>
<event>
 5   0  0.6742824E-05  0.1301609E+04  0.7818609E-02  0.9028290E-01
        2   -1    0    0  501    0  0.00000000000E+00  0.00000000000E+00  0.52189946617E+03  0.52189946618E+03  0.25500000920E-02 0. -1.
       -2   -1    0    0    0  501  0.00000000000E+00  0.00000000000E+00 -0.81154807672E+03  0.81154807673E+03  0.25500000920E-02 0.  1.
    10030    2    1    2    0    0  0.00000000000E+00  0.00000000000E+00 -0.28964861056E+03  0.13334475429E+04  0.13016090166E+04 0.  0.
        4    1    3    3  502    0 -0.56937948583E+02 -0.20416895810E+03  0.48554639159E+03  0.52979600294E+03  0.12699999809E+01 0. -1.
       -4    1    3    3    0  502  0.56937948583E+02  0.20416895810E+03 -0.77519500215E+03  0.80365153997E+03  0.12699999809E+01 0.  1.
</event>
<event>
 5   0  0.3552698E-05  0.1299759E+04  0.7818609E-02  0.9029756E-01
        1   -1    0    0  501    0  0.00000000000E+00  0.00000000000E+00  0.39741689762E+03  0.39741689766E+03  0.50400001928E-02 0.  1.
       -1   -1    0    0    0  501  0.00000000000E+00  0.00000000000E+00 -0.10627212074E+04  0.10627212074E+04  0.50400001928E-02 0. -1.
    10030    2    1    2    0    0  0.00000000000E+00  0.00000000000E+00 -0.66530430980E+03  0.14601381051E+04  0.12997590012E+04 0.  0.
        5    1    3    3  502    0  0.69483427110E+02  0.18550919791E+03 -0.10279576333E+04  0.10468813663E+04  0.46999998093E+01 0. -1.
       -5    1    3    3    0  502 -0.69483427110E+02 -0.18550919791E+03  0.36265332350E+03  0.41325673884E+03  0.46999998093E+01 0.  1.
</event>
<event>
 5   0  0.6618060E-05  0.1300408E+04  0.7818609E-02  0.9029242E-01
       -2   -1    0    0    0  501  0.00000000000E+00  0.00000000000E+00  0.64011560447E+03  0.64011560448E+03  0.25500000920E-02 0. -1.
        2   -1    0    0  501    0  0.00000000000E+00  0.00000000000E+00 -0.66045151444E+03  0.66045151444E+03  0.25500000920E-02 0.  1.
    10030    2    1    2    0    0  0.00000000000E+00  0.00000000000E+00 -0.20335909968E+02  0.13005671189E+04  0.13004081212E+04 0.  0.
        2    1    3    3  502    0  0.20247914761E+03 -0.28614712655E+03  0.53751870235E+03  0.64171982877E+03  0.25500000920E-02 0. -1.
       -2    1    3    3    0  502 -0.20247914761E+03  0.28614712655E+03 -0.55785461232E+03  0.65884729015E+03  0.25500000920E-02 0.  1.
</event>
<event>
 5   0  0.3718559E-05  0.1301640E+04  0.7818609E-02  0.9028266E-01
       -1   -1    0    0    0  501  0.00000000000E+00  0.00000000000E+00  0.71231844229E+03  0.71231844231E+03  0.50400001928E-02 0. -1.
        1   -1    0    0  501    0  0.00000000000E+00  0.00000000000E+00 -0.59463102703E+03  0.59463102705E+03  0.50400001928E-02 0.  1.
    10030    2    1    2    0    0  0.00000000000E+00  0.00000000000E+00  0.11768741526E+03  0.13069494694E+04  0.13016399609E+04 0.  0.
        2    1    3    3  502    0  0.15935003929E+03  0.15109895525E+02  0.69224645460E+03  0.71051101179E+03  0.25500000920E-02 0. -1.
       -2    1    3    3    0  502 -0.15935003929E+03 -0.15109895525E+02 -0.57455903934E+03  0.59643845756E+03  0.25500000920E-02 0.  1.
</event>
<event>
 5   0  0.6618060E-05  0.1300353E+04  0.7818609E-02  0.9029285E-01
       -2   -1    0    0    0  501  0.00000000000E+00  0.00000000000E+00  0.54638006093E+03  0.54638006094E+03  0.25500000920E-02 0. -1.
        2   -1    0    0  501    0  0.00000000000E+00  0.00000000000E+00 -0.77369119616E+03  0.77369119617E+03  0.25500000920E-02 0.  1.
    10030    2    1    2    0    0  0.00000000000E+00  0.00000000000E+00 -0.22731113523E+03  0.13200712571E+04  0.13003529412E+04 0.  0.
        2    1    3    3  502    0  0.15653876158E+03  0.53674390038E+03 -0.45054780920E+03  0.71804716200E+03  0.25500000920E-02 0.  1.
       -2    1    3    3    0  502 -0.15653876158E+03 -0.53674390038E+03  0.22323667397E+03  0.60202409510E+03  0.25500000920E-02 0. -1.
</event>
<event>
 5   0  0.3552698E-05  0.1300114E+04  0.7818609E-02  0.9029474E-01
        1   -1    0    0  501    0  0.00000000000E+00  0.00000000000E+00  0.16373785106E+04  0.16373785106E+04  0.50400001928E-02 0. -1.
       -1   -1    0    0    0  501  0.00000000000E+00  0.00000000000E+00 -0.25807982057E+03  0.25807982062E+03  0.50400001928E-02 0.  1.
    10030    2    1    2    0    0  0.00000000000E+00  0.00000000000E+00  0.13792986900E+04  0.18954583312E+04  0.13001143831E+04 0.  0.
        5    1    3    3  502    0  0.55491034720E+03 -0.16397430911E+03  0.25780274874E+03  0.63348039807E+03  0.46999998093E+01 0.  1.
       -5    1    3    3    0  502 -0.55491034720E+03  0.16397430911E+03  0.11214959413E+04  0.12619779332E+04  0.46999998093E+01 0. -1.
</event>
<event>
 5   0  0.6742824E-05  0.1302104E+04  0.7818609E-02  0.9027898E-01
       -2   -1    0    0    0  501  0.00000000000E+00  0.00000000000E+00  0.78599639402E+03  0.78599639402E+03  0.25500000920E-02 0. -1.
        2   -1    0    0  501    0  0.00000000000E+00  0.00000000000E+00 -0.53927580204E+03  0.53927580205E+03  0.25500000920E-02 0.  1.
    10030    2    1    2    0    0  0.00000000000E+00  0.00000000000E+00  0.24672059198E+03  0.13252721961E+04  0.13021041983E+04 0.  0.
        4    1    3    3  502    0  0.63973028254E+02  0.51886145525E+03 -0.27156094593E+03  0.58911519955E+03  0.12699999809E+01 0.  1.
       -4    1    3    3    0  502 -0.63973028254E+02 -0.51886145525E+03  0.51828153791E+03  0.73615699652E+03  0.12699999809E+01 0. -1.
</event>
<event>
 5   0  0.3689707E-05  0.1301121E+04  0.7818609E-02  0.9028677E-01
        1   -1    0    0  501    0  0.00000000000E+00  0.00000000000E+00  0.73358638125E+03  0.73358638126E+03  0.50400001928E-02 0.  1.
       -1   -1    0    0    0  501  0.00000000000E+00  0.00000000000E+00 -0.57693119450E+03  0.57693119452E+03  0.50400001928E-02 0. -1.
    10030    2    1    2    0    0  0.00000000000E+00  0.00000000000E+00  0.15665518675E+03  0.13105175758E+04  0.13011208510E+04 0.  0.
        1    1    3    3  502    0 -0.25692885801E+03 -0.55496020362E+03 -0.14516587596E+03  0.62854307509E+03  0.50400001928E-02 0. -1.
       -1    1    3    3    0  502  0.25692885801E+03  0.55496020362E+03  0.30182106271E+03  0.68197450069E+03  0.50400001928E-02 0.  1.
</event>
<event>
 5   0  0.3552698E-05  0.1299427E+04  0.7818609E-02  0.9030019E-01
        1   -1    0    0  501    0  0.00000000000E+00  0.00000000000E+00  0.10022279042E+04  0.10022279042E+04  0.50400001928E-02 0.  1.
       -1   -1    0    0    0  501  0.00000000000E+00  0.00000000000E+00 -0.42118944296E+03  0.42118944299E+03  0.50400001928E-02 0. -1.
    10030    2    1    2    0    0  0.00000000000E+00  0.00000000000E+00  0.58103846126E+03  0.14234173472E+04  0.12994272780E+04 0.  0.
        5    1    3    3  502    0 -0.24968030399E+03  0.37602695384E+03  0.80240842848E+03  0.92066166441E+03  0.46999998093E+01 0.  1.
       -5    1    3    3    0  502  0.24968030399E+03 -0.37602695384E+03 -0.22136996722E+03  0.50275568282E+03  0.46999998093E+01 0. -1.
</event>
<event>
 5   0  0.3551277E-05  0.1300776E+04  0.7818609E-02  0.9028950E-01
       -1   -1    0    0    0  501  0.00000000000E+00  0.00000000000E+00  0.89492258594E+03  0.89492258596E+03  0.50400001928E-02 0. -1.
        1   -1    0    0  501    0  0.00000000000E+00  0.00000000000E+00 -0.47267192231E+03  0.47267192234E+03  0.50400001928E-02 0.  1.
    10030    2    1    2    0    0  0.00000000000E+00  0.00000000000E+00  0.42225066363E+03  0.13675945083E+04  0.13007763513E+04 0.  0.
        4    1    3    3  502    0 -0.25787211254E+03 -0.52337357384E+03  0.51326374096E+03  0.77708378242E+03  0.12699999809E+01 0. -1.
       -4    1    3    3    0  502  0.25787211254E+03  0.52337357384E+03 -0.91013077326E+02  0.59051072587E+03  0.12699999809E+01 0.  1.
</event>
<event>
 5   0  0.6618060E-05  0.1300558E+04  0.7818609E-02  0.9029123E-01
        2   -1    0    0  501    0  0.00000000000E+00  0.00000000000E+00  0.32272083588E+03  0.32272083589E+03  0.25500000920E-02 0.  1.
       -2   -1    0    0    0  501  0.00000000000E+00  0.00000000000E+00 -0.13103056127E+04  0.13103056127E+04  0.25500000920E-02 0. -1.
    10030    2    1    2    0    0  0.00000000000E+00  0.00000000000E+00 -0.98758477679E+03  0.16330264486E+04  0.13005582226E+04 0.  0.
        2    1    3    3  502    0 -0.14412840828E+03  0.40567847454E+03  0.11814762117E+03  0.44643799477E+03  0.25500000920E-02 0.  1.
       -2    1    3    3    0  502  0.14412840828E+03 -0.40567847454E+03 -0.11057323980E+04  0.11865884538E+04  0.25500000920E-02 0. -1.
</event>
<event>
 5   0  0.6458698E-05  0.1299560E+04  0.7818609E-02  0.9029914E-01
       -2   -1    0    0    0  501  0.00000000000E+00  0.00000000000E+00  0.59745948155E+03  0.59745948156E+03  0.25500000920E-02 0.  1.
        2   -1    0    0  501    0  0.00000000000E+00  0.00000000000E+00 -0.70668206056E+03  0.70668206057E+03  0.25500000920E-02 0. -1.
    10030    2    1    2    0    0  0.00000000000E+00  0.00000000000E+00 -0.10922257901E+03  0.13041415421E+04  0.12995597678E+04 0.  0.
        3    1    3    3  502    0  0.12441112986E+03 -0.20377589278E+03 -0.66106894353E+03  0.70286193666E+03  0.10100000352E+00 0. -1.
       -3    1    3    3    0  502 -0.12441112986E+03  0.20377589278E+03  0.55184636451E+03  0.60127960546E+03  0.10100000352E+00 0.  1.
</event>
<event>
 5   0  0.3552698E-05  0.1300374E+04  0.7818609E-02  0.9029269E-01
        1   -1    0    0  501    0  0.00000000000E+00  0.00000000000E+00  0.18969148553E+04  0.18969148553E+04  0.50400001928E-02 0.  1.
       -1   -1    0    0    0  501  0.00000000000E+00  0.00000000000E+00 -0.22285824181E+03  0.22285824187E+03  0.50400001928E-02 0. -1.
    10030    2    1    2    0    0  0.00000000000E+00  0.00000000000E+00  0.16740566135E+04  0.21197730972E+04  0.13003739610E+04 0.  0.
        5    1    3    3  502    0  0.29785063264E+03 -0.47536886733E+03  0.13728178391E+04  0.14830176900E+04  0.46999998093E+01 0.  1.
       -5    1    3    3    0  502 -0.29785063264E+03  0.47536886733E+03  0.30123877433E+03  0.63675540716E+03  0.46999998093E+01 0. -1.
</event>
<event>
 5   0  0.6688086E-05  0.1300499E+04  0.7818609E-02  0.9029169E-01
       -2   -1    0    0    0  501  0.00000000000E+00  0.00000000000E+00  0.11463187107E+04  0.11463187107E+04  0.25500000920E-02 0. -1.
        2   -1    0    0  501    0  0.00000000000E+00  0.00000000000E+00 -0.36885419710E+03  0.36885419711E+03  0.25500000920E-02 0.  1.
    10030    2    1    2    0    0  0.00000000000E+00  0.00000000000E+00  0.77746451356E+03  0.15151729078E+04  0.13004990852E+04 0.  0.
        5    1    3    3  502    0  0.62072803975E+03  0.15961519426E+03  0.51647661734E+03  0.82313455512E+03  0.46999998093E+01 0. -1.
       -5    1    3    3    0  502 -0.62072803975E+03 -0.15961519426E+03  0.26098789622E+03  0.69203835265E+03  0.46999998093E+01 0.  1.
</event>
<event>
 5   0  0.6688086E-05  0.1299799E+04  0.7818609E-02  0.9029725E-01
       -2   -1    0    0    0  501  0.00000000000E+00  0.00000000000E+00  0.74468405788E+03  0.74468405788E+03  0.25500000920E-02 0.  1.
        2   -1    0    0  501    0  0.00000000000E+00  0.00000000000E+00 -0.56717924637E+03  0.56717924637E+03  0.25500000920E-02 0. -1.
    10030    2    1    2    0    0  0.00000000000E+00  0.00000000000E+00  0.17750481151E+03  0.13118633043E+04  0.12997989733E+04 0.  0.
        5    1    3    3  502    0  0.63842322853E+03  0.11423762886E+03  0.46982308301E+02  0.65027984889E+03  0.46999998093E+01 0. -1.
       -5    1    3    3    0  502 -0.63842322853E+03 -0.11423762886E+03  0.13052250321E+03  0.66158345537E+03  0.46999998093E+01 0.  1.
</event>
<event>
 5   0  0.6688086E-05  0.1299916E+04  0.7818609E-02  0.9029631E-01
        2   -1    0    0  501    0  0.00000000000E+00  0.00000000000E+00  0.11131086431E+04  0.11131086431E+04  0.25500000920E-02 0. -1.
       -2   -1    0    0    0  501  0.00000000000E+00  0.00000000000E+00 -0.37951880427E+03  0.37951880428E+03  0.25500000920E-02 0.  1.
    10030    2    1    2    0    0  0.00000000000E+00  0.00000000000E+00  0.73358983879E+03  0.14926274473E+04  0.12999163992E+04 0.  0.
        5    1    3    3  502    0 -0.34837711323E+03 -0.15606848722E+03  0.97079953177E+03  0.10431671997E+04  0.46999998093E+01 0. -1.
       -5    1    3    3    0  502  0.34837711323E+03  0.15606848722E+03 -0.23720969298E+03  0.44946024760E+03  0.46999998093E+01 0.  1.
</event>
<event>
 5   0  0.3551277E-05  0.1300860E+04  0.7818609E-02  0.9028884E-01
       -1   -1    0    0    0  501  0.00000000000E+00  0.00000000000E+00  0.36728964050E+03  0.36728964053E+03  0.50400001928E-02 0. -1.
        1   -1    0    0  501    0  0.00000000000E+00  0.00000000000E+00 -0.11518400102E+04  0.11518400102E+04  0.50400001928E-02 0.  1.
    10030    2    1    2    0    0  0.00000000000E+00  0.00000000000E+00 -0.78455036967E+03  0.15191296507E+04  0.13008595670E+04 0.  0.
        4    1    3    3  502    0 -0.58348186500E+03 -0.18764866820E+03 -0.13804510360E+03  0.62826839248E+03  0.12699999809E+01 0. -1.
       -4    1    3    3    0  502  0.58348186500E+03  0.18764866820E+03 -0.64650526607E+03  0.89086125823E+03  0.12699999809E+01 0.  1.
</event>
<event>
 5   0  0.6742824E-05  0.1299711E+04  0.7818609E-02  0.9029795E-01
        2   -1    0    0  501    0  0.00000000000E+00  0.00000000000E+00  0.96522723558E+03  0.96522723558E+03  0.25500000920E-02 0. -1.
       -2   -1    0    0    0  501  0.00000000000E+00  0.00000000000E+00 -0.43752594578E+03  0.43752594579E+03  0.25500000920E-02 0.  1.
    10030    2    1    2    0    0  0.00000000000E+00  0.00000000000E+00  0.52770128980E+03  0.14027531814E+04  0.12997106742E+04 0.  0.
        4    1    3    3  502    0  0.56542026553E+03 -0.50534068883E+02 -0.77544545377E+02  0.57294723859E+03  0.12699999809E+01 0.  1.
       -4    1    3    3    0  502 -0.56542026553E+03  0.50534068883E+02  0.60524583517E+03  0.82980594279E+03  0.12699999809E+01 0. -1.
</event>
<event>
 5   0  0.3689707E-05  0.1300348E+04  0.7818609E-02  0.9029289E-01
       -1   -1    0    0    0  501  0.00000000000E+00  0.00000000000E+00  0.95267381875E+03  0.95267381876E+03  0.50400001928E-02 0. -1.
        1   -1    0    0  501    0  0.00000000000E+00  0.00000000000E+00 -0.44372630678E+03  0.44372630681E+03  0.50400001928E-02 0.  1.
    10030    2    1    2    0    0  0.00000000000E+00  0.00000000000E+00  0.50894751197E+03  0.13964001256E+04  0.13003483152E+04 0.  0.
        1    1    3    3  502    0 -0.44733669921E+03  0.41237719605E+03  0.50067116633E+03  0.78793190766E+03  0.50400001928E-02 0. -1.
       -1    1    3    3    0  502  0.44733669921E+03 -0.41237719605E+03  0.82763456393E+01  0.60846821791E+03  0.50400001928E-02 0.  1.
</event>
<event>
 5   0  0.2512000E-05  0.1296328E+04  0.7818609E-02  0.9032482E-01
        3   -1    0    0  501    0  0.00000000000E+00  0.00000000000E+00  0.82480396233E+03  0.82480396851E+03  0.10100000352E+00 0.  1.
       -3   -1    0    0    0  501  0.00000000000E+00  0.00000000000E+00 -0.50935320192E+03  0.50935321193E+03  0.10100000352E+00 0. -1.
    10030    2    1    2    0    0  0.00000000000E+00  0.00000000000E+00  0.31545076041E+03  0.13341571804E+04  0.12963279677E+04 0.  0.
        5    1    3    3  502    0 -0.64324849055E+03  0.72839085781E+02  0.19059975718E+03  0.67485147288E+03  0.46999998093E+01 0. -1.
       -5    1    3    3    0  502  0.64324849055E+03 -0.72839085781E+02  0.12485100323E+03  0.65930570756E+03  0.46999998093E+01 0.  1.
</event>
<event>
 5   0  0.3689707E-05  0.1299503E+04  0.7818609E-02  0.9029959E-01
        1   -1    0    0  501    0  0.00000000000E+00  0.00000000000E+00  0.86331375535E+03  0.86331375537E+03  0.50400001928E-02 0. -1.
       -1   -1    0    0    0  501  0.00000000000E+00  0.00000000000E+00 -0.48901952212E+03  0.48901952215E+03  0.50400001928E-02 0.  1.
    10030    2    1    2    0    0  0.00000000000E+00  0.00000000000E+00  0.37429423323E+03  0.13523332775E+04  0.12995034130E+04 0.  0.
        1    1    3    3  502    0 -0.55994943068E+03 -0.42753034095E+02 -0.15295107716E+03  0.58203541032E+03  0.50400001928E-02 0.  1.
       -1    1    3    3    0  502  0.55994943068E+03  0.42753034095E+02  0.52724531039E+03  0.77029786719E+03  0.50400001928E-02 0. -1.
</event>
<event>
 5   0  0.3718559E-05  0.1299213E+04  0.7818609E-02  0.9030189E-01
       -1   -1    0    0    0  501  0.00000000000E+00  0.00000000000E+00  0.25677776992E+03  0.25677776997E+03  0.50400001928E-02 0. -1.
        1   -1    0    0  501    0  0.00000000000E+00  0.00000000000E+00 -0.16434009061E+04  0.16434009061E+04  0.50400001928E-02 0.  1.
    10030    2    1    2    0    0  0.00000000000E+00  0.00000000000E+00 -0.13866231362E+04  0.19001786761E+04  0.12992133309E+04 0.  0.
        2    1    3    3  502    0  0.63244643828E+03 -0.71491004288E+02 -0.88338462232E+03  0.10887919232E+04  0.25500000920E-02 0. -1.
       -2    1    3    3    0  502 -0.63244643828E+03  0.71491004288E+02 -0.50323851388E+03  0.81138675294E+03  0.25500000920E-02 0.  1.
</event>
<event>
 5   0  0.6742824E-05  0.1300155E+04  0.7818609E-02  0.9029442E-01
       -2   -1    0    0    0  501  0.00000000000E+00  0.00000000000E+00  0.54193339244E+03  0.54193339244E+03  0.25500000920E-02 0.  1.
        2   -1    0    0  501    0  0.00000000000E+00  0.00000000000E+00 -0.77980260865E+03  0.77980260866E+03  0.25500000920E-02 0. -1.
    10030    2    1    2    0    0  0.00000000000E+00  0.00000000000E+00 -0.23786921621E+03  0.13217360011E+04  0.13001554878E+04 0.  0.
        4    1    3    3  502    0 -0.52138968641E+02  0.54235445077E+03 -0.47940818801E+03  0.72574144566E+03  0.12699999809E+01 0. -1.
       -4    1    3    3    0  502  0.52138968641E+02 -0.54235445077E+03  0.24153897180E+03  0.59599455544E+03  0.12699999809E+01 0.  1.
</event>
<event>
 5   0  0.3551277E-05  0.1303586E+04  0.7818609E-02  0.9026726E-01
        1   -1    0    0  501    0  0.00000000000E+00  0.00000000000E+00  0.85726494992E+03  0.85726494994E+03  0.50400001928E-02 0. -1.
       -1   -1    0    0    0  501  0.00000000000E+00  0.00000000000E+00 -0.49556902019E+03  0.49556902022E+03  0.50400001928E-02 0.  1.
    10030    2    1    2    0    0  0.00000000000E+00  0.00000000000E+00  0.36169592973E+03  0.13528339702E+04  0.13035857491E+04 0.  0.
        4    1    3    3  502    0 -0.58060425558E+03 -0.62780657184E+00  0.48823146484E+03  0.75859954647E+03  0.12699999809E+01 0. -1.
       -4    1    3    3    0  502  0.58060425558E+03  0.62780657184E+00 -0.12653553511E+03  0.59423442368E+03  0.12699999809E+01 0.  1.
</event>
<event>
 5   0  0.3631841E-05  0.1300504E+04  0.7818609E-02  0.9029166E-01
        1   -1    0    0  501    0  0.00000000000E+00  0.00000000000E+00  0.68921727109E+03  0.68921727111E+03  0.50400001928E-02 0.  1.
       -1   -1    0    0    0  501  0.00000000000E+00  0.00000000000E+00 -0.61348953368E+03  0.61348953370E+03  0.50400001928E-02 0. -1.
    10030    2    1    2    0    0  0.00000000000E+00  0.00000000000E+00  0.75727737412E+02  0.13027068048E+04  0.13005038751E+04 0.  0.
        3    1    3    3  502    0 -0.33202019297E+03 -0.88883446003E+02 -0.51505837009E+03  0.61921144233E+03  0.10100000352E+00 0. -1.
       -3    1    3    3    0  502  0.33202019297E+03  0.88883446003E+02  0.59078610750E+03  0.68349536248E+03  0.10100000352E+00 0.  1.
</event>
<event>
 5   0  0.6671239E-05  0.1300521E+04  0.7818609E-02  0.9029152E-01
       -2   -1    0    0    0  501  0.00000000000E+00  0.00000000000E+00  0.94138763498E+03  0.94138763498E+03  0.25500000920E-02 0. -1.
        2   -1    0    0  501    0  0.00000000000E+00  0.00000000000E+00 -0.44916547876E+03  0.44916547877E+03  0.25500000920E-02 0.  1.
    10030    2    1    2    0    0  0.00000000000E+00  0.00000000000E+00  0.49222215622E+03  0.13905531138E+04  0.13005211690E+04 0.  0.
        1    1    3    3  502    0  0.16477798738E+03 -0.28762011261E+03 -0.35204670982E+03  0.48354317307E+03  0.50400001928E-02 0.  1.
       -1    1    3    3    0  502 -0.16477798738E+03  0.28762011261E+03  0.84426886604E+03  0.90700994068E+03  0.50400001928E-02 0. -1.
</event>
<event>
 5   0  0.6688086E-05  0.1299511E+04  0.7818609E-02  0.9029953E-01
        2   -1    0    0  501    0  0.00000000000E+00  0.00000000000E+00  0.71902570290E+03  0.71902570290E+03  0.25500000920E-02 0.  1.
       -2   -1    0    0    0  501  0.00000000000E+00  0.00000000000E+00 -0.58715880386E+03  0.58715880386E+03  0.25500000920E-02 0. -1.
    10030    2    1    2    0    0  0.00000000000E+00  0.00000000000E+00  0.13186689904E+03  0.13061845068E+04  0.12995110952E+04 0.  0.
        5    1    3    3  502    0 -0.44758606152E+03  0.41501690920E+03 -0.15789342904E+03  0.63049563227E+03  0.46999998093E+01 0. -1.
       -5    1    3    3    0  502  0.44758606152E+03 -0.41501690920E+03  0.28976032808E+03  0.67568887449E+03  0.46999998093E+01 0.  1.
</event>
<event>
 5   0  0.3551277E-05  0.1299977E+04  0.7818609E-02  0.9029583E-01
        1   -1    0    0  501    0  0.00000000000E+00  0.00000000000E+00  0.87692609156E+03  0.87692609158E+03  0.50400001928E-02 0. -1.
       -1   -1    0    0    0  501  0.00000000000E+00  0.00000000000E+00 -0.48177981781E+03  0.48177981784E+03  0.50400001928E-02 0.  1.
    10030    2    1    2    0    0  0.00000000000E+00  0.00000000000E+00  0.39514627375E+03  0.13587059094E+04  0.12999773731E+04 0.  0.
        4    1    3    3  502    0  0.56159890648E+03  0.23062330550E+03  0.44023252718E+03  0.74992448399E+03  0.12699999809E+01 0. -1.
       -4    1    3    3    0  502 -0.56159890648E+03 -0.23062330550E+03 -0.45086253430E+02  0.60878142543E+03  0.12699999809E+01 0.  1.
</event>
<event>
 5   0  0.6742824E-05  0.1299410E+04  0.7818609E-02  0.9030034E-01
       -2   -1    0    0    0  501  0.00000000000E+00  0.00000000000E+00  0.38417016516E+03  0.38417016517E+03  0.25500000920E-02 0. -1.
        2   -1    0    0  501    0  0.00000000000E+00  0.00000000000E+00 -0.10987742577E+04  0.10987742577E+04  0.25500000920E-02 0.  1.
    10030    2    1    2    0    0  0.00000000000E+00  0.00000000000E+00 -0.71460409255E+03  0.14829444229E+04  0.12994095399E+04 0.  0.
        4    1    3    3  502    0 -0.58756584028E+03 -0.17779469154E+03 -0.11448197591E+03  0.62446161188E+03  0.12699999809E+01 0. -1.
       -4    1    3    3    0  502  0.58756584028E+03  0.17779469154E+03 -0.60012211664E+03  0.85848281100E+03  0.12699999809E+01 0.  1.
</event>
<event>
 5   0  0.6618060E-05  0.1298281E+04  0.7818609E-02  0.9030929E-01
       -2   -1    0    0    0  501  0.00000000000E+00  0.00000000000E+00  0.38872308367E+03  0.38872308368E+03  0.25500000920E-02 0. -1.
        2   -1    0    0  501    0  0.00000000000E+00  0.00000000000E+00 -0.10840195184E+04  0.10840195184E+04  0.25500000920E-02 0.  1.
    10030    2    1    2    0    0  0.00000000000E+00  0.00000000000E+00 -0.69529643474E+03  0.14727426021E+04  0.12982810327E+04 0.  0.
        2    1    3    3  502    0 -0.42820239562E+03  0.41977079216E+03 -0.65603661228E+02  0.60321526004E+03  0.25500000920E-02 0. -1.
       -2    1    3    3    0  502  0.42820239562E+03 -0.41977079216E+03 -0.62969277351E+03  0.86952734206E+03  0.25500000920E-02 0.  1.
</event>
<event>
 5   0  0.3689707E-05  0.1301475E+04  0.7818609E-02  0.9028397E-01
       -1   -1    0    0    0  501  0.00000000000E+00  0.00000000000E+00  0.60714945950E+03  0.60714945952E+03  0.50400001928E-02 0. -1.
        1   -1    0    0  501    0  0.00000000000E+00  0.00000000000E+00 -0.69745447995E+03  0.69745447996E+03  0.50400001928E-02 0.  1.
    10030    2    1    2    0    0  0.00000000000E+00  0.00000000000E+00 -0.90305020447E+02  0.13046039395E+04  0.13014747182E+04 0.  0.
        1    1    3    3  502    0 -0.11503367837E+03  0.54090938942E+03  0.29866399810E+03  0.62850290255E+03  0.50400001928E-02 0. -1.
       -1    1    3    3    0  502  0.11503367837E+03 -0.54090938942E+03 -0.38896901855E+03  0.67610103693E+03  0.50400001928E-02 0.  1.
</event>
<event>
 5   0  0.6618060E-05  0.1299956E+04  0.7818609E-02  0.9029600E-01
        2   -1    0    0  501    0  0.00000000000E+00  0.00000000000E+00  0.73353563283E+03  0.73353563284E+03  0.25500000920E-02 0. -1.
       -2   -1    0    0    0  501  0.00000000000E+00  0.00000000000E+00 -0.57593816021E+03  0.57593816021E+03  0.25500000920E-02 0.  1.
    10030    2    1    2    0    0  0.00000000000E+00  0.00000000000E+00  0.15759747263E+03  0.13094737931E+04  0.12999556344E+04 0.  0.
        2    1    3    3  502    0  0.41364471345E+02  0.65750251410E+02 -0.57124557189E+03  0.57650292146E+03  0.25500000920E-02 0.  1.
       -2    1    3    3    0  502 -0.41364471345E+02 -0.65750251410E+02  0.72884304451E+03  0.73297087159E+03  0.25500000920E-02 0. -1.
</event>
<event>
 5   0  0.3718559E-05  0.1299815E+04  0.7818609E-02  0.9029712E-01
        1   -1    0    0  501    0  0.00000000000E+00  0.00000000000E+00  0.21833081467E+04  0.21833081467E+04  0.50400001928E-02 0. -1.
       -1   -1    0    0    0  501  0.00000000000E+00  0.00000000000E+00 -0.19345855983E+03  0.19345855990E+03  0.50400001928E-02 0.  1.
    10030    2    1    2    0    0  0.00000000000E+00  0.00000000000E+00  0.19898495869E+04  0.23767667066E+04  0.12998148327E+04 0.  0.
        2    1    3    3  502    0  0.20528857454E+03 -0.57150763966E+03  0.57152629792E+03  0.83391048096E+03  0.25500000920E-02 0. -1.
       -2    1    3    3    0  502 -0.20528857454E+03  0.57150763966E+03  0.14183232890E+04  0.15428562256E+04  0.25500000920E-02 0.  1.
</event>
<event>
 5   0  0.3551277E-05  0.1300263E+04  0.7818609E-02  0.9029357E-01
       -1   -1    0    0    0  501  0.00000000000E+00  0.00000000000E+00  0.84332488430E+03  0.84332488431E+03  0.50400001928E-02 0.  1.
        1   -1    0    0  501    0  0.00000000000E+00  0.00000000000E+00 -0.50119592728E+03  0.50119592730E+03  0.50400001928E-02 0. -1.
    10030    2    1    2    0    0  0.00000000000E+00  0.00000000000E+00  0.34212895702E+03  0.13445208116E+04  0.13002630463E+04 0.  0.
        4    1    3    3  502    0  0.15631735376E+03 -0.58709940790E+03  0.41034656424E+03  0.73314851532E+03  0.12699999809E+01 0.  1.
       -4    1    3    3    0  502 -0.15631735376E+03  0.58709940790E+03 -0.68217607218E+02  0.61137229629E+03  0.12699999809E+01 0. -1.
</event>
<event>
 5   0  0.6671239E-05  0.1300405E+04  0.7818609E-02  0.9029244E-01
       -2   -1    0    0    0  501  0.00000000000E+00  0.00000000000E+00  0.56528864438E+03  0.56528864439E+03  0.25500000920E-02 0.  1.
        2   -1    0    0  501    0  0.00000000000E+00  0.00000000000E+00 -0.74787111202E+03  0.74787111202E+03  0.25500000920E-02 0. -1.
    10030    2    1    2    0    0  0.00000000000E+00  0.00000000000E+00 -0.18258246763E+03  0.13131597564E+04  0.13004046249E+04 0.  0.
        1    1    3    3  502    0 -0.16367756326E+03 -0.62925206262E+03 -0.87440162359E+02  0.65604442307E+03  0.50400001928E-02 0.  1.
       -1    1    3    3    0  502  0.16367756326E+03  0.62925206262E+03 -0.95142305272E+02  0.65711533334E+03  0.50400001928E-02 0. -1.
</event>
<event>
 5   0  0.6618060E-05  0.1300182E+04  0.7818609E-02  0.9029421E-01
        2   -1    0    0  501    0  0.00000000000E+00  0.00000000000E+00  0.89822423774E+03  0.89822423775E+03  0.25500000920E-02 0.  1.
       -2   -1    0    0    0  501  0.00000000000E+00  0.00000000000E+00 -0.47050436157E+03  0.47050436158E+03  0.25500000920E-02 0. -1.
    10030    2    1    2    0    0  0.00000000000E+00  0.00000000000E+00  0.42771987618E+03  0.13687285993E+04  0.13001821742E+04 0.  0.
        2    1    3    3  502    0 -0.53954547674E+03  0.18263430718E+03  0.54367213712E+03  0.78742872967E+03  0.25500000920E-02 0.  1.
       -2    1    3    3    0  502  0.53954547674E+03 -0.18263430718E+03 -0.11595226094E+03  0.58129986965E+03  0.25500000920E-02 0. -1.
</event>
<event>
 5   0  0.3689707E-05  0.1300092E+04  0.7818609E-02  0.9029492E-01
        1   -1    0    0  501    0  0.00000000000E+00  0.00000000000E+00  0.32569281346E+03  0.32569281349E+03  0.50400001928E-02 0.  1.
       -1   -1    0    0    0  501  0.00000000000E+00  0.00000000000E+00 -0.12974178820E+04  0.12974178820E+04  0.50400001928E-02 0. -1.
    10030    2    1    2    0    0  0.00000000000E+00  0.00000000000E+00 -0.97172506853E+03  0.16231106955E+04  0.13000918125E+04 0.  0.
        1    1    3    3  502    0 -0.61662826555E+03 -0.19990278168E+03 -0.42510812197E+03  0.77518285287E+03  0.50400001928E-02 0.  1.
       -1    1    3    3    0  502  0.61662826555E+03  0.19990278168E+03 -0.54661694656E+03  0.84792784262E+03  0.50400001928E-02 0. -1.
</event>
<event>
 5   0  0.3718559E-05  0.1300112E+04  0.7818609E-02  0.9029476E-01
        1   -1    0    0  501    0  0.00000000000E+00  0.00000000000E+00  0.64808717388E+03  0.64808717390E+03  0.50400001928E-02 0. -1.
       -1   -1    0    0    0  501  0.00000000000E+00  0.00000000000E+00 -0.65203063720E+03  0.65203063722E+03  0.50400001928E-02 0.  1.
    10030    2    1    2    0    0  0.00000000000E+00  0.00000000000E+00 -0.39434633273E+01  0.13001178111E+04  0.13001118305E+04 0.  0.
        2    1    3    3  502    0  0.28368269100E+03  0.18524032355E+03  0.55281262101E+03  0.64837615671E+03  0.25500000920E-02 0. -1.
       -2    1    3    3    0  502 -0.28368269100E+03 -0.18524032355E+03 -0.55675608433E+03  0.65174165441E+03  0.25500000920E-02 0.  1.
</event>
<event>
 5   0  0.6671239E-05  0.1299919E+04  0.7818609E-02  0.9029629E-01
        2   -1    0    0  501    0  0.00000000000E+00  0.00000000000E+00  0.12531120366E+04  0.12531120366E+04  0.25500000920E-02 0. -1.
       -2   -1    0    0    0  501  0.00000000000E+00  0.00000000000E+00 -0.33711858734E+03  0.33711858735E+03  0.25500000920E-02 0.  1.
    10030    2    1    2    0    0  0.00000000000E+00  0.00000000000E+00  0.91599344926E+03  0.15902306239E+04  0.12999190122E+04 0.  0.
        1    1    3    3  502    0  0.46420493380E+03  0.18697778725E+03 -0.49354372182E+02  0.50287450479E+03  0.50400001928E-02 0.  1.
       -1    1    3    3    0  502 -0.46420493380E+03 -0.18697778725E+03  0.96534782144E+03  0.10873561192E+04  0.50400001928E-02 0. -1.
</event>
<event>
 5   0  0.3718559E-05  0.1300028E+04  0.7818609E-02  0.9029543E-01
        1   -1    0    0  501    0  0.00000000000E+00  0.00000000000E+00  0.84777253806E+03  0.84777253807E+03  0.50400001928E-02 0.  1.
       -1   -1    0    0    0  501  0.00000000000E+00  0.00000000000E+00 -0.49838614904E+03  0.49838614907E+03  0.50400001928E-02 0. -1.
    10030    2    1    2    0    0  0.00000000000E+00  0.00000000000E+00  0.34938638901E+03  0.13461586871E+04  0.13000278313E+04 0.  0.
        2    1    3    3  502    0 -0.10885406476E+03 -0.62529398058E+03  0.29443389722E+02  0.63538073843E+03  0.25500000920E-02 0. -1.
       -2    1    3    3    0  502  0.10885406476E+03  0.62529398058E+03  0.31994299929E+03  0.71077794871E+03  0.25500000920E-02 0.  1.
</event>
<event>
 5   0  0.3631841E-05  0.1300144E+04  0.7818609E-02  0.9029451E-01
        1   -1    0    0  501    0  0.00000000000E+00  0.00000000000E+00  0.48858956833E+03  0.48858956835E+03  0.50400001928E-02 0.  1.
       -1   -1    0    0    0  501  0.00000000000E+00  0.00000000000E+00 -0.86492611432E+03  0.86492611433E+03  0.50400001928E-02 0. -1.
    10030    2    1    2    0    0  0.00000000000E+00  0.00000000000E+00 -0.37633654599E+03  0.13535156827E+04  0.13001444179E+04 0.  0.
        3    1    3    3  502    0  0.27527853770E+03  0.58890578126E+03 -0.18571039508E+03  0.67607444380E+03  0.10100000352E+00 0. -1.
       -3    1    3    3    0  502 -0.27527853770E+03 -0.58890578126E+03 -0.19062615091E+03  0.67744123888E+03  0.10100000352E+00 0.  1.
</event>
<event>
 5   0  0.6742824E-05  0.1300577E+04  0.7818609E-02  0.9029107E-01
       -2   -1    0    0    0  501  0.00000000000E+00  0.00000000000E+00  0.28424136420E+03  0.28424136422E+03  0.25500000920E-02 0.  1.
        2   -1    0    0  501    0  0.00000000000E+00  0.00000000000E+00 -0.14877333580E+04  0.14877333580E+04  0.25500000920E-02 0. -1.
    10030    2    1    2    0    0  0.00000000000E+00  0.00000000000E+00 -0.12034919938E+04  0.17719747222E+04  0.13005773476E+04 0.  0.
        4    1    3    3  502    0  0.54061423712E+02 -0.14688939716E+03  0.25819205050E+03  0.30193356947E+03  0.12699999809E+01 0.  1.
       -4    1    3    3    0  502 -0.54061423712E+02  0.14688939716E+03 -0.14616840443E+04  0.14700411527E+04  0.12699999809E+01 0. -1.
</event>
<event>
 5   0  0.6742824E-05  0.1299400E+04  0.7818609E-02  0.9030041E-01
       -2   -1    0    0    0  501  0.00000000000E+00  0.00000000000E+00  0.58744338726E+03  0.58744338726E+03  0.25500000920E-02 0.  1.
        2   -1    0    0  501    0  0.00000000000E+00  0.00000000000E+00 -0.71855453298E+03  0.71855453299E+03  0.25500000920E-02 0. -1.
    10030    2    1    2    0    0  0.00000000000E+00  0.00000000000E+00 -0.13111114572E+03  0.13059979203E+04  0.12994000289E+04 0.  0.
        4    1    3    3  502    0  0.21988697340E+03 -0.27085745746E+03  0.48530991881E+03  0.59769672370E+03  0.12699999809E+01 0. -1.
       -4    1    3    3    0  502 -0.21988697340E+03  0.27085745746E+03 -0.61642106453E+03  0.70830119655E+03  0.12699999809E+01 0.  1.
</event>
<event>
 5   0  0.6742824E-05  0.1299318E+04  0.7818609E-02  0.9030106E-01
       -2   -1    0    0    0  501  0.00000000000E+00  0.00000000000E+00  0.88879772730E+03  0.88879772731E+03  0.25500000920E-02 0.  1.
        2   -1    0    0  501    0  0.00000000000E+00  0.00000000000E+00 -0.47486231180E+03  0.47486231180E+03  0.25500000920E-02 0. -1.
    10030    2    1    2    0    0  0.00000000000E+00  0.00000000000E+00  0.41393541551E+03  0.13636600391E+04  0.12993175801E+04 0.  0.
        4    1    3    3  502    0  0.83825642403E+02  0.64422679437E+03  0.20678681375E+03  0.68177510965E+03  0.12699999809E+01 0.  1.
       -4    1    3    3    0  502 -0.83825642403E+02 -0.64422679437E+03  0.20714860176E+03  0.68188492945E+03  0.12699999809E+01 0. -1.
</event>
<event>
 5   0  0.6458698E-05  0.1300052E+04  0.7818609E-02  0.9029524E-01
        2   -1    0    0  501    0  0.00000000000E+00  0.00000000000E+00  0.56714936292E+03  0.56714936292E+03  0.25500000920E-02 0. -1.
       -2   -1    0    0    0  501  0.00000000000E+00  0.00000000000E+00 -0.74501347249E+03  0.74501347249E+03  0.25500000920E-02 0.  1.
    10030    2    1    2    0    0  0.00000000000E+00  0.00000000000E+00 -0.17786410957E+03  0.13121628354E+04  0.13000521779E+04 0.  0.
        3    1    3    3  502    0  0.13947013383E+03 -0.62818334118E+03  0.39451443979E+01  0.64349188241E+03  0.10100000352E+00 0. -1.
       -3    1    3    3    0  502 -0.13947013383E+03  0.62818334118E+03 -0.18180925397E+03  0.66867095300E+03  0.10100000352E+00 0.  1.
</event>
<event>
 5   0  0.3689707E-05  0.1299762E+04  0.7818609E-02  0.9029754E-01
        1   -1    0    0  501    0  0.00000000000E+00  0.00000000000E+00  0.12310945954E+04  0.12310945954E+04  0.50400001928E-02 0. -1.
       -1   -1    0    0    0  501  0.00000000000E+00  0.00000000000E+00 -0.34306464055E+03  0.34306464059E+03  0.50400001928E-02 0.  1.
    10030    2    1    2    0    0  0.00000000000E+00  0.00000000000E+00  0.88802995481E+03  0.15741592360E+04  0.12997615549E+04 0.  0.
        1    1    3    3  502    0  0.54811961917E+02 -0.64745927685E+03  0.42983105490E+03  0.77907804624E+03  0.50400001928E-02 0.  1.
       -1    1    3    3    0  502 -0.54811961917E+02  0.64745927685E+03  0.45819889991E+03  0.79508118973E+03  0.50400001928E-02 0. -1.
</event>
<event>
 5   0  0.6618060E-05  0.1300890E+04  0.7818609E-02  0.9028860E-01
        2   -1    0    0  501    0  0.00000000000E+00  0.00000000000E+00  0.55002919053E+03  0.55002919053E+03  0.25500000920E-02 0.  1.
       -2   -1    0    0    0  501  0.00000000000E+00  0.00000000000E+00 -0.76919295316E+03  0.76919295316E+03  0.25500000920E-02 0. -1.
    10030    2    1    2    0    0  0.00000000000E+00  0.00000000000E+00 -0.21916376263E+03  0.13192221437E+04  0.13008898145E+04 0.  0.
        2    1    3    3  502    0  0.14837165195E+03 -0.95430847216E+02  0.52530571761E+03  0.55413652710E+03  0.25500000920E-02 0.  1.
       -2    1    3    3    0  502 -0.14837165195E+03  0.95430847216E+02 -0.74446948024E+03  0.76508561659E+03  0.25500000920E-02 0. -1.
</event>
<event>
 5   0  0.6671239E-05  0.1300363E+04  0.7818609E-02  0.9029278E-01
       -2   -1    0    0    0  501  0.00000000000E+00  0.00000000000E+00  0.53322475270E+03  0.53322475271E+03  0.25500000920E-02 0.  1.
        2   -1    0    0  501    0  0.00000000000E+00  0.00000000000E+00 -0.79279113442E+03  0.79279113442E+03  0.25500000920E-02 0. -1.
    10030    2    1    2    0    0  0.00000000000E+00  0.00000000000E+00 -0.25956638172E+03  0.13260158871E+04  0.13003628057E+04 0.  0.
        1    1    3    3  502    0 -0.26667410877E+02 -0.39310857763E+03 -0.65718091293E+03  0.76624555917E+03  0.50400001928E-02 0. -1.
       -1    1    3    3    0  502  0.26667410877E+02  0.39310857763E+03  0.39761453121E+03  0.55977032796E+03  0.50400001928E-02 0.  1.
</event>
<event>
 5   0  0.3718559E-05  0.1299776E+04  0.7818609E-02  0.9029742E-01
        1   -1    0    0  501    0  0.00000000000E+00  0.00000000000E+00  0.17339054253E+04  0.17339054253E+04  0.50400001928E-02 0.  1.
       -1   -1    0    0    0  501  0.00000000000E+00  0.00000000000E+00 -0.24358578776E+03  0.24358578781E+03  0.50400001928E-02 0. -1.
    10030    2    1    2    0    0  0.00000000000E+00  0.00000000000E+00  0.14903196375E+04  0.19774912131E+04  0.12997764715E+04 0.  0.
        2    1    3    3  502    0  0.13814874012E+03 -0.10072084951E+03  0.16990781571E+04  0.17076581472E+04  0.25500000920E-02 0.  1.
       -2    1    3    3    0  502 -0.13814874012E+03  0.10072084951E+03 -0.20875851958E+03  0.26983306585E+03  0.25500000920E-02 0. -1.
</event>
<event>
 5   0  0.3718559E-05  0.1299915E+04  0.7818609E-02  0.9029633E-01
       -1   -1    0    0    0  501  0.00000000000E+00  0.00000000000E+00  0.40601221685E+03  0.40601221688E+03  0.50400001928E-02 0.  1.
        1   -1    0    0  501    0  0.00000000000E+00  0.00000000000E+00 -0.10404725459E+04  0.10404725459E+04  0.50400001928E-02 0. -1.
    10030    2    1    2    0    0  0.00000000000E+00  0.00000000000E+00 -0.63446032905E+03  0.14464847628E+04  0.12999147125E+04 0.  0.
        2    1    3    3  502    0  0.14461426304E+03 -0.32657884410E+03  0.28702427554E+03  0.45820296948E+03  0.25500000920E-02 0.  1.
       -2    1    3    3    0  502 -0.14461426304E+03  0.32657884410E+03 -0.92148460459E+03  0.98828179331E+03  0.25500000920E-02 0. -1.
</event>
<event>
 5   0  0.6671239E-05  0.1300205E+04  0.7818609E-02  0.9029403E-01
       -2   -1    0    0    0  501  0.00000000000E+00  0.00000000000E+00  0.23782677818E+03  0.23782677819E+03  0.25500000920E-02 0.  1.
        2   -1    0    0  501    0  0.00000000000E+00  0.00000000000E+00 -0.17770621087E+04  0.17770621087E+04  0.25500000920E-02 0. -1.
    10030    2    1    2    0    0  0.00000000000E+00  0.00000000000E+00 -0.15392353306E+04  0.20148888869E+04  0.13002045315E+04 0.  0.
        1    1    3    3  502    0  0.56389148476E+03 -0.14593681875E+02 -0.26879253865E+03  0.62484879050E+03  0.50400001928E-02 0.  1.
       -1    1    3    3    0  502 -0.56389148476E+03  0.14593681875E+02 -0.12704427919E+04  0.13900400964E+04  0.50400001928E-02 0. -1.
</event>
<event>
 5   0  0.6742824E-05  0.1299883E+04  0.7818609E-02  0.9029658E-01
        2   -1    0    0  501    0  0.00000000000E+00  0.00000000000E+00  0.26889085595E+04  0.26889085595E+04  0.25500000920E-02 0.  1.
       -2   -1    0    0    0  501  0.00000000000E+00  0.00000000000E+00 -0.15709857891E+03  0.15709857893E+03  0.25500000920E-02 0. -1.
    10030    2    1    2    0    0  0.00000000000E+00  0.00000000000E+00  0.25318099806E+04  0.28460071384E+04  0.12998826309E+04 0.  0.
        4    1    3    3  502    0 -0.60173210219E+03 -0.17267794308E+03  0.88339323837E+03  0.10827208418E+04  0.12699999809E+01 0. -1.
       -4    1    3    3    0  502  0.60173210219E+03  0.17267794308E+03  0.16484167422E+04  0.17632862966E+04  0.12699999809E+01 0.  1.
</event>
<event>
 5   0  0.6742824E-05  0.1300626E+04  0.7818609E-02  0.9029069E-01
        2   -1    0    0  501    0  0.00000000000E+00  0.00000000000E+00  0.40870171390E+03  0.40870171390E+03  0.25500000920E-02 0.  1.
       -2   -1    0    0    0  501  0.00000000000E+00  0.00000000000E+00 -0.10347572874E+04  0.10347572874E+04  0.25500000920E-02 0. -1.
    10030    2    1    2    0    0  0.00000000000E+00  0.00000000000E+00 -0.62605557347E+03  0.14434590013E+04  0.13006261213E+04 0.  0.
        4    1    3    3  502    0 -0.24175721429E+03 -0.12540967339E+03 -0.96841424306E+03  0.10059830495E+04  0.12699999809E+01 0. -1.
       -4    1    3    3    0  502  0.24175721429E+03  0.12540967339E+03  0.34235866958E+03  0.43747595177E+03  0.12699999809E+01 0.  1.
</event>
<event>
 5   0  0.3631841E-05  0.1300374E+04  0.7818609E-02  0.9029269E-01
       -1   -1    0    0    0  501  0.00000000000E+00  0.00000000000E+00  0.40286487632E+03  0.40286487635E+03  0.50400001928E-02 0. -1.
        1   -1    0    0  501    0  0.00000000000E+00  0.00000000000E+00 -0.10493424492E+04  0.10493424492E+04  0.50400001928E-02 0.  1.
    10030    2    1    2    0    0  0.00000000000E+00  0.00000000000E+00 -0.64647757284E+03  0.14522073255E+04  0.13003741247E+04 0.  0.
        3    1    3    3  502    0 -0.13374298846E+03  0.31540059660E+03 -0.94037285256E+03  0.10008325711E+04  0.10100000352E+00 0.  1.
       -3    1    3    3    0  502  0.13374298846E+03 -0.31540059660E+03  0.29389527972E+03  0.45137475444E+03  0.10100000352E+00 0. -1.
</event>
<event>
 5   0  0.2512000E-05  0.1300048E+04  0.7818609E-02  0.9029527E-01
        3   -1    0    0  501    0  0.00000000000E+00  0.00000000000E+00  0.10542998529E+04  0.10542998578E+04  0.10100000352E+00 0. -1.
       -3   -1    0    0    0  501  0.00000000000E+00  0.00000000000E+00 -0.40076922528E+03  0.40076923800E+03  0.10100000352E+00 0.  1.
    10030    2    1    2    0    0  0.00000000000E+00  0.00000000000E+00  0.65353062764E+03  0.14550690958E+04  0.13000476115E+04 0.  0.
        3    1    3    3  502    0  0.32301541195E+02 -0.16698425398E+03  0.10289542856E+04  0.10429161341E+04  0.10100000352E+00 0. -1.
       -3    1    3    3    0  502 -0.32301541195E+02  0.16698425398E+03 -0.37542365798E+03  0.41215296167E+03  0.10100000352E+00 0.  1.
</event>
<event>
 5   0  0.3631841E-05  0.1300174E+04  0.7818609E-02  0.9029427E-01
        1   -1    0    0  501    0  0.00000000000E+00  0.00000000000E+00  0.85096538100E+03  0.85096538102E+03  0.50400001928E-02 0. -1.
       -1   -1    0    0    0  501  0.00000000000E+00  0.00000000000E+00 -0.49662795351E+03  0.49662795354E+03  0.50400001928E-02 0.  1.
    10030    2    1    2    0    0  0.00000000000E+00  0.00000000000E+00  0.35433742749E+03  0.13475933346E+04  0.13001741356E+04 0.  0.
        3    1    3    3  502    0 -0.67356497668E+01 -0.59027503624E+03 -0.10505466664E+03  0.59958859277E+03  0.10100000352E+00 0. -1.
       -3    1    3    3    0  502  0.67356497668E+01  0.59027503624E+03  0.45939209413E+03  0.74800474179E+03  0.10100000352E+00 0.  1.
</event>
<event>
 5   0  0.6618060E-05  0.1300407E+04  0.7818609E-02  0.9029242E-01
        2   -1    0    0  501    0  0.00000000000E+00  0.00000000000E+00  0.63421369675E+03  0.63421369676E+03  0.25500000920E-02 0. -1.
       -2   -1    0    0    0  501  0.00000000000E+00  0.00000000000E+00 -0.66659653899E+03  0.66659653900E+03  0.25500000920E-02 0.  1.
    10030    2    1    2    0    0  0.00000000000E+00  0.00000000000E+00 -0.32382842240E+02  0.13008102358E+04  0.13004070982E+04 0.  0.
        2    1    3    3  502    0 -0.12690746749E+03  0.28329026595E+03  0.55530502140E+03  0.63617807797E+03  0.25500000920E-02 0. -1.
       -2    1    3    3    0  502  0.12690746749E+03 -0.28329026595E+03 -0.58768786364E+03  0.66463215779E+03  0.25500000920E-02 0.  1.
</event>
<event>
 5   0  0.3718559E-05  0.1299993E+04  0.7818609E-02  0.9029571E-01
        1   -1    0    0  501    0  0.00000000000E+00  0.00000000000E+00  0.23675196718E+03  0.23675196724E+03  0.50400001928E-02 0. -1.
       -1   -1    0    0    0  501  0.00000000000E+00  0.00000000000E+00 -0.17845488733E+04  0.17845488733E+04  0.50400001928E-02 0.  1.
    10030    2    1    2    0    0  0.00000000000E+00  0.00000000000E+00 -0.15477969062E+04  0.20213008406E+04  0.12999930098E+04 0.  0.
        2    1    3    3  502    0 -0.96843023692E+02 -0.51418339534E+03 -0.17425566155E+03  0.55147816899E+03  0.25500000920E-02 0.  1.
       -2    1    3    3    0  502  0.96843023692E+02  0.51418339534E+03 -0.13735412446E+04  0.14698226716E+04  0.25500000920E-02 0. -1.
</event>
<event>
 5   0  0.3718559E-05  0.1300122E+04  0.7818609E-02  0.9029468E-01
       -1   -1    0    0    0  501  0.00000000000E+00  0.00000000000E+00  0.40587132167E+03  0.40587132171E+03  0.50400001928E-02 0. -1.
        1   -1    0    0  501    0  0.00000000000E+00  0.00000000000E+00 -0.10411655856E+04  0.10411655856E+04  0.50400001928E-02 0.  1.
    10030    2    1    2    0    0  0.00000000000E+00  0.00000000000E+00 -0.63529426392E+03  0.14470369073E+04  0.13001219210E+04 0.  0.
        2    1    3    3  502    0  0.14768882585E+03 -0.43164100516E+03  0.19777361955E+03  0.49723269323E+03  0.25500000920E-02 0. -1.
       -2    1    3    3    0  502 -0.14768882585E+03  0.43164100516E+03 -0.83306788347E+03  0.94980421409E+03  0.25500000920E-02 0.  1.
</event>
<event>
 5   0  0.3689707E-05  0.1299973E+04  0.7818609E-02  0.9029587E-01
       -1   -1    0    0    0  501  0.00000000000E+00  0.00000000000E+00  0.23244158565E+03  0.23244158571E+03  0.50400001928E-02 0. -1.
        1   -1    0    0  501    0  0.00000000000E+00  0.00000000000E+00 -0.18175854387E+04  0.18175854387E+04  0.50400001928E-02 0.  1.
    10030    2    1    2    0    0  0.00000000000E+00  0.00000000000E+00 -0.15851438531E+04  0.20500270244E+04  0.12999729866E+04 0.  0.
        1    1    3    3  502    0  0.22872711568E+03 -0.49399724893E+03 -0.23250524809E+03  0.59195275640E+03  0.50400001928E-02 0. -1.
       -1    1    3    3    0  502 -0.22872711568E+03  0.49399724893E+03 -0.13526386050E+04  0.14580742680E+04  0.50400001928E-02 0.  1.
</event>
<event>
 5   0  0.6618060E-05  0.1299309E+04  0.7818609E-02  0.9030114E-01
       -2   -1    0    0    0  501  0.00000000000E+00  0.00000000000E+00  0.43324507619E+03  0.43324507619E+03  0.25500000920E-02 0.  1.
        2   -1    0    0  501    0  0.00000000000E+00  0.00000000000E+00 -0.97416176025E+03  0.97416176026E+03  0.25500000920E-02 0. -1.
    10030    2    1    2    0    0  0.00000000000E+00  0.00000000000E+00 -0.54091668407E+03  0.14074068365E+04  0.12993087178E+04 0.  0.
        2    1    3    3  502    0 -0.20697995358E+03  0.49479884029E+03 -0.66754143579E+03  0.85631662488E+03  0.25500000920E-02 0.  1.
       -2    1    3    3    0  502  0.20697995358E+03 -0.49479884029E+03  0.12662475172E+03  0.55109021157E+03  0.25500000920E-02 0. -1.
</event>
<event>
 5   0  0.6742824E-05  0.1300144E+04  0.7818609E-02  0.9029451E-01
       -2   -1    0    0    0  501  0.00000000000E+00  0.00000000000E+00  0.32051036557E+03  0.32051036558E+03  0.25500000920E-02 0. -1.
        2   -1    0    0  501    0  0.00000000000E+00  0.00000000000E+00 -0.13185023124E+04  0.13185023124E+04  0.25500000920E-02 0.  1.
    10030    2    1    2    0    0  0.00000000000E+00  0.00000000000E+00 -0.99799194679E+03  0.16390126780E+04  0.13001440815E+04 0.  0.
        4    1    3    3  502    0 -0.47123392521E+03  0.28987142835E+03 -0.68703784794E+02  0.55750217954E+03  0.12699999809E+01 0. -1.
       -4    1    3    3    0  502  0.47123392521E+03 -0.28987142835E+03 -0.92928816200E+03  0.10815104984E+04  0.12699999809E+01 0.  1.
</event>
<event>
 5   0  0.3689707E-05  0.1299585E+04  0.7818609E-02  0.9029894E-01
        1   -1    0    0  501    0  0.00000000000E+00  0.00000000000E+00  0.26946640981E+04  0.26946640981E+04  0.50400001928E-02 0. -1.
       -1   -1    0    0    0  501  0.00000000000E+00  0.00000000000E+00 -0.15669127889E+03  0.15669127897E+03  0.50400001928E-02 0.  1.
    10030    2    1    2    0    0  0.00000000000E+00  0.00000000000E+00  0.25379728192E+04  0.28513553771E+04  0.12995851089E+04 0.  0.
        1    1    3    3  502    0  0.13289726140E+03 -0.63570637866E+03  0.13153261830E+04  0.14669244185E+04  0.50400001928E-02 0.  1.
       -1    1    3    3    0  502 -0.13289726140E+03  0.63570637866E+03  0.12226466363E+04  0.13844309586E+04  0.50400001928E-02 0. -1.
</event>
<event>
 5   0  0.6671239E-05  0.1300010E+04  0.7818609E-02  0.9029557E-01
       -2   -1    0    0    0  501  0.00000000000E+00  0.00000000000E+00  0.16854431394E+03  0.16854431396E+03  0.25500000920E-02 0. -1.
        2   -1    0    0  501    0  0.00000000000E+00  0.00000000000E+00 -0.25067970369E+04  0.25067970369E+04  0.25500000920E-02 0.  1.
    10030    2    1    2    0    0  0.00000000000E+00  0.00000000000E+00 -0.23382527229E+04  0.26753413508E+04  0.13000098258E+04 0.  0.
        1    1    3    3  502    0 -0.87778403030E+02 -0.48986094313E+03 -0.30862813525E+03  0.58559381618E+03  0.50400001928E-02 0. -1.
       -1    1    3    3    0  502  0.87778403030E+02  0.48986094313E+03 -0.20296245877E+04  0.20897475347E+04  0.50400001928E-02 0.  1.
</event>
<event>
 5   0  0.3718559E-05  0.1300322E+04  0.7818609E-02  0.9029310E-01
        1   -1    0    0  501    0  0.00000000000E+00  0.00000000000E+00  0.11531878261E+04  0.11531878261E+04  0.50400001928E-02 0. -1.
       -1   -1    0    0    0  501  0.00000000000E+00  0.00000000000E+00 -0.36655729839E+03  0.36655729842E+03  0.50400001928E-02 0.  1.
    10030    2    1    2    0    0  0.00000000000E+00  0.00000000000E+00  0.78663052775E+03  0.15197451246E+04  0.13003221357E+04 0.  0.
        2    1    3    3  502    0 -0.29080338194E+03 -0.57463534114E+03  0.28919173815E+03  0.70597750931E+03  0.25500000920E-02 0. -1.
       -2    1    3    3    0  502  0.29080338194E+03  0.57463534114E+03  0.49743878960E+03  0.81376761526E+03  0.25500000920E-02 0.  1.
</event>
<event>
 5   0  0.3689707E-05  0.1299770E+04  0.7818609E-02  0.9029748E-01
       -1   -1    0    0    0  501  0.00000000000E+00  0.00000000000E+00  0.57098470566E+03  0.57098470569E+03  0.50400001928E-02 0.  1.
        1   -1    0    0  501    0  0.00000000000E+00  0.00000000000E+00 -0.73968805060E+03  0.73968805062E+03  0.50400001928E-02 0. -1.
    10030    2    1    2    0    0  0.00000000000E+00  0.00000000000E+00 -0.16870334494E+03  0.13106727563E+04  0.12997700779E+04 0.  0.
        1    1    3    3  502    0 -0.30650767053E+03 -0.56978937851E+03 -0.14605049259E+03  0.66327794654E+03  0.50400001928E-02 0. -1.
       -1    1    3    3    0  502  0.30650767053E+03  0.56978937851E+03 -0.22652852347E+02  0.64739480976E+03  0.50400001928E-02 0.  1.
</event>
<event>
 5   0  0.3689707E-05  0.1300276E+04  0.7818609E-02  0.9029346E-01
        1   -1    0    0  501    0  0.00000000000E+00  0.00000000000E+00  0.12926864233E+04  0.12926864233E+04  0.50400001928E-02 0.  1.
       -1   -1    0    0    0  501  0.00000000000E+00  0.00000000000E+00 -0.32697758871E+03  0.32697758875E+03  0.50400001928E-02 0. -1.
    10030    2    1    2    0    0  0.00000000000E+00  0.00000000000E+00  0.96570883456E+03  0.16196640120E+04  0.13002761086E+04 0.  0.
        1    1    3    3  502    0 -0.25357514670E+03  0.11359758747E+03 -0.24929123570E+03  0.37329731733E+03  0.50400001928E-02 0. -1.
       -1    1    3    3    0  502  0.25357514670E+03 -0.11359758747E+03  0.12150000703E+04  0.12463666947E+04  0.50400001928E-02 0.  1.
</event>
<event>
 5   0  0.3689707E-05  0.1299867E+04  0.7818609E-02  0.9029671E-01
        1   -1    0    0  501    0  0.00000000000E+00  0.00000000000E+00  0.44095252659E+03  0.44095252662E+03  0.50400001928E-02 0. -1.
       -1   -1    0    0    0  501  0.00000000000E+00  0.00000000000E+00 -0.95795634481E+03  0.95795634482E+03  0.50400001928E-02 0.  1.
    10030    2    1    2    0    0  0.00000000000E+00  0.00000000000E+00 -0.51700381822E+03  0.13989088714E+04  0.12998665634E+04 0.  0.
        1    1    3    3  502    0 -0.28315527915E+03  0.47597501374E+03 -0.62454108764E+03  0.83473390730E+03  0.50400001928E-02 0.  1.
       -1    1    3    3    0  502  0.28315527915E+03 -0.47597501374E+03  0.10753726942E+03  0.56417496414E+03  0.50400001928E-02 0. -1.
</event>
<event>
 5   0  0.3689707E-05  0.1299536E+04  0.7818609E-02  0.9029933E-01
        1   -1    0    0  501    0  0.00000000000E+00  0.00000000000E+00  0.51267727391E+03  0.51267727394E+03  0.50400001928E-02 0.  1.
       -1   -1    0    0    0  501  0.00000000000E+00  0.00000000000E+00 -0.82351668227E+03  0.82351668229E+03  0.50400001928E-02 0. -1.
    10030    2    1    2    0    0  0.00000000000E+00  0.00000000000E+00 -0.31083940836E+03  0.13361939562E+04  0.12995357444E+04 0.  0.
        1    1    3    3  502    0 -0.55943741030E+00 -0.56567183687E+03  0.17330707139E+03  0.59162511865E+03  0.50400001928E-02 0.  1.
       -1    1    3    3    0  502  0.55943741030E+00  0.56567183687E+03 -0.48414647975E+03  0.74456883757E+03  0.50400001928E-02 0. -1.
</event>
<event>
 5   0  0.3718559E-05  0.1306886E+04  0.7818609E-02  0.9024123E-01
       -1   -1    0    0    0  501  0.00000000000E+00  0.00000000000E+00  0.50255575959E+03  0.50255575961E+03  0.50400001928E-02 0.  1.
        1   -1    0    0  501    0  0.00000000000E+00  0.00000000000E+00 -0.84963208098E+03  0.84963208100E+03  0.50400001928E-02 0. -1.
    10030    2    1    2    0    0  0.00000000000E+00  0.00000000000E+00 -0.34707632140E+03  0.13521878406E+04  0.13068856046E+04 0.  0.
        2    1    3    3  502    0 -0.17513185923E+03  0.35212051771E+03  0.36640143467E+03  0.53750352413E+03  0.25500000920E-02 0.  1.
       -2    1    3    3    0  502  0.17513185923E+03 -0.35212051771E+03 -0.71347775607E+03  0.81468431648E+03  0.25500000920E-02 0. -1.
</event>
<event>
 5   0  0.3551277E-05  0.1299809E+04  0.7818609E-02  0.9029717E-01
       -1   -1    0    0    0  501  0.00000000000E+00  0.00000000000E+00  0.43502352937E+03  0.43502352940E+03  0.50400001928E-02 0. -1.
        1   -1    0    0  501    0  0.00000000000E+00  0.00000000000E+00 -0.97092647496E+03  0.97092647498E+03  0.50400001928E-02 0.  1.
    10030    2    1    2    0    0  0.00000000000E+00  0.00000000000E+00 -0.53590294559E+03  0.14059500044E+04  0.12998090043E+04 0.  0.
        4    1    3    3  502    0 -0.37292532659E+03  0.37474077465E+03 -0.67679894509E+03  0.85881451570E+03  0.12699999809E+01 0.  1.
       -4    1    3    3    0  502  0.37292532659E+03 -0.37474077465E+03  0.14089599950E+03  0.54713548868E+03  0.12699999809E+01 0. -1.
</event>
<event>
 5   0  0.6618060E-05  0.1299290E+04  0.7818609E-02  0.9030129E-01
       -2   -1    0    0    0  501  0.00000000000E+00  0.00000000000E+00  0.47323969311E+03  0.47323969311E+03  0.25500000920E-02 0.  1.
        2   -1    0    0  501    0  0.00000000000E+00  0.00000000000E+00 -0.89180679296E+03  0.89180679296E+03  0.25500000920E-02 0. -1.
    10030    2    1    2    0    0  0.00000000000E+00  0.00000000000E+00 -0.41856709985E+03  0.13650464861E+04  0.12992896105E+04 0.  0.
        2    1    3    3  502    0  0.24324991182E+03 -0.53726632127E+03  0.76923777404E+02  0.59476288310E+03  0.25500000920E-02 0.  1.
       -2    1    3    3    0  502 -0.24324991182E+03  0.53726632127E+03 -0.49549087726E+03  0.77028360298E+03  0.25500000920E-02 0. -1.
</event>
<event>
 5   0  0.3718559E-05  0.1294703E+04  0.7818609E-02  0.9033776E-01
       -1   -1    0    0    0  501  0.00000000000E+00  0.00000000000E+00  0.34472448633E+03  0.34472448637E+03  0.50400001928E-02 0. -1.
        1   -1    0    0  501    0  0.00000000000E+00  0.00000000000E+00 -0.12156489894E+04  0.12156489894E+04  0.50400001928E-02 0.  1.
    10030    2    1    2    0    0  0.00000000000E+00  0.00000000000E+00 -0.87092450303E+03  0.15603734757E+04  0.12947030137E+04 0.  0.
        2    1    3    3  502    0  0.62239120764E+03 -0.18859074123E+02 -0.22211329245E+03  0.66110573641E+03  0.25500000920E-02 0. -1.
       -2    1    3    3    0  502 -0.62239120764E+03  0.18859074123E+02 -0.64881121058E+03  0.89926773933E+03  0.25500000920E-02 0.  1.
</event>
<event>
 5   0  0.3552698E-05  0.1300145E+04  0.7818609E-02  0.9029450E-01
        1   -1    0    0  501    0  0.00000000000E+00  0.00000000000E+00  0.11073116468E+04  0.11073116468E+04  0.50400001928E-02 0. -1.
       -1   -1    0    0    0  501  0.00000000000E+00  0.00000000000E+00 -0.38163978157E+03  0.38163978160E+03  0.50400001928E-02 0.  1.
    10030    2    1    2    0    0  0.00000000000E+00  0.00000000000E+00  0.72567186524E+03  0.14889514284E+04  0.13001448766E+04 0.  0.
        5    1    3    3  502    0  0.58298788669E+03 -0.19961539166E+03  0.12577020213E+03  0.62893673319E+03  0.46999998093E+01 0.  1.
       -5    1    3    3    0  502 -0.58298788669E+03  0.19961539166E+03  0.59990166311E+03  0.86001469523E+03  0.46999998093E+01 0. -1.
</event>
<event>
 5   0  0.6671239E-05  0.1301297E+04  0.7818609E-02  0.9028538E-01
       -2   -1    0    0    0  501  0.00000000000E+00  0.00000000000E+00  0.69349648686E+03  0.69349648686E+03  0.25500000920E-02 0. -1.
        2   -1    0    0  501    0  0.00000000000E+00  0.00000000000E+00 -0.61044743511E+03  0.61044743511E+03  0.25500000920E-02 0.  1.
    10030    2    1    2    0    0  0.00000000000E+00  0.00000000000E+00  0.83049051752E+02  0.13039439220E+04  0.13012965099E+04 0.  0.
        1    1    3    3  502    0  0.26779020004E+03 -0.30485708923E+03 -0.46812965189E+03  0.61951174895E+03  0.50400001928E-02 0.  1.
       -1    1    3    3    0  502 -0.26779020004E+03  0.30485708923E+03  0.55117870364E+03  0.68443217302E+03  0.50400001928E-02 0. -1.
</event>
<event>
 5   0  0.6671239E-05  0.1300133E+04  0.7818609E-02  0.9029460E-01
        2   -1    0    0  501    0  0.00000000000E+00  0.00000000000E+00  0.10531214806E+04  0.10531214807E+04  0.25500000920E-02 0.  1.
       -2   -1    0    0    0  501  0.00000000000E+00  0.00000000000E+00 -0.40127021454E+03  0.40127021455E+03  0.25500000920E-02 0. -1.
    10030    2    1    2    0    0  0.00000000000E+00  0.00000000000E+00  0.65185126611E+03  0.14543916952E+04  0.13001327355E+04 0.  0.
        1    1    3    3  502    0  0.53628169154E+03  0.21585646482E+03 -0.66616334277E+01  0.57813185647E+03  0.50400001928E-02 0. -1.
       -1    1    3    3    0  502 -0.53628169154E+03 -0.21585646482E+03  0.65851289954E+03  0.87625983873E+03  0.50400001928E-02 0.  1.
</event>
<event>
 5   0  0.6618060E-05  0.1299397E+04  0.7818609E-02  0.9030044E-01
       -2   -1    0    0    0  501  0.00000000000E+00  0.00000000000E+00  0.10799708418E+04  0.10799708418E+04  0.25500000920E-02 0.  1.
        2   -1    0    0  501    0  0.00000000000E+00  0.00000000000E+00 -0.39085116853E+03  0.39085116854E+03  0.25500000920E-02 0. -1.
    10030    2    1    2    0    0  0.00000000000E+00  0.00000000000E+00  0.68911967330E+03  0.14708220104E+04  0.12993965761E+04 0.  0.
        2    1    3    3  502    0  0.38488805334E+03  0.27295921313E+03  0.85009205046E+03  0.97226644491E+03  0.25500000920E-02 0.  1.
       -2    1    3    3    0  502 -0.38488805334E+03 -0.27295921313E+03 -0.16097237716E+03  0.49855556546E+03  0.25500000920E-02 0. -1.
</event>
<event>
 5   0  0.6688086E-05  0.1298497E+04  0.7818609E-02  0.9030758E-01
        2   -1    0    0  501    0  0.00000000000E+00  0.00000000000E+00  0.12482278862E+04  0.12482278862E+04  0.25500000920E-02 0.  1.
       -2   -1    0    0    0  501  0.00000000000E+00  0.00000000000E+00 -0.33769756418E+03  0.33769756419E+03  0.25500000920E-02 0. -1.
    10030    2    1    2    0    0  0.00000000000E+00  0.00000000000E+00  0.91053032197E+03  0.15859254503E+04  0.12984968490E+04 0.  0.
        5    1    3    3  502    0  0.92606277164E+02 -0.58001686770E+03  0.11744198648E+03  0.59900767906E+03  0.46999998093E+01 0. -1.
       -5    1    3    3    0  502 -0.92606277164E+02  0.58001686770E+03  0.79308833549E+03  0.98691777128E+03  0.46999998093E+01 0.  1.
</event>
<event>
 5   0  0.3551277E-05  0.1299764E+04  0.7818609E-02  0.9029753E-01
        1   -1    0    0  501    0  0.00000000000E+00  0.00000000000E+00  0.10485148059E+04  0.10485148059E+04  0.50400001928E-02 0.  1.
       -1   -1    0    0    0  501  0.00000000000E+00  0.00000000000E+00 -0.40280434378E+03  0.40280434381E+03  0.50400001928E-02 0. -1.
    10030    2    1    2    0    0  0.00000000000E+00  0.00000000000E+00  0.64571046215E+03  0.14513191498E+04  0.12997635452E+04 0.  0.
        4    1    3    3  502    0 -0.33773922443E+03  0.94260326072E+02  0.93382343053E+03  0.99748714533E+03  0.12699999809E+01 0.  1.
       -4    1    3    3    0  502  0.33773922443E+03 -0.94260326072E+02 -0.28811296838E+03  0.45383200442E+03  0.12699999809E+01 0. -1.
</event>
<event>
 5   0  0.6671239E-05  0.1302187E+04  0.7818609E-02  0.9027833E-01
       -2   -1    0    0    0  501  0.00000000000E+00  0.00000000000E+00  0.20868283805E+03  0.20868283806E+03  0.25500000920E-02 0.  1.
        2   -1    0    0  501    0  0.00000000000E+00  0.00000000000E+00 -0.20314203023E+04  0.20314203023E+04  0.25500000920E-02 0. -1.
    10030    2    1    2    0    0  0.00000000000E+00  0.00000000000E+00 -0.18227374642E+04  0.22401031403E+04  0.13021867054E+04 0.  0.
        1    1    3    3  502    0  0.90566230750E+02 -0.75303128275E+02 -0.20129411009E+04  0.20163840604E+04  0.50400001928E-02 0. -1.
       -1    1    3    3    0  502 -0.90566230750E+02  0.75303128275E+02  0.19020363670E+03  0.22371907992E+03  0.50400001928E-02 0.  1.
</event>
<event>
 5   0  0.3689707E-05  0.1298918E+04  0.7818609E-02  0.9030424E-01
        1   -1    0    0  501    0  0.00000000000E+00  0.00000000000E+00  0.92362482878E+03  0.92362482879E+03  0.50400001928E-02 0. -1.
       -1   -1    0    0    0  501  0.00000000000E+00  0.00000000000E+00 -0.45667578593E+03  0.45667578596E+03  0.50400001928E-02 0.  1.
    10030    2    1    2    0    0  0.00000000000E+00  0.00000000000E+00  0.46694904285E+03  0.13803006147E+04  0.12989181570E+04 0.  0.
        1    1    3    3  502    0 -0.38103918565E+03 -0.48321913237E+03  0.12847726518E+02  0.61551332641E+03  0.50400001928E-02 0.  1.
       -1    1    3    3    0  502  0.38103918565E+03  0.48321913237E+03  0.45410131633E+03  0.76478728834E+03  0.50400001928E-02 0. -1.
</event>
<event>
 5   0  0.3718559E-05  0.1297472E+04  0.7818609E-02  0.9031572E-01
       -1   -1    0    0    0  501  0.00000000000E+00  0.00000000000E+00  0.80945974766E+03  0.80945974768E+03  0.50400001928E-02 0.  1.
        1   -1    0    0  501    0  0.00000000000E+00  0.00000000000E+00 -0.51992522093E+03  0.51992522096E+03  0.50400001928E-02 0. -1.
    10030    2    1    2    0    0  0.00000000000E+00  0.00000000000E+00  0.28953452673E+03  0.13293849686E+04  0.12974722165E+04 0.  0.
        2    1    3    3  502    0  0.20309263059E+03  0.42199001509E+03 -0.31520261261E+03  0.56451295507E+03  0.25500000920E-02 0. -1.
       -2    1    3    3    0  502 -0.20309263059E+03 -0.42199001509E+03  0.60473713934E+03  0.76487201357E+03  0.25500000920E-02 0.  1.
</event>
<event>
 5   0  0.3689707E-05  0.1300434E+04  0.7818609E-02  0.9029221E-01
        1   -1    0    0  501    0  0.00000000000E+00  0.00000000000E+00  0.10039458495E+04  0.10039458495E+04  0.50400001928E-02 0.  1.
       -1   -1    0    0    0  501  0.00000000000E+00  0.00000000000E+00 -0.42112075457E+03  0.42112075460E+03  0.50400001928E-02 0. -1.
    10030    2    1    2    0    0  0.00000000000E+00  0.00000000000E+00  0.58282509492E+03  0.14250666041E+04  0.13004344408E+04 0.  0.
        1    1    3    3  502    0 -0.20561904345E+03 -0.33696125034E+03  0.85761283838E+03  0.94409843546E+03  0.50400001928E-02 0.  1.
       -1    1    3    3    0  502  0.20561904345E+03  0.33696125034E+03 -0.27478774346E+03  0.48096816864E+03  0.50400001928E-02 0. -1.
</event>
<event>
 5   0  0.3552698E-05  0.1299948E+04  0.7818609E-02  0.9029606E-01
       -1   -1    0    0    0  501  0.00000000000E+00  0.00000000000E+00  0.31711445613E+03  0.31711445617E+03  0.50400001928E-02 0. -1.
        1   -1    0    0  501    0  0.00000000000E+00  0.00000000000E+00 -0.13322198813E+04  0.13322198813E+04  0.50400001928E-02 0.  1.
    10030    2    1    2    0    0  0.00000000000E+00  0.00000000000E+00 -0.10151054252E+04  0.16493343375E+04  0.12999479730E+04 0.  0.
        5    1    3    3  502    0  0.15364541708E+03 -0.28723351245E+03 -0.12211541671E+04  0.12638629651E+04  0.46999998093E+01 0.  1.
       -5    1    3    3    0  502 -0.15364541708E+03  0.28723351245E+03  0.20604874190E+03  0.38547137235E+03  0.46999998093E+01 0. -1.
</event>
<event>
 5   0  0.3718559E-05  0.1300984E+04  0.7818609E-02  0.9028786E-01
       -1   -1    0    0    0  501  0.00000000000E+00  0.00000000000E+00  0.38586834165E+03  0.38586834169E+03  0.50400001928E-02 0.  1.
        1   -1    0    0  501    0  0.00000000000E+00  0.00000000000E+00 -0.10965905389E+04  0.10965905389E+04  0.50400001928E-02 0. -1.
    10030    2    1    2    0    0  0.00000000000E+00  0.00000000000E+00 -0.71072219720E+03  0.14824588805E+04  0.13009835860E+04 0.  0.
        2    1    3    3  502    0 -0.25115135301E+03  0.13859863034E+03 -0.10206256657E+04  0.10601713692E+04  0.25500000920E-02 0. -1.
       -2    1    3    3    0  502  0.25115135301E+03 -0.13859863034E+03  0.30990346854E+03  0.42228751138E+03  0.25500000920E-02 0.  1.
</event>
<event>
 5   0  0.6671239E-05  0.1299970E+04  0.7818609E-02  0.9029589E-01
       -2   -1    0    0    0  501  0.00000000000E+00  0.00000000000E+00  0.65953322486E+03  0.65953322486E+03  0.25500000920E-02 0. -1.
        2   -1    0    0  501    0  0.00000000000E+00  0.00000000000E+00 -0.64057520766E+03  0.64057520767E+03  0.25500000920E-02 0.  1.
    10030    2    1    2    0    0  0.00000000000E+00  0.00000000000E+00  0.18958017191E+02  0.13001084325E+04  0.12999702035E+04 0.  0.
        1    1    3    3  502    0  0.27190619466E+03  0.42952326769E+03 -0.39560407843E+03  0.64414734578E+03  0.50400001928E-02 0.  1.
       -1    1    3    3    0  502 -0.27190619466E+03 -0.42952326769E+03  0.41456209562E+03  0.65596108675E+03  0.50400001928E-02 0. -1.
</event>
<event>
 5   0  0.6458698E-05  0.1304173E+04  0.7818609E-02  0.9026263E-01
       -2   -1    0    0    0  501  0.00000000000E+00  0.00000000000E+00  0.24877547542E+03  0.24877547543E+03  0.25500000920E-02 0. -1.
        2   -1    0    0  501    0  0.00000000000E+00  0.00000000000E+00 -0.17092388344E+04  0.17092388344E+04  0.25500000920E-02 0.  1.
    10030    2    1    2    0    0  0.00000000000E+00  0.00000000000E+00 -0.14604633589E+04  0.19580143098E+04  0.13041728469E+04 0.  0.
        3    1    3    3  502    0  0.54182532256E+03 -0.26355215081E+03 -0.11046128677E+04  0.12582543519E+04  0.10100000352E+00 0.  1.
       -3    1    3    3    0  502 -0.54182532256E+03  0.26355215081E+03 -0.35585049123E+03  0.69975995789E+03  0.10100000352E+00 0. -1.
</event>
<event>
 5   0  0.3689707E-05  0.1299561E+04  0.7818609E-02  0.9029913E-01
        1   -1    0    0  501    0  0.00000000000E+00  0.00000000000E+00  0.15062719719E+04  0.15062719719E+04  0.50400001928E-02 0.  1.
       -1   -1    0    0    0  501  0.00000000000E+00  0.00000000000E+00 -0.28030453465E+03  0.28030453469E+03  0.50400001928E-02 0. -1.
    10030    2    1    2    0    0  0.00000000000E+00  0.00000000000E+00  0.12259674372E+04  0.17865765066E+04  0.12995612555E+04 0.  0.
        1    1    3    3  502    0  0.61158147601E+03  0.21251527429E+03  0.68853541025E+03  0.94513261228E+03  0.50400001928E-02 0.  1.
       -1    1    3    3    0  502 -0.61158147601E+03 -0.21251527429E+03  0.53743202699E+03  0.84144389430E+03  0.50400001928E-02 0. -1.
</event>
<event>
 5   0  0.3718559E-05  0.1299617E+04  0.7818609E-02  0.9029869E-01
        1   -1    0    0  501    0  0.00000000000E+00  0.00000000000E+00  0.10799074273E+04  0.10799074273E+04  0.50400001928E-02 0.  1.
       -1   -1    0    0    0  501  0.00000000000E+00  0.00000000000E+00 -0.39100675048E+03  0.39100675051E+03  0.50400001928E-02 0. -1.
    10030    2    1    2    0    0  0.00000000000E+00  0.00000000000E+00  0.68890067683E+03  0.14709141778E+04  0.12996170113E+04 0.  0.
        2    1    3    3  502    0  0.62159547602E+02 -0.36045000250E+03 -0.26342855620E+03  0.45075782621E+03  0.25500000920E-02 0. -1.
       -2    1    3    3    0  502 -0.62159547602E+02  0.36045000250E+03  0.95232923304E+03  0.10201563516E+04  0.25500000920E-02 0.  1.
</event>
<event>
 5   0  0.2512000E-05  0.1300269E+04  0.7818609E-02  0.9029352E-01
        3   -1    0    0  501    0  0.00000000000E+00  0.00000000000E+00  0.10120960510E+04  0.10120960560E+04  0.10100000352E+00 0. -1.
       -3   -1    0    0    0  501  0.00000000000E+00  0.00000000000E+00 -0.41762340081E+03  0.41762341302E+03  0.10100000352E+00 0.  1.
    10030    2    1    2    0    0  0.00000000000E+00  0.00000000000E+00  0.59447265019E+03  0.14297194691E+04  0.13002692138E+04 0.  0.
        1    1    3    3  502    0  0.26318579764E+03 -0.18972063854E+03  0.91672134753E+03  0.97243956821E+03  0.50400001928E-02 0. -1.
       -1    1    3    3    0  502 -0.26318579764E+03  0.18972063854E+03 -0.32224869734E+03  0.45727990086E+03  0.50400001928E-02 0.  1.
</event>
<event>
 5   0  0.3551277E-05  0.1306263E+04  0.7818609E-02  0.9024614E-01
       -1   -1    0    0    0  501  0.00000000000E+00  0.00000000000E+00  0.23750379553E+03  0.23750379558E+03  0.50400001928E-02 0.  1.
        1   -1    0    0  501    0  0.00000000000E+00  0.00000000000E+00 -0.17960995202E+04  0.17960995202E+04  0.50400001928E-02 0. -1.
    10030    2    1    2    0    0  0.00000000000E+00  0.00000000000E+00 -0.15585957247E+04  0.20336033158E+04  0.13062625360E+04 0.  0.
        4    1    3    3  502    0  0.48487700427E+03  0.38723763335E+03 -0.10965212569E+04  0.12599282415E+04  0.12699999809E+01 0.  1.
       -4    1    3    3    0  502 -0.48487700427E+03 -0.38723763335E+03 -0.46207446779E+03  0.77367507433E+03  0.12699999809E+01 0. -1.
</event>
<event>
 5   0  0.3718559E-05  0.1299882E+04  0.7818609E-02  0.9029659E-01
       -1   -1    0    0    0  501  0.00000000000E+00  0.00000000000E+00  0.10009146164E+04  0.10009146164E+04  0.50400001928E-02 0.  1.
        1   -1    0    0  501    0  0.00000000000E+00  0.00000000000E+00 -0.42203727929E+03  0.42203727932E+03  0.50400001928E-02 0. -1.
    10030    2    1    2    0    0  0.00000000000E+00  0.00000000000E+00  0.57887733709E+03  0.14229518957E+04  0.12998819662E+04 0.  0.
        2    1    3    3  502    0 -0.65614044107E+02 -0.62459646199E+03  0.47260458920E+03  0.78599048395E+03  0.25500000920E-02 0. -1.
       -2    1    3    3    0  502  0.65614044107E+02  0.62459646199E+03  0.10627274789E+03  0.63696141176E+03  0.25500000920E-02 0.  1.
</event>
<event>
 5   0  0.3631841E-05  0.1299945E+04  0.7818609E-02  0.9029609E-01
       -1   -1    0    0    0  501  0.00000000000E+00  0.00000000000E+00  0.31130235946E+03  0.31130235950E+03  0.50400001928E-02 0.  1.
        1   -1    0    0  501    0  0.00000000000E+00  0.00000000000E+00 -0.13570869643E+04  0.13570869643E+04  0.50400001928E-02 0. -1.
    10030    2    1    2    0    0  0.00000000000E+00  0.00000000000E+00 -0.10457846048E+04  0.16683893238E+04  0.12999451897E+04 0.  0.
        3    1    3    3  502    0 -0.19352407083E+03 -0.41522603188E+03 -0.11146639233E+04  0.12051306550E+04  0.10100000352E+00 0. -1.
       -3    1    3    3    0  502  0.19352407083E+03  0.41522603188E+03  0.68879318424E+02  0.46325866884E+03  0.10100000352E+00 0.  1.
</event>
<event>
 5   0  0.6671239E-05  0.1300117E+04  0.7818609E-02  0.9029472E-01
        2   -1    0    0  501    0  0.00000000000E+00  0.00000000000E+00  0.38064923445E+03  0.38064923446E+03  0.25500000920E-02 0. -1.
       -2   -1    0    0    0  501  0.00000000000E+00  0.00000000000E+00 -0.11101454689E+04  0.11101454689E+04  0.25500000920E-02 0.  1.
    10030    2    1    2    0    0  0.00000000000E+00  0.00000000000E+00 -0.72949623449E+03  0.14907947034E+04  0.13001169530E+04 0.  0.
        1    1    3    3  502    0  0.42225109147E+03 -0.37143077999E+03 -0.73863592126E+03  0.92835329093E+03  0.50400001928E-02 0. -1.
       -1    1    3    3    0  502 -0.42225109147E+03  0.37143077999E+03  0.91396867667E+01  0.56244141248E+03  0.50400001928E-02 0.  1.
</event>
<event>
 5   0  0.3552698E-05  0.1300074E+04  0.7818609E-02  0.9029506E-01
        1   -1    0    0  501    0  0.00000000000E+00  0.00000000000E+00  0.70022882785E+03  0.70022882787E+03  0.50400001928E-02 0. -1.
       -1   -1    0    0    0  501  0.00000000000E+00  0.00000000000E+00 -0.60344325697E+03  0.60344325699E+03  0.50400001928E-02 0.  1.
    10030    2    1    2    0    0  0.00000000000E+00  0.00000000000E+00  0.96785570883E+02  0.13036720849E+04  0.13000744048E+04 0.  0.
        5    1    3    3  502    0  0.14459329554E+03  0.49903206565E+03 -0.34331082493E+03  0.62275567936E+03  0.46999998093E+01 0.  1.
       -5    1    3    3    0  502 -0.14459329554E+03 -0.49903206565E+03  0.44009639582E+03  0.68091640550E+03  0.46999998093E+01 0. -1.
</event>
<event>
 5   0  0.6618060E-05  0.1299203E+04  0.7818609E-02  0.9030197E-01
       -2   -1    0    0    0  501  0.00000000000E+00  0.00000000000E+00  0.66588115191E+03  0.66588115191E+03  0.25500000920E-02 0. -1.
        2   -1    0    0  501    0  0.00000000000E+00  0.00000000000E+00 -0.63372021665E+03  0.63372021665E+03  0.25500000920E-02 0.  1.
    10030    2    1    2    0    0  0.00000000000E+00  0.00000000000E+00  0.32160935260E+02  0.12996013686E+04  0.12992033680E+04 0.  0.
        2    1    3    3  502    0 -0.43477641366E+02  0.44261302610E+03  0.48970809324E+03  0.66152143787E+03  0.25500000920E-02 0. -1.
       -2    1    3    3    0  502  0.43477641366E+02 -0.44261302610E+03 -0.45754715798E+03  0.63807993069E+03  0.25500000920E-02 0.  1.
</event>
<event>
 5   0  0.3718559E-05  0.1300099E+04  0.7818609E-02  0.9029486E-01
       -1   -1    0    0    0  501  0.00000000000E+00  0.00000000000E+00  0.52138913045E+03  0.52138913048E+03  0.50400001928E-02 0. -1.
        1   -1    0    0  501    0  0.00000000000E+00  0.00000000000E+00 -0.81045916237E+03  0.81045916239E+03  0.50400001928E-02 0.  1.
    10030    2    1    2    0    0  0.00000000000E+00  0.00000000000E+00 -0.28907003192E+03  0.13318482929E+04  0.13000993777E+04 0.  0.
        2    1    3    3  502    0  0.35105546895E+03  0.48802511001E+03 -0.39787180885E+03  0.72090944408E+03  0.25500000920E-02 0. -1.
       -2    1    3    3    0  502 -0.35105546895E+03 -0.48802511001E+03  0.10880177693E+03  0.61093884878E+03  0.25500000920E-02 0.  1.
</event>
<event>
 5   0  0.6458698E-05  0.1300466E+04  0.7818609E-02  0.9029196E-01
        2   -1    0    0  501    0  0.00000000000E+00  0.00000000000E+00  0.11454754279E+04  0.11454754279E+04  0.25500000920E-02 0. -1.
       -2   -1    0    0    0  501  0.00000000000E+00  0.00000000000E+00 -0.36910696183E+03  0.36910696184E+03  0.25500000920E-02 0.  1.
    10030    2    1    2    0    0  0.00000000000E+00  0.00000000000E+00  0.77636846607E+03  0.15145823897E+04  0.13004660012E+04 0.  0.
        3    1    3    3  502    0 -0.29495226431E+03  0.37799819686E+03  0.89973228173E+03  0.10195085404E+04  0.10100000352E+00 0. -1.
       -3    1    3    3    0  502  0.29495226431E+03 -0.37799819686E+03 -0.12336381566E+03  0.49507384930E+03  0.10100000352E+00 0.  1.
</event>
<event>
 5   0  0.3689707E-05  0.1299653E+04  0.7818609E-02  0.9029841E-01
       -1   -1    0    0    0  501  0.00000000000E+00  0.00000000000E+00  0.71374633839E+03  0.71374633841E+03  0.50400001928E-02 0. -1.
        1   -1    0    0  501    0  0.00000000000E+00  0.00000000000E+00 -0.59163074942E+03  0.59163074944E+03  0.50400001928E-02 0.  1.
    10030    2    1    2    0    0  0.00000000000E+00  0.00000000000E+00  0.12211558897E+03  0.13053770878E+04  0.12996526938E+04 0.  0.
        1    1    3    3  502    0  0.42380169747E+03 -0.39484098352E+03  0.35691759858E+03  0.68036567612E+03  0.50400001928E-02 0. -1.
       -1    1    3    3    0  502 -0.42380169747E+03  0.39484098352E+03 -0.23480200961E+03  0.62501141172E+03  0.50400001928E-02 0.  1.
</event>
<event>
 5   0  0.6458698E-05  0.1300586E+04  0.7818609E-02  0.9029101E-01
        2   -1    0    0  501    0  0.00000000000E+00  0.00000000000E+00  0.94841962709E+03  0.94841962709E+03  0.25500000920E-02 0.  1.
       -2   -1    0    0    0  501  0.00000000000E+00  0.00000000000E+00 -0.44587934902E+03  0.44587934903E+03  0.25500000920E-02 0. -1.
    10030    2    1    2    0    0  0.00000000000E+00  0.00000000000E+00  0.50254027807E+03  0.13942989761E+04  0.13005856003E+04 0.  0.
        3    1    3    3  502    0 -0.20025147312E+03  0.22603429666E+03  0.86869230017E+03  0.91968390131E+03  0.10100000352E+00 0.  1.
       -3    1    3    3    0  502  0.20025147312E+03 -0.22603429666E+03 -0.36615202210E+03  0.47461507481E+03  0.10100000352E+00 0. -1.
</event>
<event>
 5   0  0.3631841E-05  0.1299476E+04  0.7818609E-02  0.9029981E-01
        1   -1    0    0  501    0  0.00000000000E+00  0.00000000000E+00  0.27690063709E+03  0.27690063714E+03  0.50400001928E-02 0.  1.
       -1   -1    0    0    0  501  0.00000000000E+00  0.00000000000E+00 -0.15245877073E+04  0.15245877073E+04  0.50400001928E-02 0. -1.
    10030    2    1    2    0    0  0.00000000000E+00  0.00000000000E+00 -0.12476870702E+04  0.18014883444E+04  0.12994757520E+04 0.  0.
        3    1    3    3  502    0 -0.23363755631E+03 -0.10405945715E+03  0.20417845438E+03  0.32726706186E+03  0.10100000352E+00 0.  1.
       -3    1    3    3    0  502  0.23363755631E+03  0.10405945715E+03 -0.14518655246E+04  0.14742212826E+04  0.10100000352E+00 0. -1.
</event>
<event>
 5   0  0.3552698E-05  0.1299007E+04  0.7818609E-02  0.9030353E-01
       -1   -1    0    0    0  501  0.00000000000E+00  0.00000000000E+00  0.66168312296E+03  0.66168312298E+03  0.50400001928E-02 0. -1.
        1   -1    0    0  501    0  0.00000000000E+00  0.00000000000E+00 -0.63754801498E+03  0.63754801500E+03  0.50400001928E-02 0.  1.
    10030    2    1    2    0    0  0.00000000000E+00  0.00000000000E+00  0.24135107972E+02  0.12992311380E+04  0.12990069463E+04 0.  0.
        5    1    3    3  502    0 -0.37484401635E+02  0.13918431554E+03 -0.62133102777E+03  0.63784926913E+03  0.46999998093E+01 0.  1.
       -5    1    3    3    0  502  0.37484401635E+02 -0.13918431554E+03  0.64546613574E+03  0.66138186885E+03  0.46999998093E+01 0. -1.
</event>
<event>
 5   0  0.3631841E-05  0.1299028E+04  0.7818609E-02  0.9030336E-01
        1   -1    0    0  501    0  0.00000000000E+00  0.00000000000E+00  0.37740589036E+03  0.37740589039E+03  0.50400001928E-02 0. -1.
       -1   -1    0    0    0  501  0.00000000000E+00  0.00000000000E+00 -0.11178114742E+04  0.11178114742E+04  0.50400001928E-02 0.  1.
    10030    2    1    2    0    0  0.00000000000E+00  0.00000000000E+00 -0.74040558380E+03  0.14952173646E+04  0.12990283056E+04 0.  0.
        3    1    3    3  502    0  0.52842833921E+03  0.22453459543E+03 -0.71973695966E+03  0.92069191129E+03  0.10100000352E+00 0.  1.
       -3    1    3    3    0  502 -0.52842833921E+03 -0.22453459543E+03 -0.20668624141E+02  0.57452545326E+03  0.10100000352E+00 0. -1.
</event>
<event>
 5   0  0.6688086E-05  0.1299937E+04  0.7818609E-02  0.9029615E-01
       -2   -1    0    0    0  501  0.00000000000E+00  0.00000000000E+00  0.28398263692E+03  0.28398263693E+03  0.25500000920E-02 0.  1.
        2   -1    0    0  501    0  0.00000000000E+00  0.00000000000E+00 -0.14876226807E+04  0.14876226807E+04  0.25500000920E-02 0. -1.
    10030    2    1    2    0    0  0.00000000000E+00  0.00000000000E+00 -0.12036400438E+04  0.17716053176E+04  0.12999369394E+04 0.  0.
        5    1    3    3  502    0 -0.20353307118E+03 -0.14618342658E+03  0.21547651865E+03  0.33052613416E+03  0.46999998093E+01 0.  1.
       -5    1    3    3    0  502  0.20353307118E+03  0.14618342658E+03 -0.14191165624E+04  0.14410791835E+04  0.46999998093E+01 0. -1.
</event>
<event>
 5   0  0.6671239E-05  0.1300608E+04  0.7818609E-02  0.9029083E-01
        2   -1    0    0  501    0  0.00000000000E+00  0.00000000000E+00  0.48054719200E+03  0.48054719200E+03  0.25500000920E-02 0. -1.
       -2   -1    0    0    0  501  0.00000000000E+00  0.00000000000E+00 -0.88002896969E+03  0.88002896970E+03  0.25500000920E-02 0.  1.
    10030    2    1    2    0    0  0.00000000000E+00  0.00000000000E+00 -0.39948177770E+03  0.13605761617E+04  0.13006082427E+04 0.  0.
        1    1    3    3  502    0  0.62937978963E+03 -0.16161789872E+03 -0.17294367404E+03  0.67242009131E+03  0.50400001928E-02 0. -1.
       -1    1    3    3    0  502 -0.62937978963E+03  0.16161789872E+03 -0.22653810365E+03  0.68815607039E+03  0.50400001928E-02 0.  1.
</event>
<event>
 5   0  0.6671239E-05  0.1299957E+04  0.7818609E-02  0.9029599E-01
       -2   -1    0    0    0  501  0.00000000000E+00  0.00000000000E+00  0.21953718373E+03  0.21953718374E+03  0.25500000920E-02 0.  1.
        2   -1    0    0  501    0  0.00000000000E+00  0.00000000000E+00 -0.19243763461E+04  0.19243763461E+04  0.25500000920E-02 0. -1.
    10030    2    1    2    0    0  0.00000000000E+00  0.00000000000E+00 -0.17048391624E+04  0.21439135298E+04  0.12999571739E+04 0.  0.
        1    1    3    3  502    0 -0.94319779893E+02  0.51460982161E+03 -0.14884979267E+04  0.15777660052E+04  0.50400001928E-02 0. -1.
       -1    1    3    3    0  502  0.94319779893E+02 -0.51460982161E+03 -0.21634123567E+03  0.56614752464E+03  0.50400001928E-02 0.  1.
</event>
<event>
 5   0  0.3718559E-05  0.1300005E+04  0.7818609E-02  0.9029561E-01
        1   -1    0    0  501    0  0.00000000000E+00  0.00000000000E+00  0.54380896017E+03  0.54380896020E+03  0.50400001928E-02 0. -1.
       -1   -1    0    0    0  501  0.00000000000E+00  0.00000000000E+00 -0.77693283250E+03  0.77693283252E+03  0.50400001928E-02 0.  1.
    10030    2    1    2    0    0  0.00000000000E+00  0.00000000000E+00 -0.23312387233E+03  0.13207417927E+04  0.13000046704E+04 0.  0.
        2    1    3    3  502    0 -0.37400963094E+03 -0.29363930222E+03 -0.56679677476E+03  0.73984175857E+03  0.25500000920E-02 0.  1.
       -2    1    3    3    0  502  0.37400963094E+03  0.29363930222E+03  0.33367290243E+03  0.58090003414E+03  0.25500000920E-02 0. -1.
</event>
<event>
 5   0  0.2512000E-05  0.1300073E+04  0.7818609E-02  0.9029507E-01
       -4   -1    0    0    0  501  0.00000000000E+00  0.00000000000E+00  0.74387064150E+03  0.74387172563E+03  0.12699999809E+01 0.  1.
        4   -1    0    0  501    0  0.00000000000E+00  0.00000000000E+00 -0.56803692904E+03  0.56803834875E+03  0.12699999809E+01 0. -1.
    10030    2    1    2    0    0  0.00000000000E+00  0.00000000000E+00  0.17583371246E+03  0.13119100744E+04  0.13000732859E+04 0.  0.
        4    1    3    3  502    0 -0.30726017953E+03 -0.77926141634E+02  0.66059131133E+03  0.73270989824E+03  0.12699999809E+01 0.  1.
       -4    1    3    3    0  502  0.30726017953E+03  0.77926141634E+02 -0.48475759887E+03  0.57920017613E+03  0.12699999809E+01 0. -1.
</event>
<event>
 5   0  0.6618060E-05  0.1298781E+04  0.7818609E-02  0.9030533E-01
        2   -1    0    0  501    0  0.00000000000E+00  0.00000000000E+00  0.74310851793E+03  0.74310851794E+03  0.25500000920E-02 0.  1.
       -2   -1    0    0    0  501  0.00000000000E+00  0.00000000000E+00 -0.56749151318E+03  0.56749151319E+03  0.25500000920E-02 0. -1.
    10030    2    1    2    0    0  0.00000000000E+00  0.00000000000E+00  0.17561700475E+03  0.13106000311E+04  0.12987806240E+04 0.  0.
        2    1    3    3  502    0  0.62556675742E+03  0.14992040968E+03 -0.18702671377E+01  0.64328329306E+03  0.25500000920E-02 0.  1.
       -2    1    3    3    0  502 -0.62556675742E+03 -0.14992040968E+03  0.17748727189E+03  0.66731673807E+03  0.25500000920E-02 0. -1.
</event>
<event>
 5   0  0.3552698E-05  0.1299434E+04  0.7818609E-02  0.9030014E-01
        1   -1    0    0  501    0  0.00000000000E+00  0.00000000000E+00  0.51765734931E+03  0.51765734934E+03  0.50400001928E-02 0.  1.
       -1   -1    0    0    0  501  0.00000000000E+00  0.00000000000E+00 -0.81546653937E+03  0.81546653938E+03  0.50400001928E-02 0. -1.
    10030    2    1    2    0    0  0.00000000000E+00  0.00000000000E+00 -0.29780919006E+03  0.13331238887E+04  0.12994341034E+04 0.  0.
        5    1    3    3  502    0  0.39349602279E+03  0.40985811546E+03 -0.47217298278E+03  0.73877751077E+03  0.46999998093E+01 0. -1.
       -5    1    3    3    0  502 -0.39349602279E+03 -0.40985811546E+03  0.17436379272E+03  0.59434637794E+03  0.46999998093E+01 0.  1.
</event>
<event>
 5   0  0.3551277E-05  0.1299710E+04  0.7818609E-02  0.9029795E-01
        1   -1    0    0  501    0  0.00000000000E+00  0.00000000000E+00  0.17952807788E+04  0.17952807788E+04  0.50400001928E-02 0.  1.
       -1   -1    0    0    0  501  0.00000000000E+00  0.00000000000E+00 -0.23523413944E+03  0.23523413949E+03  0.50400001928E-02 0. -1.
    10030    2    1    2    0    0  0.00000000000E+00  0.00000000000E+00  0.15600466393E+04  0.20305149182E+04  0.12997097047E+04 0.  0.
        4    1    3    3  502    0 -0.27213802777E+03 -0.28326252307E+03  0.15888169361E+04  0.16366544023E+04  0.12699999809E+01 0.  1.
       -4    1    3    3    0  502  0.27213802777E+03  0.28326252307E+03 -0.28770296824E+02  0.39386051594E+03  0.12699999809E+01 0. -1.
</event>
<event>
 5   0  0.3631841E-05  0.1299969E+04  0.7818609E-02  0.9029590E-01
        1   -1    0    0  501    0  0.00000000000E+00  0.00000000000E+00  0.12591239085E+04  0.12591239086E+04  0.50400001928E-02 0. -1.
       -1   -1    0    0    0  501  0.00000000000E+00  0.00000000000E+00 -0.33553459394E+03  0.33553459398E+03  0.50400001928E-02 0.  1.
    10030    2    1    2    0    0  0.00000000000E+00  0.00000000000E+00  0.92358931461E+03  0.15946585025E+04  0.12999686603E+04 0.  0.
        3    1    3    3  502    0  0.33214767535E+03  0.38018388638E+03 -0.40426284640E+02  0.50645449983E+03  0.10100000352E+00 0.  1.
       -3    1    3    3    0  502 -0.33214767535E+03 -0.38018388638E+03  0.96401559925E+03  0.10882040027E+04  0.10100000352E+00 0. -1.
</event>
<event>
 5   0  0.3552698E-05  0.1300180E+04  0.7818609E-02  0.9029422E-01
       -1   -1    0    0    0  501  0.00000000000E+00  0.00000000000E+00  0.10758305365E+04  0.10758305365E+04  0.50400001928E-02 0.  1.
        1   -1    0    0  501    0  0.00000000000E+00  0.00000000000E+00 -0.39282876022E+03  0.39282876026E+03  0.50400001928E-02 0. -1.
    10030    2    1    2    0    0  0.00000000000E+00  0.00000000000E+00  0.68300177627E+03  0.14686592968E+04  0.13001802581E+04 0.  0.
        5    1    3    3  502    0  0.22553383005E+03 -0.31859001812E+03 -0.24569668779E+03  0.46125270789E+03  0.46999998093E+01 0. -1.
       -5    1    3    3    0  502 -0.22553383005E+03  0.31859001812E+03  0.92869846406E+03  0.10074065889E+04  0.46999998093E+01 0.  1.
</event>
<event>
 5   0  0.6618060E-05  0.1299921E+04  0.7818609E-02  0.9029628E-01
       -2   -1    0    0    0  501  0.00000000000E+00  0.00000000000E+00  0.28600401816E+03  0.28600401817E+03  0.25500000920E-02 0. -1.
        2   -1    0    0  501    0  0.00000000000E+00  0.00000000000E+00 -0.14770714554E+04  0.14770714554E+04  0.25500000920E-02 0.  1.
    10030    2    1    2    0    0  0.00000000000E+00  0.00000000000E+00 -0.11910674373E+04  0.17630754736E+04  0.12999205689E+04 0.  0.
        2    1    3    3  502    0  0.12274980871E+03  0.34928450043E+03  0.12901361609E+03  0.39206082554E+03  0.25500000920E-02 0. -1.
       -2    1    3    3    0  502 -0.12274980871E+03 -0.34928450043E+03 -0.13200810534E+04  0.13710146481E+04  0.25500000920E-02 0.  1.
</event>
<event>
 5   0  0.6618060E-05  0.1299469E+04  0.7818609E-02  0.9029987E-01
       -2   -1    0    0    0  501  0.00000000000E+00  0.00000000000E+00  0.56594809049E+03  0.56594809049E+03  0.25500000920E-02 0.  1.
        2   -1    0    0  501    0  0.00000000000E+00  0.00000000000E+00 -0.74592481767E+03  0.74592481767E+03  0.25500000920E-02 0. -1.
    10030    2    1    2    0    0  0.00000000000E+00  0.00000000000E+00 -0.17997672718E+03  0.13118729082E+04  0.12994687010E+04 0.  0.
        2    1    3    3  502    0  0.53167155468E+02 -0.13208933782E+03  0.55000334214E+03  0.56813556125E+03  0.25500000920E-02 0.  1.
       -2    1    3    3    0  502 -0.53167155468E+02  0.13208933782E+03 -0.72998006932E+03  0.74373734691E+03  0.25500000920E-02 0. -1.
</event>
<event>
 5   0  0.3551277E-05  0.1298655E+04  0.7818609E-02  0.9030632E-01
       -1   -1    0    0    0  501  0.00000000000E+00  0.00000000000E+00  0.99225935746E+03  0.99225935747E+03  0.50400001928E-02 0.  1.
        1   -1    0    0  501    0  0.00000000000E+00  0.00000000000E+00 -0.42491540851E+03  0.42491540854E+03  0.50400001928E-02 0. -1.
    10030    2    1    2    0    0  0.00000000000E+00  0.00000000000E+00  0.56734394895E+03  0.14171747660E+04  0.12986551355E+04 0.  0.
        4    1    3    3  502    0 -0.62375618174E+03 -0.15900797103E+03  0.37671373258E+03  0.74583520856E+03  0.12699999809E+01 0. -1.
       -4    1    3    3    0  502  0.62375618174E+03  0.15900797103E+03  0.19063021637E+03  0.67133955746E+03  0.12699999809E+01 0.  1.
</event>
<event>
 5   0  0.3689707E-05  0.1300011E+04  0.7818609E-02  0.9029556E-01
       -1   -1    0    0    0  501  0.00000000000E+00  0.00000000000E+00  0.73348199080E+03  0.73348199081E+03  0.50400001928E-02 0. -1.
        1   -1    0    0  501    0  0.00000000000E+00  0.00000000000E+00 -0.57602936991E+03  0.57602936993E+03  0.50400001928E-02 0.  1.
    10030    2    1    2    0    0  0.00000000000E+00  0.00000000000E+00  0.15745262089E+03  0.13095113607E+04  0.13000110292E+04 0.  0.
        1    1    3    3  502    0 -0.12477252447E+03  0.38838930891E+03  0.58848056512E+03  0.71604735436E+03  0.50400001928E-02 0. -1.
       -1    1    3    3    0  502  0.12477252447E+03 -0.38838930891E+03 -0.43102794424E+03  0.59346400638E+03  0.50400001928E-02 0.  1.
</event>
<event>
 5   0  0.3689707E-05  0.1300745E+04  0.7818609E-02  0.9028975E-01
       -1   -1    0    0    0  501  0.00000000000E+00  0.00000000000E+00  0.85757525888E+03  0.85757525890E+03  0.50400001928E-02 0. -1.
        1   -1    0    0  501    0  0.00000000000E+00  0.00000000000E+00 -0.49323260018E+03  0.49323260020E+03  0.50400001928E-02 0.  1.
    10030    2    1    2    0    0  0.00000000000E+00  0.00000000000E+00  0.36434265870E+03  0.13508078591E+04  0.13007445173E+04 0.  0.
        1    1    3    3  502    0  0.27051461065E+03  0.48239948845E+03 -0.17319298757E+03  0.57955433913E+03  0.50400001928E-02 0.  1.
       -1    1    3    3    0  502 -0.27051461065E+03 -0.48239948845E+03  0.53753564628E+03  0.77125351997E+03  0.50400001928E-02 0. -1.
</event>
<event>
 5   0  0.2512000E-05  0.1296568E+04  0.7818609E-02  0.9032291E-01
       -3   -1    0    0    0  501  0.00000000000E+00  0.00000000000E+00  0.86215964990E+03  0.86215965581E+03  0.10100000352E+00 0.  1.
        3   -1    0    0  501    0  0.00000000000E+00  0.00000000000E+00 -0.48746462217E+03  0.48746463263E+03  0.10100000352E+00 0. -1.
    10030    2    1    2    0    0  0.00000000000E+00  0.00000000000E+00  0.37469502773E+03  0.13496242884E+04  0.12965682998E+04 0.  0.
        1    1    3    3  502    0  0.41660246393E+03 -0.27362751829E+03 -0.24415471096E+03  0.55501455353E+03  0.50400001928E-02 0. -1.
       -1    1    3    3    0  502 -0.41660246393E+03  0.27362751829E+03  0.61884973869E+03  0.79460973492E+03  0.50400001928E-02 0.  1.
</event>
<event>
 5   0  0.3552698E-05  0.1300025E+04  0.7818609E-02  0.9029545E-01
        1   -1    0    0  501    0  0.00000000000E+00  0.00000000000E+00  0.14170637371E+04  0.14170637371E+04  0.50400001928E-02 0. -1.
       -1   -1    0    0    0  501  0.00000000000E+00  0.00000000000E+00 -0.29816341054E+03  0.29816341058E+03  0.50400001928E-02 0.  1.
    10030    2    1    2    0    0  0.00000000000E+00  0.00000000000E+00  0.11189003266E+04  0.17152271477E+04  0.13000254718E+04 0.  0.
        5    1    3    3  502    0  0.14317416932E+03 -0.52843886886E+03  0.10217002143E+04  0.11591548208E+04  0.46999998093E+01 0. -1.
       -5    1    3    3    0  502 -0.14317416932E+03  0.52843886886E+03  0.97200112335E+02  0.55607232688E+03  0.46999998093E+01 0.  1.
</event>
<event>
 5   0  0.6671239E-05  0.1301026E+04  0.7818609E-02  0.9028752E-01
        2   -1    0    0  501    0  0.00000000000E+00  0.00000000000E+00  0.93596047583E+03  0.93596047584E+03  0.25500000920E-02 0.  1.
       -2   -1    0    0    0  501  0.00000000000E+00  0.00000000000E+00 -0.45212057522E+03  0.45212057523E+03  0.25500000920E-02 0. -1.
    10030    2    1    2    0    0  0.00000000000E+00  0.00000000000E+00  0.48383990061E+03  0.13880810511E+04  0.13010257318E+04 0.  0.
        1    1    3    3  502    0  0.65728456897E+02  0.20088366060E+03 -0.41446344540E+03  0.46524662571E+03  0.50400001928E-02 0. -1.
       -1    1    3    3    0  502 -0.65728456897E+02 -0.20088366060E+03  0.89830334601E+03  0.92283442535E+03  0.50400001928E-02 0.  1.
</event>
<event>
 5   0  0.6458698E-05  0.1299262E+04  0.7818609E-02  0.9030151E-01
       -2   -1    0    0    0  501  0.00000000000E+00  0.00000000000E+00  0.45018545888E+03  0.45018545889E+03  0.25500000920E-02 0.  1.
        2   -1    0    0  501    0  0.00000000000E+00  0.00000000000E+00 -0.93743638946E+03  0.93743638947E+03  0.25500000920E-02 0. -1.
    10030    2    1    2    0    0  0.00000000000E+00  0.00000000000E+00 -0.48725093058E+03  0.13876218484E+04  0.12992616845E+04 0.  0.
        3    1    3    3  502    0 -0.19953179556E+03 -0.61740256710E+03 -0.27775753111E+03  0.70579609208E+03  0.10100000352E+00 0. -1.
       -3    1    3    3    0  502  0.19953179556E+03  0.61740256710E+03 -0.20949339947E+03  0.68182575628E+03  0.10100000352E+00 0.  1.
</event>
<event>
 5   0  0.6671239E-05  0.1306271E+04  0.7818609E-02  0.9024607E-01
       -2   -1    0    0    0  501  0.00000000000E+00  0.00000000000E+00  0.16494102012E+04  0.16494102012E+04  0.25500000920E-02 0. -1.
        2   -1    0    0  501    0  0.00000000000E+00  0.00000000000E+00 -0.25862923845E+03  0.25862923846E+03  0.25500000920E-02 0.  1.
    10030    2    1    2    0    0  0.00000000000E+00  0.00000000000E+00  0.13907809628E+04  0.19080394397E+04  0.13062705757E+04 0.  0.
        1    1    3    3  502    0 -0.46502810943E+03 -0.29407353410E+03  0.18133317901E+03  0.57932038447E+03  0.50400001928E-02 0.  1.
       -1    1    3    3    0  502  0.46502810943E+03  0.29407353410E+03  0.12094477838E+04  0.13287190552E+04  0.50400001928E-02 0. -1.
</event>
<event>
 5   0  0.6458698E-05  0.1299434E+04  0.7818609E-02  0.9030014E-01
       -2   -1    0    0    0  501  0.00000000000E+00  0.00000000000E+00  0.48731854017E+03  0.48731854018E+03  0.25500000920E-02 0.  1.
        2   -1    0    0  501    0  0.00000000000E+00  0.00000000000E+00 -0.86623410509E+03  0.86623410510E+03  0.25500000920E-02 0. -1.
    10030    2    1    2    0    0  0.00000000000E+00  0.00000000000E+00 -0.37891556492E+03  0.13535526453E+04  0.12994336298E+04 0.  0.
        3    1    3    3  502    0  0.58226220054E+03 -0.23105208358E+03 -0.98902267009E+01  0.62650791079E+03  0.10100000352E+00 0.  1.
       -3    1    3    3    0  502 -0.58226220054E+03  0.23105208358E+03 -0.36902533822E+03  0.72704473449E+03  0.10100000352E+00 0. -1.
</event>
<event>
 5   0  0.6688086E-05  0.1300421E+04  0.7818609E-02  0.9029231E-01
       -2   -1    0    0    0  501  0.00000000000E+00  0.00000000000E+00  0.49804776096E+03  0.49804776097E+03  0.25500000920E-02 0. -1.
        2   -1    0    0  501    0  0.00000000000E+00  0.00000000000E+00 -0.84886205565E+03  0.84886205565E+03  0.25500000920E-02 0.  1.
    10030    2    1    2    0    0  0.00000000000E+00  0.00000000000E+00 -0.35081429468E+03  0.13469098166E+04  0.13004212336E+04 0.  0.
        5    1    3    3  502    0 -0.26027716790E+03  0.10664872713E+03  0.43175162989E+03  0.51531516089E+03  0.46999998093E+01 0. -1.
       -5    1    3    3    0  502  0.26027716790E+03 -0.10664872713E+03 -0.78256592458E+03  0.83159465573E+03  0.46999998093E+01 0.  1.
</event>
<event>
 5   0  0.2512000E-05  0.1299982E+04  0.7818609E-02  0.9029579E-01
        4   -1    0    0  501    0  0.00000000000E+00  0.00000000000E+00  0.93007431198E+03  0.93007517906E+03  0.12699999809E+01 0. -1.
       -4   -1    0    0    0  501  0.00000000000E+00  0.00000000000E+00 -0.45425035038E+03  0.45425212572E+03  0.12699999809E+01 0.  1.
    10030    2    1    2    0    0  0.00000000000E+00  0.00000000000E+00  0.47582396160E+03  0.13843273048E+04  0.12999821708E+04 0.  0.
        4    1    3    3  502    0  0.17905582702E+03  0.62379455581E+03  0.27639771433E+03  0.70539205158E+03  0.12699999809E+01 0. -1.
       -4    1    3    3    0  502 -0.17905582702E+03 -0.62379455581E+03  0.19942624727E+03  0.67893525321E+03  0.12699999809E+01 0.  1.
</event>
<event>
 5   0  0.3689707E-05  0.1299893E+04  0.7818609E-02  0.9029650E-01
       -1   -1    0    0    0  501  0.00000000000E+00  0.00000000000E+00  0.41443750055E+03  0.41443750058E+03  0.50400001928E-02 0.  1.
        1   -1    0    0  501    0  0.00000000000E+00  0.00000000000E+00 -0.10192868323E+04  0.10192868323E+04  0.50400001928E-02 0. -1.
    10030    2    1    2    0    0  0.00000000000E+00  0.00000000000E+00 -0.60484933178E+03  0.14337243329E+04  0.12998933605E+04 0.  0.
        1    1    3    3  502    0 -0.15179104863E+03 -0.57931701857E+03 -0.58097703065E+03  0.83437583894E+03  0.50400001928E-02 0. -1.
       -1    1    3    3    0  502  0.15179104863E+03  0.57931701857E+03 -0.23872301128E+02  0.59934849398E+03  0.50400001928E-02 0.  1.
</event>
<event>
 5   0  0.6671239E-05  0.1299999E+04  0.7818609E-02  0.9029566E-01
        2   -1    0    0  501    0  0.00000000000E+00  0.00000000000E+00  0.25149706679E+04  0.25149706679E+04  0.25500000920E-02 0.  1.
       -2   -1    0    0    0  501  0.00000000000E+00  0.00000000000E+00 -0.16799372194E+03  0.16799372196E+03  0.25500000920E-02 0. -1.
    10030    2    1    2    0    0  0.00000000000E+00  0.00000000000E+00  0.23469769460E+04  0.26829643899E+04  0.12999988971E+04 0.  0.
        1    1    3    3  502    0 -0.37378369080E+02  0.44232401498E+03  0.19355048971E+03  0.48426177714E+03  0.50400001928E-02 0. -1.
       -1    1    3    3    0  502  0.37378369080E+02 -0.44232401498E+03  0.21534264562E+04  0.21987026127E+04  0.50400001928E-02 0.  1.
</event>
<event>
 5   0  0.3631841E-05  0.1298379E+04  0.7818609E-02  0.9030852E-01
       -1   -1    0    0    0  501  0.00000000000E+00  0.00000000000E+00  0.99732517914E+03  0.99732517916E+03  0.50400001928E-02 0.  1.
        1   -1    0    0  501    0  0.00000000000E+00  0.00000000000E+00 -0.42257730504E+03  0.42257730507E+03  0.50400001928E-02 0. -1.
    10030    2    1    2    0    0  0.00000000000E+00  0.00000000000E+00  0.57474787410E+03  0.14199024842E+04  0.12983789685E+04 0.  0.
        3    1    3    3  502    0 -0.45848054437E+03  0.64497643500E+01  0.78995370142E+03  0.91338538942E+03  0.10100000352E+00 0.  1.
       -3    1    3    3    0  502  0.45848054437E+03 -0.64497643500E+01 -0.21520582731E+03  0.50651709481E+03  0.10100000352E+00 0. -1.
</event>
<event>
 5   0  0.3718559E-05  0.1300383E+04  0.7818609E-02  0.9029261E-01
        1   -1    0    0  501    0  0.00000000000E+00  0.00000000000E+00  0.87367360203E+03  0.87367360204E+03  0.50400001928E-02 0. -1.
       -1   -1    0    0    0  501  0.00000000000E+00  0.00000000000E+00 -0.48387522400E+03  0.48387522402E+03  0.50400001928E-02 0.  1.
    10030    2    1    2    0    0  0.00000000000E+00  0.00000000000E+00  0.38979837803E+03  0.13575488261E+04  0.13003830357E+04 0.  0.
        2    1    3    3  502    0 -0.13451723673E+03  0.27638149578E+03 -0.40323418516E+03  0.50703000530E+03  0.25500000920E-02 0.  1.
       -2    1    3    3    0  502  0.13451723673E+03 -0.27638149578E+03  0.79303256319E+03  0.85051882076E+03  0.25500000920E-02 0. -1.
</event>
<event>
 5   0  0.3551277E-05  0.1300297E+04  0.7818609E-02  0.9029329E-01
        1   -1    0    0  501    0  0.00000000000E+00  0.00000000000E+00  0.93740970827E+03  0.93740970829E+03  0.50400001928E-02 0. -1.
       -1   -1    0    0    0  501  0.00000000000E+00  0.00000000000E+00 -0.45091621371E+03  0.45091621374E+03  0.50400001928E-02 0.  1.
    10030    2    1    2    0    0  0.00000000000E+00  0.00000000000E+00  0.48649349456E+03  0.13883259220E+04  0.13002972527E+04 0.  0.
        4    1    3    3  502    0 -0.63417229327E+03 -0.12071794708E+03  0.32556559138E+03  0.72300891245E+03  0.12699999809E+01 0.  1.
       -4    1    3    3    0  502  0.63417229327E+03  0.12071794708E+03  0.16092790318E+03  0.66531700957E+03  0.12699999809E+01 0. -1.
</event>
<event>
 5   0  0.6742824E-05  0.1299013E+04  0.7818609E-02  0.9030348E-01
        2   -1    0    0  501    0  0.00000000000E+00  0.00000000000E+00  0.12328958613E+04  0.12328958613E+04  0.25500000920E-02 0. -1.
       -2   -1    0    0    0  501  0.00000000000E+00  0.00000000000E+00 -0.34216884148E+03  0.34216884148E+03  0.25500000920E-02 0.  1.
    10030    2    1    2    0    0  0.00000000000E+00  0.00000000000E+00  0.89072701983E+03  0.15750647028E+04  0.12990127767E+04 0.  0.
        4    1    3    3  502    0  0.35690232035E+03  0.54179610219E+03  0.48243245111E+03  0.80849549498E+03  0.12699999809E+01 0. -1.
       -4    1    3    3    0  502 -0.35690232035E+03 -0.54179610219E+03  0.40829456872E+03  0.76656920781E+03  0.12699999809E+01 0.  1.
</event>
<event>
 5   0  0.3552698E-05  0.1299942E+04  0.7818609E-02  0.9029611E-01
        1   -1    0    0  501    0  0.00000000000E+00  0.00000000000E+00  0.60759935784E+03  0.60759935786E+03  0.50400001928E-02 0.  1.
       -1   -1    0    0    0  501  0.00000000000E+00  0.00000000000E+00 -0.69529708662E+03  0.69529708663E+03  0.50400001928E-02 0. -1.
    10030    2    1    2    0    0  0.00000000000E+00  0.00000000000E+00 -0.87697728773E+02  0.13028964445E+04  0.12999416346E+04 0.  0.
        5    1    3    3  502    0 -0.13632396678E+03  0.53630394097E+02  0.59081993207E+03  0.60872877804E+03  0.46999998093E+01 0.  1.
       -5    1    3    3    0  502  0.13632396678E+03 -0.53630394097E+02 -0.67851766084E+03  0.69416766646E+03  0.46999998093E+01 0. -1.
</event>
<event>
 5   0  0.3552698E-05  0.1300340E+04  0.7818609E-02  0.9029296E-01
        1   -1    0    0  501    0  0.00000000000E+00  0.00000000000E+00  0.33510412025E+03  0.33510412029E+03  0.50400001928E-02 0. -1.
       -1   -1    0    0    0  501  0.00000000000E+00  0.00000000000E+00 -0.12614617012E+04  0.12614617012E+04  0.50400001928E-02 0.  1.
    10030    2    1    2    0    0  0.00000000000E+00  0.00000000000E+00 -0.92635758096E+03  0.15965658215E+04  0.13003399765E+04 0.  0.
        5    1    3    3  502    0 -0.58953861188E+03  0.20034755768E+03 -0.69289348718E+03  0.93156770734E+03  0.46999998093E+01 0. -1.
       -5    1    3    3    0  502  0.58953861188E+03 -0.20034755768E+03 -0.23346409377E+03  0.66499811417E+03  0.46999998093E+01 0.  1.
</event>
<event>
 5   0  0.3552698E-05  0.1298701E+04  0.7818609E-02  0.9030596E-01
        1   -1    0    0  501    0  0.00000000000E+00  0.00000000000E+00  0.61666205684E+03  0.61666205686E+03  0.50400001928E-02 0. -1.
       -1   -1    0    0    0  501  0.00000000000E+00  0.00000000000E+00 -0.68377223185E+03  0.68377223187E+03  0.50400001928E-02 0.  1.
    10030    2    1    2    0    0  0.00000000000E+00  0.00000000000E+00 -0.67110175010E+02  0.13004342887E+04  0.12987014914E+04 0.  0.
        5    1    3    3  502    0  0.54878481609E+03 -0.28961257695E+03  0.15799594631E+03  0.64033196715E+03  0.46999998093E+01 0. -1.
       -5    1    3    3    0  502 -0.54878481609E+03  0.28961257695E+03 -0.22510612132E+03  0.66010232158E+03  0.46999998093E+01 0.  1.
</event>
<event>
 5   0  0.6688086E-05  0.1300289E+04  0.7818609E-02  0.9029336E-01
        2   -1    0    0  501    0  0.00000000000E+00  0.00000000000E+00  0.83537509257E+03  0.83537509258E+03  0.25500000920E-02 0. -1.
       -2   -1    0    0    0  501  0.00000000000E+00  0.00000000000E+00 -0.50598585774E+03  0.50598585775E+03  0.25500000920E-02 0.  1.
    10030    2    1    2    0    0  0.00000000000E+00  0.00000000000E+00  0.32938923483E+03  0.13413609503E+04  0.13002891721E+04 0.  0.
        5    1    3    3  502    0  0.25993450348E+03 -0.10753565400E+03  0.76932763470E+03  0.81915625036E+03  0.46999998093E+01 0. -1.
       -5    1    3    3    0  502 -0.25993450348E+03  0.10753565400E+03 -0.43993839987E+03  0.52220469996E+03  0.46999998093E+01 0.  1.
</event>
<event>
 5   0  0.6671239E-05  0.1299753E+04  0.7818609E-02  0.9029761E-01
        2   -1    0    0  501    0  0.00000000000E+00  0.00000000000E+00  0.39449448574E+03  0.39449448575E+03  0.25500000920E-02 0.  1.
       -2   -1    0    0    0  501  0.00000000000E+00  0.00000000000E+00 -0.10705837442E+04  0.10705837442E+04  0.25500000920E-02 0. -1.
    10030    2    1    2    0    0  0.00000000000E+00  0.00000000000E+00 -0.67608925846E+03  0.14650782300E+04  0.12997528744E+04 0.  0.
        1    1    3    3  502    0 -0.10083436321E+03 -0.10001136343E+03 -0.10528776679E+04  0.10624129259E+04  0.50400001928E-02 0. -1.
       -1    1    3    3    0  502  0.10083436321E+03  0.10001136343E+03  0.37678840939E+03  0.40266530406E+03  0.50400001928E-02 0.  1.
</event>
<event>
 5   0  0.3718559E-05  0.1299818E+04  0.7818609E-02  0.9029710E-01
       -1   -1    0    0    0  501  0.00000000000E+00  0.00000000000E+00  0.93111149438E+03  0.93111149439E+03  0.50400001928E-02 0.  1.
        1   -1    0    0  501    0  0.00000000000E+00  0.00000000000E+00 -0.45363145066E+03  0.45363145068E+03  0.50400001928E-02 0. -1.
    10030    2    1    2    0    0  0.00000000000E+00  0.00000000000E+00  0.47748004372E+03  0.13847429451E+04  0.12998176148E+04 0.  0.
        2    1    3    3  502    0 -0.27662154512E+03  0.32942868826E+03  0.75774442127E+03  0.87133193896E+03  0.25500000920E-02 0.  1.
       -2    1    3    3    0  502  0.27662154512E+03 -0.32942868826E+03 -0.28026437755E+03  0.51341100612E+03  0.25500000920E-02 0. -1.
</event>
<event>
 5   0  0.2512000E-05  0.1299896E+04  0.7818609E-02  0.9029647E-01
        4   -1    0    0  501    0  0.00000000000E+00  0.00000000000E+00  0.36949573081E+03  0.36949791337E+03  0.12699999809E+01 0. -1.
       -4   -1    0    0    0  501  0.00000000000E+00  0.00000000000E+00 -0.11432617609E+04  0.11432624663E+04  0.12699999809E+01 0.  1.
    10030    2    1    2    0    0  0.00000000000E+00  0.00000000000E+00 -0.77376603010E+03  0.15127603797E+04  0.12998961870E+04 0.  0.
        4    1    3    3  502    0 -0.56929307274E+03  0.17974943158E+03 -0.87849099785E+02  0.60342649764E+03  0.12699999809E+01 0. -1.
       -4    1    3    3    0  502  0.56929307274E+03 -0.17974943158E+03 -0.68591693032E+03  0.90933388204E+03  0.12699999809E+01 0.  1.
</event>
<event>
 5   0  0.6671239E-05  0.1299632E+04  0.7818609E-02  0.9029857E-01
        2   -1    0    0  501    0  0.00000000000E+00  0.00000000000E+00  0.17775793134E+04  0.17775793134E+04  0.25500000920E-02 0.  1.
       -2   -1    0    0    0  501  0.00000000000E+00  0.00000000000E+00 -0.23754831399E+03  0.23754831400E+03  0.25500000920E-02 0. -1.
    10030    2    1    2    0    0  0.00000000000E+00  0.00000000000E+00  0.15400309994E+04  0.20151276274E+04  0.12996322078E+04 0.  0.
        1    1    3    3  502    0  0.36852764026E+03  0.38438183101E+03  0.13474712182E+04  0.14488756667E+04  0.50400001928E-02 0.  1.
       -1    1    3    3    0  502 -0.36852764026E+03 -0.38438183101E+03  0.19255978124E+03  0.56625196072E+03  0.50400001928E-02 0. -1.
</event>
<event>
 5   0  0.2512000E-05  0.1300261E+04  0.7818609E-02  0.9029358E-01
        3   -1    0    0  501    0  0.00000000000E+00  0.00000000000E+00  0.37608680163E+03  0.37608681519E+03  0.10100000352E+00 0. -1.
       -3   -1    0    0    0  501  0.00000000000E+00  0.00000000000E+00 -0.11238625720E+04  0.11238625766E+04  0.10100000352E+00 0.  1.
    10030    2    1    2    0    0  0.00000000000E+00  0.00000000000E+00 -0.74777577040E+03  0.14999493918E+04  0.13002613487E+04 0.  0.
        4    1    3    3  502    0 -0.56055228218E+03  0.29134349240E+03 -0.55098476283E+03  0.83826351071E+03  0.12699999809E+01 0.  1.
       -4    1    3    3    0  502  0.56055228218E+03 -0.29134349240E+03 -0.19679100757E+03  0.66168588105E+03  0.12699999809E+01 0. -1.
</event>
<event>
 5   0  0.6671239E-05  0.1300349E+04  0.7818609E-02  0.9029288E-01
       -2   -1    0    0    0  501  0.00000000000E+00  0.00000000000E+00  0.37666486530E+03  0.37666486531E+03  0.25500000920E-02 0.  1.
        2   -1    0    0  501    0  0.00000000000E+00  0.00000000000E+00 -0.11222898998E+04  0.11222898998E+04  0.25500000920E-02 0. -1.
    10030    2    1    2    0    0  0.00000000000E+00  0.00000000000E+00 -0.74562503453E+03  0.14989547651E+04  0.13003494514E+04 0.  0.
        1    1    3    3  502    0  0.20799719272E+03 -0.87159594189E+02  0.33013449230E+03  0.39981046769E+03  0.50400001928E-02 0.  1.
       -1    1    3    3    0  502 -0.20799719272E+03  0.87159594189E+02 -0.10757595268E+04  0.10991442975E+04  0.50400001928E-02 0. -1.
</event>
<event>
 5   0  0.6458698E-05  0.1299214E+04  0.7818609E-02  0.9030188E-01
       -2   -1    0    0    0  501  0.00000000000E+00  0.00000000000E+00  0.46164934900E+03  0.46164934901E+03  0.25500000920E-02 0. -1.
        2   -1    0    0  501    0  0.00000000000E+00  0.00000000000E+00 -0.91409085722E+03  0.91409085722E+03  0.25500000920E-02 0.  1.
    10030    2    1    2    0    0  0.00000000000E+00  0.00000000000E+00 -0.45244150821E+03  0.13757402062E+04  0.12992142998E+04 0.  0.
        3    1    3    3  502    0  0.19505733786E+03  0.53249065724E+03 -0.56173684538E+03  0.79821172552E+03  0.10100000352E+00 0.  1.
       -3    1    3    3    0  502 -0.19505733786E+03 -0.53249065724E+03  0.10929533717E+03  0.57752848071E+03  0.10100000352E+00 0. -1.
</event>
<event>
 5   0  0.3551277E-05  0.1299293E+04  0.7818609E-02  0.9030126E-01
       -1   -1    0    0    0  501  0.00000000000E+00  0.00000000000E+00  0.44105722929E+03  0.44105722932E+03  0.50400001928E-02 0. -1.
        1   -1    0    0  501    0  0.00000000000E+00  0.00000000000E+00 -0.95688333066E+03  0.95688333068E+03  0.50400001928E-02 0.  1.
    10030    2    1    2    0    0  0.00000000000E+00  0.00000000000E+00 -0.51582610137E+03  0.13979405600E+04  0.12992925931E+04 0.  0.
        4    1    3    3  502    0 -0.42588537694E+03 -0.19325680516E+03  0.22722284567E+03  0.51995998070E+03  0.12699999809E+01 0. -1.
       -4    1    3    3    0  502  0.42588537694E+03  0.19325680516E+03 -0.74304894704E+03  0.87798057930E+03  0.12699999809E+01 0.  1.
</event>
<event>
 5   0  0.3551277E-05  0.1298469E+04  0.7818609E-02  0.9030780E-01
       -1   -1    0    0    0  501  0.00000000000E+00  0.00000000000E+00  0.32104404446E+03  0.32104404450E+03  0.50400001928E-02 0.  1.
        1   -1    0    0  501    0  0.00000000000E+00  0.00000000000E+00 -0.13129205678E+04  0.13129205678E+04  0.50400001928E-02 0. -1.
    10030    2    1    2    0    0  0.00000000000E+00  0.00000000000E+00 -0.99187652330E+03  0.16339646123E+04  0.12984688355E+04 0.  0.
        4    1    3    3  502    0 -0.30102912895E+03  0.35145534888E+03  0.77092754330E+02  0.46913143617E+03  0.12699999809E+01 0.  1.
       -4    1    3    3    0  502  0.30102912895E+03 -0.35145534888E+03 -0.10689692776E+04  0.11648331761E+04  0.12699999809E+01 0. -1.
</event>
<event>
 5   0  0.3689707E-05  0.1300165E+04  0.7818609E-02  0.9029434E-01
        1   -1    0    0  501    0  0.00000000000E+00  0.00000000000E+00  0.57427140980E+03  0.57427140983E+03  0.50400001928E-02 0.  1.
       -1   -1    0    0    0  501  0.00000000000E+00  0.00000000000E+00 -0.73590177487E+03  0.73590177489E+03  0.50400001928E-02 0. -1.
    10030    2    1    2    0    0  0.00000000000E+00  0.00000000000E+00 -0.16163036507E+03  0.13101731847E+04  0.13001651430E+04 0.  0.
        1    1    3    3  502    0  0.42767558485E+03  0.18285883477E+03 -0.53847362108E+03  0.71154592259E+03  0.50400001928E-02 0. -1.
       -1    1    3    3    0  502 -0.42767558485E+03 -0.18285883477E+03  0.37684325601E+03  0.59862726212E+03  0.50400001928E-02 0.  1.
</event>
<event>
 5   0  0.6688086E-05  0.1300003E+04  0.7818609E-02  0.9029563E-01
        2   -1    0    0  501    0  0.00000000000E+00  0.00000000000E+00  0.90913337387E+03  0.90913337388E+03  0.25500000920E-02 0.  1.
       -2   -1    0    0    0  501  0.00000000000E+00  0.00000000000E+00 -0.46473013745E+03  0.46473013746E+03  0.25500000920E-02 0. -1.
    10030    2    1    2    0    0  0.00000000000E+00  0.00000000000E+00  0.44440323642E+03  0.13738635113E+04  0.13000025812E+04 0.  0.
        5    1    3    3  502    0 -0.46758566315E+03  0.81735702540E+00 -0.25493946793E+03  0.53259106523E+03  0.46999998093E+01 0. -1.
       -5    1    3    3    0  502  0.46758566315E+03 -0.81735702540E+00  0.69934270435E+03  0.84127244611E+03  0.46999998093E+01 0.  1.
</event>
<event>
 5   0  0.3689707E-05  0.1299802E+04  0.7818609E-02  0.9029723E-01
       -1   -1    0    0    0  501  0.00000000000E+00  0.00000000000E+00  0.44233668756E+03  0.44233668758E+03  0.50400001928E-02 0.  1.
        1   -1    0    0  501    0  0.00000000000E+00  0.00000000000E+00 -0.95486315695E+03  0.95486315696E+03  0.50400001928E-02 0. -1.
    10030    2    1    2    0    0  0.00000000000E+00  0.00000000000E+00 -0.51252646939E+03  0.13971998445E+04  0.12998015325E+04 0.  0.
        1    1    3    3  502    0  0.41732569137E+03  0.20110294542E+03  0.23370811570E+03  0.51886665985E+03  0.50400001928E-02 0.  1.
       -1    1    3    3    0  502 -0.41732569137E+03 -0.20110294542E+03 -0.74623458509E+03  0.87833318470E+03  0.50400001928E-02 0. -1.
</event>
<event>
 5   0  0.2512000E-05  0.1299939E+04  0.7818609E-02  0.9029614E-01
       -3   -1    0    0    0  501  0.00000000000E+00  0.00000000000E+00  0.74684977929E+03  0.74684978612E+03  0.10100000352E+00 0. -1.
        3   -1    0    0  501    0  0.00000000000E+00  0.00000000000E+00 -0.56565632365E+03  0.56565633266E+03  0.10100000352E+00 0.  1.
    10030    2    1    2    0    0  0.00000000000E+00  0.00000000000E+00  0.18119345565E+03  0.13125061188E+04  0.12999389384E+04 0.  0.
        1    1    3    3  502    0 -0.54130039594E+03  0.35676667111E+03  0.43544330270E+02  0.64975740472E+03  0.50400001928E-02 0.  1.
       -1    1    3    3    0  502  0.54130039594E+03 -0.35676667111E+03  0.13764912538E+03  0.66274871407E+03  0.50400001928E-02 0. -1.
</event>
<event>
 5   0  0.6688086E-05  0.1299690E+04  0.7818609E-02  0.9029811E-01
       -2   -1    0    0    0  501  0.00000000000E+00  0.00000000000E+00  0.35034064148E+03  0.35034064149E+03  0.25500000920E-02 0. -1.
        2   -1    0    0  501    0  0.00000000000E+00  0.00000000000E+00 -0.12053934878E+04  0.12053934878E+04  0.25500000920E-02 0.  1.
    10030    2    1    2    0    0  0.00000000000E+00  0.00000000000E+00 -0.85505284628E+03  0.15557341293E+04  0.12996896980E+04 0.  0.
        5    1    3    3  502    0 -0.47610721125E+03 -0.42696539072E+03 -0.28948781774E+03  0.70199915107E+03  0.46999998093E+01 0. -1.
       -5    1    3    3    0  502  0.47610721125E+03  0.42696539072E+03 -0.56556502854E+03  0.85373497819E+03  0.46999998093E+01 0.  1.
</event>
<event>
 5   0  0.6671239E-05  0.1299564E+04  0.7818609E-02  0.9029911E-01
       -2   -1    0    0    0  501  0.00000000000E+00  0.00000000000E+00  0.24954452625E+03  0.24954452626E+03  0.25500000920E-02 0. -1.
        2   -1    0    0  501    0  0.00000000000E+00  0.00000000000E+00 -0.16919491467E+04  0.16919491467E+04  0.25500000920E-02 0.  1.
    10030    2    1    2    0    0  0.00000000000E+00  0.00000000000E+00 -0.14424046205E+04  0.19414936730E+04  0.12995640012E+04 0.  0.
        1    1    3    3  502    0  0.34703896382E+03  0.22647199062E+03 -0.14689144086E+04  0.15262487166E+04  0.50400001928E-02 0.  1.
       -1    1    3    3    0  502 -0.34703896382E+03 -0.22647199062E+03  0.26509788148E+02  0.41524495642E+03  0.50400001928E-02 0. -1.
</event>
<event>
 5   0  0.6742824E-05  0.1300062E+04  0.7818609E-02  0.9029516E-01
       -2   -1    0    0    0  501  0.00000000000E+00  0.00000000000E+00  0.18933592691E+03  0.18933592692E+03  0.25500000920E-02 0.  1.
        2   -1    0    0  501    0  0.00000000000E+00  0.00000000000E+00 -0.22316958294E+04  0.22316958294E+04  0.25500000920E-02 0. -1.
    10030    2    1    2    0    0  0.00000000000E+00  0.00000000000E+00 -0.20423599025E+04  0.24210317563E+04  0.13000618423E+04 0.  0.
        4    1    3    3  502    0 -0.42103272183E+03  0.40381762284E+03 -0.15550996894E+04  0.16609256101E+04  0.12699999809E+01 0. -1.
       -4    1    3    3    0  502  0.42103272183E+03 -0.40381762284E+03 -0.48726021306E+03  0.76010614621E+03  0.12699999809E+01 0.  1.
</event>
<event>
 5   0  0.6688086E-05  0.1299911E+04  0.7818609E-02  0.9029636E-01
       -2   -1    0    0    0  501  0.00000000000E+00  0.00000000000E+00  0.79208711567E+03  0.79208711567E+03  0.25500000920E-02 0.  1.
        2   -1    0    0  501    0  0.00000000000E+00  0.00000000000E+00 -0.53332767892E+03  0.53332767892E+03  0.25500000920E-02 0. -1.
    10030    2    1    2    0    0  0.00000000000E+00  0.00000000000E+00  0.25875943675E+03  0.13254147946E+04  0.12999107399E+04 0.  0.
        5    1    3    3  502    0  0.32066221805E+03 -0.46625586328E+03  0.45534104549E+03  0.72634450905E+03  0.46999998093E+01 0.  1.
       -5    1    3    3    0  502 -0.32066221805E+03  0.46625586328E+03 -0.19658160874E+03  0.59907028554E+03  0.46999998093E+01 0. -1.
</event>
<event>
 5   0  0.3551277E-05  0.1299249E+04  0.7818609E-02  0.9030161E-01
       -1   -1    0    0    0  501  0.00000000000E+00  0.00000000000E+00  0.38008517365E+03  0.38008517368E+03  0.50400001928E-02 0.  1.
        1   -1    0    0  501    0  0.00000000000E+00  0.00000000000E+00 -0.11103089399E+04  0.11103089399E+04  0.50400001928E-02 0. -1.
    10030    2    1    2    0    0  0.00000000000E+00  0.00000000000E+00 -0.73022376627E+03  0.14903941136E+04  0.12992489619E+04 0.  0.
        4    1    3    3  502    0 -0.33761687231E+03 -0.14153658325E+03 -0.98071301520E+03  0.10468129670E+04  0.12699999809E+01 0. -1.
       -4    1    3    3    0  502  0.33761687231E+03  0.14153658325E+03  0.25048924894E+03  0.44358114658E+03  0.12699999809E+01 0.  1.
</event>
<event>
 5   0  0.6671239E-05  0.1298932E+04  0.7818609E-02  0.9030412E-01
       -2   -1    0    0    0  501  0.00000000000E+00  0.00000000000E+00  0.79844679363E+03  0.79844679363E+03  0.25500000920E-02 0.  1.
        2   -1    0    0  501    0  0.00000000000E+00  0.00000000000E+00 -0.52828359998E+03  0.52828359999E+03  0.25500000920E-02 0. -1.
    10030    2    1    2    0    0  0.00000000000E+00  0.00000000000E+00  0.27016319364E+03  0.13267303936E+04  0.12989324025E+04 0.  0.
        1    1    3    3  502    0  0.43959882284E+03 -0.35562435699E+03 -0.19127235383E+03  0.59690947530E+03  0.50400001928E-02 0. -1.
       -1    1    3    3    0  502 -0.43959882284E+03  0.35562435699E+03  0.46143554747E+03  0.72982091833E+03  0.50400001928E-02 0.  1.
</event>
<event>
 5   0  0.3551277E-05  0.1301342E+04  0.7818609E-02  0.9028502E-01
       -1   -1    0    0    0  501  0.00000000000E+00  0.00000000000E+00  0.42613921606E+03  0.42613921609E+03  0.50400001928E-02 0. -1.
        1   -1    0    0  501    0  0.00000000000E+00  0.00000000000E+00 -0.99350802965E+03  0.99350802966E+03  0.50400001928E-02 0.  1.
    10030    2    1    2    0    0  0.00000000000E+00  0.00000000000E+00 -0.56736881358E+03  0.14196472458E+04  0.13013419734E+04 0.  0.
        4    1    3    3  502    0 -0.26677081439E+02 -0.61094623545E+03 -0.41207308833E+02  0.61291649063E+03  0.12699999809E+01 0. -1.
       -4    1    3    3    0  502  0.26677081439E+02  0.61094623545E+03 -0.52616150475E+03  0.80673075513E+03  0.12699999809E+01 0.  1.
</event>
<event>
 5   0  0.3718559E-05  0.1299713E+04  0.7818609E-02  0.9029793E-01
        1   -1    0    0  501    0  0.00000000000E+00  0.00000000000E+00  0.31003028777E+04  0.31003028777E+04  0.50400001928E-02 0.  1.
       -1   -1    0    0    0  501  0.00000000000E+00  0.00000000000E+00 -0.13621691388E+03  0.13621691397E+03  0.50400001928E-02 0. -1.
    10030    2    1    2    0    0  0.00000000000E+00  0.00000000000E+00  0.29640859638E+04  0.32365197917E+04  0.12997133380E+04 0.  0.
        2    1    3    3  502    0  0.25351438080E+03 -0.37697464298E+03  0.26391978193E+04  0.26780113055E+04  0.25500000920E-02 0.  1.
       -2    1    3    3    0  502 -0.25351438080E+03  0.37697464298E+03  0.32488814453E+03  0.55850848623E+03  0.25500000920E-02 0. -1.
</event>
<event>
 5   0  0.2512000E-05  0.1300172E+04  0.7818609E-02  0.9029429E-01
        4   -1    0    0  501    0  0.00000000000E+00  0.00000000000E+00  0.63138626299E+03  0.63138754026E+03  0.12699999809E+01 0.  1.
       -4   -1    0    0    0  501  0.00000000000E+00  0.00000000000E+00 -0.66933677117E+03  0.66933797602E+03  0.12699999809E+01 0. -1.
    10030    2    1    2    0    0  0.00000000000E+00  0.00000000000E+00 -0.37950508178E+02  0.13007255163E+04  0.13001717685E+04 0.  0.
        5    1    3    3  502    0  0.20452998017E+03  0.38790025674E+03  0.46111499758E+03  0.63635544545E+03  0.46999998093E+01 0.  1.
       -5    1    3    3    0  502 -0.20452998017E+03 -0.38790025674E+03 -0.49906550575E+03  0.66437007082E+03  0.46999998093E+01 0. -1.
</event>
<event>
 5   0  0.3689707E-05  0.1299891E+04  0.7818609E-02  0.9029652E-01
        1   -1    0    0  501    0  0.00000000000E+00  0.00000000000E+00  0.89751288624E+03  0.89751288626E+03  0.50400001928E-02 0.  1.
       -1   -1    0    0    0  501  0.00000000000E+00  0.00000000000E+00 -0.47066626997E+03  0.47066626999E+03  0.50400001928E-02 0. -1.
    10030    2    1    2    0    0  0.00000000000E+00  0.00000000000E+00  0.42684661628E+03  0.13681791563E+04  0.12998908299E+04 0.  0.
        1    1    3    3  502    0 -0.50747059594E+03 -0.34495571800E+03  0.43894128749E+03  0.75444702069E+03  0.50400001928E-02 0.  1.
       -1    1    3    3    0  502  0.50747059594E+03  0.34495571800E+03 -0.12094671212E+02  0.61373213557E+03  0.50400001928E-02 0. -1.
</event>
<event>
 5   0  0.3551277E-05  0.1300827E+04  0.7818609E-02  0.9028910E-01
       -1   -1    0    0    0  501  0.00000000000E+00  0.00000000000E+00  0.23214241287E+03  0.23214241293E+03  0.50400001928E-02 0. -1.
        1   -1    0    0  501    0  0.00000000000E+00  0.00000000000E+00 -0.18223191135E+04  0.18223191135E+04  0.50400001928E-02 0.  1.
    10030    2    1    2    0    0  0.00000000000E+00  0.00000000000E+00 -0.15901767006E+04  0.20544615264E+04  0.13008267465E+04 0.  0.
        4    1    3    3  502    0 -0.13528850822E+03 -0.17604508183E+02 -0.17994647553E+04  0.18046295791E+04  0.12699999809E+01 0.  1.
       -4    1    3    3    0  502  0.13528850822E+03  0.17604508183E+02  0.20928805471E+03  0.24983194734E+03  0.12699999809E+01 0. -1.
</event>
<event>
 5   0  0.6742824E-05  0.1300000E+04  0.7818609E-02  0.9029565E-01
       -2   -1    0    0    0  501  0.00000000000E+00  0.00000000000E+00  0.50491700765E+03  0.50491700765E+03  0.25500000920E-02 0.  1.
        2   -1    0    0  501    0  0.00000000000E+00  0.00000000000E+00 -0.83677090472E+03  0.83677090473E+03  0.25500000920E-02 0. -1.
    10030    2    1    2    0    0  0.00000000000E+00  0.00000000000E+00 -0.33185389708E+03  0.13416879124E+04  0.12999997866E+04 0.  0.
        4    1    3    3  502    0 -0.38590136214E+01 -0.54193088621E+03  0.20446070259E+03  0.57923205127E+03  0.12699999809E+01 0.  1.
       -4    1    3    3    0  502  0.38590136214E+01  0.54193088621E+03 -0.53631459967E+03  0.76245586111E+03  0.12699999809E+01 0. -1.
</event>
<event>
 5   0  0.6742824E-05  0.1298110E+04  0.7818609E-02  0.9031065E-01
       -2   -1    0    0    0  501  0.00000000000E+00  0.00000000000E+00  0.25990301574E+03  0.25990301575E+03  0.25500000920E-02 0.  1.
        2   -1    0    0  501    0  0.00000000000E+00  0.00000000000E+00 -0.16208829673E+04  0.16208829673E+04  0.25500000920E-02 0. -1.
    10030    2    1    2    0    0  0.00000000000E+00  0.00000000000E+00 -0.13609799515E+04  0.18807859830E+04  0.12981099666E+04 0.  0.
        4    1    3    3  502    0  0.47173653594E+03 -0.39155504659E+03 -0.37170819084E+03  0.71695139715E+03  0.12699999809E+01 0.  1.
       -4    1    3    3    0  502 -0.47173653594E+03  0.39155504659E+03 -0.98927176068E+03  0.11638345859E+04  0.12699999809E+01 0. -1.
</event>
<event>
 5   0  0.3631841E-05  0.1299888E+04  0.7818609E-02  0.9029654E-01
        1   -1    0    0  501    0  0.00000000000E+00  0.00000000000E+00  0.58956188648E+03  0.58956188650E+03  0.50400001928E-02 0.  1.
       -1   -1    0    0    0  501  0.00000000000E+00  0.00000000000E+00 -0.71651091004E+03  0.71651091006E+03  0.50400001928E-02 0. -1.
    10030    2    1    2    0    0  0.00000000000E+00  0.00000000000E+00 -0.12694902357E+03  0.13060727966E+04  0.12998884934E+04 0.  0.
        3    1    3    3  502    0 -0.20040417367E+02  0.64845628655E+03 -0.24168841039E+02  0.64921592477E+03  0.10100000352E+00 0. -1.
       -3    1    3    3    0  502  0.20040417367E+02 -0.64845628655E+03 -0.10278018253E+03  0.65685687179E+03  0.10100000352E+00 0.  1.
</event>
<event>
 5   0  0.6618060E-05  0.1299507E+04  0.7818609E-02  0.9029956E-01
        2   -1    0    0  501    0  0.00000000000E+00  0.00000000000E+00  0.46872739430E+03  0.46872739431E+03  0.25500000920E-02 0.  1.
       -2   -1    0    0    0  501  0.00000000000E+00  0.00000000000E+00 -0.90069288207E+03  0.90069288208E+03  0.25500000920E-02 0. -1.
    10030    2    1    2    0    0  0.00000000000E+00  0.00000000000E+00 -0.43196548777E+03  0.13694202764E+04  0.12995067182E+04 0.  0.
        2    1    3    3  502    0  0.49842069265E+03  0.39769485497E+03 -0.34758141847E+03  0.72622119703E+03  0.25500000920E-02 0. -1.
       -2    1    3    3    0  502 -0.49842069265E+03 -0.39769485497E+03 -0.84384069298E+02  0.64319907936E+03  0.25500000920E-02 0.  1.
</event>
<event>
 5   0  0.3552698E-05  0.1299982E+04  0.7818609E-02  0.9029580E-01
        1   -1    0    0  501    0  0.00000000000E+00  0.00000000000E+00  0.55164921057E+03  0.55164921059E+03  0.50400001928E-02 0. -1.
       -1   -1    0    0    0  501  0.00000000000E+00  0.00000000000E+00 -0.76586366004E+03  0.76586366005E+03  0.50400001928E-02 0.  1.
    10030    2    1    2    0    0  0.00000000000E+00  0.00000000000E+00 -0.21421444947E+03  0.13175128706E+04  0.12999816668E+04 0.  0.
        5    1    3    3  502    0 -0.26801103310E+03 -0.28409905096E+03  0.41944110034E+03  0.57314493043E+03  0.46999998093E+01 0. -1.
       -5    1    3    3    0  502  0.26801103310E+03  0.28409905096E+03 -0.63365554981E+03  0.74436794022E+03  0.46999998093E+01 0.  1.
</event>
<event>
 5   0  0.6671239E-05  0.1299864E+04  0.7818609E-02  0.9029673E-01
        2   -1    0    0  501    0  0.00000000000E+00  0.00000000000E+00  0.56241688096E+03  0.56241688097E+03  0.25500000920E-02 0. -1.
       -2   -1    0    0    0  501  0.00000000000E+00  0.00000000000E+00 -0.75106450024E+03  0.75106450024E+03  0.25500000920E-02 0.  1.
    10030    2    1    2    0    0  0.00000000000E+00  0.00000000000E+00 -0.18864761927E+03  0.13134813812E+04  0.12998636138E+04 0.  0.
        1    1    3    3  502    0 -0.54480973911E+03  0.10537321866E+03 -0.43623259921E+03  0.70584704269E+03  0.50400001928E-02 0. -1.
       -1    1    3    3    0  502  0.54480973911E+03 -0.10537321866E+03  0.24758497994E+03  0.60763433852E+03  0.50400001928E-02 0.  1.
</event>
<event>
 5   0  0.6742824E-05  0.1295692E+04  0.7818609E-02  0.9032988E-01
       -2   -1    0    0    0  501  0.00000000000E+00  0.00000000000E+00  0.26685434479E+03  0.26685434480E+03  0.25500000920E-02 0.  1.
        2   -1    0    0  501    0  0.00000000000E+00  0.00000000000E+00 -0.15727856986E+04  0.15727856986E+04  0.25500000920E-02 0. -1.
    10030    2    1    2    0    0  0.00000000000E+00  0.00000000000E+00 -0.13059313538E+04  0.18396400434E+04  0.12956923973E+04 0.  0.
        4    1    3    3  502    0 -0.24290413970E+03  0.59228438361E+03 -0.79423430741E+03  0.10201043869E+04  0.12699999809E+01 0.  1.
       -4    1    3    3    0  502  0.24290413970E+03 -0.59228438361E+03 -0.51169704641E+03  0.81953565655E+03  0.12699999809E+01 0. -1.
</event>
<event>
 5   0  0.3631841E-05  0.1300291E+04  0.7818609E-02  0.9029335E-01
        1   -1    0    0  501    0  0.00000000000E+00  0.00000000000E+00  0.19135732499E+03  0.19135732506E+03  0.50400001928E-02 0.  1.
       -1   -1    0    0    0  501  0.00000000000E+00  0.00000000000E+00 -0.22088990385E+04  0.22088990385E+04  0.50400001928E-02 0. -1.
    10030    2    1    2    0    0  0.00000000000E+00  0.00000000000E+00 -0.20175417135E+04  0.24002563636E+04  0.13002907541E+04 0.  0.
        3    1    3    3  502    0 -0.23869649546E+03  0.55513534675E+03 -0.14515564896E+04  0.15723127942E+04  0.10100000352E+00 0. -1.
       -3    1    3    3    0  502  0.23869649546E+03 -0.55513534675E+03 -0.56598522393E+03  0.82794356937E+03  0.10100000352E+00 0.  1.
</event>
<event>
 5   0  0.6742824E-05  0.1300896E+04  0.7818609E-02  0.9028855E-01
        2   -1    0    0  501    0  0.00000000000E+00  0.00000000000E+00  0.19583881572E+04  0.19583881572E+04  0.25500000920E-02 0. -1.
       -2   -1    0    0    0  501  0.00000000000E+00  0.00000000000E+00 -0.21603626760E+03  0.21603626761E+03  0.25500000920E-02 0.  1.
    10030    2    1    2    0    0  0.00000000000E+00  0.00000000000E+00  0.17423518896E+04  0.21744244248E+04  0.13008964109E+04 0.  0.
        4    1    3    3  502    0  0.52227338802E+03 -0.15031482043E+03  0.27382943948E+03  0.60856241413E+03  0.12699999809E+01 0.  1.
       -4    1    3    3    0  502 -0.52227338802E+03  0.15031482043E+03  0.14685224501E+04  0.15658620107E+04  0.12699999809E+01 0. -1.
</event>
<event>
 5   0  0.6688086E-05  0.1299949E+04  0.7818609E-02  0.9029606E-01
       -2   -1    0    0    0  501  0.00000000000E+00  0.00000000000E+00  0.50723771624E+03  0.50723771624E+03  0.25500000920E-02 0.  1.
        2   -1    0    0  501    0  0.00000000000E+00  0.00000000000E+00 -0.83287760240E+03  0.83287760241E+03  0.25500000920E-02 0. -1.
    10030    2    1    2    0    0  0.00000000000E+00  0.00000000000E+00 -0.32563988617E+03  0.13401153187E+04  0.12999491266E+04 0.  0.
        5    1    3    3  502    0 -0.46682633920E+03  0.25343680487E+03 -0.54894302515E+03  0.76388322399E+03  0.46999998093E+01 0. -1.
       -5    1    3    3    0  502  0.46682633920E+03 -0.25343680487E+03  0.22330313899E+03  0.57623209466E+03  0.46999998093E+01 0.  1.
</event>
<event>
 5   0  0.6671239E-05  0.1300589E+04  0.7818609E-02  0.9029099E-01
        2   -1    0    0  501    0  0.00000000000E+00  0.00000000000E+00  0.96922886933E+03  0.96922886934E+03  0.25500000920E-02 0.  1.
       -2   -1    0    0    0  501  0.00000000000E+00  0.00000000000E+00 -0.43630837899E+03  0.43630837900E+03  0.25500000920E-02 0. -1.
    10030    2    1    2    0    0  0.00000000000E+00  0.00000000000E+00  0.53292049034E+03  0.14055372483E+04  0.13005886004E+04 0.  0.
        1    1    3    3  502    0 -0.47378592749E+03  0.59470774884E+02  0.74352576350E+03  0.88365176352E+03  0.50400001928E-02 0.  1.
       -1    1    3    3    0  502  0.47378592749E+03 -0.59470774884E+02 -0.21060527315E+03  0.52188548482E+03  0.50400001928E-02 0. -1.
</event>
<event>
 5   0  0.3551277E-05  0.1300246E+04  0.7818609E-02  0.9029370E-01
        1   -1    0    0  501    0  0.00000000000E+00  0.00000000000E+00  0.11398289887E+04  0.11398289888E+04  0.50400001928E-02 0. -1.
       -1   -1    0    0    0  501  0.00000000000E+00  0.00000000000E+00 -0.37081019847E+03  0.37081019850E+03  0.50400001928E-02 0.  1.
    10030    2    1    2    0    0  0.00000000000E+00  0.00000000000E+00  0.76901879028E+03  0.15106391873E+04  0.13002464591E+04 0.  0.
        4    1    3    3  502    0  0.62836965745E+03 -0.16673007196E+03  0.38061128911E+03  0.75333519073E+03  0.12699999809E+01 0.  1.
       -4    1    3    3    0  502 -0.62836965745E+03  0.16673007196E+03  0.38840750117E+03  0.75730399653E+03  0.12699999809E+01 0. -1.
</event>
<event>
 5   0  0.6671239E-05  0.1299691E+04  0.7818609E-02  0.9029810E-01
       -2   -1    0    0    0  501  0.00000000000E+00  0.00000000000E+00  0.46390886749E+03  0.46390886750E+03  0.25500000920E-02 0.  1.
        2   -1    0    0  501    0  0.00000000000E+00  0.00000000000E+00 -0.91030646752E+03  0.91030646753E+03  0.25500000920E-02 0. -1.
    10030    2    1    2    0    0  0.00000000000E+00  0.00000000000E+00 -0.44639760003E+03  0.13742153350E+04  0.12996911055E+04 0.  0.
        1    1    3    3  502    0  0.11434320550E+03 -0.21729859503E+03 -0.85936800834E+03  0.89375971146E+03  0.50400001928E-02 0. -1.
       -1    1    3    3    0  502 -0.11434320550E+03  0.21729859503E+03  0.41297040831E+03  0.48045562356E+03  0.50400001928E-02 0.  1.
</event>
<event>
 5   0  0.3718559E-05  0.1299996E+04  0.7818609E-02  0.9029568E-01
       -1   -1    0    0    0  501  0.00000000000E+00  0.00000000000E+00  0.48171559550E+03  0.48171559553E+03  0.50400001928E-02 0.  1.
        1   -1    0    0  501    0  0.00000000000E+00  0.00000000000E+00 -0.87706855429E+03  0.87706855430E+03  0.50400001928E-02 0. -1.
    10030    2    1    2    0    0  0.00000000000E+00  0.00000000000E+00 -0.39535295879E+03  0.13587841498E+04  0.12999963091E+04 0.  0.
        2    1    3    3  502    0  0.67887407158E+02 -0.12954620524E+03  0.46429351020E+03  0.48678473986E+03  0.25500000920E-02 0.  1.
       -2    1    3    3    0  502 -0.67887407158E+02  0.12954620524E+03 -0.85964646898E+03  0.87199940997E+03  0.25500000920E-02 0. -1.
</event>
<event>
 5   0  0.6458698E-05  0.1298270E+04  0.7818609E-02  0.9030938E-01
        2   -1    0    0  501    0  0.00000000000E+00  0.00000000000E+00  0.15898546433E+04  0.15898546433E+04  0.25500000920E-02 0.  1.
       -2   -1    0    0    0  501  0.00000000000E+00  0.00000000000E+00 -0.26504073207E+03  0.26504073209E+03  0.25500000920E-02 0. -1.
    10030    2    1    2    0    0  0.00000000000E+00  0.00000000000E+00  0.13248139112E+04  0.18548953753E+04  0.12982699851E+04 0.  0.
        3    1    3    3  502    0  0.23143931307E+02 -0.33107379472E+03 -0.13466152729E+03  0.35816090831E+03  0.10100000352E+00 0. -1.
       -3    1    3    3    0  502 -0.23143931307E+02  0.33107379472E+03  0.14594754385E+04  0.14967344670E+04  0.10100000352E+00 0.  1.
</event>
<event>
 5   0  0.3551277E-05  0.1300017E+04  0.7818609E-02  0.9029551E-01
        1   -1    0    0  501    0  0.00000000000E+00  0.00000000000E+00  0.31739079522E+03  0.31739079526E+03  0.50400001928E-02 0. -1.
       -1   -1    0    0    0  501  0.00000000000E+00  0.00000000000E+00 -0.13312019781E+04  0.13312019781E+04  0.50400001928E-02 0.  1.
    10030    2    1    2    0    0  0.00000000000E+00  0.00000000000E+00 -0.10138111829E+04  0.16485927734E+04  0.13000173145E+04 0.  0.
        4    1    3    3  502    0  0.24369768830E+03 -0.53981693333E+03 -0.16729546499E+03  0.61545127370E+03  0.12699999809E+01 0. -1.
       -4    1    3    3    0  502 -0.24369768830E+03  0.53981693333E+03 -0.84651571790E+03  0.10331414997E+04  0.12699999809E+01 0.  1.
</event>
<event>
 5   0  0.3551277E-05  0.1300257E+04  0.7818609E-02  0.9029362E-01
       -1   -1    0    0    0  501  0.00000000000E+00  0.00000000000E+00  0.29939172656E+03  0.29939172660E+03  0.50400001928E-02 0. -1.
        1   -1    0    0  501    0  0.00000000000E+00  0.00000000000E+00 -0.14117521875E+04  0.14117521875E+04  0.50400001928E-02 0.  1.
    10030    2    1    2    0    0  0.00000000000E+00  0.00000000000E+00 -0.11123604609E+04  0.17111439141E+04  0.13002567822E+04 0.  0.
        4    1    3    3  502    0 -0.77714702668E+02 -0.45627630015E+03 -0.11570018053E+04  0.12461470328E+04  0.12699999809E+01 0.  1.
       -4    1    3    3    0  502  0.77714702668E+02  0.45627630015E+03  0.44641344340E+02  0.46499688129E+03  0.12699999809E+01 0. -1.
</event>
<event>
 5   0  0.6671239E-05  0.1299900E+04  0.7818609E-02  0.9029644E-01
       -2   -1    0    0    0  501  0.00000000000E+00  0.00000000000E+00  0.41175511204E+03  0.41175511205E+03  0.25500000920E-02 0. -1.
        2   -1    0    0  501    0  0.00000000000E+00  0.00000000000E+00 -0.10259379485E+04  0.10259379485E+04  0.25500000920E-02 0.  1.
    10030    2    1    2    0    0  0.00000000000E+00  0.00000000000E+00 -0.61418283645E+03  0.14376930605E+04  0.12999002961E+04 0.  0.
        1    1    3    3  502    0  0.43396988356E+03 -0.46055218789E+03 -0.14305584826E+03  0.64877049359E+03  0.50400001928E-02 0. -1.
       -1    1    3    3    0  502 -0.43396988356E+03  0.46055218789E+03 -0.47112698819E+03  0.78892256695E+03  0.50400001928E-02 0.  1.
</event>
<event>
 5   0  0.6742824E-05  0.1300202E+04  0.7818609E-02  0.9029405E-01
       -2   -1    0    0    0  501  0.00000000000E+00  0.00000000000E+00  0.67698887240E+03  0.67698887240E+03  0.25500000920E-02 0.  1.
        2   -1    0    0  501    0  0.00000000000E+00  0.00000000000E+00 -0.62428126784E+03  0.62428126785E+03  0.25500000920E-02 0. -1.
    10030    2    1    2    0    0  0.00000000000E+00  0.00000000000E+00  0.52707604557E+02  0.13012701403E+04  0.13002022482E+04 0.  0.
        4    1    3    3  502    0  0.24866845339E+03 -0.40688157995E+03 -0.41587021858E+03  0.63272290255E+03  0.12699999809E+01 0. -1.
       -4    1    3    3    0  502 -0.24866845339E+03  0.40688157995E+03  0.46857782313E+03  0.66854723770E+03  0.12699999809E+01 0.  1.
</event>
<event>
 5   0  0.3552698E-05  0.1299509E+04  0.7818609E-02  0.9029955E-01
        1   -1    0    0  501    0  0.00000000000E+00  0.00000000000E+00  0.12514817198E+04  0.12514817198E+04  0.50400001928E-02 0.  1.
       -1   -1    0    0    0  501  0.00000000000E+00  0.00000000000E+00 -0.33734490318E+03  0.33734490322E+03  0.50400001928E-02 0. -1.
    10030    2    1    2    0    0  0.00000000000E+00  0.00000000000E+00  0.91413681663E+03  0.15888266230E+04  0.12995091068E+04 0.  0.
        5    1    3    3  502    0  0.40137587821E+03 -0.45389781390E+03  0.17024866308E+03  0.62939059284E+03  0.46999998093E+01 0.  1.
       -5    1    3    3    0  502 -0.40137587821E+03  0.45389781390E+03  0.74388815355E+03  0.95943603021E+03  0.46999998093E+01 0. -1.
</event>
<event>
 5   0  0.6671239E-05  0.1300177E+04  0.7818609E-02  0.9029425E-01
       -2   -1    0    0    0  501  0.00000000000E+00  0.00000000000E+00  0.21510405125E+03  0.21510405126E+03  0.25500000920E-02 0. -1.
        2   -1    0    0  501    0  0.00000000000E+00  0.00000000000E+00 -0.19646993995E+04  0.19646993995E+04  0.25500000920E-02 0.  1.
    10030    2    1    2    0    0  0.00000000000E+00  0.00000000000E+00 -0.17495953482E+04  0.21798034507E+04  0.13001766039E+04 0.  0.
        1    1    3    3  502    0  0.15746338453E+03  0.22017312991E+03  0.11612908422E+03  0.29454522374E+03  0.50400001928E-02 0. -1.
       -1    1    3    3    0  502 -0.15746338453E+03 -0.22017312991E+03 -0.18657244324E+04  0.18852582270E+04  0.50400001928E-02 0.  1.
</event>
<event>
 5   0  0.6458698E-05  0.1299939E+04  0.7818609E-02  0.9029614E-01
        2   -1    0    0  501    0  0.00000000000E+00  0.00000000000E+00  0.81544917489E+03  0.81544917490E+03  0.25500000920E-02 0. -1.
       -2   -1    0    0    0  501  0.00000000000E+00  0.00000000000E+00 -0.51807069162E+03  0.51807069163E+03  0.25500000920E-02 0.  1.
    10030    2    1    2    0    0  0.00000000000E+00  0.00000000000E+00  0.29737848327E+03  0.13335198665E+04  0.12999389494E+04 0.  0.
        3    1    3    3  502    0  0.66107384620E+02 -0.22090778098E+03  0.77207981849E+03  0.80577769287E+03  0.10100000352E+00 0. -1.
       -3    1    3    3    0  502 -0.66107384620E+02  0.22090778098E+03 -0.47470133522E+03  0.52774217366E+03  0.10100000352E+00 0.  1.
</event>
<event>
 5   0  0.3689707E-05  0.1299887E+04  0.7818609E-02  0.9029655E-01
       -1   -1    0    0    0  501  0.00000000000E+00  0.00000000000E+00  0.81060109087E+03  0.81060109089E+03  0.50400001928E-02 0.  1.
        1   -1    0    0  501    0  0.00000000000E+00  0.00000000000E+00 -0.52112728241E+03  0.52112728244E+03  0.50400001928E-02 0. -1.
    10030    2    1    2    0    0  0.00000000000E+00  0.00000000000E+00  0.28947380846E+03  0.13317283733E+04  0.12998866776E+04 0.  0.
        1    1    3    3  502    0  0.64197814772E+03 -0.38569884062E+02  0.24085822430E+03  0.68675779016E+03  0.50400001928E-02 0. -1.
       -1    1    3    3    0  502 -0.64197814772E+03  0.38569884062E+02  0.48615584162E+02  0.64497058317E+03  0.50400001928E-02 0.  1.
</event>
<event>
 5   0  0.3551277E-05  0.1300063E+04  0.7818609E-02  0.9029515E-01
       -1   -1    0    0    0  501  0.00000000000E+00  0.00000000000E+00  0.58213464248E+03  0.58213464251E+03  0.50400001928E-02 0. -1.
        1   -1    0    0  501    0  0.00000000000E+00  0.00000000000E+00 -0.72584785417E+03  0.72584785418E+03  0.50400001928E-02 0.  1.
    10030    2    1    2    0    0  0.00000000000E+00  0.00000000000E+00 -0.14371321168E+03  0.13079824967E+04  0.13000633540E+04 0.  0.
        4    1    3    3  502    0 -0.41915324629E+03 -0.34666905494E+03  0.28621961804E+03  0.61464799697E+03  0.12699999809E+01 0. -1.
       -4    1    3    3    0  502  0.41915324629E+03  0.34666905494E+03 -0.42993282972E+03  0.69333449972E+03  0.12699999809E+01 0.  1.
</event>
<event>
 5   0  0.3631841E-05  0.1299956E+04  0.7818609E-02  0.9029600E-01
       -1   -1    0    0    0  501  0.00000000000E+00  0.00000000000E+00  0.86722182651E+03  0.86722182652E+03  0.50400001928E-02 0.  1.
        1   -1    0    0  501    0  0.00000000000E+00  0.00000000000E+00 -0.48715522413E+03  0.48715522416E+03  0.50400001928E-02 0. -1.
    10030    2    1    2    0    0  0.00000000000E+00  0.00000000000E+00  0.38006660238E+03  0.13543770507E+04  0.12999563736E+04 0.  0.
        3    1    3    3  502    0 -0.24317397657E+03 -0.52136024127E+03 -0.12515674191E+03  0.58873958956E+03  0.10100000352E+00 0. -1.
       -3    1    3    3    0  502  0.24317397657E+03  0.52136024127E+03  0.50522334429E+03  0.76563746113E+03  0.10100000352E+00 0.  1.
</event>
<event>
 5   0  0.3552698E-05  0.1300129E+04  0.7818609E-02  0.9029463E-01
        1   -1    0    0  501    0  0.00000000000E+00  0.00000000000E+00  0.63642256898E+03  0.63642256900E+03  0.50400001928E-02 0. -1.
       -1   -1    0    0    0  501  0.00000000000E+00  0.00000000000E+00 -0.66399929589E+03  0.66399929591E+03  0.50400001928E-02 0.  1.
    10030    2    1    2    0    0  0.00000000000E+00  0.00000000000E+00 -0.27576726910E+02  0.13004218649E+04  0.13001294362E+04 0.  0.
        5    1    3    3  502    0 -0.37703223883E+03 -0.40177091402E+03  0.33123685863E+03  0.64289433268E+03  0.46999998093E+01 0. -1.
       -5    1    3    3    0  502  0.37703223883E+03  0.40177091402E+03 -0.35881358555E+03  0.65752753223E+03  0.46999998093E+01 0.  1.
</event>
<event>
 5   0  0.2512000E-05  0.1300175E+04  0.7818609E-02  0.9029426E-01
        3   -1    0    0  501    0  0.00000000000E+00  0.00000000000E+00  0.85694898812E+03  0.85694899407E+03  0.10100000352E+00 0.  1.
       -3   -1    0    0    0  501  0.00000000000E+00  0.00000000000E+00 -0.49316127253E+03  0.49316128287E+03  0.10100000352E+00 0. -1.
    10030    2    1    2    0    0  0.00000000000E+00  0.00000000000E+00  0.36378771560E+03  0.13501102769E+04  0.13001754720E+04 0.  0.
        3    1    3    3  502    0  0.34973424160E+03  0.54677203609E+03  0.21991080207E+03  0.68529881823E+03  0.10100000352E+00 0.  1.
       -3    1    3    3    0  502 -0.34973424160E+03 -0.54677203609E+03  0.14387691353E+03  0.66481145872E+03  0.10100000352E+00 0. -1.
</event>
<event>
 5   0  0.3631841E-05  0.1300167E+04  0.7818609E-02  0.9029433E-01
        1   -1    0    0  501    0  0.00000000000E+00  0.00000000000E+00  0.15364407866E+04  0.15364407866E+04  0.50400001928E-02 0. -1.
       -1   -1    0    0    0  501  0.00000000000E+00  0.00000000000E+00 -0.27505675640E+03  0.27505675645E+03  0.50400001928E-02 0.  1.
    10030    2    1    2    0    0  0.00000000000E+00  0.00000000000E+00  0.12613840302E+04  0.18114975430E+04  0.13001667881E+04 0.  0.
        3    1    3    3  502    0  0.13618527644E+02  0.95257114927E+02  0.15264633093E+04  0.15294932582E+04  0.10100000352E+00 0. -1.
       -3    1    3    3    0  502 -0.13618527644E+02 -0.95257114927E+02 -0.26507927909E+03  0.28200428480E+03  0.10100000352E+00 0.  1.
</event>
<event>
 5   0  0.6742824E-05  0.1299641E+04  0.7818609E-02  0.9029850E-01
       -2   -1    0    0    0  501  0.00000000000E+00  0.00000000000E+00  0.29347430154E+03  0.29347430156E+03  0.25500000920E-02 0. -1.
        2   -1    0    0  501    0  0.00000000000E+00  0.00000000000E+00 -0.14388549772E+04  0.14388549773E+04  0.25500000920E-02 0.  1.
    10030    2    1    2    0    0  0.00000000000E+00  0.00000000000E+00 -0.11453806757E+04  0.17323292788E+04  0.12996414267E+04 0.  0.
        4    1    3    3  502    0 -0.13422566653E+03  0.46100666642E+03 -0.11563269148E+04  0.12520532029E+04  0.12699999809E+01 0.  1.
       -4    1    3    3    0  502  0.13422566653E+03 -0.46100666642E+03  0.10946239122E+02  0.48027607591E+03  0.12699999809E+01 0. -1.
</event>
<event>
 5   0  0.6671239E-05  0.1299793E+04  0.7818609E-02  0.9029729E-01
       -2   -1    0    0    0  501  0.00000000000E+00  0.00000000000E+00  0.53143367877E+03  0.53143367877E+03  0.25500000920E-02 0.  1.
        2   -1    0    0  501    0  0.00000000000E+00  0.00000000000E+00 -0.79476656527E+03  0.79476656527E+03  0.25500000920E-02 0. -1.
    10030    2    1    2    0    0  0.00000000000E+00  0.00000000000E+00 -0.26333288650E+03  0.13262002440E+04  0.12997933983E+04 0.  0.
        1    1    3    3  502    0  0.14593108961E+03  0.44580478444E+03  0.32728072722E+03  0.57197068384E+03  0.50400001928E-02 0.  1.
       -1    1    3    3    0  502 -0.14593108961E+03 -0.44580478444E+03 -0.59061361372E+03  0.75422956020E+03  0.50400001928E-02 0. -1.
</event>
<event>
 5   0  0.3718559E-05  0.1297857E+04  0.7818609E-02  0.9031266E-01
       -1   -1    0    0    0  501  0.00000000000E+00  0.00000000000E+00  0.40366914303E+03  0.40366914306E+03  0.50400001928E-02 0.  1.
        1   -1    0    0  501    0  0.00000000000E+00  0.00000000000E+00 -0.10432009977E+04  0.10432009977E+04  0.50400001928E-02 0. -1.
    10030    2    1    2    0    0  0.00000000000E+00  0.00000000000E+00 -0.63953185468E+03  0.14468701408E+04  0.12978567760E+04 0.  0.
        2    1    3    3  502    0  0.18092042607E+03 -0.19068139947E+02  0.37465932992E+03  0.41649178627E+03  0.25500000920E-02 0.  1.
       -2    1    3    3    0  502 -0.18092042607E+03  0.19068139947E+02 -0.10141911846E+04  0.10303783545E+04  0.25500000920E-02 0. -1.
</event>
<event>
 5   0  0.6688086E-05  0.1300069E+04  0.7818609E-02  0.9029510E-01
       -2   -1    0    0    0  501  0.00000000000E+00  0.00000000000E+00  0.72127718430E+03  0.72127718431E+03  0.25500000920E-02 0.  1.
        2   -1    0    0  501    0  0.00000000000E+00  0.00000000000E+00 -0.58582886800E+03  0.58582886800E+03  0.25500000920E-02 0. -1.
    10030    2    1    2    0    0  0.00000000000E+00  0.00000000000E+00  0.13544831631E+03  0.13071060523E+04  0.13000692234E+04 0.  0.
        5    1    3    3  502    0 -0.18417797858E+03  0.53183707462E+02 -0.55674384451E+03  0.58884279136E+03  0.46999998093E+01 0. -1.
       -5    1    3    3    0  502  0.18417797858E+03 -0.53183707462E+02  0.69219216082E+03  0.71826326095E+03  0.46999998093E+01 0.  1.
</event>
<event>
 5   0  0.3718559E-05  0.1300073E+04  0.7818609E-02  0.9029507E-01
        1   -1    0    0  501    0  0.00000000000E+00  0.00000000000E+00  0.97424829738E+03  0.97424829739E+03  0.50400001928E-02 0. -1.
       -1   -1    0    0    0  501  0.00000000000E+00  0.00000000000E+00 -0.43371625301E+03  0.43371625304E+03  0.50400001928E-02 0.  1.
    10030    2    1    2    0    0  0.00000000000E+00  0.00000000000E+00  0.54053204436E+03  0.14079645504E+04  0.13000727996E+04 0.  0.
        2    1    3    3  502    0  0.37062463932E+03  0.37143074361E+02  0.84721065598E+03  0.92547724275E+03  0.25500000920E-02 0. -1.
       -2    1    3    3    0  502 -0.37062463932E+03 -0.37143074361E+02 -0.30667861161E+03  0.48248730768E+03  0.25500000920E-02 0.  1.
</event>
<event>
 5   0  0.6618060E-05  0.1297472E+04  0.7818609E-02  0.9031572E-01
       -2   -1    0    0    0  501  0.00000000000E+00  0.00000000000E+00  0.52204953785E+03  0.52204953786E+03  0.25500000920E-02 0. -1.
        2   -1    0    0  501    0  0.00000000000E+00  0.00000000000E+00 -0.80616565267E+03  0.80616565268E+03  0.25500000920E-02 0.  1.
    10030    2    1    2    0    0  0.00000000000E+00  0.00000000000E+00 -0.28411611482E+03  0.13282151905E+04  0.12974720134E+04 0.  0.
        2    1    3    3  502    0  0.41711362461E+03  0.29247803741E+03  0.26911974783E+03  0.57615329286E+03  0.25500000920E-02 0. -1.
       -2    1    3    3    0  502 -0.41711362461E+03 -0.29247803741E+03 -0.55323586265E+03  0.75206189767E+03  0.25500000920E-02 0.  1.
</event>
<event>
 5   0  0.6458698E-05  0.1299915E+04  0.7818609E-02  0.9029633E-01
        2   -1    0    0  501    0  0.00000000000E+00  0.00000000000E+00  0.13065931001E+04  0.13065931001E+04  0.25500000920E-02 0.  1.
       -2   -1    0    0    0  501  0.00000000000E+00  0.00000000000E+00 -0.32331769321E+03  0.32331769322E+03  0.25500000920E-02 0. -1.
    10030    2    1    2    0    0  0.00000000000E+00  0.00000000000E+00  0.98327540688E+03  0.16299107933E+04  0.12999148697E+04 0.  0.
        3    1    3    3  502    0  0.25029665566E+03  0.59199597387E+03  0.37047951002E+03  0.74186435853E+03  0.10100000352E+00 0. -1.
       -3    1    3    3    0  502 -0.25029665566E+03 -0.59199597387E+03  0.61279589686E+03  0.88804643478E+03  0.10100000352E+00 0.  1.
</event>
<event>
 5   0  0.2512000E-05  0.1300329E+04  0.7818609E-02  0.9029304E-01
       -3   -1    0    0    0  501  0.00000000000E+00  0.00000000000E+00  0.75414753972E+03  0.75414754648E+03  0.10100000352E+00 0. -1.
        3   -1    0    0  501    0  0.00000000000E+00  0.00000000000E+00 -0.56051867346E+03  0.56051868256E+03  0.10100000352E+00 0.  1.
    10030    2    1    2    0    0  0.00000000000E+00  0.00000000000E+00  0.19362886625E+03  0.13146662290E+04  0.13003288645E+04 0.  0.
        4    1    3    3  502    0  0.17895400056E+03  0.20548843002E+03 -0.50000108635E+03  0.56943193486E+03  0.12699999809E+01 0.  1.
       -4    1    3    3    0  502 -0.17895400056E+03 -0.20548843002E+03  0.69362995260E+03  0.74523429419E+03  0.12699999809E+01 0. -1.
</event>
<event>
 5   0  0.6671239E-05  0.1299790E+04  0.7818609E-02  0.9029731E-01
        2   -1    0    0  501    0  0.00000000000E+00  0.00000000000E+00  0.10044293163E+04  0.10044293163E+04  0.25500000920E-02 0.  1.
       -2   -1    0    0    0  501  0.00000000000E+00  0.00000000000E+00 -0.42050117667E+03  0.42050117667E+03  0.25500000920E-02 0. -1.
    10030    2    1    2    0    0  0.00000000000E+00  0.00000000000E+00  0.58392813965E+03  0.14249304930E+04  0.12997903052E+04 0.  0.
        1    1    3    3  502    0 -0.11701100197E+03  0.35447902821E+03  0.87517608049E+03  0.95146210009E+03  0.50400001928E-02 0.  1.
       -1    1    3    3    0  502  0.11701100197E+03 -0.35447902821E+03 -0.29124794083E+03  0.47346839291E+03  0.50400001928E-02 0. -1.
</event>
<event>
 5   0  0.6742824E-05  0.1298069E+04  0.7818609E-02  0.9031098E-01
        2   -1    0    0  501    0  0.00000000000E+00  0.00000000000E+00  0.17788063046E+04  0.17788063046E+04  0.25500000920E-02 0.  1.
       -2   -1    0    0    0  501  0.00000000000E+00  0.00000000000E+00 -0.23681386441E+03  0.23681386443E+03  0.25500000920E-02 0. -1.
    10030    2    1    2    0    0  0.00000000000E+00  0.00000000000E+00  0.15419924402E+04  0.20156201691E+04  0.12980693280E+04 0.  0.
        4    1    3    3  502    0 -0.34104508555E+03 -0.30382068427E+03  0.14870054281E+04  0.15555724074E+04  0.12699999809E+01 0.  1.
       -4    1    3    3    0  502  0.34104508555E+03  0.30382068427E+03  0.54987012077E+02  0.46004776162E+03  0.12699999809E+01 0. -1.
</event>
<event>
 5   0  0.3552698E-05  0.1300605E+04  0.7818609E-02  0.9029085E-01
        1   -1    0    0  501    0  0.00000000000E+00  0.00000000000E+00  0.16269074583E+04  0.16269074583E+04  0.50400001928E-02 0. -1.
       -1   -1    0    0    0  501  0.00000000000E+00  0.00000000000E+00 -0.25993696903E+03  0.25993696908E+03  0.50400001928E-02 0.  1.
    10030    2    1    2    0    0  0.00000000000E+00  0.00000000000E+00  0.13669704893E+04  0.18868444274E+04  0.13006050802E+04 0.  0.
        5    1    3    3  502    0  0.31335952363E+03  0.27403952137E+02 -0.14219832527E+03  0.34523560267E+03  0.46999998093E+01 0.  1.
       -5    1    3    3    0  502 -0.31335952363E+03 -0.27403952137E+02  0.15091688146E+04  0.15416088247E+04  0.46999998093E+01 0. -1.
</event>
<event>
 5   0  0.3551277E-05  0.1299991E+04  0.7818609E-02  0.9029572E-01
       -1   -1    0    0    0  501  0.00000000000E+00  0.00000000000E+00  0.40136739228E+03  0.40136739231E+03  0.50400001928E-02 0. -1.
        1   -1    0    0  501    0  0.00000000000E+00  0.00000000000E+00 -0.10526370723E+04  0.10526370723E+04  0.50400001928E-02 0.  1.
    10030    2    1    2    0    0  0.00000000000E+00  0.00000000000E+00 -0.65126968004E+03  0.14540044646E+04  0.12999910719E+04 0.  0.
        4    1    3    3  502    0  0.33608379160E+03 -0.36700645755E+03  0.14205063054E+03  0.51751912950E+03  0.12699999809E+01 0. -1.
       -4    1    3    3    0  502 -0.33608379160E+03  0.36700645755E+03 -0.79332031058E+03  0.93648533515E+03  0.12699999809E+01 0.  1.
</event>
<event>
 5   0  0.3552698E-05  0.1300046E+04  0.7818609E-02  0.9029528E-01
       -1   -1    0    0    0  501  0.00000000000E+00  0.00000000000E+00  0.39589455290E+03  0.39589455294E+03  0.50400001928E-02 0.  1.
        1   -1    0    0  501    0  0.00000000000E+00  0.00000000000E+00 -0.10672793835E+04  0.10672793835E+04  0.50400001928E-02 0. -1.
    10030    2    1    2    0    0  0.00000000000E+00  0.00000000000E+00 -0.67138483062E+03  0.14631739365E+04  0.13000462982E+04 0.  0.
        5    1    3    3  502    0 -0.60868642702E+03  0.16948749211E+03 -0.16395892280E+03  0.65278617845E+03  0.46999998093E+01 0. -1.
       -5    1    3    3    0  502  0.60868642702E+03 -0.16948749211E+03 -0.50742590783E+03  0.81038775802E+03  0.46999998093E+01 0.  1.
</event>
<event>
 5   0  0.6458698E-05  0.1300751E+04  0.7818609E-02  0.9028970E-01
        2   -1    0    0  501    0  0.00000000000E+00  0.00000000000E+00  0.80686712203E+03  0.80686712204E+03  0.25500000920E-02 0.  1.
       -2   -1    0    0    0  501  0.00000000000E+00  0.00000000000E+00 -0.52423502024E+03  0.52423502025E+03  0.25500000920E-02 0. -1.
    10030    2    1    2    0    0  0.00000000000E+00  0.00000000000E+00  0.28263210179E+03  0.13311021423E+04  0.13007505557E+04 0.  0.
        3    1    3    3  502    0 -0.18671332248E+03  0.40860535220E+03  0.62257443065E+03  0.76773636786E+03  0.10100000352E+00 0.  1.
       -3    1    3    3    0  502  0.18671332248E+03 -0.40860535220E+03 -0.33994232886E+03  0.56336577442E+03  0.10100000352E+00 0. -1.
</event>
<event>
 5   0  0.6618060E-05  0.1299581E+04  0.7818609E-02  0.9029898E-01
        2   -1    0    0  501    0  0.00000000000E+00  0.00000000000E+00  0.20860741194E+04  0.20860741194E+04  0.25500000920E-02 0.  1.
       -2   -1    0    0    0  501  0.00000000000E+00  0.00000000000E+00 -0.20240298849E+03  0.20240298851E+03  0.25500000920E-02 0. -1.
    10030    2    1    2    0    0  0.00000000000E+00  0.00000000000E+00  0.18836711309E+04  0.22884771079E+04  0.12995809109E+04 0.  0.
        2    1    3    3  502    0  0.59984169853E+03 -0.19047708989E+03  0.65715145178E+03  0.90991187247E+03  0.25500000920E-02 0.  1.
       -2    1    3    3    0  502 -0.59984169853E+03  0.19047708989E+03  0.12265196791E+04  0.13785652354E+04  0.25500000920E-02 0. -1.
</event>
<event>
 5   0  0.6688086E-05  0.1299122E+04  0.7818609E-02  0.9030262E-01
       -2   -1    0    0    0  501  0.00000000000E+00  0.00000000000E+00  0.29693748769E+03  0.29693748770E+03  0.25500000920E-02 0.  1.
        2   -1    0    0  501    0  0.00000000000E+00  0.00000000000E+00 -0.14209375274E+04  0.14209375274E+04  0.25500000920E-02 0. -1.
    10030    2    1    2    0    0  0.00000000000E+00  0.00000000000E+00 -0.11240000397E+04  0.17178750151E+04  0.12991221953E+04 0.  0.
        5    1    3    3  502    0 -0.93530164826E+01  0.93761251795E+02 -0.14118294552E+04  0.14149781454E+04  0.46999998093E+01 0. -1.
       -5    1    3    3    0  502  0.93530164826E+01 -0.93761251795E+02  0.28782941551E+03  0.30289686972E+03  0.46999998093E+01 0.  1.
</event>
<event>
 5   0  0.3551277E-05  0.1295153E+04  0.7818609E-02  0.9033418E-01
        1   -1    0    0  501    0  0.00000000000E+00  0.00000000000E+00  0.56953388954E+03  0.56953388956E+03  0.50400001928E-02 0. -1.
       -1   -1    0    0    0  501  0.00000000000E+00  0.00000000000E+00 -0.73631313981E+03  0.73631313983E+03  0.50400001928E-02 0.  1.
    10030    2    1    2    0    0  0.00000000000E+00  0.00000000000E+00 -0.16677925027E+03  0.13058470294E+04  0.12951529430E+04 0.  0.
        4    1    3    3  502    0 -0.85223164049E+02  0.58105477110E+03  0.19174824750E+03  0.61778364985E+03  0.12699999809E+01 0. -1.
       -4    1    3    3    0  502  0.85223164049E+02 -0.58105477110E+03 -0.35852749777E+03  0.68806337954E+03  0.12699999809E+01 0.  1.
</event>
<event>
 5   0  0.3689707E-05  0.1299951E+04  0.7818609E-02  0.9029604E-01
       -1   -1    0    0    0  501  0.00000000000E+00  0.00000000000E+00  0.23391344467E+03  0.23391344473E+03  0.50400001928E-02 0.  1.
        1   -1    0    0  501    0  0.00000000000E+00  0.00000000000E+00 -0.18060871203E+04  0.18060871204E+04  0.50400001928E-02 0. -1.
    10030    2    1    2    0    0  0.00000000000E+00  0.00000000000E+00 -0.15721736757E+04  0.20400005651E+04  0.12999508602E+04 0.  0.
        1    1    3    3  502    0  0.32873849976E+03  0.51332765336E+03 -0.11401132803E+04  0.12928389586E+04  0.50400001928E-02 0. -1.
       -1    1    3    3    0  502 -0.32873849976E+03 -0.51332765336E+03 -0.43206039538E+03  0.74716160649E+03  0.50400001928E-02 0.  1.
</event>
<event>
 5   0  0.6618060E-05  0.1299715E+04  0.7818609E-02  0.9029791E-01
       -2   -1    0    0    0  501  0.00000000000E+00  0.00000000000E+00  0.86041830521E+03  0.86041830521E+03  0.25500000920E-02 0. -1.
        2   -1    0    0  501    0  0.00000000000E+00  0.00000000000E+00 -0.49082521354E+03  0.49082521354E+03  0.25500000920E-02 0.  1.
    10030    2    1    2    0    0  0.00000000000E+00  0.00000000000E+00  0.36959309167E+03  0.13512435188E+04  0.12997153510E+04 0.  0.
        2    1    3    3  502    0 -0.35161274735E+03  0.26960404228E+03 -0.30944226031E+03  0.54043720837E+03  0.25500000920E-02 0.  1.
       -2    1    3    3    0  502  0.35161274735E+03 -0.26960404228E+03  0.67903535198E+03  0.81080631039E+03  0.25500000920E-02 0. -1.
</event>
<event>
 5   0  0.2512000E-05  0.1299898E+04  0.7818609E-02  0.9029646E-01
        3   -1    0    0  501    0  0.00000000000E+00  0.00000000000E+00  0.94862234653E+03  0.94862235190E+03  0.10100000352E+00 0. -1.
       -3   -1    0    0    0  501  0.00000000000E+00  0.00000000000E+00 -0.44531303873E+03  0.44531305018E+03  0.10100000352E+00 0.  1.
    10030    2    1    2    0    0  0.00000000000E+00  0.00000000000E+00  0.50330930780E+03  0.13939354021E+04  0.12998983214E+04 0.  0.
        2    1    3    3  502    0  0.39514804453E+03 -0.14947630779E+03  0.78129685234E+03  0.88820600942E+03  0.25500000920E-02 0. -1.
       -2    1    3    3    0  502 -0.39514804453E+03  0.14947630779E+03 -0.27798754454E+03  0.50572939267E+03  0.25500000920E-02 0.  1.
</event>
<event>
 5   0  0.3551277E-05  0.1300054E+04  0.7818609E-02  0.9029522E-01
        1   -1    0    0  501    0  0.00000000000E+00  0.00000000000E+00  0.73123693172E+03  0.73123693174E+03  0.50400001928E-02 0. -1.
       -1   -1    0    0    0  501  0.00000000000E+00  0.00000000000E+00 -0.57783634976E+03  0.57783634978E+03  0.50400001928E-02 0.  1.
    10030    2    1    2    0    0  0.00000000000E+00  0.00000000000E+00  0.15340058196E+03  0.13090732815E+04  0.13000542750E+04 0.  0.
        4    1    3    3  502    0 -0.54510792386E+02 -0.21632014491E+03  0.69148306589E+03  0.72657847125E+03  0.12699999809E+01 0. -1.
       -4    1    3    3    0  502  0.54510792386E+02  0.21632014491E+03 -0.53808248392E+03  0.58249481026E+03  0.12699999809E+01 0.  1.
</event>
<event>
 5   0  0.6742824E-05  0.1299114E+04  0.7818609E-02  0.9030268E-01
       -2   -1    0    0    0  501  0.00000000000E+00  0.00000000000E+00  0.74088558664E+03  0.74088558665E+03  0.25500000920E-02 0.  1.
        2   -1    0    0  501    0  0.00000000000E+00  0.00000000000E+00 -0.56948629747E+03  0.56948629747E+03  0.25500000920E-02 0. -1.
    10030    2    1    2    0    0  0.00000000000E+00  0.00000000000E+00  0.17139928917E+03  0.13103718841E+04  0.12991138358E+04 0.  0.
        4    1    3    3  502    0 -0.20838974089E+03  0.24842253775E+03  0.65341151248E+03  0.72944380106E+03  0.12699999809E+01 0.  1.
       -4    1    3    3    0  502  0.20838974089E+03 -0.24842253775E+03 -0.48201222330E+03  0.58092808306E+03  0.12699999809E+01 0. -1.
</event>
<event>
 5   0  0.3552698E-05  0.1298759E+04  0.7818609E-02  0.9030550E-01
        1   -1    0    0  501    0  0.00000000000E+00  0.00000000000E+00  0.64659321380E+03  0.64659321382E+03  0.50400001928E-02 0. -1.
       -1   -1    0    0    0  501  0.00000000000E+00  0.00000000000E+00 -0.65217817612E+03  0.65217817614E+03  0.50400001928E-02 0.  1.
    10030    2    1    2    0    0  0.00000000000E+00  0.00000000000E+00 -0.55849623120E+01  0.12987713900E+04  0.12987593817E+04 0.  0.
        5    1    3    3  502    0  0.52092718965E+03  0.35094427438E+03  0.16196605191E+03  0.64867720216E+03  0.46999998093E+01 0. -1.
       -5    1    3    3    0  502 -0.52092718965E+03 -0.35094427438E+03 -0.16755101422E+03  0.65009418779E+03  0.46999998093E+01 0.  1.
</event>
<event>
 5   0  0.6688086E-05  0.1299688E+04  0.7818609E-02  0.9029813E-01
       -2   -1    0    0    0  501  0.00000000000E+00  0.00000000000E+00  0.54734748348E+03  0.54734748348E+03  0.25500000920E-02 0.  1.
        2   -1    0    0  501    0  0.00000000000E+00  0.00000000000E+00 -0.77153398357E+03  0.77153398358E+03  0.25500000920E-02 0. -1.
    10030    2    1    2    0    0  0.00000000000E+00  0.00000000000E+00 -0.22418650010E+03  0.13188814671E+04  0.12996879384E+04 0.  0.
        5    1    3    3  502    0 -0.59936769730E+03 -0.93250928794E+02  0.12445372081E+03  0.61923193628E+03  0.46999998093E+01 0.  1.
       -5    1    3    3    0  502  0.59936769730E+03  0.93250928794E+02 -0.34864022091E+03  0.69964953078E+03  0.46999998093E+01 0. -1.
</event>
<event>
 5   0  0.6671239E-05  0.1299548E+04  0.7818609E-02  0.9029923E-01
       -2   -1    0    0    0  501  0.00000000000E+00  0.00000000000E+00  0.49690183658E+03  0.49690183658E+03  0.25500000920E-02 0.  1.
        2   -1    0    0  501    0  0.00000000000E+00  0.00000000000E+00 -0.84967793140E+03  0.84967793140E+03  0.25500000920E-02 0. -1.
    10030    2    1    2    0    0  0.00000000000E+00  0.00000000000E+00 -0.35277609482E+03  0.13465797680E+04  0.12995484210E+04 0.  0.
        1    1    3    3  502    0  0.38225497176E+03  0.46270562833E+02 -0.71872931610E+03  0.81537209804E+03  0.50400001928E-02 0. -1.
       -1    1    3    3    0  502 -0.38225497176E+03 -0.46270562833E+02  0.36595322128E+03  0.53120766994E+03  0.50400001928E-02 0.  1.
</event>
<event>
 5   0  0.3631841E-05  0.1299009E+04  0.7818609E-02  0.9030351E-01
       -1   -1    0    0    0  501  0.00000000000E+00  0.00000000000E+00  0.23279198386E+03  0.23279198392E+03  0.50400001928E-02 0. -1.
        1   -1    0    0  501    0  0.00000000000E+00  0.00000000000E+00 -0.18121599155E+04  0.18121599155E+04  0.50400001928E-02 0.  1.
    10030    2    1    2    0    0  0.00000000000E+00  0.00000000000E+00 -0.15793679316E+04  0.20449518994E+04  0.12990093177E+04 0.  0.
        3    1    3    3  502    0  0.62046748281E+02 -0.23633540783E+03 -0.17370467400E+04  0.17541481155E+04  0.10100000352E+00 0.  1.
       -3    1    3    3    0  502 -0.62046748281E+02  0.23633540783E+03  0.15767880833E+03  0.29080378396E+03  0.10100000352E+00 0. -1.
</event>
<event>
 5   0  0.2512000E-05  0.1299663E+04  0.7818609E-02  0.9029832E-01
       -3   -1    0    0    0  501  0.00000000000E+00  0.00000000000E+00  0.26199259762E+03  0.26199261709E+03  0.10100000352E+00 0. -1.
        3   -1    0    0  501    0  0.00000000000E+00  0.00000000000E+00 -0.16118060723E+04  0.16118060754E+04  0.10100000352E+00 0.  1.
    10030    2    1    2    0    0  0.00000000000E+00  0.00000000000E+00 -0.13498134746E+04  0.18737986925E+04  0.12996634656E+04 0.  0.
        5    1    3    3  502    0  0.42141218429E+03  0.78202838617E+02  0.29277882800E+02  0.42963146702E+03  0.46999998093E+01 0. -1.
       -5    1    3    3    0  502 -0.42141218429E+03 -0.78202838617E+02 -0.13790913574E+04  0.14441672255E+04  0.46999998093E+01 0.  1.
</event>
<event>
 5   0  0.3718559E-05  0.1299867E+04  0.7818609E-02  0.9029671E-01
       -1   -1    0    0    0  501  0.00000000000E+00  0.00000000000E+00  0.46765596019E+03  0.46765596022E+03  0.50400001928E-02 0. -1.
        1   -1    0    0  501    0  0.00000000000E+00  0.00000000000E+00 -0.90325650848E+03  0.90325650849E+03  0.50400001928E-02 0.  1.
    10030    2    1    2    0    0  0.00000000000E+00  0.00000000000E+00 -0.43560054829E+03  0.13709124687E+04  0.12998665928E+04 0.  0.
        2    1    3    3  502    0 -0.58970968596E+03 -0.26415264851E+03 -0.14413153732E+03  0.66204836340E+03  0.25500000920E-02 0. -1.
       -2    1    3    3    0  502  0.58970968596E+03  0.26415264851E+03 -0.29146901097E+03  0.70886410531E+03  0.25500000920E-02 0.  1.
</event>
<event>
 5   0  0.3551277E-05  0.1299766E+04  0.7818609E-02  0.9029751E-01
       -1   -1    0    0    0  501  0.00000000000E+00  0.00000000000E+00  0.16296932067E+04  0.16296932067E+04  0.50400001928E-02 0.  1.
        1   -1    0    0  501    0  0.00000000000E+00  0.00000000000E+00 -0.25915774221E+03  0.25915774226E+03  0.50400001928E-02 0. -1.
    10030    2    1    2    0    0  0.00000000000E+00  0.00000000000E+00  0.13705354645E+04  0.18888509489E+04  0.12997655358E+04 0.  0.
        4    1    3    3  502    0  0.96634515218E+02 -0.23730040641E+03  0.15531922676E+04  0.15741847241E+04  0.12699999809E+01 0.  1.
       -4    1    3    3    0  502 -0.96634515218E+02  0.23730040641E+03 -0.18265680318E+03  0.31466622485E+03  0.12699999809E+01 0. -1.
</event>
<event>
 5   0  0.3551277E-05  0.1301257E+04  0.7818609E-02  0.9028569E-01
        1   -1    0    0  501    0  0.00000000000E+00  0.00000000000E+00  0.93288039574E+03  0.93288039575E+03  0.50400001928E-02 0.  1.
       -1   -1    0    0    0  501  0.00000000000E+00  0.00000000000E+00 -0.45377481025E+03  0.45377481028E+03  0.50400001928E-02 0. -1.
    10030    2    1    2    0    0  0.00000000000E+00  0.00000000000E+00  0.47910558549E+03  0.13866552060E+04  0.13012572760E+04 0.  0.
        4    1    3    3  502    0  0.12497485894E+03 -0.49203375299E+03 -0.19409345181E+03  0.54349775563E+03  0.12699999809E+01 0. -1.
       -4    1    3    3    0  502 -0.12497485894E+03  0.49203375299E+03  0.67319903729E+03  0.84315745039E+03  0.12699999809E+01 0.  1.
</event>
<event>
 5   0  0.3689707E-05  0.1299844E+04  0.7818609E-02  0.9029689E-01
       -1   -1    0    0    0  501  0.00000000000E+00  0.00000000000E+00  0.47284149747E+03  0.47284149749E+03  0.50400001928E-02 0. -1.
        1   -1    0    0  501    0  0.00000000000E+00  0.00000000000E+00 -0.89332011722E+03  0.89332011724E+03  0.50400001928E-02 0.  1.
    10030    2    1    2    0    0  0.00000000000E+00  0.00000000000E+00 -0.42047861975E+03  0.13661616147E+04  0.12998443322E+04 0.  0.
        1    1    3    3  502    0  0.16175908105E+03 -0.56993071671E+03  0.70624461569E+02  0.59663626839E+03  0.50400001928E-02 0. -1.
       -1    1    3    3    0  502 -0.16175908105E+03  0.56993071671E+03 -0.49110308132E+03  0.76952534634E+03  0.50400001928E-02 0.  1.
</event>
<event>
 5   0  0.6688086E-05  0.1300840E+04  0.7818609E-02  0.9028900E-01
        2   -1    0    0  501    0  0.00000000000E+00  0.00000000000E+00  0.63443871763E+03  0.63443871764E+03  0.25500000920E-02 0. -1.
       -2   -1    0    0    0  501  0.00000000000E+00  0.00000000000E+00 -0.66680347684E+03  0.66680347684E+03  0.25500000920E-02 0.  1.
    10030    2    1    2    0    0  0.00000000000E+00  0.00000000000E+00 -0.32364759203E+02  0.13012421945E+04  0.13008396408E+04 0.  0.
        5    1    3    3  502    0  0.52283532752E+03 -0.33375646472E+03 -0.21187956175E+03  0.65548851716E+03  0.46999998093E+01 0.  1.
       -5    1    3    3    0  502 -0.52283532752E+03  0.33375646472E+03  0.17951480255E+03  0.64575367732E+03  0.46999998093E+01 0. -1.
</event>
<event>
 5   0  0.6618060E-05  0.1299924E+04  0.7818609E-02  0.9029625E-01
       -2   -1    0    0    0  501  0.00000000000E+00  0.00000000000E+00  0.28130282294E+03  0.28130282296E+03  0.25500000920E-02 0.  1.
        2   -1    0    0  501    0  0.00000000000E+00  0.00000000000E+00 -0.15017647696E+04  0.15017647696E+04  0.25500000920E-02 0. -1.
    10030    2    1    2    0    0  0.00000000000E+00  0.00000000000E+00 -0.12204619466E+04  0.17830675925E+04  0.12999241041E+04 0.  0.
        2    1    3    3  502    0 -0.32467865008E+03  0.50054176110E+02 -0.13795034116E+04  0.14180801490E+04  0.25500000920E-02 0. -1.
       -2    1    3    3    0  502  0.32467865008E+03 -0.50054176110E+02  0.15904146496E+03  0.36498744354E+03  0.25500000920E-02 0.  1.
</event>
<event>
 5   0  0.3718559E-05  0.1299873E+04  0.7818609E-02  0.9029666E-01
        1   -1    0    0  501    0  0.00000000000E+00  0.00000000000E+00  0.89729740509E+03  0.89729740510E+03  0.50400001928E-02 0.  1.
       -1   -1    0    0    0  501  0.00000000000E+00  0.00000000000E+00 -0.47076608882E+03  0.47076608885E+03  0.50400001928E-02 0. -1.
    10030    2    1    2    0    0  0.00000000000E+00  0.00000000000E+00  0.42653131626E+03  0.13680634940E+04  0.12998725937E+04 0.  0.
        2    1    3    3  502    0 -0.29428464743E+03  0.26815671836E+03 -0.32740133932E+03  0.51546398159E+03  0.25500000920E-02 0. -1.
       -2    1    3    3    0  502  0.29428464743E+03 -0.26815671836E+03  0.75393265559E+03  0.85259951236E+03  0.25500000920E-02 0.  1.
</event>
<event>
 5   0  0.3689707E-05  0.1300694E+04  0.7818609E-02  0.9029015E-01
        1   -1    0    0  501    0  0.00000000000E+00  0.00000000000E+00  0.15016741952E+04  0.15016741952E+04  0.50400001928E-02 0. -1.
       -1   -1    0    0    0  501  0.00000000000E+00  0.00000000000E+00 -0.28165332464E+03  0.28165332469E+03  0.50400001928E-02 0.  1.
    10030    2    1    2    0    0  0.00000000000E+00  0.00000000000E+00  0.12200208706E+04  0.17833275199E+04  0.13006944755E+04 0.  0.
        1    1    3    3  502    0  0.96336818741E+02  0.61594357634E+03  0.35614522355E+03  0.71798794709E+03  0.50400001928E-02 0.  1.
       -1    1    3    3    0  502 -0.96336818741E+02 -0.61594357634E+03  0.86387564703E+03  0.10653395728E+04  0.50400001928E-02 0. -1.
</event>
<event>
 5   0  0.3631841E-05  0.1300077E+04  0.7818609E-02  0.9029504E-01
       -1   -1    0    0    0  501  0.00000000000E+00  0.00000000000E+00  0.81397222800E+03  0.81397222802E+03  0.50400001928E-02 0.  1.
        1   -1    0    0  501    0  0.00000000000E+00  0.00000000000E+00 -0.51912134108E+03  0.51912134110E+03  0.50400001928E-02 0. -1.
    10030    2    1    2    0    0  0.00000000000E+00  0.00000000000E+00  0.29485088692E+03  0.13330935691E+04  0.13000774664E+04 0.  0.
        3    1    3    3  502    0 -0.29136641393E+03  0.45411624883E+03  0.51917110525E+03  0.74876872353E+03  0.10100000352E+00 0.  1.
       -3    1    3    3    0  502  0.29136641393E+03 -0.45411624883E+03 -0.22432021833E+03  0.58432484559E+03  0.10100000352E+00 0. -1.
</event>
<event>
 5   0  0.3689707E-05  0.1298026E+04  0.7818609E-02  0.9031132E-01
       -1   -1    0    0    0  501  0.00000000000E+00  0.00000000000E+00  0.36272472000E+03  0.36272472004E+03  0.50400001928E-02 0.  1.
        1   -1    0    0  501    0  0.00000000000E+00  0.00000000000E+00 -0.11612607857E+04  0.11612607857E+04  0.50400001928E-02 0. -1.
    10030    2    1    2    0    0  0.00000000000E+00  0.00000000000E+00 -0.79853606573E+03  0.15239855058E+04  0.12980261837E+04 0.  0.
        1    1    3    3  502    0  0.35254660771E+03  0.14691800173E+03 -0.10153452932E+04  0.10848041640E+04  0.50400001928E-02 0. -1.
       -1    1    3    3    0  502 -0.35254660771E+03 -0.14691800173E+03  0.21680922744E+03  0.43918134178E+03  0.50400001928E-02 0.  1.
</event>
<event>
 5   0  0.3551277E-05  0.1303378E+04  0.7818609E-02  0.9026890E-01
        1   -1    0    0  501    0  0.00000000000E+00  0.00000000000E+00  0.61552509478E+03  0.61552509480E+03  0.50400001928E-02 0. -1.
       -1   -1    0    0    0  501  0.00000000000E+00  0.00000000000E+00 -0.68997798449E+03  0.68997798451E+03  0.50400001928E-02 0.  1.
    10030    2    1    2    0    0  0.00000000000E+00  0.00000000000E+00 -0.74452889706E+02  0.13055030793E+04  0.13033783247E+04 0.  0.
        4    1    3    3  502    0  0.34368733103E+03 -0.24308637333E+03  0.46106336898E+03  0.62433405283E+03  0.12699999809E+01 0. -1.
       -4    1    3    3    0  502 -0.34368733103E+03  0.24308637333E+03 -0.53551625869E+03  0.68116902648E+03  0.12699999809E+01 0.  1.
</event>
<event>
 5   0  0.3551277E-05  0.1307363E+04  0.7818609E-02  0.9023747E-01
        1   -1    0    0  501    0  0.00000000000E+00  0.00000000000E+00  0.40319949166E+03  0.40319949169E+03  0.50400001928E-02 0. -1.
       -1   -1    0    0    0  501  0.00000000000E+00  0.00000000000E+00 -0.10597712872E+04  0.10597712873E+04  0.50400001928E-02 0.  1.
    10030    2    1    2    0    0  0.00000000000E+00  0.00000000000E+00 -0.65657179559E+03  0.14629707789E+04  0.13073626036E+04 0.  0.
        4    1    3    3  502    0  0.16200797628E+03 -0.80761059978E+01 -0.10368907194E+04  0.10495026368E+04  0.12699999809E+01 0.  1.
       -4    1    3    3    0  502 -0.16200797628E+03  0.80761059978E+01  0.38031892378E+03  0.41346814213E+03  0.12699999809E+01 0. -1.
</event>
<event>
 5   0  0.3631841E-05  0.1299301E+04  0.7818609E-02  0.9030120E-01
       -1   -1    0    0    0  501  0.00000000000E+00  0.00000000000E+00  0.20156968551E+03  0.20156968557E+03  0.50400001928E-02 0.  1.
        1   -1    0    0  501    0  0.00000000000E+00  0.00000000000E+00 -0.20937964202E+04  0.20937964202E+04  0.50400001928E-02 0. -1.
    10030    2    1    2    0    0  0.00000000000E+00  0.00000000000E+00 -0.18922267347E+04  0.22953661058E+04  0.12993011753E+04 0.  0.
        3    1    3    3  502    0 -0.18291155486E+03 -0.11694096342E+03 -0.20278162601E+04  0.20394044770E+04  0.10100000352E+00 0. -1.
       -3    1    3    3    0  502  0.18291155486E+03  0.11694096342E+03  0.13558952539E+03  0.25596162881E+03  0.10100000352E+00 0.  1.
</event>
<event>
 5   0  0.6618060E-05  0.1299748E+04  0.7818609E-02  0.9029765E-01
       -2   -1    0    0    0  501  0.00000000000E+00  0.00000000000E+00  0.24691892710E+03  0.24691892711E+03  0.25500000920E-02 0. -1.
        2   -1    0    0  501    0  0.00000000000E+00  0.00000000000E+00 -0.17104236706E+04  0.17104236706E+04  0.25500000920E-02 0.  1.
    10030    2    1    2    0    0  0.00000000000E+00  0.00000000000E+00 -0.14635047435E+04  0.19573425977E+04  0.12997476334E+04 0.  0.
        2    1    3    3  502    0  0.21882612354E+03 -0.41842960411E+03 -0.59340627965E+02  0.47590914686E+03  0.25500000920E-02 0. -1.
       -2    1    3    3    0  502 -0.21882612354E+03  0.41842960411E+03 -0.14041641155E+04  0.14814334508E+04  0.25500000920E-02 0.  1.
</event>
<event>
 5   0  0.3552698E-05  0.1301002E+04  0.7818609E-02  0.9028771E-01
       -1   -1    0    0    0  501  0.00000000000E+00  0.00000000000E+00  0.38692908942E+03  0.38692908946E+03  0.50400001928E-02 0.  1.
        1   -1    0    0  501    0  0.00000000000E+00  0.00000000000E+00 -0.10936148860E+04  0.10936148860E+04  0.50400001928E-02 0. -1.
    10030    2    1    2    0    0  0.00000000000E+00  0.00000000000E+00 -0.70668579654E+03  0.14805439754E+04  0.13010017864E+04 0.  0.
        5    1    3    3  502    0 -0.64614079599E+03  0.19252803743E+02 -0.27080257792E+03  0.70087425756E+03  0.46999998093E+01 0.  1.
       -5    1    3    3    0  502  0.64614079599E+03 -0.19252803743E+02 -0.43588321862E+03  0.77966971787E+03  0.46999998093E+01 0. -1.
</event>
<event>
 5   0  0.6671239E-05  0.1299834E+04  0.7818609E-02  0.9029697E-01
        2   -1    0    0  501    0  0.00000000000E+00  0.00000000000E+00  0.79136978268E+03  0.79136978269E+03  0.25500000920E-02 0.  1.
       -2   -1    0    0    0  501  0.00000000000E+00  0.00000000000E+00 -0.53374791219E+03  0.53374791219E+03  0.25500000920E-02 0. -1.
    10030    2    1    2    0    0  0.00000000000E+00  0.00000000000E+00  0.25762187050E+03  0.13251176949E+04  0.12998337883E+04 0.  0.
        1    1    3    3  502    0  0.26554906425E+03 -0.33175440240E+03 -0.37250090570E+03  0.56509664113E+03  0.50400001928E-02 0. -1.
       -1    1    3    3    0  502 -0.26554906425E+03  0.33175440240E+03  0.63012277620E+03  0.76002105375E+03  0.50400001928E-02 0.  1.
</event>
<event>
 5   0  0.3631841E-05  0.1299309E+04  0.7818609E-02  0.9030114E-01
        1   -1    0    0  501    0  0.00000000000E+00  0.00000000000E+00  0.92503826206E+03  0.92503826207E+03  0.50400001928E-02 0. -1.
       -1   -1    0    0    0  501  0.00000000000E+00  0.00000000000E+00 -0.45625219818E+03  0.45625219821E+03  0.50400001928E-02 0.  1.
    10030    2    1    2    0    0  0.00000000000E+00  0.00000000000E+00  0.46878606388E+03  0.13812904603E+04  0.12993086477E+04 0.  0.
        3    1    3    3  502    0  0.59898807132E+02  0.60347832396E+03  0.48206662453E+03  0.77470135876E+03  0.10100000352E+00 0.  1.
       -3    1    3    3    0  502 -0.59898807132E+02 -0.60347832396E+03 -0.13280560648E+02  0.60658910152E+03  0.10100000352E+00 0. -1.
</event>
<event>
 5   0  0.6671239E-05  0.1301396E+04  0.7818609E-02  0.9028459E-01
       -2   -1    0    0    0  501  0.00000000000E+00  0.00000000000E+00  0.15761244074E+03  0.15761244076E+03  0.25500000920E-02 0. -1.
        2   -1    0    0  501    0  0.00000000000E+00  0.00000000000E+00 -0.26863862074E+04  0.26863862074E+04  0.25500000920E-02 0.  1.
    10030    2    1    2    0    0  0.00000000000E+00  0.00000000000E+00 -0.25287737667E+04  0.28439986482E+04  0.13013959996E+04 0.  0.
        1    1    3    3  502    0  0.30406951749E+03 -0.29739352576E+03 -0.18821461956E+03  0.46510850742E+03  0.50400001928E-02 0. -1.
       -1    1    3    3    0  502 -0.30406951749E+03  0.29739352576E+03 -0.23405591471E+04  0.23788901408E+04  0.50400001928E-02 0.  1.
</event>
<event>
 5   0  0.3689707E-05  0.1300424E+04  0.7818609E-02  0.9029229E-01
       -1   -1    0    0    0  501  0.00000000000E+00  0.00000000000E+00  0.69734903528E+03  0.69734903530E+03  0.50400001928E-02 0.  1.
        1   -1    0    0  501    0  0.00000000000E+00  0.00000000000E+00 -0.60626101086E+03  0.60626101088E+03  0.50400001928E-02 0. -1.
    10030    2    1    2    0    0  0.00000000000E+00  0.00000000000E+00  0.91088024428E+02  0.13036100462E+04  0.13004238249E+04 0.  0.
        1    1    3    3  502    0 -0.39120769757E+03 -0.49637984726E+03  0.19868977281E+03  0.66250588016E+03  0.50400001928E-02 0.  1.
       -1    1    3    3    0  502  0.39120769757E+03  0.49637984726E+03 -0.10760174838E+03  0.64110416602E+03  0.50400001928E-02 0. -1.
</event>
<event>
 5   0  0.6688086E-05  0.1297548E+04  0.7818609E-02  0.9031512E-01
        2   -1    0    0  501    0  0.00000000000E+00  0.00000000000E+00  0.63144239608E+03  0.63144239609E+03  0.25500000920E-02 0. -1.
       -2   -1    0    0    0  501  0.00000000000E+00  0.00000000000E+00 -0.66658150578E+03  0.66658150579E+03  0.25500000920E-02 0.  1.
    10030    2    1    2    0    0  0.00000000000E+00  0.00000000000E+00 -0.35139109704E+02  0.12980239019E+04  0.12975481852E+04 0.  0.
        5    1    3    3  502    0 -0.61911922553E+02  0.43279978646E+03  0.46191504190E+03  0.63603171088E+03  0.46999998093E+01 0. -1.
       -5    1    3    3    0  502  0.61911922553E+02 -0.43279978646E+03 -0.49705415161E+03  0.66199219100E+03  0.46999998093E+01 0.  1.
</event>
<event>
 5   0  0.3718559E-05  0.1299805E+04  0.7818609E-02  0.9029720E-01
       -1   -1    0    0    0  501  0.00000000000E+00  0.00000000000E+00  0.26487522094E+03  0.26487522099E+03  0.50400001928E-02 0.  1.
        1   -1    0    0  501    0  0.00000000000E+00  0.00000000000E+00 -0.15946110502E+04  0.15946110502E+04  0.50400001928E-02 0. -1.
    10030    2    1    2    0    0  0.00000000000E+00  0.00000000000E+00 -0.13297358293E+04  0.18594862712E+04  0.12998045304E+04 0.  0.
        2    1    3    3  502    0  0.52131487797E+03 -0.16429982283E+03 -0.11678361282E+04  0.12894203566E+04  0.25500000920E-02 0. -1.
       -2    1    3    3    0  502 -0.52131487797E+03  0.16429982283E+03 -0.16189970109E+03  0.57006591460E+03  0.25500000920E-02 0.  1.
</event>
<event>
 5   0  0.6458698E-05  0.1297994E+04  0.7818609E-02  0.9031157E-01
        2   -1    0    0  501    0  0.00000000000E+00  0.00000000000E+00  0.13000086869E+04  0.13000086869E+04  0.25500000920E-02 0. -1.
       -2   -1    0    0    0  501  0.00000000000E+00  0.00000000000E+00 -0.32399582416E+03  0.32399582417E+03  0.25500000920E-02 0.  1.
    10030    2    1    2    0    0  0.00000000000E+00  0.00000000000E+00  0.97601286273E+03  0.16240045111E+04  0.12979944313E+04 0.  0.
        3    1    3    3  502    0 -0.41477179205E+03 -0.47602567257E+03  0.30007630009E+03  0.69905784918E+03  0.10100000352E+00 0.  1.
       -3    1    3    3    0  502  0.41477179205E+03  0.47602567257E+03  0.67593656264E+03  0.92494666189E+03  0.10100000352E+00 0. -1.
</event>
<event>
 5   0  0.6618060E-05  0.1301856E+04  0.7818609E-02  0.9028094E-01
       -2   -1    0    0    0  501  0.00000000000E+00  0.00000000000E+00  0.24277888611E+03  0.24277888612E+03  0.25500000920E-02 0.  1.
        2   -1    0    0  501    0  0.00000000000E+00  0.00000000000E+00 -0.17452400437E+04  0.17452400437E+04  0.25500000920E-02 0. -1.
    10030    2    1    2    0    0  0.00000000000E+00  0.00000000000E+00 -0.15024611576E+04  0.19880189298E+04  0.13018562652E+04 0.  0.
        2    1    3    3  502    0 -0.43647888847E+03 -0.17428133145E+03 -0.14389518738E+04  0.15137603171E+04  0.25500000920E-02 0. -1.
       -2    1    3    3    0  502  0.43647888847E+03  0.17428133145E+03 -0.63509283774E+02  0.47425861268E+03  0.25500000920E-02 0.  1.
</event>
<event>
 5   0  0.3718559E-05  0.1299522E+04  0.7818609E-02  0.9029945E-01
        1   -1    0    0  501    0  0.00000000000E+00  0.00000000000E+00  0.11540802802E+04  0.11540802802E+04  0.50400001928E-02 0.  1.
       -1   -1    0    0    0  501  0.00000000000E+00  0.00000000000E+00 -0.36582300623E+03  0.36582300627E+03  0.50400001928E-02 0. -1.
    10030    2    1    2    0    0  0.00000000000E+00  0.00000000000E+00  0.78825727393E+03  0.15199032864E+04  0.12995216313E+04 0.  0.
        2    1    3    3  502    0 -0.25415052311E+03 -0.39750548714E+03  0.91664211403E+03  0.10309393124E+04  0.25500000920E-02 0.  1.
       -2    1    3    3    0  502  0.25415052311E+03  0.39750548714E+03 -0.12838484010E+03  0.48896397401E+03  0.25500000920E-02 0. -1.
</event>
<event>
 5   0  0.6688086E-05  0.1300357E+04  0.7818609E-02  0.9029282E-01
        2   -1    0    0  501    0  0.00000000000E+00  0.00000000000E+00  0.16317193301E+04  0.16317193301E+04  0.25500000920E-02 0.  1.
       -2   -1    0    0    0  501  0.00000000000E+00  0.00000000000E+00 -0.25907169764E+03  0.25907169766E+03  0.25500000920E-02 0. -1.
    10030    2    1    2    0    0  0.00000000000E+00  0.00000000000E+00  0.13726476325E+04  0.18907910278E+04  0.13003573308E+04 0.  0.
        5    1    3    3  502    0 -0.62448896382E+03 -0.10751021149E+03  0.47478357760E+03  0.79182475780E+03  0.46999998093E+01 0.  1.
       -5    1    3    3    0  502  0.62448896382E+03  0.10751021149E+03  0.89786405490E+03  0.10989662700E+04  0.46999998093E+01 0. -1.
</event>
<event>
 5   0  0.6688086E-05  0.1300360E+04  0.7818609E-02  0.9029280E-01
        2   -1    0    0  501    0  0.00000000000E+00  0.00000000000E+00  0.82451016777E+03  0.82451016777E+03  0.25500000920E-02 0.  1.
       -2   -1    0    0    0  501  0.00000000000E+00  0.00000000000E+00 -0.51270896510E+03  0.51270896510E+03  0.25500000920E-02 0. -1.
    10030    2    1    2    0    0  0.00000000000E+00  0.00000000000E+00  0.31180120267E+03  0.13372191329E+04  0.13003595731E+04 0.  0.
        5    1    3    3  502    0  0.10232396441E+03 -0.62277537899E+03 -0.47067741693E+01  0.63116052641E+03  0.46999998093E+01 0. -1.
       -5    1    3    3    0  502 -0.10232396441E+03  0.62277537899E+03  0.31650797684E+03  0.70605860647E+03  0.46999998093E+01 0.  1.
</event>
<event>
 5   0  0.6458698E-05  0.1293957E+04  0.7818609E-02  0.9034371E-01
        2   -1    0    0  501    0  0.00000000000E+00  0.00000000000E+00  0.63782788590E+03  0.63782788590E+03  0.25500000920E-02 0.  1.
       -2   -1    0    0    0  501  0.00000000000E+00  0.00000000000E+00 -0.65626071509E+03  0.65626071509E+03  0.25500000920E-02 0. -1.
    10030    2    1    2    0    0  0.00000000000E+00  0.00000000000E+00 -0.18432829190E+02  0.12940886010E+04  0.12939573169E+04 0.  0.
        3    1    3    3  502    0 -0.49572668835E+03 -0.78607453560E+02  0.39906181480E+03  0.64122883867E+03  0.10100000352E+00 0.  1.
       -3    1    3    3    0  502  0.49572668835E+03  0.78607453560E+02 -0.41749464399E+03  0.65285976233E+03  0.10100000352E+00 0. -1.
</event>
<event>
 5   0  0.6671239E-05  0.1299802E+04  0.7818609E-02  0.9029722E-01
        2   -1    0    0  501    0  0.00000000000E+00  0.00000000000E+00  0.90866003280E+03  0.90866003281E+03  0.25500000920E-02 0.  1.
       -2   -1    0    0    0  501  0.00000000000E+00  0.00000000000E+00 -0.46482853675E+03  0.46482853675E+03  0.25500000920E-02 0. -1.
    10030    2    1    2    0    0  0.00000000000E+00  0.00000000000E+00  0.44383149606E+03  0.13734885696E+04  0.12998016979E+04 0.  0.
        1    1    3    3  502    0  0.16868972360E+03 -0.39298319935E+02  0.88382147934E+03  0.90063365924E+03  0.50400001928E-02 0.  1.
       -1    1    3    3    0  502 -0.16868972360E+03  0.39298319935E+02 -0.43998998328E+03  0.47285491032E+03  0.50400001928E-02 0. -1.
</event>
<event>
 5   0  0.3552698E-05  0.1299947E+04  0.7818609E-02  0.9029607E-01
       -1   -1    0    0    0  501  0.00000000000E+00  0.00000000000E+00  0.94234252291E+03  0.94234252292E+03  0.50400001928E-02 0. -1.
        1   -1    0    0  501    0  0.00000000000E+00  0.00000000000E+00 -0.44831435161E+03  0.44831435164E+03  0.50400001928E-02 0.  1.
    10030    2    1    2    0    0  0.00000000000E+00  0.00000000000E+00  0.49402817130E+03  0.13906568746E+04  0.12999471946E+04 0.  0.
        5    1    3    3  502    0  0.61364528015E+03 -0.39621557320E+01  0.17902979793E+02  0.61393715901E+03  0.46999998093E+01 0.  1.
       -5    1    3    3    0  502 -0.61364528015E+03  0.39621557320E+01  0.47612519151E+03  0.77671971555E+03  0.46999998093E+01 0. -1.
</event>
<event>
 5   0  0.3689707E-05  0.1300004E+04  0.7818609E-02  0.9029562E-01
        1   -1    0    0  501    0  0.00000000000E+00  0.00000000000E+00  0.31625976980E+03  0.31625976984E+03  0.50400001928E-02 0.  1.
       -1   -1    0    0    0  501  0.00000000000E+00  0.00000000000E+00 -0.13359361006E+04  0.13359361006E+04  0.50400001928E-02 0. -1.
    10030    2    1    2    0    0  0.00000000000E+00  0.00000000000E+00 -0.10196763308E+04  0.16521958705E+04  0.13000043749E+04 0.  0.
        1    1    3    3  502    0  0.38739175111E+03 -0.40006456771E+03 -0.93588657215E+03  0.10890398079E+04  0.50400001928E-02 0. -1.
       -1    1    3    3    0  502 -0.38739175111E+03  0.40006456771E+03 -0.83789758662E+02  0.56315606260E+03  0.50400001928E-02 0.  1.
</event>
<event>
 5   0  0.2512000E-05  0.1296912E+04  0.7818609E-02  0.9032017E-01
        3   -1    0    0  501    0  0.00000000000E+00  0.00000000000E+00  0.63265966546E+03  0.63265967352E+03  0.10100000352E+00 0. -1.
       -3   -1    0    0    0  501  0.00000000000E+00  0.00000000000E+00 -0.66464709295E+03  0.66464710062E+03  0.10100000352E+00 0.  1.
    10030    2    1    2    0    0  0.00000000000E+00  0.00000000000E+00 -0.31987427487E+02  0.12973067741E+04  0.12969123605E+04 0.  0.
        1    1    3    3  502    0 -0.19719507423E+03 -0.38529507482E+03 -0.49900412937E+03  0.66056287599E+03  0.50400001928E-02 0.  1.
       -1    1    3    3    0  502  0.19719507423E+03  0.38529507482E+03  0.46701670188E+03  0.63674389816E+03  0.50400001928E-02 0. -1.
</event>
<event>
 5   0  0.6618060E-05  0.1298940E+04  0.7818609E-02  0.9030406E-01
       -2   -1    0    0    0  501  0.00000000000E+00  0.00000000000E+00  0.23871843719E+03  0.23871843721E+03  0.25500000920E-02 0.  1.
        2   -1    0    0  501    0  0.00000000000E+00  0.00000000000E+00 -0.17669814879E+04  0.17669814879E+04  0.25500000920E-02 0. -1.
    10030    2    1    2    0    0  0.00000000000E+00  0.00000000000E+00 -0.15282630507E+04  0.20056999251E+04  0.12989396589E+04 0.  0.
        2    1    3    3  502    0  0.52732869931E+03  0.31860430805E+03 -0.44683080918E+03  0.76107951902E+03  0.25500000920E-02 0. -1.
       -2    1    3    3    0  502 -0.52732869931E+03 -0.31860430805E+03 -0.10814322415E+04  0.12446204061E+04  0.25500000920E-02 0.  1.
</event>
<event>
 5   0  0.3718559E-05  0.1299380E+04  0.7818609E-02  0.9030057E-01
        1   -1    0    0  501    0  0.00000000000E+00  0.00000000000E+00  0.79226411333E+03  0.79226411334E+03  0.50400001928E-02 0. -1.
       -1   -1    0    0    0  501  0.00000000000E+00  0.00000000000E+00 -0.53277316380E+03  0.53277316383E+03  0.50400001928E-02 0.  1.
    10030    2    1    2    0    0  0.00000000000E+00  0.00000000000E+00  0.25949094952E+03  0.13250372772E+04  0.12993799417E+04 0.  0.
        2    1    3    3  502    0 -0.44397027450E+03  0.43054168786E+03 -0.73235972987E+02  0.62276741836E+03  0.25500000920E-02 0.  1.
       -2    1    3    3    0  502  0.44397027450E+03 -0.43054168786E+03  0.33272692251E+03  0.70226985881E+03  0.25500000920E-02 0. -1.
</event>
<event>
 5   0  0.6458698E-05  0.1305561E+04  0.7818609E-02  0.9025167E-01
        2   -1    0    0  501    0  0.00000000000E+00  0.00000000000E+00  0.86680172558E+03  0.86680172558E+03  0.25500000920E-02 0. -1.
       -2   -1    0    0    0  501  0.00000000000E+00  0.00000000000E+00 -0.49160329408E+03  0.49160329409E+03  0.25500000920E-02 0.  1.
    10030    2    1    2    0    0  0.00000000000E+00  0.00000000000E+00  0.37519843149E+03  0.13584050197E+04  0.13055613101E+04 0.  0.
        3    1    3    3  502    0 -0.19876578466E+03  0.10153271949E+03  0.82586635739E+03  0.85549516700E+03  0.10100000352E+00 0. -1.
       -3    1    3    3    0  502  0.19876578466E+03 -0.10153271949E+03 -0.45066792590E+03  0.50290985267E+03  0.10100000352E+00 0.  1.
</event>
<event>
 5   0  0.6688086E-05  0.1299653E+04  0.7818609E-02  0.9029841E-01
       -2   -1    0    0    0  501  0.00000000000E+00  0.00000000000E+00  0.29913848116E+03  0.29913848117E+03  0.25500000920E-02 0. -1.
        2   -1    0    0  501    0  0.00000000000E+00  0.00000000000E+00 -0.14116344893E+04  0.14116344893E+04  0.25500000920E-02 0.  1.
    10030    2    1    2    0    0  0.00000000000E+00  0.00000000000E+00 -0.11124960082E+04  0.17107729705E+04  0.12996525645E+04 0.  0.
        5    1    3    3  502    0 -0.31395196002E+03 -0.41531812853E+03 -0.10680911357E+04  0.11882321933E+04  0.46999998093E+01 0.  1.
       -5    1    3    3    0  502  0.31395196002E+03  0.41531812853E+03 -0.44404872434E+02  0.52254077714E+03  0.46999998093E+01 0. -1.
</event>
<event>
 5   0  0.2512000E-05  0.1301735E+04  0.7818609E-02  0.9028190E-01
        3   -1    0    0  501    0  0.00000000000E+00  0.00000000000E+00  0.21559760841E+04  0.21559760864E+04  0.10100000352E+00 0. -1.
       -3   -1    0    0    0  501  0.00000000000E+00  0.00000000000E+00 -0.19649035448E+03  0.19649038044E+03  0.10100000352E+00 0.  1.
    10030    2    1    2    0    0  0.00000000000E+00  0.00000000000E+00  0.19594857296E+04  0.23524664669E+04  0.13017350550E+04 0.  0.
        3    1    3    3  502    0  0.55094479250E+03  0.33643035644E+03  0.82959501485E+03  0.10511676593E+04  0.10100000352E+00 0. -1.
       -3    1    3    3    0  502 -0.55094479250E+03 -0.33643035644E+03  0.11298907147E+04  0.13012988076E+04  0.10100000352E+00 0.  1.
</event>
<event>
 5   0  0.3631841E-05  0.1302361E+04  0.7818609E-02  0.9027695E-01
       -1   -1    0    0    0  501  0.00000000000E+00  0.00000000000E+00  0.12236818447E+04  0.12236818447E+04  0.50400001928E-02 0.  1.
        1   -1    0    0  501    0  0.00000000000E+00  0.00000000000E+00 -0.34652483594E+03  0.34652483598E+03  0.50400001928E-02 0. -1.
    10030    2    1    2    0    0  0.00000000000E+00  0.00000000000E+00  0.87715700876E+03  0.15702066807E+04  0.13023611642E+04 0.  0.
        3    1    3    3  502    0 -0.53908532696E+03 -0.15025548183E+03  0.37170286119E+02  0.56086659728E+03  0.10100000352E+00 0. -1.
       -3    1    3    3    0  502  0.53908532696E+03  0.15025548183E+03  0.83998672264E+03  0.10093400834E+04  0.10100000352E+00 0.  1.
</event>
<event>
 5   0  0.3552698E-05  0.1299782E+04  0.7818609E-02  0.9029738E-01
       -1   -1    0    0    0  501  0.00000000000E+00  0.00000000000E+00  0.27524654420E+03  0.27524654424E+03  0.50400001928E-02 0. -1.
        1   -1    0    0  501    0  0.00000000000E+00  0.00000000000E+00 -0.15344735903E+04  0.15344735903E+04  0.50400001928E-02 0.  1.
    10030    2    1    2    0    0  0.00000000000E+00  0.00000000000E+00 -0.12592270461E+04  0.18097201346E+04  0.12997823709E+04 0.  0.
        5    1    3    3  502    0 -0.34205161866E+03 -0.45917562092E+03 -0.10576147028E+04  0.12026689113E+04  0.46999998093E+01 0.  1.
       -5    1    3    3    0  502  0.34205161866E+03  0.45917562092E+03 -0.20161234331E+03  0.60705122324E+03  0.46999998093E+01 0. -1.
</event>
<event>
 5   0  0.6671239E-05  0.1300252E+04  0.7818609E-02  0.9029365E-01
        2   -1    0    0  501    0  0.00000000000E+00  0.00000000000E+00  0.65426724473E+03  0.65426724474E+03  0.25500000920E-02 0. -1.
       -2   -1    0    0    0  501  0.00000000000E+00  0.00000000000E+00 -0.64601102071E+03  0.64601102072E+03  0.25500000920E-02 0.  1.
    10030    2    1    2    0    0  0.00000000000E+00  0.00000000000E+00  0.82562240159E+01  0.13002782655E+04  0.13002520534E+04 0.  0.
        1    1    3    3  502    0  0.18520795426E+03 -0.54877813100E+03  0.29943802239E+03  0.65201422734E+03  0.50400001928E-02 0. -1.
       -1    1    3    3    0  502 -0.18520795426E+03  0.54877813100E+03 -0.29118179837E+03  0.64826403811E+03  0.50400001928E-02 0.  1.
</event>
<event>
 5   0  0.6742824E-05  0.1291204E+04  0.7818609E-02  0.9036570E-01
       -2   -1    0    0    0  501  0.00000000000E+00  0.00000000000E+00  0.60660963263E+03  0.60660963263E+03  0.25500000920E-02 0.  1.
        2   -1    0    0  501    0  0.00000000000E+00  0.00000000000E+00 -0.68710071212E+03  0.68710071212E+03  0.25500000920E-02 0. -1.
    10030    2    1    2    0    0  0.00000000000E+00  0.00000000000E+00 -0.80491079486E+02  0.12937103448E+04  0.12912039507E+04 0.  0.
        4    1    3    3  502    0 -0.59230687405E+03  0.25615247244E+03 -0.21267402644E+02  0.64567440518E+03  0.12699999809E+01 0. -1.
       -4    1    3    3    0  502  0.59230687405E+03 -0.25615247244E+03 -0.59223676842E+02  0.64803593958E+03  0.12699999809E+01 0.  1.
</event>
<event>
 5   0  0.2512000E-05  0.1291761E+04  0.7818609E-02  0.9036124E-01
       -4   -1    0    0    0  501  0.00000000000E+00  0.00000000000E+00  0.35335905193E+03  0.35336133416E+03  0.12699999809E+01 0. -1.
        4   -1    0    0  501    0  0.00000000000E+00  0.00000000000E+00 -0.11805539802E+04  0.11805546633E+04  0.12699999809E+01 0.  1.
    10030    2    1    2    0    0  0.00000000000E+00  0.00000000000E+00 -0.82719492822E+03  0.15339159974E+04  0.12917611381E+04 0.  0.
        3    1    3    3  502    0 -0.54324476884E+03 -0.31356596664E+03 -0.59649423693E+03  0.86558874715E+03  0.10100000352E+00 0. -1.
       -3    1    3    3    0  502  0.54324476884E+03  0.31356596664E+03 -0.23070069129E+03  0.66832725028E+03  0.10100000352E+00 0.  1.
</event>
<event>
 5   0  0.3551277E-05  0.1300199E+04  0.7818609E-02  0.9029407E-01
        1   -1    0    0  501    0  0.00000000000E+00  0.00000000000E+00  0.14504507340E+04  0.14504507340E+04  0.50400001928E-02 0. -1.
       -1   -1    0    0    0  501  0.00000000000E+00  0.00000000000E+00 -0.29137814723E+03  0.29137814728E+03  0.50400001928E-02 0.  1.
    10030    2    1    2    0    0  0.00000000000E+00  0.00000000000E+00  0.11590725867E+04  0.17418288813E+04  0.13001994425E+04 0.  0.
        4    1    3    3  502    0  0.46479549434E+03  0.34386964659E+03  0.18134565560E+03  0.60594475417E+03  0.12699999809E+01 0.  1.
       -4    1    3    3    0  502 -0.46479549434E+03 -0.34386964659E+03  0.97772693113E+03  0.11358841271E+04  0.12699999809E+01 0. -1.
</event>
<event>
 5   0  0.6458698E-05  0.1298721E+04  0.7818609E-02  0.9030580E-01
        2   -1    0    0  501    0  0.00000000000E+00  0.00000000000E+00  0.15649407872E+04  0.15649407872E+04  0.25500000920E-02 0. -1.
       -2   -1    0    0    0  501  0.00000000000E+00  0.00000000000E+00 -0.26944715117E+03  0.26944715118E+03  0.25500000920E-02 0.  1.
    10030    2    1    2    0    0  0.00000000000E+00  0.00000000000E+00  0.12954936360E+04  0.18343879384E+04  0.12987206580E+04 0.  0.
        3    1    3    3  502    0 -0.29836221648E+03  0.11484852670E+03 -0.15058373428E+03  0.35339166309E+03  0.10100000352E+00 0.  1.
       -3    1    3    3    0  502  0.29836221648E+03 -0.11484852670E+03  0.14460773703E+04  0.14809962753E+04  0.10100000352E+00 0. -1.
</event>
<event>
 5   0  0.3689707E-05  0.1302480E+04  0.7818609E-02  0.9027601E-01
        1   -1    0    0  501    0  0.00000000000E+00  0.00000000000E+00  0.87838117145E+03  0.87838117147E+03  0.50400001928E-02 0. -1.
       -1   -1    0    0    0  501  0.00000000000E+00  0.00000000000E+00 -0.48283566479E+03  0.48283566482E+03  0.50400001928E-02 0.  1.
    10030    2    1    2    0    0  0.00000000000E+00  0.00000000000E+00  0.39554550666E+03  0.13612168363E+04  0.13024803367E+04 0.  0.
        1    1    3    3  502    0 -0.60317439280E+03 -0.23012247069E+03  0.10824726816E+03  0.65459389757E+03  0.50400001928E-02 0.  1.
       -1    1    3    3    0  502  0.60317439280E+03  0.23012247069E+03  0.28729823850E+03  0.70662293872E+03  0.50400001928E-02 0. -1.
</event>
<event>
 5   0  0.6688086E-05  0.1299726E+04  0.7818609E-02  0.9029783E-01
        2   -1    0    0  501    0  0.00000000000E+00  0.00000000000E+00  0.51754021169E+03  0.51754021170E+03  0.25500000920E-02 0.  1.
       -2   -1    0    0    0  501  0.00000000000E+00  0.00000000000E+00 -0.81601718490E+03  0.81601718490E+03  0.25500000920E-02 0. -1.
    10030    2    1    2    0    0  0.00000000000E+00  0.00000000000E+00 -0.29847697320E+03  0.13335573966E+04  0.12997256736E+04 0.  0.
        5    1    3    3  502    0  0.14502213471E+03 -0.51590553914E+03  0.22790206709E+03  0.58236705526E+03  0.46999998093E+01 0.  1.
       -5    1    3    3    0  502 -0.14502213471E+03  0.51590553914E+03 -0.52637904029E+03  0.75119034134E+03  0.46999998093E+01 0. -1.
</event>
<event>
 5   0  0.3718559E-05  0.1299916E+04  0.7818609E-02  0.9029632E-01
        1   -1    0    0  501    0  0.00000000000E+00  0.00000000000E+00  0.10512955641E+04  0.10512955641E+04  0.50400001928E-02 0.  1.
       -1   -1    0    0    0  501  0.00000000000E+00  0.00000000000E+00 -0.40183295802E+03  0.40183295805E+03  0.50400001928E-02 0. -1.
    10030    2    1    2    0    0  0.00000000000E+00  0.00000000000E+00  0.64946260607E+03  0.14531285221E+04  0.12999156993E+04 0.  0.
        2    1    3    3  502    0  0.64076858931E+03  0.62693296134E+02  0.22518259804E+03  0.68207187076E+03  0.25500000920E-02 0.  1.
       -2    1    3    3    0  502 -0.64076858931E+03 -0.62693296134E+02  0.42428000803E+03  0.77105665138E+03  0.25500000920E-02 0. -1.
</event>
<event>
 5   0  0.6671239E-05  0.1298587E+04  0.7818609E-02  0.9030687E-01
        2   -1    0    0  501    0  0.00000000000E+00  0.00000000000E+00  0.69954207720E+03  0.69954207721E+03  0.25500000920E-02 0.  1.
       -2   -1    0    0    0  501  0.00000000000E+00  0.00000000000E+00 -0.60265414647E+03  0.60265414647E+03  0.25500000920E-02 0. -1.
    10030    2    1    2    0    0  0.00000000000E+00  0.00000000000E+00  0.96887930736E+02  0.13021962237E+04  0.12985868218E+04 0.  0.
        1    1    3    3  502    0 -0.34846403512E+03 -0.82555431565E+02  0.59155747182E+03  0.69150764678E+03  0.50400001928E-02 0.  1.
       -1    1    3    3    0  502  0.34846403512E+03  0.82555431565E+02 -0.49466954109E+03  0.61068857690E+03  0.50400001928E-02 0. -1.
</event>
<event>
 5   0  0.6618060E-05  0.1299809E+04  0.7818609E-02  0.9029717E-01
        2   -1    0    0  501    0  0.00000000000E+00  0.00000000000E+00  0.12975761347E+04  0.12975761347E+04  0.25500000920E-02 0. -1.
       -2   -1    0    0    0  501  0.00000000000E+00  0.00000000000E+00 -0.32551144793E+03  0.32551144794E+03  0.25500000920E-02 0.  1.
    10030    2    1    2    0    0  0.00000000000E+00  0.00000000000E+00  0.97206468681E+03  0.16230875827E+04  0.12998090420E+04 0.  0.
        2    1    3    3  502    0  0.13444589287E+03  0.43118313179E+03 -0.97506970110E+02  0.46206298323E+03  0.25500000920E-02 0.  1.
       -2    1    3    3    0  502 -0.13444589287E+03 -0.43118313179E+03  0.10695716569E+04  0.11610245995E+04  0.25500000920E-02 0. -1.
</event>
<event>
 5   0  0.3552698E-05  0.1299967E+04  0.7818609E-02  0.9029592E-01
       -1   -1    0    0    0  501  0.00000000000E+00  0.00000000000E+00  0.31993995055E+03  0.31993995059E+03  0.50400001928E-02 0.  1.
        1   -1    0    0  501    0  0.00000000000E+00  0.00000000000E+00 -0.13204923927E+04  0.13204923927E+04  0.50400001928E-02 0. -1.
    10030    2    1    2    0    0  0.00000000000E+00  0.00000000000E+00 -0.10005524421E+04  0.16404323433E+04  0.12999665701E+04 0.  0.
        5    1    3    3  502    0  0.57604758791E+01  0.42570172702E+03 -0.11200250644E+04  0.11982209222E+04  0.46999998093E+01 0. -1.
       -5    1    3    3    0  502 -0.57604758791E+01 -0.42570172702E+03  0.11947262227E+03  0.44221142109E+03  0.46999998093E+01 0.  1.
</event>
<event>
 5   0  0.3551277E-05  0.1292525E+04  0.7818609E-02  0.9035514E-01
        1   -1    0    0  501    0  0.00000000000E+00  0.00000000000E+00  0.15075574885E+04  0.15075574885E+04  0.50400001928E-02 0.  1.
       -1   -1    0    0    0  501  0.00000000000E+00  0.00000000000E+00 -0.27704100229E+03  0.27704100233E+03  0.50400001928E-02 0. -1.
    10030    2    1    2    0    0  0.00000000000E+00  0.00000000000E+00  0.12305164862E+04  0.17845984908E+04  0.12925250290E+04 0.  0.
        4    1    3    3  502    0  0.28739904386E+03 -0.10314674629E+03 -0.17115859094E+03  0.35004905061E+03  0.12699999809E+01 0. -1.
       -4    1    3    3    0  502 -0.28739904386E+03  0.10314674629E+03  0.14016750771E+04  0.14345494402E+04  0.12699999809E+01 0.  1.
</event>
<event>
 5   0  0.2512000E-05  0.1300050E+04  0.7818609E-02  0.9029525E-01
        3   -1    0    0  501    0  0.00000000000E+00  0.00000000000E+00  0.53554836312E+03  0.53554837264E+03  0.10100000352E+00 0.  1.
       -3   -1    0    0    0  501  0.00000000000E+00  0.00000000000E+00 -0.78897185447E+03  0.78897186093E+03  0.10100000352E+00 0. -1.
    10030    2    1    2    0    0  0.00000000000E+00  0.00000000000E+00 -0.25342349135E+03  0.13245202336E+04  0.13000501464E+04 0.  0.
        4    1    3    3  502    0 -0.34659994174E+03  0.80148635230E+02  0.42756478633E+03  0.55620911782E+03  0.12699999809E+01 0.  1.
       -4    1    3    3    0  502  0.34659994174E+03 -0.80148635230E+02 -0.68098827768E+03  0.76831111575E+03  0.12699999809E+01 0. -1.
</event>
<event>
 5   0  0.6742824E-05  0.1303851E+04  0.7818609E-02  0.9026517E-01
        2   -1    0    0  501    0  0.00000000000E+00  0.00000000000E+00  0.10267236049E+04  0.10267236049E+04  0.25500000920E-02 0.  1.
       -2   -1    0    0    0  501  0.00000000000E+00  0.00000000000E+00 -0.41394472422E+03  0.41394472423E+03  0.25500000920E-02 0. -1.
    10030    2    1    2    0    0  0.00000000000E+00  0.00000000000E+00  0.61277888070E+03  0.14406683292E+04  0.13038509416E+04 0.  0.
        4    1    3    3  502    0 -0.50737541804E+03  0.36051697327E+03  0.52065223026E+03  0.81146944528E+03  0.12699999809E+01 0.  1.
       -4    1    3    3    0  502  0.50737541804E+03 -0.36051697327E+03  0.92126650448E+02  0.62919888388E+03  0.12699999809E+01 0. -1.
</event>
<event>
 5   0  0.6688086E-05  0.1301382E+04  0.7818609E-02  0.9028470E-01
        2   -1    0    0  501    0  0.00000000000E+00  0.00000000000E+00  0.39793358792E+03  0.39793358793E+03  0.25500000920E-02 0. -1.
       -2   -1    0    0    0  501  0.00000000000E+00  0.00000000000E+00 -0.10639930240E+04  0.10639930240E+04  0.25500000920E-02 0.  1.
    10030    2    1    2    0    0  0.00000000000E+00  0.00000000000E+00 -0.66605943604E+03  0.14619266119E+04  0.13013816682E+04 0.  0.
        5    1    3    3  502    0  0.14285545863E+03  0.21491961436E+03  0.33796659316E+03  0.42525478338E+03  0.46999998093E+01 0. -1.
       -5    1    3    3    0  502 -0.14285545863E+03 -0.21491961436E+03 -0.10040260292E+04  0.10366718285E+04  0.46999998093E+01 0.  1.
</event>
<event>
 5   0  0.3689707E-05  0.1300009E+04  0.7818609E-02  0.9029558E-01
       -1   -1    0    0    0  501  0.00000000000E+00  0.00000000000E+00  0.30522341326E+03  0.30522341330E+03  0.50400001928E-02 0.  1.
        1   -1    0    0  501    0  0.00000000000E+00  0.00000000000E+00 -0.13842505394E+04  0.13842505394E+04  0.50400001928E-02 0. -1.
    10030    2    1    2    0    0  0.00000000000E+00  0.00000000000E+00 -0.10790271261E+04  0.16894739527E+04  0.13000087299E+04 0.  0.
        1    1    3    3  502    0 -0.61443840221E+03 -0.20427554751E+03 -0.61351729091E+03  0.89200141014E+03  0.50400001928E-02 0. -1.
       -1    1    3    3    0  502  0.61443840221E+03  0.20427554751E+03 -0.46550983523E+03  0.79747254256E+03  0.50400001928E-02 0.  1.
</event>
<event>
 5   0  0.6742824E-05  0.1299516E+04  0.7818609E-02  0.9029949E-01
       -2   -1    0    0    0  501  0.00000000000E+00  0.00000000000E+00  0.18236741239E+03  0.18236741241E+03  0.25500000920E-02 0.  1.
        2   -1    0    0  501    0  0.00000000000E+00  0.00000000000E+00 -0.23150258005E+04  0.23150258005E+04  0.25500000920E-02 0. -1.
    10030    2    1    2    0    0  0.00000000000E+00  0.00000000000E+00 -0.21326583881E+04  0.24973932129E+04  0.12995157019E+04 0.  0.
        4    1    3    3  502    0  0.49905761906E+03 -0.14821693137E+03 -0.18134990874E+04  0.18867451653E+04  0.12699999809E+01 0.  1.
       -4    1    3    3    0  502 -0.49905761906E+03  0.14821693137E+03 -0.31915930065E+03  0.61064804755E+03  0.12699999809E+01 0. -1.
</event>
<event>
 5   0  0.2512000E-05  0.1299903E+04  0.7818609E-02  0.9029642E-01
        3   -1    0    0  501    0  0.00000000000E+00  0.00000000000E+00  0.94941264387E+03  0.94941264924E+03  0.10100000352E+00 0.  1.
       -3   -1    0    0    0  501  0.00000000000E+00  0.00000000000E+00 -0.44494549880E+03  0.44494551026E+03  0.10100000352E+00 0. -1.
    10030    2    1    2    0    0  0.00000000000E+00  0.00000000000E+00  0.50446714507E+03  0.13943581595E+04  0.12999029104E+04 0.  0.
        4    1    3    3  502    0  0.47196726318E+03  0.34338027878E+03  0.55897058409E+03  0.80815397057E+03  0.12699999809E+01 0.  1.
       -4    1    3    3    0  502 -0.47196726318E+03 -0.34338027878E+03 -0.54503439022E+02  0.58620418894E+03  0.12699999809E+01 0. -1.
</event>
<event>
 5   0  0.3631841E-05  0.1300423E+04  0.7818609E-02  0.9029230E-01
        1   -1    0    0  501    0  0.00000000000E+00  0.00000000000E+00  0.33639536593E+03  0.33639536597E+03  0.50400001928E-02 0. -1.
       -1   -1    0    0    0  501  0.00000000000E+00  0.00000000000E+00 -0.12567807488E+04  0.12567807488E+04  0.50400001928E-02 0.  1.
    10030    2    1    2    0    0  0.00000000000E+00  0.00000000000E+00 -0.92038538283E+03  0.15931761147E+04  0.13004233463E+04 0.  0.
        3    1    3    3  502    0  0.70448341881E+02 -0.13599295089E+03 -0.12343666501E+04  0.12438320179E+04  0.10100000352E+00 0.  1.
       -3    1    3    3    0  502 -0.70448341881E+02  0.13599295089E+03  0.31398126731E+03  0.34934409683E+03  0.10100000352E+00 0. -1.
</event>
<event>
 5   0  0.3718559E-05  0.1299995E+04  0.7818609E-02  0.9029569E-01
       -1   -1    0    0    0  501  0.00000000000E+00  0.00000000000E+00  0.66839113074E+03  0.66839113076E+03  0.50400001928E-02 0. -1.
        1   -1    0    0  501    0  0.00000000000E+00  0.00000000000E+00 -0.63210979327E+03  0.63210979329E+03  0.50400001928E-02 0.  1.
    10030    2    1    2    0    0  0.00000000000E+00  0.00000000000E+00  0.36281337468E+02  0.13005009240E+04  0.12999947377E+04 0.  0.
        2    1    3    3  502    0 -0.27888056173E+03  0.12814800564E+03  0.59133872746E+03  0.66624152502E+03  0.25500000920E-02 0. -1.
       -2    1    3    3    0  502  0.27888056173E+03 -0.12814800564E+03 -0.55505738999E+03  0.63425939902E+03  0.25500000920E-02 0.  1.
</event>
<event>
 5   0  0.3718559E-05  0.1299792E+04  0.7818609E-02  0.9029730E-01
        1   -1    0    0  501    0  0.00000000000E+00  0.00000000000E+00  0.42900313426E+03  0.42900313429E+03  0.50400001928E-02 0. -1.
       -1   -1    0    0    0  501  0.00000000000E+00  0.00000000000E+00 -0.98452573062E+03  0.98452573063E+03  0.50400001928E-02 0.  1.
    10030    2    1    2    0    0  0.00000000000E+00  0.00000000000E+00 -0.55552259636E+03  0.14135288649E+04  0.12997917129E+04 0.  0.
        2    1    3    3  502    0 -0.46668928350E+03 -0.74256363248E+02  0.20743099658E+03  0.51608188611E+03  0.25500000920E-02 0. -1.
       -2    1    3    3    0  502  0.46668928350E+03  0.74256363248E+02 -0.76295359294E+03  0.89744697882E+03  0.25500000920E-02 0.  1.
</event>
<event>
 5   0  0.3689707E-05  0.1300299E+04  0.7818609E-02  0.9029328E-01
       -1   -1    0    0    0  501  0.00000000000E+00  0.00000000000E+00  0.49716643178E+03  0.49716643180E+03  0.50400001928E-02 0. -1.
        1   -1    0    0  501    0  0.00000000000E+00  0.00000000000E+00 -0.85020653888E+03  0.85020653890E+03  0.50400001928E-02 0.  1.
    10030    2    1    2    0    0  0.00000000000E+00  0.00000000000E+00 -0.35304010710E+03  0.13473729707E+04  0.13002986599E+04 0.  0.
        1    1    3    3  502    0  0.89571184486E+02  0.40996748246E+03 -0.69108397221E+03  0.80851307376E+03  0.50400001928E-02 0.  1.
       -1    1    3    3    0  502 -0.89571184486E+02 -0.40996748246E+03  0.33804386511E+03  0.53885989694E+03  0.50400001928E-02 0. -1.
</event>
<event>
 5   0  0.3552698E-05  0.1300289E+04  0.7818609E-02  0.9029336E-01
       -1   -1    0    0    0  501  0.00000000000E+00  0.00000000000E+00  0.90417589493E+03  0.90417589494E+03  0.50400001928E-02 0. -1.
        1   -1    0    0  501    0  0.00000000000E+00  0.00000000000E+00 -0.46748436784E+03  0.46748436787E+03  0.50400001928E-02 0.  1.
    10030    2    1    2    0    0  0.00000000000E+00  0.00000000000E+00  0.43669152708E+03  0.13716602628E+04  0.13002893473E+04 0.  0.
        5    1    3    3  502    0  0.32996811738E+03  0.29344956536E+03  0.72168832375E+03  0.84607785252E+03  0.46999998093E+01 0. -1.
       -5    1    3    3    0  502 -0.32996811738E+03 -0.29344956536E+03 -0.28499679667E+03  0.52558241029E+03  0.46999998093E+01 0.  1.
</event>
<event>
 5   0  0.3718559E-05  0.1293864E+04  0.7818609E-02  0.9034445E-01
        1   -1    0    0  501    0  0.00000000000E+00  0.00000000000E+00  0.10276077225E+04  0.10276077225E+04  0.50400001928E-02 0.  1.
       -1   -1    0    0    0  501  0.00000000000E+00  0.00000000000E+00 -0.40727725101E+03  0.40727725105E+03  0.50400001928E-02 0. -1.
    10030    2    1    2    0    0  0.00000000000E+00  0.00000000000E+00  0.62033047151E+03  0.14348849736E+04  0.12938643644E+04 0.  0.
        2    1    3    3  502    0  0.40215915131E+03 -0.50672201478E+03  0.30495590884E+03  0.71519038695E+03  0.25500000920E-02 0.  1.
       -2    1    3    3    0  502 -0.40215915131E+03  0.50672201478E+03  0.31537456266E+03  0.71969458663E+03  0.25500000920E-02 0. -1.
</event>
<event>
 5   0  0.6742824E-05  0.1300513E+04  0.7818609E-02  0.9029158E-01
        2   -1    0    0  501    0  0.00000000000E+00  0.00000000000E+00  0.51779828473E+03  0.51779828474E+03  0.25500000920E-02 0. -1.
       -2   -1    0    0    0  501  0.00000000000E+00  0.00000000000E+00 -0.81659889543E+03  0.81659889543E+03  0.25500000920E-02 0.  1.
    10030    2    1    2    0    0  0.00000000000E+00  0.00000000000E+00 -0.29880061070E+03  0.13343971802E+04  0.13005129871E+04 0.  0.
        4    1    3    3  502    0 -0.24027690818E+03  0.35473884317E+03 -0.65128597467E+03  0.77958172962E+03  0.12699999809E+01 0.  1.
       -4    1    3    3    0  502  0.24027690818E+03 -0.35473884317E+03  0.35248536397E+03  0.55481545055E+03  0.12699999809E+01 0. -1.
</event>
<event>
 5   0  0.6742824E-05  0.1300451E+04  0.7818609E-02  0.9029208E-01
        2   -1    0    0  501    0  0.00000000000E+00  0.00000000000E+00  0.95154178788E+03  0.95154178788E+03  0.25500000920E-02 0. -1.
       -2   -1    0    0    0  501  0.00000000000E+00  0.00000000000E+00 -0.44432434267E+03  0.44432434268E+03  0.25500000920E-02 0.  1.
    10030    2    1    2    0    0  0.00000000000E+00  0.00000000000E+00  0.50721744520E+03  0.13958661306E+04  0.13004509671E+04 0.  0.
        4    1    3    3  502    0  0.12125786870E+03  0.63341651490E+03  0.34258601386E+03  0.73026484364E+03  0.12699999809E+01 0. -1.
       -4    1    3    3    0  502 -0.12125786870E+03 -0.63341651490E+03  0.16463143135E+03  0.66560128692E+03  0.12699999809E+01 0.  1.
</event>
<event>
 5   0  0.6671239E-05  0.1300070E+04  0.7818609E-02  0.9029510E-01
        2   -1    0    0  501    0  0.00000000000E+00  0.00000000000E+00  0.74177232986E+03  0.74177232986E+03  0.25500000920E-02 0. -1.
       -2   -1    0    0    0  501  0.00000000000E+00  0.00000000000E+00 -0.56964296588E+03  0.56964296588E+03  0.25500000920E-02 0.  1.
    10030    2    1    2    0    0  0.00000000000E+00  0.00000000000E+00  0.17212936398E+03  0.13114152957E+04  0.13000698289E+04 0.  0.
        1    1    3    3  502    0  0.12501641733E+03 -0.60097916591E+03  0.30180096909E+03  0.68402404010E+03  0.50400001928E-02 0.  1.
       -1    1    3    3    0  502 -0.12501641733E+03  0.60097916591E+03 -0.12967160511E+03  0.62739125565E+03  0.50400001928E-02 0. -1.
</event>
<event>
 5   0  0.3551277E-05  0.1300278E+04  0.7818609E-02  0.9029345E-01
       -1   -1    0    0    0  501  0.00000000000E+00  0.00000000000E+00  0.53323060438E+03  0.53323060440E+03  0.50400001928E-02 0.  1.
        1   -1    0    0  501    0  0.00000000000E+00  0.00000000000E+00 -0.79267893009E+03  0.79267893010E+03  0.50400001928E-02 0. -1.
    10030    2    1    2    0    0  0.00000000000E+00  0.00000000000E+00 -0.25944832571E+03  0.13259095345E+04  0.13002779164E+04 0.  0.
        4    1    3    3  502    0 -0.57872716541E+03 -0.27791062099E+03 -0.23431110406E+03  0.68341989408E+03  0.12699999809E+01 0. -1.
       -4    1    3    3    0  502  0.57872716541E+03  0.27791062099E+03 -0.25137221651E+02  0.64248964043E+03  0.12699999809E+01 0.  1.
</event>
<event>
 5   0  0.3551277E-05  0.1299806E+04  0.7818609E-02  0.9029719E-01
       -1   -1    0    0    0  501  0.00000000000E+00  0.00000000000E+00  0.51126827193E+03  0.51126827195E+03  0.50400001928E-02 0.  1.
        1   -1    0    0  501    0  0.00000000000E+00  0.00000000000E+00 -0.82612931883E+03  0.82612931885E+03  0.50400001928E-02 0. -1.
    10030    2    1    2    0    0  0.00000000000E+00  0.00000000000E+00 -0.31486104690E+03  0.13373975908E+04  0.12998056920E+04 0.  0.
        4    1    3    3  502    0 -0.32546510942E+03 -0.36584940399E+02  0.42014729767E+03  0.53272071478E+03  0.12699999809E+01 0.  1.
       -4    1    3    3    0  502  0.32546510942E+03  0.36584940399E+02 -0.73500834457E+03  0.80467687602E+03  0.12699999809E+01 0. -1.
</event>
<event>
 5   0  0.6688086E-05  0.1299707E+04  0.7818609E-02  0.9029798E-01
       -2   -1    0    0    0  501  0.00000000000E+00  0.00000000000E+00  0.29414163414E+03  0.29414163415E+03  0.25500000920E-02 0.  1.
        2   -1    0    0  501    0  0.00000000000E+00  0.00000000000E+00 -0.14357354600E+04  0.14357354600E+04  0.25500000920E-02 0. -1.
    10030    2    1    2    0    0  0.00000000000E+00  0.00000000000E+00 -0.11415938258E+04  0.17298770941E+04  0.12997070045E+04 0.  0.
        5    1    3    3  502    0 -0.24201526718E+03 -0.57003099526E+03 -0.30869032157E+03  0.69196714498E+03  0.46999998093E+01 0.  1.
       -5    1    3    3    0  502  0.24201526718E+03  0.57003099526E+03 -0.83290350426E+03  0.10379099491E+04  0.46999998093E+01 0. -1.
</event>
<event>
 5   0  0.3552698E-05  0.1299523E+04  0.7818609E-02  0.9029944E-01
        1   -1    0    0  501    0  0.00000000000E+00  0.00000000000E+00  0.24856056362E+04  0.24856056362E+04  0.50400001928E-02 0.  1.
       -1   -1    0    0    0  501  0.00000000000E+00  0.00000000000E+00 -0.16985389372E+03  0.16985389380E+03  0.50400001928E-02 0. -1.
    10030    2    1    2    0    0  0.00000000000E+00  0.00000000000E+00  0.23157517425E+04  0.26554595300E+04  0.12995226749E+04 0.  0.
        5    1    3    3  502    0 -0.14521525710E+03 -0.39954469100E+02 -0.13365696515E+03  0.20142021950E+03  0.46999998093E+01 0. -1.
       -5    1    3    3    0  502  0.14521525710E+03  0.39954469100E+02  0.24494087076E+04  0.24540393105E+04  0.46999998093E+01 0.  1.
</event>
<event>
 5   0  0.3552698E-05  0.1300315E+04  0.7818609E-02  0.9029315E-01
        1   -1    0    0  501    0  0.00000000000E+00  0.00000000000E+00  0.10200882996E+04  0.10200882997E+04  0.50400001928E-02 0.  1.
       -1   -1    0    0    0  501  0.00000000000E+00  0.00000000000E+00 -0.41438082054E+03  0.41438082057E+03  0.50400001928E-02 0. -1.
    10030    2    1    2    0    0  0.00000000000E+00  0.00000000000E+00  0.60570747911E+03  0.14344691202E+04  0.13003153874E+04 0.  0.
        5    1    3    3  502    0  0.24946230320E+03  0.96638762480E+00 -0.35946242609E+03  0.43757022339E+03  0.46999998093E+01 0. -1.
       -5    1    3    3    0  502 -0.24946230320E+03 -0.96638762480E+00  0.96516990520E+03  0.99689889684E+03  0.46999998093E+01 0.  1.
</event>
<event>
 5   0  0.6618060E-05  0.1299692E+04  0.7818609E-02  0.9029809E-01
       -2   -1    0    0    0  501  0.00000000000E+00  0.00000000000E+00  0.33549845914E+03  0.33549845915E+03  0.25500000920E-02 0. -1.
        2   -1    0    0  501    0  0.00000000000E+00  0.00000000000E+00 -0.12587241050E+04  0.12587241050E+04  0.25500000920E-02 0.  1.
    10030    2    1    2    0    0  0.00000000000E+00  0.00000000000E+00 -0.92322564586E+03  0.15942225642E+04  0.12996922678E+04 0.  0.
        2    1    3    3  502    0  0.52845039442E+03  0.34290336675E+03 -0.26590150270E+03  0.68377346207E+03  0.25500000920E-02 0. -1.
       -2    1    3    3    0  502 -0.52845039442E+03 -0.34290336675E+03 -0.65732414316E+03  0.91044910208E+03  0.25500000920E-02 0.  1.
</event>
<event>
 5   0  0.3631841E-05  0.1300123E+04  0.7818609E-02  0.9029467E-01
        1   -1    0    0  501    0  0.00000000000E+00  0.00000000000E+00  0.13226968867E+04  0.13226968868E+04  0.50400001928E-02 0.  1.
       -1   -1    0    0    0  501  0.00000000000E+00  0.00000000000E+00 -0.31948378513E+03  0.31948378517E+03  0.50400001928E-02 0. -1.
    10030    2    1    2    0    0  0.00000000000E+00  0.00000000000E+00  0.10032131016E+04  0.16421806719E+04  0.13001233911E+04 0.  0.
        3    1    3    3  502    0 -0.30562839535E+03  0.37315627441E+03 -0.48856831299E+02  0.48481060358E+03  0.10100000352E+00 0. -1.
       -3    1    3    3    0  502  0.30562839535E+03 -0.37315627441E+03  0.10520699329E+04  0.11573700683E+04  0.10100000352E+00 0.  1.
</event>
<event>
 5   0  0.6458698E-05  0.1299799E+04  0.7818609E-02  0.9029724E-01
        2   -1    0    0  501    0  0.00000000000E+00  0.00000000000E+00  0.13153833878E+04  0.13153833878E+04  0.25500000920E-02 0.  1.
       -2   -1    0    0    0  501  0.00000000000E+00  0.00000000000E+00 -0.32109990330E+03  0.32109990331E+03  0.25500000920E-02 0. -1.
    10030    2    1    2    0    0  0.00000000000E+00  0.00000000000E+00  0.99428348449E+03  0.16364832911E+04  0.12997991824E+04 0.  0.
        3    1    3    3  502    0  0.55208773961E+03 -0.25576559477E+03  0.78466509108E+03  0.99293314330E+03  0.10100000352E+00 0.  1.
       -3    1    3    3    0  502 -0.55208773961E+03  0.25576559477E+03  0.20961839341E+03  0.64355014781E+03  0.10100000352E+00 0. -1.
</event>
<event>
 5   0  0.2512000E-05  0.1300336E+04  0.7818609E-02  0.9029299E-01
       -3   -1    0    0    0  501  0.00000000000E+00  0.00000000000E+00  0.13803539137E+04  0.13803539174E+04  0.10100000352E+00 0. -1.
        3   -1    0    0  501    0  0.00000000000E+00  0.00000000000E+00 -0.30623900739E+03  0.30623902404E+03  0.10100000352E+00 0.  1.
    10030    2    1    2    0    0  0.00000000000E+00  0.00000000000E+00  0.10741149063E+04  0.16865929414E+04  0.13003356944E+04 0.  0.
        1    1    3    3  502    0 -0.31740328796E+03  0.55578236113E+03  0.68539389739E+03  0.93776525568E+03  0.50400001928E-02 0.  1.
       -1    1    3    3    0  502  0.31740328796E+03 -0.55578236113E+03  0.38872100891E+03  0.74882768575E+03  0.50400001928E-02 0. -1.
</event>
<event>
 5   0  0.6742824E-05  0.1301411E+04  0.7818609E-02  0.9028447E-01
       -2   -1    0    0    0  501  0.00000000000E+00  0.00000000000E+00  0.23967224542E+03  0.23967224544E+03  0.25500000920E-02 0.  1.
        2   -1    0    0  501    0  0.00000000000E+00  0.00000000000E+00 -0.17666537501E+04  0.17666537501E+04  0.25500000920E-02 0. -1.
    10030    2    1    2    0    0  0.00000000000E+00  0.00000000000E+00 -0.15269815047E+04  0.20063259956E+04  0.13014113434E+04 0.  0.
        4    1    3    3  502    0 -0.47478520652E+03 -0.17185467999E+03 -0.13962476709E+04  0.14847438146E+04  0.12699999809E+01 0. -1.
       -4    1    3    3    0  502  0.47478520652E+03  0.17185467999E+03 -0.13073383378E+03  0.52158218102E+03  0.12699999809E+01 0.  1.
</event>
<event>
 5   0  0.6742824E-05  0.1299984E+04  0.7818609E-02  0.9029578E-01
        2   -1    0    0  501    0  0.00000000000E+00  0.00000000000E+00  0.13352590666E+04  0.13352590666E+04  0.25500000920E-02 0.  1.
       -2   -1    0    0    0  501  0.00000000000E+00  0.00000000000E+00 -0.31641021683E+03  0.31641021685E+03  0.25500000920E-02 0. -1.
    10030    2    1    2    0    0  0.00000000000E+00  0.00000000000E+00  0.10188488498E+04  0.16516692834E+04  0.12999840165E+04 0.  0.
        4    1    3    3  502    0  0.31512109612E+03  0.18417527677E+03  0.11927597855E+04  0.12473569484E+04  0.12699999809E+01 0.  1.
       -4    1    3    3    0  502 -0.31512109612E+03 -0.18417527677E+03 -0.17391093578E+03  0.40431233506E+03  0.12699999809E+01 0. -1.
</event>
<event>
 5   0  0.3718559E-05  0.1299582E+04  0.7818609E-02  0.9029897E-01
       -1   -1    0    0    0  501  0.00000000000E+00  0.00000000000E+00  0.80550030887E+03  0.80550030888E+03  0.50400001928E-02 0.  1.
        1   -1    0    0  501    0  0.00000000000E+00  0.00000000000E+00 -0.52418152373E+03  0.52418152375E+03  0.50400001928E-02 0. -1.
    10030    2    1    2    0    0  0.00000000000E+00  0.00000000000E+00  0.28131878514E+03  0.13296818326E+04  0.12995820548E+04 0.  0.
        2    1    3    3  502    0 -0.47256285676E+03 -0.14263039650E+03 -0.29170251285E+03  0.57336675838E+03  0.25500000920E-02 0. -1.
       -2    1    3    3    0  502  0.47256285676E+03  0.14263039650E+03  0.57302129799E+03  0.75631507426E+03  0.25500000920E-02 0.  1.
</event>
<event>
 5   0  0.6671239E-05  0.1301207E+04  0.7818609E-02  0.9028608E-01
       -2   -1    0    0    0  501  0.00000000000E+00  0.00000000000E+00  0.45961173689E+03  0.45961173690E+03  0.25500000920E-02 0. -1.
        2   -1    0    0  501    0  0.00000000000E+00  0.00000000000E+00 -0.92096254650E+03  0.92096254651E+03  0.25500000920E-02 0.  1.
    10030    2    1    2    0    0  0.00000000000E+00  0.00000000000E+00 -0.46135080961E+03  0.13805742834E+04  0.13012074325E+04 0.  0.
        1    1    3    3  502    0  0.23378419756E+03  0.39950683665E+03  0.25440280935E+03  0.52818704356E+03  0.50400001928E-02 0. -1.
       -1    1    3    3    0  502 -0.23378419756E+03 -0.39950683665E+03 -0.71575361896E+03  0.85238723984E+03  0.50400001928E-02 0.  1.
</event>
<event>
 5   0  0.3689707E-05  0.1300896E+04  0.7818609E-02  0.9028855E-01
       -1   -1    0    0    0  501  0.00000000000E+00  0.00000000000E+00  0.37808145841E+03  0.37808145844E+03  0.50400001928E-02 0. -1.
        1   -1    0    0  501    0  0.00000000000E+00  0.00000000000E+00 -0.11190255034E+04  0.11190255034E+04  0.50400001928E-02 0.  1.
    10030    2    1    2    0    0  0.00000000000E+00  0.00000000000E+00 -0.74094404502E+03  0.14971069619E+04  0.13008962977E+04 0.  0.
        1    1    3    3  502    0 -0.20266955637E+03  0.98993260607E+02  0.33163466338E+03  0.40106877802E+03  0.50400001928E-02 0. -1.
       -1    1    3    3    0  502  0.20266955637E+03 -0.98993260607E+02 -0.10725787084E+04  0.10960381839E+04  0.50400001928E-02 0.  1.
</event>
<event>
 5   0  0.3552698E-05  0.1300280E+04  0.7818609E-02  0.9029343E-01
       -1   -1    0    0    0  501  0.00000000000E+00  0.00000000000E+00  0.65946778464E+03  0.65946778466E+03  0.50400001928E-02 0.  1.
        1   -1    0    0  501    0  0.00000000000E+00  0.00000000000E+00 -0.64094453889E+03  0.64094453891E+03  0.50400001928E-02 0. -1.
    10030    2    1    2    0    0  0.00000000000E+00  0.00000000000E+00  0.18523245753E+02  0.13004123236E+04  0.13002803931E+04 0.  0.
        5    1    3    3  502    0  0.26765097743E+02 -0.17073388851E+03 -0.61753456905E+03  0.64127799363E+03  0.46999998093E+01 0. -1.
       -5    1    3    3    0  502 -0.26765097743E+02  0.17073388851E+03  0.63605781480E+03  0.65913432994E+03  0.46999998093E+01 0.  1.
</event>
<event>
 5   0  0.6671239E-05  0.1300002E+04  0.7818609E-02  0.9029563E-01
       -2   -1    0    0    0  501  0.00000000000E+00  0.00000000000E+00  0.22363304063E+03  0.22363304065E+03  0.25500000920E-02 0.  1.
        2   -1    0    0  501    0  0.00000000000E+00  0.00000000000E+00 -0.18892619312E+04  0.18892619312E+04  0.25500000920E-02 0. -1.
    10030    2    1    2    0    0  0.00000000000E+00  0.00000000000E+00 -0.16656288905E+04  0.21128949718E+04  0.13000021388E+04 0.  0.
        1    1    3    3  502    0  0.19823090756E+03  0.52391177386E+01  0.17326987461E+03  0.26333512971E+03  0.50400001928E-02 0.  1.
       -1    1    3    3    0  502 -0.19823090756E+03 -0.52391177386E+01 -0.18388987651E+04  0.18495598421E+04  0.50400001928E-02 0. -1.
</event>
<event>
 5   0  0.3552698E-05  0.1299359E+04  0.7818609E-02  0.9030073E-01
       -1   -1    0    0    0  501  0.00000000000E+00  0.00000000000E+00  0.60157212414E+03  0.60157212416E+03  0.50400001928E-02 0.  1.
        1   -1    0    0  501    0  0.00000000000E+00  0.00000000000E+00 -0.70163433266E+03  0.70163433268E+03  0.50400001928E-02 0. -1.
    10030    2    1    2    0    0  0.00000000000E+00  0.00000000000E+00 -0.10006220853E+03  0.13032064568E+04  0.12993593127E+04 0.  0.
        5    1    3    3  502    0  0.36117023488E+02 -0.54837514639E+02  0.59821837284E+03  0.60182963037E+03  0.46999998093E+01 0.  1.
       -5    1    3    3    0  502 -0.36117023488E+02  0.54837514639E+02 -0.69828058136E+03  0.70137682647E+03  0.46999998093E+01 0. -1.
</event>
<event>
 5   0  0.3631841E-05  0.1296681E+04  0.7818609E-02  0.9032201E-01
       -1   -1    0    0    0  501  0.00000000000E+00  0.00000000000E+00  0.40070295698E+03  0.40070295701E+03  0.50400001928E-02 0. -1.
        1   -1    0    0  501    0  0.00000000000E+00  0.00000000000E+00 -0.10490201185E+04  0.10490201185E+04  0.50400001928E-02 0.  1.
    10030    2    1    2    0    0  0.00000000000E+00  0.00000000000E+00 -0.64831716154E+03  0.14497230755E+04  0.12966810918E+04 0.  0.
        3    1    3    3  502    0  0.51141772655E+03 -0.38344934470E+03 -0.20289547553E+03  0.67063259328E+03  0.10100000352E+00 0. -1.
       -3    1    3    3    0  502 -0.51141772655E+03  0.38344934470E+03 -0.44542168601E+03  0.77909048226E+03  0.10100000352E+00 0.  1.
</event>
<event>
 5   0  0.3551277E-05  0.1300196E+04  0.7818609E-02  0.9029409E-01
       -1   -1    0    0    0  501  0.00000000000E+00  0.00000000000E+00  0.58322428001E+03  0.58322428004E+03  0.50400001928E-02 0.  1.
        1   -1    0    0  501    0  0.00000000000E+00  0.00000000000E+00 -0.72464011295E+03  0.72464011297E+03  0.50400001928E-02 0. -1.
    10030    2    1    2    0    0  0.00000000000E+00  0.00000000000E+00 -0.14141583294E+03  0.13078643930E+04  0.13001964593E+04 0.  0.
        4    1    3    3  502    0  0.43392361651E+03 -0.57039210809E+01  0.41619620950E+03  0.60128457271E+03  0.12699999809E+01 0.  1.
       -4    1    3    3    0  502 -0.43392361651E+03  0.57039210809E+01 -0.55761204244E+03  0.70657982030E+03  0.12699999809E+01 0. -1.
</event>
<event>
 5   0  0.6688086E-05  0.1300239E+04  0.7818609E-02  0.9029376E-01
       -2   -1    0    0    0  501  0.00000000000E+00  0.00000000000E+00  0.32087826195E+03  0.32087826196E+03  0.25500000920E-02 0. -1.
        2   -1    0    0  501    0  0.00000000000E+00  0.00000000000E+00 -0.13171827695E+04  0.13171827695E+04  0.25500000920E-02 0.  1.
    10030    2    1    2    0    0  0.00000000000E+00  0.00000000000E+00 -0.99630450758E+03  0.16380610315E+04  0.13002389285E+04 0.  0.
        5    1    3    3  502    0  0.27676528030E+03  0.71421536441E+02 -0.12337519541E+04  0.12664383248E+04  0.46999998093E+01 0.  1.
       -5    1    3    3    0  502 -0.27676528030E+03 -0.71421536441E+02  0.23744744655E+03  0.37162270668E+03  0.46999998093E+01 0. -1.
</event>
<event>
 5   0  0.6671239E-05  0.1299656E+04  0.7818609E-02  0.9029838E-01
       -2   -1    0    0    0  501  0.00000000000E+00  0.00000000000E+00  0.41333922070E+03  0.41333922071E+03  0.25500000920E-02 0.  1.
        2   -1    0    0  501    0  0.00000000000E+00  0.00000000000E+00 -0.10216222680E+04  0.10216222680E+04  0.25500000920E-02 0. -1.
    10030    2    1    2    0    0  0.00000000000E+00  0.00000000000E+00 -0.60828304732E+03  0.14349614887E+04  0.12996561886E+04 0.  0.
        1    1    3    3  502    0 -0.38210947499E+03  0.34550726903E+03  0.13319366206E+03  0.53209348377E+03  0.50400001928E-02 0.  1.
       -1    1    3    3    0  502  0.38210947499E+03 -0.34550726903E+03 -0.74147670937E+03  0.90286800497E+03  0.50400001928E-02 0. -1.
</event>
<event>
 5   0  0.3718559E-05  0.1300372E+04  0.7818609E-02  0.9029270E-01
       -1   -1    0    0    0  501  0.00000000000E+00  0.00000000000E+00  0.21989324035E+03  0.21989324041E+03  0.50400001928E-02 0. -1.
        1   -1    0    0  501    0  0.00000000000E+00  0.00000000000E+00 -0.19224880755E+04  0.19224880755E+04  0.50400001928E-02 0.  1.
    10030    2    1    2    0    0  0.00000000000E+00  0.00000000000E+00 -0.17025948352E+04  0.21423813159E+04  0.13003724582E+04 0.  0.
        2    1    3    3  502    0 -0.20188485066E+03 -0.65784283796E+02 -0.18637572861E+04  0.18758134999E+04  0.25500000920E-02 0.  1.
       -2    1    3    3    0  502  0.20188485066E+03  0.65784283796E+02  0.16116245096E+03  0.26656781600E+03  0.25500000920E-02 0. -1.
</event>
<event>
 5   0  0.3552698E-05  0.1300333E+04  0.7818609E-02  0.9029301E-01
        1   -1    0    0  501    0  0.00000000000E+00  0.00000000000E+00  0.18162692661E+04  0.18162692661E+04  0.50400001928E-02 0. -1.
       -1   -1    0    0    0  501  0.00000000000E+00  0.00000000000E+00 -0.23273884559E+03  0.23273884564E+03  0.50400001928E-02 0.  1.
    10030    2    1    2    0    0  0.00000000000E+00  0.00000000000E+00  0.15835304205E+04  0.20490081117E+04  0.13003328994E+04 0.  0.
        5    1    3    3  502    0 -0.50388486750E+03 -0.34066482532E+03  0.11536470280E+04  0.13041763830E+04  0.46999998093E+01 0. -1.
       -5    1    3    3    0  502  0.50388486750E+03  0.34066482532E+03  0.42988339250E+03  0.74483172868E+03  0.46999998093E+01 0.  1.
</event>
<event>
 5   0  0.6458698E-05  0.1299986E+04  0.7818609E-02  0.9029577E-01
        2   -1    0    0  501    0  0.00000000000E+00  0.00000000000E+00  0.92087680688E+03  0.92087680689E+03  0.25500000920E-02 0. -1.
       -2   -1    0    0    0  501  0.00000000000E+00  0.00000000000E+00 -0.45879175204E+03  0.45879175204E+03  0.25500000920E-02 0.  1.
    10030    2    1    2    0    0  0.00000000000E+00  0.00000000000E+00  0.46208505485E+03  0.13796685589E+04  0.12999856671E+04 0.  0.
        3    1    3    3  502    0  0.21653570387E+03  0.27014286836E+03 -0.35279119126E+03  0.49429395627E+03  0.10100000352E+00 0.  1.
       -3    1    3    3    0  502 -0.21653570387E+03 -0.27014286836E+03  0.81487624610E+03  0.88537460266E+03  0.10100000352E+00 0. -1.
</event>
<event>
 5   0  0.6671239E-05  0.1300936E+04  0.7818609E-02  0.9028823E-01
        2   -1    0    0  501    0  0.00000000000E+00  0.00000000000E+00  0.11975769965E+04  0.11975769965E+04  0.25500000920E-02 0.  1.
       -2   -1    0    0    0  501  0.00000000000E+00  0.00000000000E+00 -0.35330412255E+03  0.35330412256E+03  0.25500000920E-02 0. -1.
    10030    2    1    2    0    0  0.00000000000E+00  0.00000000000E+00  0.84427287394E+03  0.15508811190E+04  0.13009364165E+04 0.  0.
        1    1    3    3  502    0 -0.28923068164E+03 -0.52836920519E+03  0.71482840809E+03  0.93477700936E+03  0.50400001928E-02 0.  1.
       -1    1    3    3    0  502  0.28923068164E+03  0.52836920519E+03  0.12944446585E+03  0.61610410968E+03  0.50400001928E-02 0. -1.
</event>
<event>
 5   0  0.2512000E-05  0.1300345E+04  0.7818609E-02  0.9029291E-01
       -3   -1    0    0    0  501  0.00000000000E+00  0.00000000000E+00  0.56452136466E+03  0.56452137370E+03  0.10100000352E+00 0.  1.
        3   -1    0    0  501    0  0.00000000000E+00  0.00000000000E+00 -0.74881926848E+03  0.74881927529E+03  0.10100000352E+00 0. -1.
    10030    2    1    2    0    0  0.00000000000E+00  0.00000000000E+00 -0.18429790382E+03  0.13133406490E+04  0.13003453168E+04 0.  0.
        3    1    3    3  502    0  0.28435951793E+03 -0.15266928794E+03  0.47789945841E+03  0.57667681544E+03  0.10100000352E+00 0.  1.
       -3    1    3    3    0  502 -0.28435951793E+03  0.15266928794E+03 -0.66219736223E+03  0.73666383355E+03  0.10100000352E+00 0. -1.
</event>
<event>
 5   0  0.3552698E-05  0.1300161E+04  0.7818609E-02  0.9029438E-01
       -1   -1    0    0    0  501  0.00000000000E+00  0.00000000000E+00  0.30681948962E+03  0.30681948966E+03  0.50400001928E-02 0.  1.
        1   -1    0    0  501    0  0.00000000000E+00  0.00000000000E+00 -0.13773713013E+04  0.13773713013E+04  0.50400001928E-02 0. -1.
    10030    2    1    2    0    0  0.00000000000E+00  0.00000000000E+00 -0.10705518117E+04  0.16841907909E+04  0.13001605435E+04 0.  0.
        5    1    3    3  502    0  0.61132617358E+03  0.16020015871E+03 -0.73257457211E+03  0.96750781653E+03  0.46999998093E+01 0. -1.
       -5    1    3    3    0  502 -0.61132617358E+03 -0.16020015871E+03 -0.33797723955E+03  0.71668297441E+03  0.46999998093E+01 0.  1.
</event>
<event>
 5   0  0.3718559E-05  0.1301590E+04  0.7818609E-02  0.9028305E-01
        1   -1    0    0  501    0  0.00000000000E+00  0.00000000000E+00  0.16365499310E+04  0.16365499311E+04  0.50400001928E-02 0.  1.
       -1   -1    0    0    0  501  0.00000000000E+00  0.00000000000E+00 -0.25879695773E+03  0.25879695778E+03  0.50400001928E-02 0. -1.
    10030    2    1    2    0    0  0.00000000000E+00  0.00000000000E+00  0.13777529733E+04  0.18953468888E+04  0.13015900174E+04 0.  0.
        2    1    3    3  502    0 -0.42821150021E+03  0.31816374700E+03  0.12316635988E+04  0.13422326473E+04  0.25500000920E-02 0.  1.
       -2    1    3    3    0  502  0.42821150021E+03 -0.31816374700E+03  0.14608937448E+03  0.55311424151E+03  0.25500000920E-02 0. -1.
</event>
<event>
 5   0  0.3552698E-05  0.1299091E+04  0.7818609E-02  0.9030287E-01
        1   -1    0    0  501    0  0.00000000000E+00  0.00000000000E+00  0.37816601293E+03  0.37816601296E+03  0.50400001928E-02 0. -1.
       -1   -1    0    0    0  501  0.00000000000E+00  0.00000000000E+00 -0.11156717308E+04  0.11156717308E+04  0.50400001928E-02 0.  1.
    10030    2    1    2    0    0  0.00000000000E+00  0.00000000000E+00 -0.73750571785E+03  0.14938377438E+04  0.12990906515E+04 0.  0.
        5    1    3    3  502    0 -0.77837707992E+02  0.20735824798E+02 -0.11098862116E+04  0.11128154276E+04  0.46999998093E+01 0.  1.
       -5    1    3    3    0  502  0.77837707992E+02 -0.20735824798E+02  0.37238049379E+03  0.38102231610E+03  0.46999998093E+01 0. -1.
</event>
<event>
 5   0  0.3718559E-05  0.1299600E+04  0.7818609E-02  0.9029882E-01
       -1   -1    0    0    0  501  0.00000000000E+00  0.00000000000E+00  0.57302244499E+03  0.57302244501E+03  0.50400001928E-02 0.  1.
        1   -1    0    0  501    0  0.00000000000E+00  0.00000000000E+00 -0.73686480377E+03  0.73686480378E+03  0.50400001928E-02 0. -1.
    10030    2    1    2    0    0  0.00000000000E+00  0.00000000000E+00 -0.16384235877E+03  0.13098872488E+04  0.12996000485E+04 0.  0.
        2    1    3    3  502    0 -0.14506103050E+03  0.31932637550E+03 -0.63326858561E+03  0.72390685740E+03  0.25500000920E-02 0. -1.
       -2    1    3    3    0  502  0.14506103050E+03 -0.31932637550E+03  0.46942622683E+03  0.58598039140E+03  0.25500000920E-02 0.  1.
</event>
<event>
 5   0  0.3552698E-05  0.1298366E+04  0.7818609E-02  0.9030862E-01
       -1   -1    0    0    0  501  0.00000000000E+00  0.00000000000E+00  0.29111154640E+03  0.29111154644E+03  0.50400001928E-02 0.  1.
        1   -1    0    0  501    0  0.00000000000E+00  0.00000000000E+00 -0.14476869256E+04  0.14476869256E+04  0.50400001928E-02 0. -1.
    10030    2    1    2    0    0  0.00000000000E+00  0.00000000000E+00 -0.11565753792E+04  0.17387984721E+04  0.12983657107E+04 0.  0.
        5    1    3    3  502    0  0.39004030188E+03  0.51079012940E+03 -0.45570473936E+03  0.78786222961E+03  0.46999998093E+01 0. -1.
       -5    1    3    3    0  502 -0.39004030188E+03 -0.51079012940E+03 -0.70087063985E+03  0.95093624244E+03  0.46999998093E+01 0.  1.
</event>
<event>
 5   0  0.3718559E-05  0.1300325E+04  0.7818609E-02  0.9029308E-01
        1   -1    0    0  501    0  0.00000000000E+00  0.00000000000E+00  0.88886199450E+03  0.88886199451E+03  0.50400001928E-02 0. -1.
       -1   -1    0    0    0  501  0.00000000000E+00  0.00000000000E+00 -0.47556422567E+03  0.47556422569E+03  0.50400001928E-02 0.  1.
    10030    2    1    2    0    0  0.00000000000E+00  0.00000000000E+00  0.41329776883E+03  0.13644262202E+04  0.13003245228E+04 0.  0.
        2    1    3    3  502    0 -0.18262811893E+03 -0.17337410016E+03 -0.42231618100E+03  0.49169356837E+03  0.25500000920E-02 0.  1.
       -2    1    3    3    0  502  0.18262811893E+03  0.17337410016E+03  0.83561394984E+03  0.87273265184E+03  0.25500000920E-02 0. -1.
</event>
<event>
 5   0  0.6458698E-05  0.1299373E+04  0.7818609E-02  0.9030062E-01
       -2   -1    0    0    0  501  0.00000000000E+00  0.00000000000E+00  0.36561628260E+03  0.36561628261E+03  0.25500000920E-02 0. -1.
        2   -1    0    0  501    0  0.00000000000E+00  0.00000000000E+00 -0.11544691327E+04  0.11544691327E+04  0.25500000920E-02 0.  1.
    10030    2    1    2    0    0  0.00000000000E+00  0.00000000000E+00 -0.78885285014E+03  0.15200854153E+04  0.12993732531E+04 0.  0.
        3    1    3    3  502    0  0.52856008736E+03  0.17862818491E+03 -0.78384925371E+03  0.96213484354E+03  0.10100000352E+00 0.  1.
       -3    1    3    3    0  502 -0.52856008736E+03 -0.17862818491E+03 -0.50035964248E+01  0.55795057181E+03  0.10100000352E+00 0. -1.
</event>
<event>
 5   0  0.6618060E-05  0.1300879E+04  0.7818609E-02  0.9028868E-01
       -2   -1    0    0    0  501  0.00000000000E+00  0.00000000000E+00  0.35698625945E+03  0.35698625946E+03  0.25500000920E-02 0. -1.
        2   -1    0    0  501    0  0.00000000000E+00  0.00000000000E+00 -0.11851207470E+04  0.11851207470E+04  0.25500000920E-02 0.  1.
    10030    2    1    2    0    0  0.00000000000E+00  0.00000000000E+00 -0.82813448750E+03  0.15421070064E+04  0.13008794294E+04 0.  0.
        2    1    3    3  502    0  0.27936818568E+03  0.13069919343E+02 -0.11102052742E+04  0.11448900195E+04  0.25500000920E-02 0.  1.
       -2    1    3    3    0  502 -0.27936818568E+03 -0.13069919343E+02  0.28207078669E+03  0.39721698689E+03  0.25500000920E-02 0. -1.
</event>
<event>
 5   0  0.6671239E-05  0.1300198E+04  0.7818609E-02  0.9029408E-01
        2   -1    0    0  501    0  0.00000000000E+00  0.00000000000E+00  0.56784690685E+03  0.56784690686E+03  0.25500000920E-02 0. -1.
       -2   -1    0    0    0  501  0.00000000000E+00  0.00000000000E+00 -0.74426521480E+03  0.74426521480E+03  0.25500000920E-02 0.  1.
    10030    2    1    2    0    0  0.00000000000E+00  0.00000000000E+00 -0.17641830795E+03  0.13121121217E+04  0.13001979851E+04 0.  0.
        1    1    3    3  502    0 -0.26182351854E+03  0.21803983439E+03 -0.64693922154E+03  0.73117937651E+03  0.50400001928E-02 0.  1.
       -1    1    3    3    0  502  0.26182351854E+03 -0.21803983439E+03  0.47052091359E+03  0.58093274515E+03  0.50400001928E-02 0. -1.
</event>
<event>
 5   0  0.3718559E-05  0.1299575E+04  0.7818609E-02  0.9029902E-01
       -1   -1    0    0    0  501  0.00000000000E+00  0.00000000000E+00  0.75404292686E+03  0.75404292687E+03  0.50400001928E-02 0.  1.
        1   -1    0    0  501    0  0.00000000000E+00  0.00000000000E+00 -0.55994657524E+03  0.55994657526E+03  0.50400001928E-02 0. -1.
    10030    2    1    2    0    0  0.00000000000E+00  0.00000000000E+00  0.19409635162E+03  0.13139895021E+04  0.12995749374E+04 0.  0.
        2    1    3    3  502    0  0.36614370650E+03  0.25024751388E+03 -0.38312857249E+03  0.58606529933E+03  0.25500000920E-02 0. -1.
       -2    1    3    3    0  502 -0.36614370650E+03 -0.25024751388E+03  0.57722492411E+03  0.72792420281E+03  0.25500000920E-02 0.  1.
</event>
<event>
 5   0  0.6742824E-05  0.1299828E+04  0.7818609E-02  0.9029702E-01
        2   -1    0    0  501    0  0.00000000000E+00  0.00000000000E+00  0.14553820154E+04  0.14553820154E+04  0.25500000920E-02 0.  1.
       -2   -1    0    0    0  501  0.00000000000E+00  0.00000000000E+00 -0.29022499116E+03  0.29022499117E+03  0.25500000920E-02 0. -1.
    10030    2    1    2    0    0  0.00000000000E+00  0.00000000000E+00  0.11651570242E+04  0.17456070065E+04  0.12998280387E+04 0.  0.
        4    1    3    3  502    0  0.63248750691E+03  0.11555289016E+03  0.45521945297E+03  0.78779393250E+03  0.12699999809E+01 0. -1.
       -4    1    3    3    0  502 -0.63248750691E+03 -0.11555289016E+03  0.70993757123E+03  0.95781307402E+03  0.12699999809E+01 0.  1.
</event>
<event>
 5   0  0.3689707E-05  0.1300024E+04  0.7818609E-02  0.9029546E-01
       -1   -1    0    0    0  501  0.00000000000E+00  0.00000000000E+00  0.42168541516E+03  0.42168541519E+03  0.50400001928E-02 0. -1.
        1   -1    0    0  501    0  0.00000000000E+00  0.00000000000E+00 -0.10019682147E+04  0.10019682147E+04  0.50400001928E-02 0.  1.
    10030    2    1    2    0    0  0.00000000000E+00  0.00000000000E+00 -0.58028279954E+03  0.14236536299E+04  0.13000236654E+04 0.  0.
        1    1    3    3  502    0 -0.15013412213E+03 -0.19021277422E+03  0.37037101366E+03  0.44260122219E+03  0.50400001928E-02 0. -1.
       -1    1    3    3    0  502  0.15013412213E+03  0.19021277422E+03 -0.95065381320E+03  0.98105240771E+03  0.50400001928E-02 0.  1.
</event>
<event>
 5   0  0.3551277E-05  0.1299411E+04  0.7818609E-02  0.9030033E-01
        1   -1    0    0  501    0  0.00000000000E+00  0.00000000000E+00  0.12394796624E+04  0.12394796625E+04  0.50400001928E-02 0. -1.
       -1   -1    0    0    0  501  0.00000000000E+00  0.00000000000E+00 -0.34055987779E+03  0.34055987783E+03  0.50400001928E-02 0.  1.
    10030    2    1    2    0    0  0.00000000000E+00  0.00000000000E+00  0.89891978465E+03  0.15800395403E+04  0.12994107009E+04 0.  0.
        4    1    3    3  502    0 -0.24309542630E+03  0.42719830615E+03  0.96609767534E+03  0.10839465440E+04  0.12699999809E+01 0. -1.
       -4    1    3    3    0  502  0.24309542630E+03 -0.42719830615E+03 -0.67177890689E+02  0.49609299628E+03  0.12699999809E+01 0.  1.
</event>
<event>
 5   0  0.6458698E-05  0.1299552E+04  0.7818609E-02  0.9029920E-01
       -2   -1    0    0    0  501  0.00000000000E+00  0.00000000000E+00  0.38725400613E+03  0.38725400614E+03  0.25500000920E-02 0.  1.
        2   -1    0    0  501    0  0.00000000000E+00  0.00000000000E+00 -0.10902636323E+04  0.10902636323E+04  0.25500000920E-02 0. -1.
    10030    2    1    2    0    0  0.00000000000E+00  0.00000000000E+00 -0.70300962621E+03  0.14775176385E+04  0.12995521681E+04 0.  0.
        3    1    3    3  502    0 -0.53126570064E+03  0.37365357329E+03 -0.33027372782E+03  0.72865697210E+03  0.10100000352E+00 0. -1.
       -3    1    3    3    0  502  0.53126570064E+03 -0.37365357329E+03 -0.37273589839E+03  0.74886066638E+03  0.10100000352E+00 0.  1.
</event>
<event>
 5   0  0.3552698E-05  0.1300155E+04  0.7818609E-02  0.9029443E-01
        1   -1    0    0  501    0  0.00000000000E+00  0.00000000000E+00  0.59191750795E+03  0.59191750797E+03  0.50400001928E-02 0. -1.
       -1   -1    0    0    0  501  0.00000000000E+00  0.00000000000E+00 -0.71395174532E+03  0.71395174534E+03  0.50400001928E-02 0.  1.
    10030    2    1    2    0    0  0.00000000000E+00  0.00000000000E+00 -0.12203423737E+03  0.13058692533E+04  0.13001546645E+04 0.  0.
        5    1    3    3  502    0 -0.17374874427E+03  0.61045709550E+03  0.80070775360E+02  0.63974988132E+03  0.46999998093E+01 0. -1.
       -5    1    3    3    0  502  0.17374874427E+03 -0.61045709550E+03 -0.20210501273E+03  0.66611937200E+03  0.46999998093E+01 0.  1.
</event>
<event>
 5   0  0.6458698E-05  0.1300338E+04  0.7818609E-02  0.9029297E-01
       -2   -1    0    0    0  501  0.00000000000E+00  0.00000000000E+00  0.43658655963E+03  0.43658655964E+03  0.25500000920E-02 0. -1.
        2   -1    0    0  501    0  0.00000000000E+00  0.00000000000E+00 -0.96823827076E+03  0.96823827076E+03  0.25500000920E-02 0.  1.
    10030    2    1    2    0    0  0.00000000000E+00  0.00000000000E+00 -0.53165171113E+03  0.14048248304E+04  0.13003381338E+04 0.  0.
        3    1    3    3  502    0  0.40524866777E+03  0.33895990882E+02 -0.81387969409E+03  0.90982173395E+03  0.10100000352E+00 0.  1.
       -3    1    3    3    0  502 -0.40524866777E+03 -0.33895990882E+02  0.28222798296E+03  0.49500309645E+03  0.10100000352E+00 0. -1.
</event>
<event>
 5   0  0.3551277E-05  0.1300477E+04  0.7818609E-02  0.9029187E-01
        1   -1    0    0  501    0  0.00000000000E+00  0.00000000000E+00  0.10902556913E+04  0.10902556913E+04  0.50400001928E-02 0.  1.
       -1   -1    0    0    0  501  0.00000000000E+00  0.00000000000E+00 -0.38780832941E+03  0.38780832945E+03  0.50400001928E-02 0. -1.
    10030    2    1    2    0    0  0.00000000000E+00  0.00000000000E+00  0.70244736184E+03  0.14780640207E+04  0.13004772021E+04 0.  0.
        4    1    3    3  502    0  0.23611919247E+03 -0.48024272325E+03 -0.68568885831E+02  0.53952632122E+03  0.12699999809E+01 0. -1.
       -4    1    3    3    0  502 -0.23611919247E+03  0.48024272325E+03  0.77101624767E+03  0.93853769949E+03  0.12699999809E+01 0.  1.
</event>
<event>
 5   0  0.3552698E-05  0.1299012E+04  0.7818609E-02  0.9030349E-01
        1   -1    0    0  501    0  0.00000000000E+00  0.00000000000E+00  0.69626666518E+03  0.69626666520E+03  0.50400001928E-02 0.  1.
       -1   -1    0    0    0  501  0.00000000000E+00  0.00000000000E+00 -0.60588559663E+03  0.60588559665E+03  0.50400001928E-02 0. -1.
    10030    2    1    2    0    0  0.00000000000E+00  0.00000000000E+00  0.90381068549E+02  0.13021522618E+04  0.12990118458E+04 0.  0.
        5    1    3    3  502    0 -0.11966410129E+03 -0.51190290072E+03  0.42752022907E+03  0.67761324748E+03  0.46999998093E+01 0.  1.
       -5    1    3    3    0  502  0.11966410129E+03  0.51190290072E+03 -0.33713916052E+03  0.62453901436E+03  0.46999998093E+01 0. -1.
</event>
<event>
 5   0  0.6688086E-05  0.1299488E+04  0.7818609E-02  0.9029971E-01
        2   -1    0    0  501    0  0.00000000000E+00  0.00000000000E+00  0.18284424640E+04  0.18284424640E+04  0.25500000920E-02 0. -1.
       -2   -1    0    0    0  501  0.00000000000E+00  0.00000000000E+00 -0.23088910084E+03  0.23088910086E+03  0.25500000920E-02 0.  1.
    10030    2    1    2    0    0  0.00000000000E+00  0.00000000000E+00  0.15975533632E+04  0.20593315649E+04  0.12994882631E+04 0.  0.
        5    1    3    3  502    0  0.13721960435E+03 -0.63443166611E+03  0.75360263094E+03  0.99462142253E+03  0.46999998093E+01 0. -1.
       -5    1    3    3    0  502 -0.13721960435E+03  0.63443166611E+03  0.84395073222E+03  0.10647101423E+04  0.46999998093E+01 0.  1.
</event>
<event>
 5   0  0.3689707E-05  0.1300403E+04  0.7818609E-02  0.9029246E-01
       -1   -1    0    0    0  501  0.00000000000E+00  0.00000000000E+00  0.38732145220E+03  0.38732145223E+03  0.50400001928E-02 0. -1.
        1   -1    0    0  501    0  0.00000000000E+00  0.00000000000E+00 -0.10915016276E+04  0.10915016277E+04  0.50400001928E-02 0.  1.
    10030    2    1    2    0    0  0.00000000000E+00  0.00000000000E+00 -0.70418017544E+03  0.14788230799E+04  0.13004030076E+04 0.  0.
        1    1    3    3  502    0 -0.28943522676E+03 -0.32739621173E+03  0.19542472721E+03  0.47869808227E+03  0.50400001928E-02 0. -1.
       -1    1    3    3    0  502  0.28943522676E+03  0.32739621173E+03 -0.89960490265E+03  0.10001249976E+04  0.50400001928E-02 0.  1.
</event>
<event>
 5   0  0.6688086E-05  0.1300027E+04  0.7818609E-02  0.9029544E-01
       -2   -1    0    0    0  501  0.00000000000E+00  0.00000000000E+00  0.25566562727E+03  0.25566562729E+03  0.25500000920E-02 0.  1.
        2   -1    0    0  501    0  0.00000000000E+00  0.00000000000E+00 -0.16526176263E+04  0.16526176263E+04  0.25500000920E-02 0. -1.
    10030    2    1    2    0    0  0.00000000000E+00  0.00000000000E+00 -0.13969519990E+04  0.19082832535E+04  0.13000269568E+04 0.  0.
        5    1    3    3  502    0 -0.41787317126E+02  0.17592125255E+03 -0.16149326695E+04  0.16250304871E+04  0.46999998093E+01 0. -1.
       -5    1    3    3    0  502  0.41787317126E+02 -0.17592125255E+03  0.21798067053E+03  0.28325276644E+03  0.46999998093E+01 0.  1.
</event>
<event>
 5   0  0.3718559E-05  0.1299997E+04  0.7818609E-02  0.9029568E-01
        1   -1    0    0  501    0  0.00000000000E+00  0.00000000000E+00  0.14757083653E+04  0.14757083653E+04  0.50400001928E-02 0. -1.
       -1   -1    0    0    0  501  0.00000000000E+00  0.00000000000E+00 -0.28630185539E+03  0.28630185543E+03  0.50400001928E-02 0.  1.
    10030    2    1    2    0    0  0.00000000000E+00  0.00000000000E+00  0.11894065099E+04  0.17620102207E+04  0.12999969893E+04 0.  0.
        2    1    3    3  502    0  0.41552805980E+03  0.29218503753E+03  0.45036640034E+02  0.50996466896E+03  0.25500000920E-02 0.  1.
       -2    1    3    3    0  502 -0.41552805980E+03 -0.29218503753E+03  0.11443698699E+04  0.12520455518E+04  0.25500000920E-02 0. -1.
</event>
<event>
 5   0  0.3631841E-05  0.1299025E+04  0.7818609E-02  0.9030338E-01
        1   -1    0    0  501    0  0.00000000000E+00  0.00000000000E+00  0.60458771795E+03  0.60458771797E+03  0.50400001928E-02 0.  1.
       -1   -1    0    0    0  501  0.00000000000E+00  0.00000000000E+00 -0.69777577671E+03  0.69777577672E+03  0.50400001928E-02 0. -1.
    10030    2    1    2    0    0  0.00000000000E+00  0.00000000000E+00 -0.93188058756E+02  0.13023634947E+04  0.12990252723E+04 0.  0.
        3    1    3    3  502    0  0.21096070616E+03  0.61429811259E+03 -0.46341133117E+02  0.65116365185E+03  0.10100000352E+00 0. -1.
       -3    1    3    3    0  502 -0.21096070616E+03 -0.61429811259E+03 -0.46846925639E+02  0.65119984284E+03  0.10100000352E+00 0.  1.
</event>
<event>
 5   0  0.2512000E-05  0.1299982E+04  0.7818609E-02  0.9029580E-01
        3   -1    0    0  501    0  0.00000000000E+00  0.00000000000E+00  0.79537322513E+03  0.79537323154E+03  0.10100000352E+00 0.  1.
       -3   -1    0    0    0  501  0.00000000000E+00  0.00000000000E+00 -0.53118232768E+03  0.53118233728E+03  0.10100000352E+00 0. -1.
    10030    2    1    2    0    0  0.00000000000E+00  0.00000000000E+00  0.26419089745E+03  0.13265555688E+04  0.12999818641E+04 0.  0.
        5    1    3    3  502    0  0.16267779149E+03 -0.62612121136E+03  0.19642606961E+03  0.67608958428E+03  0.46999998093E+01 0.  1.
       -5    1    3    3    0  502 -0.16267779149E+03  0.62612121136E+03  0.67764827841E+02  0.65046598454E+03  0.46999998093E+01 0. -1.
</event>
<event>
 5   0  0.3552698E-05  0.1300095E+04  0.7818609E-02  0.9029490E-01
       -1   -1    0    0    0  501  0.00000000000E+00  0.00000000000E+00  0.49134591978E+03  0.49134591981E+03  0.50400001928E-02 0. -1.
        1   -1    0    0  501    0  0.00000000000E+00  0.00000000000E+00 -0.86000810723E+03  0.86000810725E+03  0.50400001928E-02 0.  1.
    10030    2    1    2    0    0  0.00000000000E+00  0.00000000000E+00 -0.36866218745E+03  0.13513540271E+04  0.13000945727E+04 0.  0.
        5    1    3    3  502    0  0.49369300300E+02  0.36541669052E+03  0.37210027057E+03  0.52387726319E+03  0.46999998093E+01 0. -1.
       -5    1    3    3    0  502 -0.49369300300E+02 -0.36541669052E+03 -0.74076245802E+03  0.82747676387E+03  0.46999998093E+01 0.  1.
</event>
<event>
 5   0  0.6618060E-05  0.1299956E+04  0.7818609E-02  0.9029600E-01
        2   -1    0    0  501    0  0.00000000000E+00  0.00000000000E+00  0.10816685564E+04  0.10816685564E+04  0.25500000920E-02 0.  1.
       -2   -1    0    0    0  501  0.00000000000E+00  0.00000000000E+00 -0.39057371209E+03  0.39057371210E+03  0.25500000920E-02 0. -1.
    10030    2    1    2    0    0  0.00000000000E+00  0.00000000000E+00  0.69109484427E+03  0.14722422685E+04  0.12999558505E+04 0.  0.
        2    1    3    3  502    0  0.37669835602E+03 -0.51905871269E+03  0.22597159143E+03  0.67999026374E+03  0.25500000920E-02 0. -1.
       -2    1    3    3    0  502 -0.37669835602E+03  0.51905871269E+03  0.46512325284E+03  0.79225200472E+03  0.25500000920E-02 0.  1.
</event>
<event>
 5   0  0.6671239E-05  0.1297551E+04  0.7818609E-02  0.9031509E-01
       -2   -1    0    0    0  501  0.00000000000E+00  0.00000000000E+00  0.48414891086E+03  0.48414891086E+03  0.25500000920E-02 0. -1.
        2   -1    0    0  501    0  0.00000000000E+00  0.00000000000E+00 -0.86938067851E+03  0.86938067852E+03  0.25500000920E-02 0.  1.
    10030    2    1    2    0    0  0.00000000000E+00  0.00000000000E+00 -0.38523176766E+03  0.13535295894E+04  0.12975510913E+04 0.  0.
        1    1    3    3  502    0 -0.17414259280E+03 -0.70424928798E+01 -0.84450386307E+03  0.86230041986E+03  0.50400001928E-02 0.  1.
       -1    1    3    3    0  502  0.17414259280E+03  0.70424928798E+01  0.45927209541E+03  0.49122916952E+03  0.50400001928E-02 0. -1.
</event>
<event>
 5   0  0.3689707E-05  0.1301214E+04  0.7818609E-02  0.9028603E-01
       -1   -1    0    0    0  501  0.00000000000E+00  0.00000000000E+00  0.48016995354E+03  0.48016995357E+03  0.50400001928E-02 0. -1.
        1   -1    0    0  501    0  0.00000000000E+00  0.00000000000E+00 -0.88154144388E+03  0.88154144390E+03  0.50400001928E-02 0.  1.
    10030    2    1    2    0    0  0.00000000000E+00  0.00000000000E+00 -0.40137149034E+03  0.13617113975E+04  0.13012143777E+04 0.  0.
        1    1    3    3  502    0 -0.44942820726E+03  0.43591556412E+03 -0.38577484725E+03  0.73541167064E+03  0.50400001928E-02 0.  1.
       -1    1    3    3    0  502  0.44942820726E+03 -0.43591556412E+03 -0.15596643097E+02  0.62629972682E+03  0.50400001928E-02 0. -1.
</event>
<event>
 5   0  0.3631841E-05  0.1299426E+04  0.7818609E-02  0.9030021E-01
       -1   -1    0    0    0  501  0.00000000000E+00  0.00000000000E+00  0.57104505417E+03  0.57104505420E+03  0.50400001928E-02 0. -1.
        1   -1    0    0  501    0  0.00000000000E+00  0.00000000000E+00 -0.73921813894E+03  0.73921813896E+03  0.50400001928E-02 0.  1.
    10030    2    1    2    0    0  0.00000000000E+00  0.00000000000E+00 -0.16817308476E+03  0.13102631932E+04  0.12994258151E+04 0.  0.
        3    1    3    3  502    0  0.25841165842E+03  0.50678741550E+03  0.23240503750E+03  0.61450970811E+03  0.10100000352E+00 0. -1.
       -3    1    3    3    0  502 -0.25841165842E+03 -0.50678741550E+03 -0.40057812226E+03  0.69575348504E+03  0.10100000352E+00 0.  1.
</event>
<event>
 5   0  0.3631841E-05  0.1300079E+04  0.7818609E-02  0.9029502E-01
       -1   -1    0    0    0  501  0.00000000000E+00  0.00000000000E+00  0.42942102462E+03  0.42942102464E+03  0.50400001928E-02 0.  1.
        1   -1    0    0  501    0  0.00000000000E+00  0.00000000000E+00 -0.98400299231E+03  0.98400299232E+03  0.50400001928E-02 0. -1.
    10030    2    1    2    0    0  0.00000000000E+00  0.00000000000E+00 -0.55458196769E+03  0.14134240170E+04  0.13000793410E+04 0.  0.
        3    1    3    3  502    0 -0.47206635650E+03 -0.28675411804E+03  0.95340050332E+02  0.56050361689E+03  0.10100000352E+00 0.  1.
       -3    1    3    3    0  502  0.47206635650E+03  0.28675411804E+03 -0.64992201803E+03  0.85292040008E+03  0.10100000352E+00 0. -1.
</event>
<event>
 5   0  0.3718559E-05  0.1299815E+04  0.7818609E-02  0.9029712E-01
       -1   -1    0    0    0  501  0.00000000000E+00  0.00000000000E+00  0.43775574602E+03  0.43775574605E+03  0.50400001928E-02 0. -1.
        1   -1    0    0  501    0  0.00000000000E+00  0.00000000000E+00 -0.96487472883E+03  0.96487472884E+03  0.50400001928E-02 0.  1.
    10030    2    1    2    0    0  0.00000000000E+00  0.00000000000E+00 -0.52711898281E+03  0.14026304749E+04  0.12998145356E+04 0.  0.
        2    1    3    3  502    0 -0.18696039099E+03  0.36488368134E+03 -0.80771420557E+03  0.90581263327E+03  0.25500000920E-02 0.  1.
       -2    1    3    3    0  502  0.18696039099E+03 -0.36488368134E+03  0.28059522277E+03  0.49681784162E+03  0.25500000920E-02 0. -1.
</event>
<event>
 5   0  0.6671239E-05  0.1299964E+04  0.7818609E-02  0.9029594E-01
       -2   -1    0    0    0  501  0.00000000000E+00  0.00000000000E+00  0.45321818723E+03  0.45321818724E+03  0.25500000920E-02 0.  1.
        2   -1    0    0  501    0  0.00000000000E+00  0.00000000000E+00 -0.93216983190E+03  0.93216983190E+03  0.25500000920E-02 0. -1.
    10030    2    1    2    0    0  0.00000000000E+00  0.00000000000E+00 -0.47895164467E+03  0.13853880191E+04  0.12999635709E+04 0.  0.
        1    1    3    3  502    0  0.60761880147E+03  0.22120601927E+03 -0.30971277879E+03  0.71697609181E+03  0.50400001928E-02 0. -1.
       -1    1    3    3    0  502 -0.60761880147E+03 -0.22120601927E+03 -0.16923886588E+03  0.66841192733E+03  0.50400001928E-02 0.  1.
</event>
<event>
 5   0  0.6458698E-05  0.1300959E+04  0.7818609E-02  0.9028805E-01
       -2   -1    0    0    0  501  0.00000000000E+00  0.00000000000E+00  0.29861878892E+03  0.29861878893E+03  0.25500000920E-02 0. -1.
        2   -1    0    0  501    0  0.00000000000E+00  0.00000000000E+00 -0.14169348097E+04  0.14169348097E+04  0.25500000920E-02 0.  1.
    10030    2    1    2    0    0  0.00000000000E+00  0.00000000000E+00 -0.11183160208E+04  0.17155535986E+04  0.13009586571E+04 0.  0.
        3    1    3    3  502    0 -0.40683251741E+03 -0.45409529273E+03 -0.26016803067E+03  0.66287453299E+03  0.10100000352E+00 0. -1.
       -3    1    3    3    0  502  0.40683251741E+03  0.45409529273E+03 -0.85814799011E+03  0.10526790656E+04  0.10100000352E+00 0.  1.
</event>
<event>
 5   0  0.3631841E-05  0.1301358E+04  0.7818609E-02  0.9028489E-01
        1   -1    0    0  501    0  0.00000000000E+00  0.00000000000E+00  0.11243241803E+04  0.11243241803E+04  0.50400001928E-02 0.  1.
       -1   -1    0    0    0  501  0.00000000000E+00  0.00000000000E+00 -0.37656688513E+03  0.37656688516E+03  0.50400001928E-02 0. -1.
    10030    2    1    2    0    0  0.00000000000E+00  0.00000000000E+00  0.74775729515E+03  0.15008910654E+04  0.13013581436E+04 0.  0.
        3    1    3    3  502    0  0.35025173179E+03  0.54808116911E+03  0.35344162342E+03  0.74026362528E+03  0.10100000352E+00 0.  1.
       -3    1    3    3    0  502 -0.35025173179E+03 -0.54808116911E+03  0.39431567173E+03  0.76062744016E+03  0.10100000352E+00 0. -1.
</event>
<event>
 5   0  0.6742824E-05  0.1299946E+04  0.7818609E-02  0.9029608E-01
        2   -1    0    0  501    0  0.00000000000E+00  0.00000000000E+00  0.38655765671E+03  0.38655765672E+03  0.25500000920E-02 0. -1.
       -2   -1    0    0    0  501  0.00000000000E+00  0.00000000000E+00 -0.10928894268E+04  0.10928894268E+04  0.25500000920E-02 0.  1.
    10030    2    1    2    0    0  0.00000000000E+00  0.00000000000E+00 -0.70633177006E+03  0.14794470835E+04  0.12999458079E+04 0.  0.
        4    1    3    3  502    0 -0.25880050891E+03 -0.59095276675E+03 -0.26311845746E+03  0.69673223802E+03  0.12699999809E+01 0.  1.
       -4    1    3    3    0  502  0.25880050891E+03  0.59095276675E+03 -0.44321331260E+03  0.78271484547E+03  0.12699999809E+01 0. -1.
</event>
<event>
 5   0  0.3631841E-05  0.1300217E+04  0.7818609E-02  0.9029393E-01
        1   -1    0    0  501    0  0.00000000000E+00  0.00000000000E+00  0.10578086401E+04  0.10578086401E+04  0.50400001928E-02 0. -1.
       -1   -1    0    0    0  501  0.00000000000E+00  0.00000000000E+00 -0.39954425223E+03  0.39954425226E+03  0.50400001928E-02 0.  1.
    10030    2    1    2    0    0  0.00000000000E+00  0.00000000000E+00  0.65826438787E+03  0.14573528924E+04  0.13002174620E+04 0.  0.
        3    1    3    3  502    0  0.23079569863E+03  0.56066838477E+03  0.66207509073E+02  0.60991731952E+03  0.10100000352E+00 0.  1.
       -3    1    3    3    0  502 -0.23079569863E+03 -0.56066838477E+03  0.59205687880E+03  0.84743557284E+03  0.10100000352E+00 0. -1.
</event>
<event>
 5   0  0.3631841E-05  0.1300056E+04  0.7818609E-02  0.9029521E-01
       -1   -1    0    0    0  501  0.00000000000E+00  0.00000000000E+00  0.20714133757E+03  0.20714133763E+03  0.50400001928E-02 0. -1.
        1   -1    0    0  501    0  0.00000000000E+00  0.00000000000E+00 -0.20398457229E+04  0.20398457229E+04  0.50400001928E-02 0.  1.
    10030    2    1    2    0    0  0.00000000000E+00  0.00000000000E+00 -0.18327043853E+04  0.22469870605E+04  0.13000559550E+04 0.  0.
        3    1    3    3  502    0 -0.14824004287E+02 -0.39525629879E+03 -0.18079152055E+04  0.18506768204E+04  0.10100000352E+00 0.  1.
       -3    1    3    3    0  502  0.14824004287E+02  0.39525629879E+03 -0.24789179812E+02  0.39631024018E+03  0.10100000352E+00 0. -1.
</event>
<event>
 5   0  0.6688086E-05  0.1300257E+04  0.7818609E-02  0.9029361E-01
        2   -1    0    0  501    0  0.00000000000E+00  0.00000000000E+00  0.14005611724E+04  0.14005611724E+04  0.25500000920E-02 0.  1.
       -2   -1    0    0    0  501  0.00000000000E+00  0.00000000000E+00 -0.30178412396E+03  0.30178412397E+03  0.25500000920E-02 0. -1.
    10030    2    1    2    0    0  0.00000000000E+00  0.00000000000E+00  0.10987770485E+04  0.17023452964E+04  0.13002570923E+04 0.  0.
        5    1    3    3  502    0 -0.16028289938E+03 -0.22382744305E+03 -0.22167976793E+03  0.35348739950E+03  0.46999998093E+01 0. -1.
       -5    1    3    3    0  502  0.16028289938E+03  0.22382744305E+03  0.13204568164E+04  0.13488578969E+04  0.46999998093E+01 0.  1.
</event>
<event>
 5   0  0.3551277E-05  0.1295103E+04  0.7818609E-02  0.9033458E-01
       -1   -1    0    0    0  501  0.00000000000E+00  0.00000000000E+00  0.13551621968E+04  0.13551621968E+04  0.50400001928E-02 0. -1.
        1   -1    0    0  501    0  0.00000000000E+00  0.00000000000E+00 -0.30942638497E+03  0.30942638501E+03  0.50400001928E-02 0.  1.
    10030    2    1    2    0    0  0.00000000000E+00  0.00000000000E+00  0.10457358118E+04  0.16645885818E+04  0.12951029915E+04 0.  0.
        4    1    3    3  502    0 -0.12733863767E+02  0.30402451722E+03  0.12575440878E+04  0.12938360808E+04  0.12699999809E+01 0. -1.
       -4    1    3    3    0  502  0.12733863767E+02 -0.30402451722E+03 -0.21180827595E+03  0.37075250103E+03  0.12699999809E+01 0.  1.
</event>
<event>
 5   0  0.3631841E-05  0.1299908E+04  0.7818609E-02  0.9029638E-01
        1   -1    0    0  501    0  0.00000000000E+00  0.00000000000E+00  0.27172041719E+03  0.27172041723E+03  0.50400001928E-02 0.  1.
       -1   -1    0    0    0  501  0.00000000000E+00  0.00000000000E+00 -0.15546880145E+04  0.15546880145E+04  0.50400001928E-02 0. -1.
    10030    2    1    2    0    0  0.00000000000E+00  0.00000000000E+00 -0.12829675973E+04  0.18264084317E+04  0.12999084213E+04 0.  0.
        3    1    3    3  502    0  0.36103421918E+03 -0.15850035063E+03  0.84485620318E+02  0.40324421733E+03  0.10100000352E+00 0.  1.
       -3    1    3    3    0  502 -0.36103421918E+03  0.15850035063E+03 -0.13674532176E+04  0.14231642144E+04  0.10100000352E+00 0. -1.
</event>
<event>
 5   0  0.6618060E-05  0.1300188E+04  0.7818609E-02  0.9029416E-01
       -2   -1    0    0    0  501  0.00000000000E+00  0.00000000000E+00  0.28566039115E+03  0.28566039116E+03  0.25500000920E-02 0. -1.
        2   -1    0    0  501    0  0.00000000000E+00  0.00000000000E+00 -0.14794563109E+04  0.14794563109E+04  0.25500000920E-02 0.  1.
    10030    2    1    2    0    0  0.00000000000E+00  0.00000000000E+00 -0.11937959198E+04  0.17651167021E+04  0.13001877841E+04 0.  0.
        2    1    3    3  502    0  0.11539968038E+03 -0.25425753640E+03  0.20010802007E+03  0.34352176168E+03  0.25500000920E-02 0. -1.
       -2    1    3    3    0  502 -0.11539968038E+03  0.25425753640E+03 -0.13939039399E+04  0.14215949404E+04  0.25500000920E-02 0.  1.
</event>
<event>
 5   0  0.3551277E-05  0.1300327E+04  0.7818609E-02  0.9029306E-01
        1   -1    0    0  501    0  0.00000000000E+00  0.00000000000E+00  0.78807527925E+03  0.78807527926E+03  0.50400001928E-02 0.  1.
       -1   -1    0    0    0  501  0.00000000000E+00  0.00000000000E+00 -0.53638632760E+03  0.53638632763E+03  0.50400001928E-02 0. -1.
    10030    2    1    2    0    0  0.00000000000E+00  0.00000000000E+00  0.25168895164E+03  0.13244616069E+04  0.13003273510E+04 0.  0.
        4    1    3    3  502    0  0.17998113922E+03 -0.43184041450E+03 -0.33401240196E+03  0.57484367582E+03  0.12699999809E+01 0. -1.
       -4    1    3    3    0  502 -0.17998113922E+03  0.43184041450E+03  0.58570135360E+03  0.74961793107E+03  0.12699999809E+01 0.  1.
</event>
<event>
 5   0  0.6671239E-05  0.1299298E+04  0.7818609E-02  0.9030122E-01
       -2   -1    0    0    0  501  0.00000000000E+00  0.00000000000E+00  0.22821880529E+03  0.22821880531E+03  0.25500000920E-02 0.  1.
        2   -1    0    0  501    0  0.00000000000E+00  0.00000000000E+00 -0.18492935471E+04  0.18492935471E+04  0.25500000920E-02 0. -1.
    10030    2    1    2    0    0  0.00000000000E+00  0.00000000000E+00 -0.16210747418E+04  0.20775123524E+04  0.12992976010E+04 0.  0.
        1    1    3    3  502    0 -0.51835914809E+03 -0.36145227129E+03 -0.10514414789E+04  0.12267327070E+04  0.50400001928E-02 0. -1.
       -1    1    3    3    0  502  0.51835914809E+03  0.36145227129E+03 -0.56963326292E+03  0.85077964543E+03  0.50400001928E-02 0.  1.
</event>
<event>
 5   0  0.3718559E-05  0.1300065E+04  0.7818609E-02  0.9029513E-01
        1   -1    0    0  501    0  0.00000000000E+00  0.00000000000E+00  0.14443165136E+04  0.14443165136E+04  0.50400001928E-02 0. -1.
       -1   -1    0    0    0  501  0.00000000000E+00  0.00000000000E+00 -0.29255527311E+03  0.29255527316E+03  0.50400001928E-02 0.  1.
    10030    2    1    2    0    0  0.00000000000E+00  0.00000000000E+00  0.11517612404E+04  0.17368717867E+04  0.13000652478E+04 0.  0.
        2    1    3    3  502    0  0.38734194632E+03 -0.46150083854E+03  0.24992796764E+03  0.65228889027E+03  0.25500000920E-02 0.  1.
       -2    1    3    3    0  502 -0.38734194632E+03  0.46150083854E+03  0.90183327280E+03  0.10845828965E+04  0.25500000920E-02 0. -1.
</event>
<event>
 5   0  0.3551277E-05  0.1299097E+04  0.7818609E-02  0.9030282E-01
        1   -1    0    0  501    0  0.00000000000E+00  0.00000000000E+00  0.11136134081E+04  0.11136134081E+04  0.50400001928E-02 0. -1.
       -1   -1    0    0    0  501  0.00000000000E+00  0.00000000000E+00 -0.37886848106E+03  0.37886848109E+03  0.50400001928E-02 0.  1.
    10030    2    1    2    0    0  0.00000000000E+00  0.00000000000E+00  0.73474492701E+03  0.14924818892E+04  0.12990966406E+04 0.  0.
        4    1    3    3  502    0  0.89661018784E+02  0.29902910736E+03  0.10217736995E+04  0.10684009600E+04  0.12699999809E+01 0. -1.
       -4    1    3    3    0  502 -0.89661018784E+02 -0.29902910736E+03 -0.28702877252E+03  0.42408092918E+03  0.12699999809E+01 0.  1.
</event>
<event>
 5   0  0.6458698E-05  0.1299680E+04  0.7818609E-02  0.9029819E-01
        2   -1    0    0  501    0  0.00000000000E+00  0.00000000000E+00  0.74563142804E+03  0.74563142804E+03  0.25500000920E-02 0. -1.
       -2   -1    0    0    0  501  0.00000000000E+00  0.00000000000E+00 -0.56635488249E+03  0.56635488249E+03  0.25500000920E-02 0.  1.
    10030    2    1    2    0    0  0.00000000000E+00  0.00000000000E+00  0.17927654555E+03  0.13119863105E+04  0.12996799603E+04 0.  0.
        3    1    3    3  502    0  0.27778063501E+02  0.38144298571E+03 -0.44071399371E+03  0.58352309861E+03  0.10100000352E+00 0.  1.
       -3    1    3    3    0  502 -0.27778063501E+02 -0.38144298571E+03  0.61999053926E+03  0.72846321193E+03  0.10100000352E+00 0. -1.
</event>
<event>
 5   0  0.3631841E-05  0.1299687E+04  0.7818609E-02  0.9029813E-01
       -1   -1    0    0    0  501  0.00000000000E+00  0.00000000000E+00  0.69782625185E+03  0.69782625187E+03  0.50400001928E-02 0.  1.
        1   -1    0    0  501    0  0.00000000000E+00  0.00000000000E+00 -0.60516048442E+03  0.60516048444E+03  0.50400001928E-02 0. -1.
    10030    2    1    2    0    0  0.00000000000E+00  0.00000000000E+00  0.92665767436E+02  0.13029867363E+04  0.12996874588E+04 0.  0.
        3    1    3    3  502    0  0.63680518283E+03  0.33990629156E+01  0.17613923834E+03  0.66072493217E+03  0.10100000352E+00 0.  1.
       -3    1    3    3    0  502 -0.63680518283E+03 -0.33990629156E+01 -0.83473470900E+02  0.64226180414E+03  0.10100000352E+00 0. -1.
</event>
<event>
 5   0  0.6618060E-05  0.1299045E+04  0.7818609E-02  0.9030322E-01
        2   -1    0    0  501    0  0.00000000000E+00  0.00000000000E+00  0.13801301823E+04  0.13801301823E+04  0.25500000920E-02 0. -1.
       -2   -1    0    0    0  501  0.00000000000E+00  0.00000000000E+00 -0.30568115577E+03  0.30568115578E+03  0.25500000920E-02 0.  1.
    10030    2    1    2    0    0  0.00000000000E+00  0.00000000000E+00  0.10744490266E+04  0.16858113381E+04  0.12990454792E+04 0.  0.
        2    1    3    3  502    0  0.34025157713E+03 -0.30928772424E+03  0.11325559675E+04  0.12223391721E+04  0.25500000920E-02 0. -1.
       -2    1    3    3    0  502 -0.34025157713E+03  0.30928772424E+03 -0.58106940914E+02  0.46347216604E+03  0.25500000920E-02 0.  1.
</event>
<event>
 5   0  0.6458698E-05  0.1299859E+04  0.7818609E-02  0.9029677E-01
        2   -1    0    0  501    0  0.00000000000E+00  0.00000000000E+00  0.91539393766E+03  0.91539393766E+03  0.25500000920E-02 0.  1.
       -2   -1    0    0    0  501  0.00000000000E+00  0.00000000000E+00 -0.46144989377E+03  0.46144989377E+03  0.25500000920E-02 0. -1.
    10030    2    1    2    0    0  0.00000000000E+00  0.00000000000E+00  0.45394404390E+03  0.13768438314E+04  0.12998591236E+04 0.  0.
        3    1    3    3  502    0 -0.49132177829E+03 -0.32220352030E+02 -0.22238579049E+03  0.54026909121E+03  0.10100000352E+00 0. -1.
       -3    1    3    3    0  502  0.49132177829E+03  0.32220352030E+02  0.67632983439E+03  0.83657474023E+03  0.10100000352E+00 0.  1.
</event>
<event>
 5   0  0.6618060E-05  0.1299686E+04  0.7818609E-02  0.9029814E-01
        2   -1    0    0  501    0  0.00000000000E+00  0.00000000000E+00  0.19962823058E+04  0.19962823058E+04  0.25500000920E-02 0.  1.
       -2   -1    0    0    0  501  0.00000000000E+00  0.00000000000E+00 -0.21154120618E+03  0.21154120620E+03  0.25500000920E-02 0. -1.
    10030    2    1    2    0    0  0.00000000000E+00  0.00000000000E+00  0.17847410996E+04  0.22078235120E+04  0.12996860650E+04 0.  0.
        2    1    3    3  502    0  0.14274815940E+03 -0.89696285756E+02 -0.17374499563E+03  0.24209457698E+03  0.25500000920E-02 0. -1.
       -2    1    3    3    0  502 -0.14274815940E+03  0.89696285756E+02  0.19584860952E+04  0.19657289350E+04  0.25500000920E-02 0.  1.
</event>
<event>
 5   0  0.6618060E-05  0.1300118E+04  0.7818609E-02  0.9029471E-01
        2   -1    0    0  501    0  0.00000000000E+00  0.00000000000E+00  0.47399547298E+03  0.47399547299E+03  0.25500000920E-02 0.  1.
       -2   -1    0    0    0  501  0.00000000000E+00  0.00000000000E+00 -0.89152095837E+03  0.89152095837E+03  0.25500000920E-02 0. -1.
    10030    2    1    2    0    0  0.00000000000E+00  0.00000000000E+00 -0.41752548539E+03  0.13655164314E+04  0.13001182998E+04 0.  0.
        2    1    3    3  502    0 -0.11843600944E+03 -0.49155534691E+03 -0.63787640916E+03  0.81396563858E+03  0.25500000920E-02 0. -1.
       -2    1    3    3    0  502  0.11843600944E+03  0.49155534691E+03  0.22035092378E+03  0.55155079279E+03  0.25500000920E-02 0.  1.
</event>
<event>
 5   0  0.3552698E-05  0.1300878E+04  0.7818609E-02  0.9028869E-01
        1   -1    0    0  501    0  0.00000000000E+00  0.00000000000E+00  0.28213656540E+03  0.28213656544E+03  0.50400001928E-02 0.  1.
       -1   -1    0    0    0  501  0.00000000000E+00  0.00000000000E+00 -0.14995245062E+04  0.14995245062E+04  0.50400001928E-02 0. -1.
    10030    2    1    2    0    0  0.00000000000E+00  0.00000000000E+00 -0.12173879408E+04  0.17816610716E+04  0.13008776944E+04 0.  0.
        5    1    3    3  502    0  0.50147198937E+03  0.11123046516E+03 -0.62227903648E+02  0.51743673478E+03  0.46999998093E+01 0.  1.
       -5    1    3    3    0  502 -0.50147198937E+03 -0.11123046516E+03 -0.11551600371E+04  0.12642243369E+04  0.46999998093E+01 0. -1.
</event>
<event>
 5   0  0.3551277E-05  0.1299770E+04  0.7818609E-02  0.9029748E-01
        1   -1    0    0  501    0  0.00000000000E+00  0.00000000000E+00  0.54126750398E+03  0.54126750400E+03  0.50400001928E-02 0.  1.
       -1   -1    0    0    0  501  0.00000000000E+00  0.00000000000E+00 -0.78029913335E+03  0.78029913336E+03  0.50400001928E-02 0. -1.
    10030    2    1    2    0    0  0.00000000000E+00  0.00000000000E+00 -0.23903162937E+03  0.13215666374E+04  0.12997700786E+04 0.  0.
        4    1    3    3  502    0  0.33221342747E+03  0.65407838437E+02  0.44449809069E+03  0.55877017839E+03  0.12699999809E+01 0.  1.
       -4    1    3    3    0  502 -0.33221342747E+03 -0.65407838437E+02 -0.68352972006E+03  0.76279645898E+03  0.12699999809E+01 0. -1.
</event>
<event>
 5   0  0.6618060E-05  0.1302336E+04  0.7818609E-02  0.9027715E-01
        2   -1    0    0  501    0  0.00000000000E+00  0.00000000000E+00  0.10050352421E+04  0.10050352421E+04  0.25500000920E-02 0. -1.
       -2   -1    0    0    0  501  0.00000000000E+00  0.00000000000E+00 -0.42189534062E+03  0.42189534063E+03  0.25500000920E-02 0.  1.
    10030    2    1    2    0    0  0.00000000000E+00  0.00000000000E+00  0.58313990148E+03  0.14269305827E+04  0.13023358796E+04 0.  0.
        2    1    3    3  502    0  0.24112054802E+02 -0.13710990592E+03  0.98853949368E+03  0.99829396876E+03  0.25500000920E-02 0. -1.
       -2    1    3    3    0  502 -0.24112054802E+02  0.13710990592E+03 -0.40539959219E+03  0.42863661398E+03  0.25500000920E-02 0.  1.
</event>
<event>
 5   0  0.6618060E-05  0.1295999E+04  0.7818609E-02  0.9032744E-01
        2   -1    0    0  501    0  0.00000000000E+00  0.00000000000E+00  0.15092291857E+04  0.15092291857E+04  0.25500000920E-02 0.  1.
       -2   -1    0    0    0  501  0.00000000000E+00  0.00000000000E+00 -0.27822361286E+03  0.27822361287E+03  0.25500000920E-02 0. -1.
    10030    2    1    2    0    0  0.00000000000E+00  0.00000000000E+00  0.12310055728E+04  0.17874527986E+04  0.12959987603E+04 0.  0.
        2    1    3    3  502    0 -0.45589063898E+03 -0.24427201319E+03  0.77084526380E+02  0.52292171054E+03  0.25500000920E-02 0. -1.
       -2    1    3    3    0  502  0.45589063898E+03  0.24427201319E+03  0.11539210464E+04  0.12645310880E+04  0.25500000920E-02 0.  1.
</event>
<event>
 5   0  0.2512000E-05  0.1299890E+04  0.7818609E-02  0.9029653E-01
       -3   -1    0    0    0  501  0.00000000000E+00  0.00000000000E+00  0.34684609699E+03  0.34684611170E+03  0.10100000352E+00 0.  1.
        3   -1    0    0  501    0  0.00000000000E+00  0.00000000000E+00 -0.12179126872E+04  0.12179126913E+04  0.10100000352E+00 0. -1.
    10030    2    1    2    0    0  0.00000000000E+00  0.00000000000E+00 -0.87106659017E+03  0.15647588030E+04  0.12998896519E+04 0.  0.
        2    1    3    3  502    0 -0.27217267652E+03 -0.57510627583E+03 -0.59524446042E+03  0.87128707210E+03  0.25500000920E-02 0. -1.
       -2    1    3    3    0  502  0.27217267652E+03  0.57510627583E+03 -0.27582212975E+03  0.69347173094E+03  0.25500000920E-02 0.  1.
</event>
<event>
 5   0  0.6458698E-05  0.1299399E+04  0.7818609E-02  0.9030042E-01
       -2   -1    0    0    0  501  0.00000000000E+00  0.00000000000E+00  0.44633552906E+03  0.44633552907E+03  0.25500000920E-02 0. -1.
        2   -1    0    0  501    0  0.00000000000E+00  0.00000000000E+00 -0.94572231783E+03  0.94572231784E+03  0.25500000920E-02 0.  1.
    10030    2    1    2    0    0  0.00000000000E+00  0.00000000000E+00 -0.49938678877E+03  0.13920578469E+04  0.12993990474E+04 0.  0.
        3    1    3    3  502    0  0.11212588632E+03 -0.10147619833E+03  0.42721775659E+03  0.45319383817E+03  0.10100000352E+00 0. -1.
       -3    1    3    3    0  502 -0.11212588632E+03  0.10147619833E+03 -0.92660454536E+03  0.93886400873E+03  0.10100000352E+00 0.  1.
</event>
<event>
 5   0  0.2512000E-05  0.1300088E+04  0.7818609E-02  0.9029495E-01
       -4   -1    0    0    0  501  0.00000000000E+00  0.00000000000E+00  0.68584843084E+03  0.68584960669E+03  0.12699999809E+01 0. -1.
        4   -1    0    0  501    0  0.00000000000E+00  0.00000000000E+00 -0.61610682274E+03  0.61610813169E+03  0.12699999809E+01 0.  1.
    10030    2    1    2    0    0  0.00000000000E+00  0.00000000000E+00  0.69741608100E+02  0.13019577384E+04  0.13000884818E+04 0.  0.
        5    1    3    3  502    0 -0.49806059846E+03  0.24434039477E+03 -0.30439178089E+03  0.63280568465E+03  0.46999998093E+01 0.  1.
       -5    1    3    3    0  502  0.49806059846E+03 -0.24434039477E+03  0.37413338899E+03  0.66915205373E+03  0.46999998093E+01 0. -1.
</event>
<event>
 5   0  0.3689707E-05  0.1299468E+04  0.7818609E-02  0.9029987E-01
       -1   -1    0    0    0  501  0.00000000000E+00  0.00000000000E+00  0.11785471160E+04  0.11785471160E+04  0.50400001928E-02 0. -1.
        1   -1    0    0  501    0  0.00000000000E+00  0.00000000000E+00 -0.35819884020E+03  0.35819884024E+03  0.50400001928E-02 0.  1.
    10030    2    1    2    0    0  0.00000000000E+00  0.00000000000E+00  0.82034827577E+03  0.15367459562E+04  0.12994679066E+04 0.  0.
        1    1    3    3  502    0 -0.18936286222E+03 -0.61948332637E+03  0.35061629513E+03  0.73657971169E+03  0.50400001928E-02 0. -1.
       -1    1    3    3    0  502  0.18936286222E+03  0.61948332637E+03  0.46973198064E+03  0.80016624454E+03  0.50400001928E-02 0.  1.
</event>
<event>
 5   0  0.6618060E-05  0.1300078E+04  0.7818609E-02  0.9029503E-01
       -2   -1    0    0    0  501  0.00000000000E+00  0.00000000000E+00  0.24595894397E+03  0.24595894398E+03  0.25500000920E-02 0. -1.
        2   -1    0    0  501    0  0.00000000000E+00  0.00000000000E+00 -0.17179724137E+04  0.17179724137E+04  0.25500000920E-02 0.  1.
    10030    2    1    2    0    0  0.00000000000E+00  0.00000000000E+00 -0.14720134698E+04  0.19639313577E+04  0.13000779679E+04 0.  0.
        2    1    3    3  502    0  0.58979049848E+03 -0.24994095193E+03 -0.90304786411E+03  0.11071669957E+04  0.25500000920E-02 0.  1.
       -2    1    3    3    0  502 -0.58979049848E+03  0.24994095193E+03 -0.56896560565E+03  0.85676436199E+03  0.25500000920E-02 0. -1.
</event>
<event>
 5   0  0.6688086E-05  0.1299940E+04  0.7818609E-02  0.9029612E-01
        2   -1    0    0  501    0  0.00000000000E+00  0.00000000000E+00  0.12565994913E+04  0.12565994913E+04  0.25500000920E-02 0. -1.
       -2   -1    0    0    0  501  0.00000000000E+00  0.00000000000E+00 -0.33619408975E+03  0.33619408976E+03  0.25500000920E-02 0.  1.
    10030    2    1    2    0    0  0.00000000000E+00  0.00000000000E+00  0.92040540158E+03  0.15927935811E+04  0.12999404943E+04 0.  0.
        5    1    3    3  502    0  0.90328640666E+02  0.44099647327E+03  0.10346522891E+04  0.11283459586E+04  0.46999998093E+01 0. -1.
       -5    1    3    3    0  502 -0.90328640666E+02 -0.44099647327E+03 -0.11424688757E+03  0.46444762253E+03  0.46999998093E+01 0.  1.
</event>
<event>
 5   0  0.2512000E-05  0.1299157E+04  0.7818609E-02  0.9030234E-01
        4   -1    0    0  501    0  0.00000000000E+00  0.00000000000E+00  0.60443835293E+03  0.60443968715E+03  0.12699999809E+01 0. -1.
       -4   -1    0    0    0  501  0.00000000000E+00  0.00000000000E+00 -0.69808697438E+03  0.69808812960E+03  0.12699999809E+01 0.  1.
    10030    2    1    2    0    0  0.00000000000E+00  0.00000000000E+00 -0.93648621442E+02  0.13025278168E+04  0.12991568993E+04 0.  0.
        3    1    3    3  502    0 -0.56734190311E+03 -0.31505665587E+03 -0.18208693991E+02  0.64920651427E+03  0.10100000352E+00 0. -1.
       -3    1    3    3    0  502  0.56734190311E+03  0.31505665587E+03 -0.75439927451E+02  0.65332130249E+03  0.10100000352E+00 0.  1.
</event>
<event>
 5   0  0.3552698E-05  0.1299778E+04  0.7818609E-02  0.9029742E-01
       -1   -1    0    0    0  501  0.00000000000E+00  0.00000000000E+00  0.29131259810E+03  0.29131259814E+03  0.50400001928E-02 0.  1.
        1   -1    0    0  501    0  0.00000000000E+00  0.00000000000E+00 -0.14498359206E+04  0.14498359206E+04  0.50400001928E-02 0. -1.
    10030    2    1    2    0    0  0.00000000000E+00  0.00000000000E+00 -0.11585233225E+04  0.17411485187E+04  0.12997776254E+04 0.  0.
        5    1    3    3  502    0  0.14563868772E+02  0.26091099957E+03 -0.13763327384E+04  0.14009284610E+04  0.46999998093E+01 0. -1.
       -5    1    3    3    0  502 -0.14563868772E+02 -0.26091099957E+03  0.21780941598E+03  0.34022005770E+03  0.46999998093E+01 0.  1.
</event>
<event>
 5   0  0.6742824E-05  0.1301127E+04  0.7818609E-02  0.9028672E-01
       -2   -1    0    0    0  501  0.00000000000E+00  0.00000000000E+00  0.54365574006E+03  0.54365574007E+03  0.25500000920E-02 0.  1.
        2   -1    0    0  501    0  0.00000000000E+00  0.00000000000E+00 -0.77849444556E+03  0.77849444556E+03  0.25500000920E-02 0. -1.
    10030    2    1    2    0    0  0.00000000000E+00  0.00000000000E+00 -0.23483870550E+03  0.13221501856E+04  0.13011271636E+04 0.  0.
        4    1    3    3  502    0 -0.63554790547E+02  0.18359302673E+02  0.54022779828E+03  0.54426460691E+03  0.12699999809E+01 0.  1.
       -4    1    3    3    0  502  0.63554790547E+02 -0.18359302673E+02 -0.77506650378E+03  0.77788557872E+03  0.12699999809E+01 0. -1.
</event>
<event>
 5   0  0.3631841E-05  0.1300086E+04  0.7818609E-02  0.9029497E-01
       -1   -1    0    0    0  501  0.00000000000E+00  0.00000000000E+00  0.34006942463E+03  0.34006942467E+03  0.50400001928E-02 0. -1.
        1   -1    0    0  501    0  0.00000000000E+00  0.00000000000E+00 -0.12425586991E+04  0.12425586991E+04  0.50400001928E-02 0.  1.
    10030    2    1    2    0    0  0.00000000000E+00  0.00000000000E+00 -0.90248927444E+03  0.15826281237E+04  0.13000864924E+04 0.  0.
        3    1    3    3  502    0  0.16836389906E+02  0.64027253977E+03 -0.31610605755E+03  0.71425166365E+03  0.10100000352E+00 0. -1.
       -3    1    3    3    0  502 -0.16836389906E+02 -0.64027253977E+03 -0.58638321689E+03  0.86837646010E+03  0.10100000352E+00 0.  1.
</event>
<event>
 5   0  0.3718559E-05  0.1299481E+04  0.7818609E-02  0.9029977E-01
        1   -1    0    0  501    0  0.00000000000E+00  0.00000000000E+00  0.89887660230E+03  0.89887660232E+03  0.50400001928E-02 0.  1.
       -1   -1    0    0    0  501  0.00000000000E+00  0.00000000000E+00 -0.46965599114E+03  0.46965599117E+03  0.50400001928E-02 0. -1.
    10030    2    1    2    0    0  0.00000000000E+00  0.00000000000E+00  0.42922061116E+03  0.13685325935E+04  0.12994810989E+04 0.  0.
        2    1    3    3  502    0 -0.36093300117E+03  0.35442612711E+03  0.64404298626E+03  0.81895169520E+03  0.25500000920E-02 0.  1.
       -2    1    3    3    0  502  0.36093300117E+03 -0.35442612711E+03 -0.21482237510E+03  0.54958089829E+03  0.25500000920E-02 0. -1.
</event>
<event>
 5   0  0.6618060E-05  0.1299632E+04  0.7818609E-02  0.9029857E-01
       -2   -1    0    0    0  501  0.00000000000E+00  0.00000000000E+00  0.59913064533E+03  0.59913064533E+03  0.25500000920E-02 0. -1.
        2   -1    0    0  501    0  0.00000000000E+00  0.00000000000E+00 -0.70478947018E+03  0.70478947018E+03  0.25500000920E-02 0.  1.
    10030    2    1    2    0    0  0.00000000000E+00  0.00000000000E+00 -0.10565882485E+03  0.13039201155E+04  0.12996322097E+04 0.  0.
        2    1    3    3  502    0 -0.34511725731E+03  0.18650275519E+02 -0.60492417747E+03  0.69669721871E+03  0.25500000920E-02 0.  1.
       -2    1    3    3    0  502  0.34511725731E+03 -0.18650275519E+02  0.49926535262E+03  0.60722289680E+03  0.25500000920E-02 0. -1.
</event>
<event>
 5   0  0.6688086E-05  0.1299279E+04  0.7818609E-02  0.9030137E-01
       -2   -1    0    0    0  501  0.00000000000E+00  0.00000000000E+00  0.54152023865E+03  0.54152023866E+03  0.25500000920E-02 0.  1.
        2   -1    0    0  501    0  0.00000000000E+00  0.00000000000E+00 -0.77934612505E+03  0.77934612505E+03  0.25500000920E-02 0. -1.
    10030    2    1    2    0    0  0.00000000000E+00  0.00000000000E+00 -0.23782588640E+03  0.13208663637E+04  0.12992793381E+04 0.  0.
        5    1    3    3  502    0  0.50637971671E+03  0.31771674513E+03 -0.37739160629E+03  0.70697302786E+03  0.46999998093E+01 0. -1.
       -5    1    3    3    0  502 -0.50637971671E+03 -0.31771674513E+03  0.13956571989E+03  0.61389333585E+03  0.46999998093E+01 0.  1.
</event>
<event>
 5   0  0.3551277E-05  0.1299830E+04  0.7818609E-02  0.9029700E-01
       -1   -1    0    0    0  501  0.00000000000E+00  0.00000000000E+00  0.25208645771E+03  0.25208645776E+03  0.50400001928E-02 0. -1.
        1   -1    0    0  501    0  0.00000000000E+00  0.00000000000E+00 -0.16755737376E+04  0.16755737376E+04  0.50400001928E-02 0.  1.
    10030    2    1    2    0    0  0.00000000000E+00  0.00000000000E+00 -0.14234872799E+04  0.19276601954E+04  0.12998299092E+04 0.  0.
        4    1    3    3  502    0  0.31655710217E+03 -0.47753415743E+03 -0.11667655966E+04  0.12998426215E+04  0.12699999809E+01 0.  1.
       -4    1    3    3    0  502 -0.31655710217E+03  0.47753415743E+03 -0.25672168327E+03  0.62781757383E+03  0.12699999809E+01 0. -1.
</event>
<event>
 5   0  0.6688086E-05  0.1300139E+04  0.7818609E-02  0.9029455E-01
        2   -1    0    0  501    0  0.00000000000E+00  0.00000000000E+00  0.76017606953E+03  0.76017606953E+03  0.25500000920E-02 0. -1.
       -2   -1    0    0    0  501  0.00000000000E+00  0.00000000000E+00 -0.55591088229E+03  0.55591088229E+03  0.25500000920E-02 0.  1.
    10030    2    1    2    0    0  0.00000000000E+00  0.00000000000E+00  0.20426518724E+03  0.13160869518E+04  0.13001386842E+04 0.  0.
        5    1    3    3  502    0 -0.58558518549E+03  0.24231193381E+03 -0.44359473940E+02  0.63530696176E+03  0.46999998093E+01 0.  1.
       -5    1    3    3    0  502  0.58558518549E+03 -0.24231193381E+03  0.24862466118E+03  0.68077999007E+03  0.46999998093E+01 0. -1.
</event>
<event>
 5   0  0.3631841E-05  0.1300444E+04  0.7818609E-02  0.9029213E-01
        1   -1    0    0  501    0  0.00000000000E+00  0.00000000000E+00  0.45628961311E+03  0.45628961314E+03  0.50400001928E-02 0. -1.
       -1   -1    0    0    0  501  0.00000000000E+00  0.00000000000E+00 -0.92657910651E+03  0.92657910652E+03  0.50400001928E-02 0.  1.
    10030    2    1    2    0    0  0.00000000000E+00  0.00000000000E+00 -0.47028949340E+03  0.13828687197E+04  0.13004436505E+04 0.  0.
        3    1    3    3  502    0 -0.58981999695E+03  0.27367975130E+03 -0.23469764916E+03  0.69128230977E+03  0.10100000352E+00 0. -1.
       -3    1    3    3    0  502  0.58981999695E+03 -0.27367975130E+03 -0.23559184424E+03  0.69158640989E+03  0.10100000352E+00 0.  1.
</event>
<event>
 5   0  0.6618060E-05  0.1296293E+04  0.7818609E-02  0.9032510E-01
        2   -1    0    0  501    0  0.00000000000E+00  0.00000000000E+00  0.17381222914E+04  0.17381222914E+04  0.25500000920E-02 0. -1.
       -2   -1    0    0    0  501  0.00000000000E+00  0.00000000000E+00 -0.24169408183E+03  0.24169408184E+03  0.25500000920E-02 0.  1.
    10030    2    1    2    0    0  0.00000000000E+00  0.00000000000E+00  0.14964282095E+04  0.19798163732E+04  0.12962929782E+04 0.  0.
        2    1    3    3  502    0  0.18387158100E+03  0.32447633549E+03  0.15578226317E+04  0.16018442503E+04  0.25500000920E-02 0. -1.
       -2    1    3    3    0  502 -0.18387158100E+03 -0.32447633549E+03 -0.61394422129E+02  0.37797212288E+03  0.25500000920E-02 0.  1.
</event>
<event>
 5   0  0.6458698E-05  0.1298701E+04  0.7818609E-02  0.9030596E-01
        2   -1    0    0  501    0  0.00000000000E+00  0.00000000000E+00  0.11327803049E+04  0.11327803049E+04  0.25500000920E-02 0. -1.
       -2   -1    0    0    0  501  0.00000000000E+00  0.00000000000E+00 -0.37223093738E+03  0.37223093739E+03  0.25500000920E-02 0.  1.
    10030    2    1    2    0    0  0.00000000000E+00  0.00000000000E+00  0.76054936753E+03  0.15050112423E+04  0.12987006965E+04 0.  0.
        3    1    3    3  502    0  0.21345260568E+03 -0.52877008609E+03  0.20288834697E+02  0.57058870111E+03  0.10100000352E+00 0.  1.
       -3    1    3    3    0  502 -0.21345260568E+03  0.52877008609E+03  0.74026053283E+03  0.93442254119E+03  0.10100000352E+00 0. -1.
</event>
<event>
 5   0  0.6671239E-05  0.1307151E+04  0.7818609E-02  0.9023914E-01
       -2   -1    0    0    0  501  0.00000000000E+00  0.00000000000E+00  0.87273720652E+03  0.87273720652E+03  0.25500000920E-02 0. -1.
        2   -1    0    0  501    0  0.00000000000E+00  0.00000000000E+00 -0.48944949045E+03  0.48944949046E+03  0.25500000920E-02 0.  1.
    10030    2    1    2    0    0  0.00000000000E+00  0.00000000000E+00  0.38328771607E+03  0.13621866970E+04  0.13071507656E+04 0.  0.
        1    1    3    3  502    0  0.37490636126E+03 -0.25893847950E+03  0.67994131631E+03  0.81848891839E+03  0.50400001928E-02 0. -1.
       -1    1    3    3    0  502 -0.37490636126E+03  0.25893847950E+03 -0.29665360024E+03  0.54369777858E+03  0.50400001928E-02 0.  1.
</event>
<event>
 5   0  0.3689707E-05  0.1299623E+04  0.7818609E-02  0.9029864E-01
       -1   -1    0    0    0  501  0.00000000000E+00  0.00000000000E+00  0.49191810022E+03  0.49191810024E+03  0.50400001928E-02 0. -1.
        1   -1    0    0  501    0  0.00000000000E+00  0.00000000000E+00 -0.85838526014E+03  0.85838526015E+03  0.50400001928E-02 0.  1.
    10030    2    1    2    0    0  0.00000000000E+00  0.00000000000E+00 -0.36646715992E+03  0.13503033604E+04  0.12996234015E+04 0.  0.
        1    1    3    3  502    0  0.32300849934E+03  0.20845278029E+03  0.36109337133E+03  0.52742343056E+03  0.50400001928E-02 0. -1.
       -1    1    3    3    0  502 -0.32300849934E+03 -0.20845278029E+03 -0.72756053125E+03  0.82287992983E+03  0.50400001928E-02 0.  1.
</event>
<event>
 5   0  0.6458698E-05  0.1299886E+04  0.7818609E-02  0.9029655E-01
        2   -1    0    0  501    0  0.00000000000E+00  0.00000000000E+00  0.15588009811E+04  0.15588009811E+04  0.25500000920E-02 0. -1.
       -2   -1    0    0    0  501  0.00000000000E+00  0.00000000000E+00 -0.27099427887E+03  0.27099427888E+03  0.25500000920E-02 0.  1.
    10030    2    1    2    0    0  0.00000000000E+00  0.00000000000E+00  0.12878067022E+04  0.18297952600E+04  0.12998863763E+04 0.  0.
        3    1    3    3  502    0  0.17115743021E+03 -0.45335601231E+03  0.12535989466E+04  0.13440003233E+04  0.10100000352E+00 0. -1.
       -3    1    3    3    0  502 -0.17115743021E+03  0.45335601231E+03  0.34207755643E+02  0.48579493674E+03  0.10100000352E+00 0.  1.
</event>
<event>
 5   0  0.3551277E-05  0.1299878E+04  0.7818609E-02  0.9029662E-01
        1   -1    0    0  501    0  0.00000000000E+00  0.00000000000E+00  0.14842395828E+04  0.14842395828E+04  0.50400001928E-02 0.  1.
       -1   -1    0    0    0  501  0.00000000000E+00  0.00000000000E+00 -0.28460393139E+03  0.28460393144E+03  0.50400001928E-02 0. -1.
    10030    2    1    2    0    0  0.00000000000E+00  0.00000000000E+00  0.11996356514E+04  0.17688435142E+04  0.12998775641E+04 0.  0.
        4    1    3    3  502    0  0.90864346874E+02  0.31409803563E+03 -0.16452821672E+03  0.36603968708E+03  0.12699999809E+01 0. -1.
       -4    1    3    3    0  502 -0.90864346874E+02 -0.31409803563E+03  0.13641638681E+04  0.14028038272E+04  0.12699999809E+01 0.  1.
</event>
<event>
 5   0  0.6688086E-05  0.1301796E+04  0.7818609E-02  0.9028142E-01
       -2   -1    0    0    0  501  0.00000000000E+00  0.00000000000E+00  0.54436800230E+03  0.54436800231E+03  0.25500000920E-02 0. -1.
        2   -1    0    0  501    0  0.00000000000E+00  0.00000000000E+00 -0.77827547624E+03  0.77827547625E+03  0.25500000920E-02 0.  1.
    10030    2    1    2    0    0  0.00000000000E+00  0.00000000000E+00 -0.23390747394E+03  0.13226434786E+04  0.13017960919E+04 0.  0.
        5    1    3    3  502    0 -0.52676383686E+03  0.40277409116E+02  0.26932385513E+03  0.59300913859E+03  0.46999998093E+01 0. -1.
       -5    1    3    3    0  502  0.52676383686E+03 -0.40277409116E+02 -0.50323132907E+03  0.72963433997E+03  0.46999998093E+01 0.  1.
</event>
<event>
 5   0  0.3551277E-05  0.1300070E+04  0.7818609E-02  0.9029510E-01
       -1   -1    0    0    0  501  0.00000000000E+00  0.00000000000E+00  0.46709961481E+03  0.46709961484E+03  0.50400001928E-02 0. -1.
        1   -1    0    0  501    0  0.00000000000E+00  0.00000000000E+00 -0.90461538449E+03  0.90461538450E+03  0.50400001928E-02 0.  1.
    10030    2    1    2    0    0  0.00000000000E+00  0.00000000000E+00 -0.43751576968E+03  0.13717149993E+04  0.13000699945E+04 0.  0.
        4    1    3    3  502    0 -0.58640433150E+03  0.18468665268E+03  0.39792216954E+01  0.61481431895E+03  0.12699999809E+01 0. -1.
       -4    1    3    3    0  502  0.58640433150E+03 -0.18468665268E+03 -0.44149499137E+03  0.75690068040E+03  0.12699999809E+01 0.  1.
</event>
<event>
 5   0  0.3631841E-05  0.1300794E+04  0.7818609E-02  0.9028936E-01
        1   -1    0    0  501    0  0.00000000000E+00  0.00000000000E+00  0.11879819797E+04  0.11879819797E+04  0.50400001928E-02 0.  1.
       -1   -1    0    0    0  501  0.00000000000E+00  0.00000000000E+00 -0.35607974031E+03  0.35607974035E+03  0.50400001928E-02 0. -1.
    10030    2    1    2    0    0  0.00000000000E+00  0.00000000000E+00  0.83190223940E+03  0.15440617201E+04  0.13007940880E+04 0.  0.
        3    1    3    3  502    0  0.25755631897E+03 -0.13995363214E+03  0.11051294779E+04  0.11433431023E+04  0.10100000352E+00 0.  1.
       -3    1    3    3    0  502 -0.25755631897E+03  0.13995363214E+03 -0.27322723845E+03  0.40071861776E+03  0.10100000352E+00 0. -1.
</event>
<event>
 5   0  0.6671239E-05  0.1301041E+04  0.7818609E-02  0.9028740E-01
        2   -1    0    0  501    0  0.00000000000E+00  0.00000000000E+00  0.29114860897E+03  0.29114860898E+03  0.25500000920E-02 0. -1.
       -2   -1    0    0    0  501  0.00000000000E+00  0.00000000000E+00 -0.14534731055E+04  0.14534731055E+04  0.25500000920E-02 0.  1.
    10030    2    1    2    0    0  0.00000000000E+00  0.00000000000E+00 -0.11623244966E+04  0.17446217145E+04  0.13010406187E+04 0.  0.
        1    1    3    3  502    0 -0.39529215824E+03 -0.39245264058E+03 -0.13059390726E+03  0.57212737577E+03  0.50400001928E-02 0. -1.
       -1    1    3    3    0  502  0.39529215824E+03  0.39245264058E+03 -0.10317305893E+04  0.11724943388E+04  0.50400001928E-02 0.  1.
</event>
<event>
 5   0  0.6742824E-05  0.1299398E+04  0.7818609E-02  0.9030043E-01
       -2   -1    0    0    0  501  0.00000000000E+00  0.00000000000E+00  0.56506224596E+03  0.56506224597E+03  0.25500000920E-02 0. -1.
        2   -1    0    0  501    0  0.00000000000E+00  0.00000000000E+00 -0.74701302080E+03  0.74701302080E+03  0.25500000920E-02 0.  1.
    10030    2    1    2    0    0  0.00000000000E+00  0.00000000000E+00 -0.18195077484E+03  0.13120752668E+04  0.12993980996E+04 0.  0.
        4    1    3    3  502    0 -0.20801032301E+03 -0.17385425822E+03  0.50522013824E+03  0.57336079266E+03  0.12699999809E+01 0. -1.
       -4    1    3    3    0  502  0.20801032301E+03  0.17385425822E+03 -0.68717091308E+03  0.73871447411E+03  0.12699999809E+01 0.  1.
</event>
<event>
 5   0  0.6458698E-05  0.1298905E+04  0.7818609E-02  0.9030434E-01
       -2   -1    0    0    0  501  0.00000000000E+00  0.00000000000E+00  0.31432999872E+03  0.31432999873E+03  0.25500000920E-02 0.  1.
        2   -1    0    0  501    0  0.00000000000E+00  0.00000000000E+00 -0.13418658356E+04  0.13418658356E+04  0.25500000920E-02 0. -1.
    10030    2    1    2    0    0  0.00000000000E+00  0.00000000000E+00 -0.10275358369E+04  0.16561958344E+04  0.12989052104E+04 0.  0.
        3    1    3    3  502    0  0.62973323954E+03 -0.10387567461E+03 -0.36057590788E+03  0.73305463937E+03  0.10100000352E+00 0. -1.
       -3    1    3    3    0  502 -0.62973323954E+03  0.10387567461E+03 -0.66695992904E+03  0.92314119500E+03  0.10100000352E+00 0.  1.
</event>
<event>
 5   0  0.3718559E-05  0.1299933E+04  0.7818609E-02  0.9029618E-01
       -1   -1    0    0    0  501  0.00000000000E+00  0.00000000000E+00  0.61921336979E+03  0.61921336981E+03  0.50400001928E-02 0. -1.
        1   -1    0    0  501    0  0.00000000000E+00  0.00000000000E+00 -0.68224704632E+03  0.68224704633E+03  0.50400001928E-02 0.  1.
    10030    2    1    2    0    0  0.00000000000E+00  0.00000000000E+00 -0.63033676527E+02  0.13014604161E+04  0.12999330638E+04 0.  0.
        2    1    3    3  502    0 -0.35547308770E+03 -0.53023669034E+03  0.90874203818E+02  0.64480243857E+03  0.25500000920E-02 0.  1.
       -2    1    3    3    0  502  0.35547308770E+03  0.53023669034E+03 -0.15390788035E+03  0.65665797757E+03  0.25500000920E-02 0. -1.
</event>
<event>
 5   0  0.3718559E-05  0.1300219E+04  0.7818609E-02  0.9029391E-01
       -1   -1    0    0    0  501  0.00000000000E+00  0.00000000000E+00  0.62488379591E+03  0.62488379594E+03  0.50400001928E-02 0.  1.
        1   -1    0    0  501    0  0.00000000000E+00  0.00000000000E+00 -0.67635382247E+03  0.67635382249E+03  0.50400001928E-02 0. -1.
    10030    2    1    2    0    0  0.00000000000E+00  0.00000000000E+00 -0.51470026558E+02  0.13012376184E+04  0.13002192800E+04 0.  0.
        2    1    3    3  502    0  0.22229911283E+03 -0.18396008440E+03 -0.60875830534E+03  0.67368010402E+03  0.25500000920E-02 0. -1.
       -2    1    3    3    0  502 -0.22229911283E+03  0.18396008440E+03  0.55728827879E+03  0.62755751441E+03  0.25500000920E-02 0.  1.
</event>
<event>
 5   0  0.6688086E-05  0.1299606E+04  0.7818609E-02  0.9029877E-01
        2   -1    0    0  501    0  0.00000000000E+00  0.00000000000E+00  0.87235814490E+03  0.87235814491E+03  0.25500000920E-02 0. -1.
       -2   -1    0    0    0  501  0.00000000000E+00  0.00000000000E+00 -0.48402623030E+03  0.48402623031E+03  0.25500000920E-02 0.  1.
    10030    2    1    2    0    0  0.00000000000E+00  0.00000000000E+00  0.38833191460E+03  0.13563843752E+04  0.12996064394E+04 0.  0.
        5    1    3    3  502    0  0.46757338148E+03  0.34320298947E+03 -0.11156349737E+03  0.59066205481E+03  0.46999998093E+01 0. -1.
       -5    1    3    3    0  502 -0.46757338148E+03 -0.34320298947E+03  0.49989541197E+03  0.76572232040E+03  0.46999998093E+01 0.  1.
</event>
<event>
 5   0  0.3689707E-05  0.1298748E+04  0.7818609E-02  0.9030559E-01
       -1   -1    0    0    0  501  0.00000000000E+00  0.00000000000E+00  0.48303931653E+03  0.48303931655E+03  0.50400001928E-02 0.  1.
        1   -1    0    0  501    0  0.00000000000E+00  0.00000000000E+00 -0.87298613796E+03  0.87298613797E+03  0.50400001928E-02 0. -1.
    10030    2    1    2    0    0  0.00000000000E+00  0.00000000000E+00 -0.38994682143E+03  0.13560254545E+04  0.12987480548E+04 0.  0.
        1    1    3    3  502    0 -0.80864623628E+02 -0.39978814450E+03 -0.72254667753E+03  0.82972486348E+03  0.50400001928E-02 0. -1.
       -1    1    3    3    0  502  0.80864623628E+02  0.39978814450E+03  0.33259985610E+03  0.52630059105E+03  0.50400001928E-02 0.  1.
</event>
<event>
 5   0  0.6458698E-05  0.1299524E+04  0.7818609E-02  0.9029943E-01
       -2   -1    0    0    0  501  0.00000000000E+00  0.00000000000E+00  0.51013376310E+03  0.51013376311E+03  0.25500000920E-02 0.  1.
        2   -1    0    0  501    0  0.00000000000E+00  0.00000000000E+00 -0.82760747342E+03  0.82760747342E+03  0.25500000920E-02 0. -1.
    10030    2    1    2    0    0  0.00000000000E+00  0.00000000000E+00 -0.31747371031E+03  0.13377412365E+04  0.12995237817E+04 0.  0.
        3    1    3    3  502    0  0.50858993002E+03  0.28814073229E+03 -0.45080919186E+03  0.73818543483E+03  0.10100000352E+00 0. -1.
       -3    1    3    3    0  502 -0.50858993002E+03 -0.28814073229E+03  0.13333548155E+03  0.59955580171E+03  0.10100000352E+00 0.  1.
</event>
<event>
 5   0  0.3718559E-05  0.1300122E+04  0.7818609E-02  0.9029469E-01
        1   -1    0    0  501    0  0.00000000000E+00  0.00000000000E+00  0.79338495199E+03  0.79338495201E+03  0.50400001928E-02 0.  1.
       -1   -1    0    0    0  501  0.00000000000E+00  0.00000000000E+00 -0.53262812595E+03  0.53262812598E+03  0.50400001928E-02 0. -1.
    10030    2    1    2    0    0  0.00000000000E+00  0.00000000000E+00  0.26075682604E+03  0.13260130780E+04  0.13001217484E+04 0.  0.
        2    1    3    3  502    0  0.18523840755E+03  0.44358661872E+03 -0.31593971496E+03  0.57523930624E+03  0.25500000920E-02 0. -1.
       -2    1    3    3    0  502 -0.18523840755E+03 -0.44358661872E+03  0.57669654100E+03  0.75077377175E+03  0.25500000920E-02 0.  1.
</event>
<event>
 5   0  0.3551277E-05  0.1298547E+04  0.7818609E-02  0.9030718E-01
       -1   -1    0    0    0  501  0.00000000000E+00  0.00000000000E+00  0.66653862677E+03  0.66653862679E+03  0.50400001928E-02 0. -1.
        1   -1    0    0  501    0  0.00000000000E+00  0.00000000000E+00 -0.63245574032E+03  0.63245574034E+03  0.50400001928E-02 0.  1.
    10030    2    1    2    0    0  0.00000000000E+00  0.00000000000E+00  0.34082886452E+02  0.12989943671E+04  0.12985471584E+04 0.  0.
        4    1    3    3  502    0  0.53821943711E+03  0.24621958156E+03 -0.24997804560E+03  0.64249115248E+03  0.12699999809E+01 0.  1.
       -4    1    3    3    0  502 -0.53821943711E+03 -0.24621958156E+03  0.28406093205E+03  0.65650321465E+03  0.12699999809E+01 0. -1.
</event>
<event>
 5   0  0.3552698E-05  0.1299906E+04  0.7818609E-02  0.9029640E-01
       -1   -1    0    0    0  501  0.00000000000E+00  0.00000000000E+00  0.66619833683E+03  0.66619833685E+03  0.50400001928E-02 0. -1.
        1   -1    0    0  501    0  0.00000000000E+00  0.00000000000E+00 -0.63410337901E+03  0.63410337903E+03  0.50400001928E-02 0.  1.
    10030    2    1    2    0    0  0.00000000000E+00  0.00000000000E+00  0.32094957817E+02  0.13003017159E+04  0.12999055604E+04 0.  0.
        5    1    3    3  502    0 -0.52607553059E+03  0.36068815623E+03  0.14084573681E+03  0.65323121596E+03  0.46999998093E+01 0. -1.
       -5    1    3    3    0  502  0.52607553059E+03 -0.36068815623E+03 -0.10875077900E+03  0.64707049992E+03  0.46999998093E+01 0.  1.
</event>
<event>
 5   0  0.6742824E-05  0.1299989E+04  0.7818609E-02  0.9029574E-01
        2   -1    0    0  501    0  0.00000000000E+00  0.00000000000E+00  0.11540867571E+04  0.11540867571E+04  0.25500000920E-02 0.  1.
       -2   -1    0    0    0  501  0.00000000000E+00  0.00000000000E+00 -0.36608397397E+03  0.36608397398E+03  0.25500000920E-02 0. -1.
    10030    2    1    2    0    0  0.00000000000E+00  0.00000000000E+00  0.78800278317E+03  0.15201707311E+04  0.12999887174E+04 0.  0.
        4    1    3    3  502    0 -0.24126376351E+03  0.45526900490E+03  0.85736355277E+03  0.10002759344E+04  0.12699999809E+01 0.  1.
       -4    1    3    3    0  502  0.24126376351E+03 -0.45526900490E+03 -0.69360769601E+02  0.51989479673E+03  0.12699999809E+01 0. -1.
</event>
<event>
 5   0  0.3552698E-05  0.1299348E+04  0.7818609E-02  0.9030082E-01
        1   -1    0    0  501    0  0.00000000000E+00  0.00000000000E+00  0.78683082619E+03  0.78683082621E+03  0.50400001928E-02 0.  1.
       -1   -1    0    0    0  501  0.00000000000E+00  0.00000000000E+00 -0.53642594154E+03  0.53642594157E+03  0.50400001928E-02 0. -1.
    10030    2    1    2    0    0  0.00000000000E+00  0.00000000000E+00  0.25040488465E+03  0.13232567678E+04  0.12993482471E+04 0.  0.
        5    1    3    3  502    0 -0.73413273370E+02  0.50150858800E+03  0.53907164745E+03  0.73994641943E+03  0.46999998093E+01 0.  1.
       -5    1    3    3    0  502  0.73413273370E+02 -0.50150858800E+03 -0.28866676280E+03  0.58331034835E+03  0.46999998093E+01 0. -1.
</event>
<event>
 5   0  0.6618060E-05  0.1296713E+04  0.7818609E-02  0.9032176E-01
       -2   -1    0    0    0  501  0.00000000000E+00  0.00000000000E+00  0.34755232600E+03  0.34755232601E+03  0.25500000920E-02 0.  1.
        2   -1    0    0  501    0  0.00000000000E+00  0.00000000000E+00 -0.12095040874E+04  0.12095040874E+04  0.25500000920E-02 0. -1.
    10030    2    1    2    0    0  0.00000000000E+00  0.00000000000E+00 -0.86195176141E+03  0.15570564134E+04  0.12967127036E+04 0.  0.
        2    1    3    3  502    0  0.33593925581E+03 -0.31906108735E+03  0.11363852710E+03  0.47704179681E+03  0.25500000920E-02 0.  1.
       -2    1    3    3    0  502 -0.33593925581E+03  0.31906108735E+03 -0.97559028851E+03  0.10800146166E+04  0.25500000920E-02 0. -1.
</event>
<event>
 5   0  0.3718559E-05  0.1298559E+04  0.7818609E-02  0.9030709E-01
       -1   -1    0    0    0  501  0.00000000000E+00  0.00000000000E+00  0.43521515086E+03  0.43521515089E+03  0.50400001928E-02 0.  1.
        1   -1    0    0  501    0  0.00000000000E+00  0.00000000000E+00 -0.96863283606E+03  0.96863283607E+03  0.50400001928E-02 0. -1.
    10030    2    1    2    0    0  0.00000000000E+00  0.00000000000E+00 -0.53341768519E+03  0.14038479870E+04  0.12985587178E+04 0.  0.
        2    1    3    3  502    0 -0.63291913106E+03 -0.14434463276E+03 -0.27957718521E+03  0.70681355531E+03  0.25500000920E-02 0.  1.
       -2    1    3    3    0  502  0.63291913106E+03  0.14434463276E+03 -0.25384049999E+03  0.69703443165E+03  0.25500000920E-02 0. -1.
</event>
<event>
 5   0  0.3689707E-05  0.1299976E+04  0.7818609E-02  0.9029584E-01
       -1   -1    0    0    0  501  0.00000000000E+00  0.00000000000E+00  0.70607807830E+03  0.70607807832E+03  0.50400001928E-02 0. -1.
        1   -1    0    0  501    0  0.00000000000E+00  0.00000000000E+00 -0.59835356317E+03  0.59835356319E+03  0.50400001928E-02 0.  1.
    10030    2    1    2    0    0  0.00000000000E+00  0.00000000000E+00  0.10772451514E+03  0.13044316415E+04  0.12999758983E+04 0.  0.
        1    1    3    3  502    0  0.38923619571E+03 -0.28871689638E+03  0.48850055215E+03  0.68810976725E+03  0.50400001928E-02 0. -1.
       -1    1    3    3    0  502 -0.38923619571E+03  0.28871689638E+03 -0.38077603701E+03  0.61632187426E+03  0.50400001928E-02 0.  1.
</event>
<event>
 5   0  0.6618060E-05  0.1300475E+04  0.7818609E-02  0.9029189E-01
        2   -1    0    0  501    0  0.00000000000E+00  0.00000000000E+00  0.60571507104E+03  0.60571507104E+03  0.25500000920E-02 0. -1.
       -2   -1    0    0    0  501  0.00000000000E+00  0.00000000000E+00 -0.69803236365E+03  0.69803236366E+03  0.25500000920E-02 0.  1.
    10030    2    1    2    0    0  0.00000000000E+00  0.00000000000E+00 -0.92317292615E+02  0.13037474347E+04  0.13004748713E+04 0.  0.
        2    1    3    3  502    0 -0.60134888981E+02 -0.23884608896E+03  0.55714060577E+03  0.60915458931E+03  0.25500000920E-02 0. -1.
       -2    1    3    3    0  502  0.60134888981E+02  0.23884608896E+03 -0.64945789838E+03  0.69459284538E+03  0.25500000920E-02 0.  1.
</event>
<event>
 5   0  0.6671239E-05  0.1300085E+04  0.7818609E-02  0.9029498E-01
       -2   -1    0    0    0  501  0.00000000000E+00  0.00000000000E+00  0.48599019041E+03  0.48599019041E+03  0.25500000920E-02 0. -1.
        2   -1    0    0  501    0  0.00000000000E+00  0.00000000000E+00 -0.86947307165E+03  0.86947307166E+03  0.25500000920E-02 0.  1.
    10030    2    1    2    0    0  0.00000000000E+00  0.00000000000E+00 -0.38348288125E+03  0.13554632621E+04  0.13000852028E+04 0.  0.
        1    1    3    3  502    0  0.16231567811E+03  0.19059896483E+03  0.43371262309E+03  0.50078037522E+03  0.50400001928E-02 0. -1.
       -1    1    3    3    0  502 -0.16231567811E+03 -0.19059896483E+03 -0.81719550433E+03  0.85468288685E+03  0.50400001928E-02 0.  1.
</event>
<event>
 5   0  0.3718559E-05  0.1300131E+04  0.7818609E-02  0.9029461E-01
       -1   -1    0    0    0  501  0.00000000000E+00  0.00000000000E+00  0.47848578613E+03  0.47848578615E+03  0.50400001928E-02 0.  1.
        1   -1    0    0  501    0  0.00000000000E+00  0.00000000000E+00 -0.88317214496E+03  0.88317214497E+03  0.50400001928E-02 0. -1.
    10030    2    1    2    0    0  0.00000000000E+00  0.00000000000E+00 -0.40468635883E+03  0.13616579311E+04  0.13001312520E+04 0.  0.
        2    1    3    3  502    0  0.54336122912E+03 -0.32514344208E+03 -0.48327386885E+02  0.63505528859E+03  0.25500000920E-02 0. -1.
       -2    1    3    3    0  502 -0.54336122912E+03  0.32514344208E+03 -0.35635897195E+03  0.72660264253E+03  0.25500000920E-02 0.  1.
</event>
<event>
 5   0  0.3689707E-05  0.1299140E+04  0.7818609E-02  0.9030248E-01
       -1   -1    0    0    0  501  0.00000000000E+00  0.00000000000E+00  0.56281584739E+03  0.56281584741E+03  0.50400001928E-02 0.  1.
        1   -1    0    0  501    0  0.00000000000E+00  0.00000000000E+00 -0.74969644523E+03  0.74969644525E+03  0.50400001928E-02 0. -1.
    10030    2    1    2    0    0  0.00000000000E+00  0.00000000000E+00 -0.18688059784E+03  0.13125122927E+04  0.12991397771E+04 0.  0.
        1    1    3    3  502    0  0.32332458731E+02 -0.39912294399E+02  0.56076085922E+03  0.56310844461E+03  0.50400001928E-02 0.  1.
       -1    1    3    3    0  502 -0.32332458731E+02  0.39912294399E+02 -0.74764145706E+03  0.74940384805E+03  0.50400001928E-02 0. -1.
</event>
<event>
 5   0  0.3551277E-05  0.1300128E+04  0.7818609E-02  0.9029464E-01
       -1   -1    0    0    0  501  0.00000000000E+00  0.00000000000E+00  0.10886191901E+04  0.10886191901E+04  0.50400001928E-02 0. -1.
        1   -1    0    0  501    0  0.00000000000E+00  0.00000000000E+00 -0.38818287871E+03  0.38818287874E+03  0.50400001928E-02 0.  1.
    10030    2    1    2    0    0  0.00000000000E+00  0.00000000000E+00  0.70043631135E+03  0.14768020688E+04  0.13001281953E+04 0.  0.
        4    1    3    3  502    0  0.22112475429E+03 -0.44307838042E+03  0.82859776543E+03  0.96529294928E+03  0.12699999809E+01 0. -1.
       -4    1    3    3    0  502 -0.22112475429E+03  0.44307838042E+03 -0.12816145407E+03  0.51150911953E+03  0.12699999809E+01 0.  1.
</event>
<event>
 5   0  0.6742824E-05  0.1299127E+04  0.7818609E-02  0.9030258E-01
        2   -1    0    0  501    0  0.00000000000E+00  0.00000000000E+00  0.64110988555E+03  0.64110988555E+03  0.25500000920E-02 0. -1.
       -2   -1    0    0    0  501  0.00000000000E+00  0.00000000000E+00 -0.65812809470E+03  0.65812809470E+03  0.25500000920E-02 0.  1.
    10030    2    1    2    0    0  0.00000000000E+00  0.00000000000E+00 -0.17018209146E+02  0.12992379803E+04  0.12991265180E+04 0.  0.
        4    1    3    3  502    0 -0.57846848229E+03 -0.27150255800E+03 -0.12510122649E+03  0.65114618464E+03  0.12699999809E+01 0.  1.
       -4    1    3    3    0  502  0.57846848229E+03  0.27150255800E+03  0.10808301734E+03  0.64809179561E+03  0.12699999809E+01 0. -1.
</event>
<event>
 5   0  0.3631841E-05  0.1301417E+04  0.7818609E-02  0.9028443E-01
        1   -1    0    0  501    0  0.00000000000E+00  0.00000000000E+00  0.60600787497E+03  0.60600787499E+03  0.50400001928E-02 0. -1.
       -1   -1    0    0    0  501  0.00000000000E+00  0.00000000000E+00 -0.69870587409E+03  0.69870587411E+03  0.50400001928E-02 0.  1.
    10030    2    1    2    0    0  0.00000000000E+00  0.00000000000E+00 -0.92697999120E+02  0.13047137491E+04  0.13014165544E+04 0.  0.
        3    1    3    3  502    0 -0.28918666161E+03  0.13093429732E+03  0.52311170602E+03  0.61189752626E+03  0.10100000352E+00 0. -1.
       -3    1    3    3    0  502  0.28918666161E+03 -0.13093429732E+03 -0.61580970514E+03  0.69281622283E+03  0.10100000352E+00 0.  1.
</event>
<event>
 5   0  0.3689707E-05  0.1300020E+04  0.7818609E-02  0.9029549E-01
        1   -1    0    0  501    0  0.00000000000E+00  0.00000000000E+00  0.88889121254E+03  0.88889121255E+03  0.50400001928E-02 0. -1.
       -1   -1    0    0    0  501  0.00000000000E+00  0.00000000000E+00 -0.47532596696E+03  0.47532596699E+03  0.50400001928E-02 0.  1.
    10030    2    1    2    0    0  0.00000000000E+00  0.00000000000E+00  0.41356524558E+03  0.13642171795E+04  0.13000201155E+04 0.  0.
        1    1    3    3  502    0  0.19017407189E+03  0.57033572799E+03  0.46609680044E+03  0.76072021640E+03  0.50400001928E-02 0. -1.
       -1    1    3    3    0  502 -0.19017407189E+03 -0.57033572799E+03 -0.52531554866E+02  0.60349696314E+03  0.50400001928E-02 0.  1.
</event>
<event>
 5   0  0.3689707E-05  0.1300801E+04  0.7818609E-02  0.9028930E-01
        1   -1    0    0  501    0  0.00000000000E+00  0.00000000000E+00  0.13920102387E+04  0.13920102387E+04  0.50400001928E-02 0. -1.
       -1   -1    0    0    0  501  0.00000000000E+00  0.00000000000E+00 -0.30389197042E+03  0.30389197046E+03  0.50400001928E-02 0.  1.
    10030    2    1    2    0    0  0.00000000000E+00  0.00000000000E+00  0.10881182683E+04  0.16959022092E+04  0.13008008831E+04 0.  0.
        1    1    3    3  502    0  0.45486413010E+03 -0.32205088455E+03  0.10696182508E+03  0.56750240629E+03  0.50400001928E-02 0.  1.
       -1    1    3    3    0  502 -0.45486413010E+03  0.32205088455E+03  0.98115644324E+03  0.11283998029E+04  0.50400001928E-02 0. -1.
</event>
<event>
 5   0  0.6742824E-05  0.1297748E+04  0.7818609E-02  0.9031353E-01
        2   -1    0    0  501    0  0.00000000000E+00  0.00000000000E+00  0.14302735674E+04  0.14302735674E+04  0.25500000920E-02 0. -1.
       -2   -1    0    0    0  501  0.00000000000E+00  0.00000000000E+00 -0.29437551235E+03  0.29437551236E+03  0.25500000920E-02 0.  1.
    10030    2    1    2    0    0  0.00000000000E+00  0.00000000000E+00  0.11358980551E+04  0.17246490798E+04  0.12977480714E+04 0.  0.
        4    1    3    3  502    0  0.11833259864E+03  0.49267585115E+03  0.29264927545E+02  0.50753339505E+03  0.12699999809E+01 0.  1.
       -4    1    3    3    0  502 -0.11833259864E+03 -0.49267585115E+03  0.11066331275E+04  0.12171156847E+04  0.12699999809E+01 0. -1.
</event>
<event>
 5   0  0.6458698E-05  0.1299350E+04  0.7818609E-02  0.9030080E-01
        2   -1    0    0  501    0  0.00000000000E+00  0.00000000000E+00  0.85112970694E+03  0.85112970695E+03  0.25500000920E-02 0. -1.
       -2   -1    0    0    0  501  0.00000000000E+00  0.00000000000E+00 -0.49590311024E+03  0.49590311025E+03  0.25500000920E-02 0.  1.
    10030    2    1    2    0    0  0.00000000000E+00  0.00000000000E+00  0.35522659670E+03  0.13470328172E+04  0.12993504052E+04 0.  0.
        3    1    3    3  502    0  0.64845349658E+03 -0.37123699280E+02  0.19255585598E+03  0.67745691682E+03  0.10100000352E+00 0.  1.
       -3    1    3    3    0  502 -0.64845349658E+03  0.37123699280E+02  0.16267074072E+03  0.66957590037E+03  0.10100000352E+00 0. -1.
</event>
<event>
 5   0  0.6688086E-05  0.1299824E+04  0.7818609E-02  0.9029704E-01
       -2   -1    0    0    0  501  0.00000000000E+00  0.00000000000E+00  0.39096038902E+03  0.39096038903E+03  0.25500000920E-02 0. -1.
        2   -1    0    0  501    0  0.00000000000E+00  0.00000000000E+00 -0.10803801722E+04  0.10803801722E+04  0.25500000920E-02 0.  1.
    10030    2    1    2    0    0  0.00000000000E+00  0.00000000000E+00 -0.68941978321E+03  0.14713405613E+04  0.12998243765E+04 0.  0.
        5    1    3    3  502    0  0.15112220006E+03  0.11482092534E+03  0.35887173720E+03  0.40599603201E+03  0.46999998093E+01 0. -1.
       -5    1    3    3    0  502 -0.15112220006E+03 -0.11482092534E+03 -0.10482915204E+04  0.10653445292E+04  0.46999998093E+01 0.  1.
</event>
<event>
 5   0  0.6458698E-05  0.1300064E+04  0.7818609E-02  0.9029515E-01
        2   -1    0    0  501    0  0.00000000000E+00  0.00000000000E+00  0.11693282784E+04  0.11693282784E+04  0.25500000920E-02 0. -1.
       -2   -1    0    0    0  501  0.00000000000E+00  0.00000000000E+00 -0.36135400433E+03  0.36135400434E+03  0.25500000920E-02 0.  1.
    10030    2    1    2    0    0  0.00000000000E+00  0.00000000000E+00  0.80797427406E+03  0.15306822827E+04  0.13000637766E+04 0.  0.
        3    1    3    3  502    0  0.34219107156E+03  0.49853580427E+02 -0.24407105027E+03  0.42326208987E+03  0.10100000352E+00 0.  1.
       -3    1    3    3    0  502 -0.34219107156E+03 -0.49853580427E+02  0.10520453243E+04  0.11074201929E+04  0.10100000352E+00 0. -1.
</event>
<event>
 5   0  0.3552698E-05  0.1299307E+04  0.7818609E-02  0.9030115E-01
        1   -1    0    0  501    0  0.00000000000E+00  0.00000000000E+00  0.19552710989E+04  0.19552710989E+04  0.50400001928E-02 0. -1.
       -1   -1    0    0    0  501  0.00000000000E+00  0.00000000000E+00 -0.21585222570E+03  0.21585222576E+03  0.50400001928E-02 0.  1.
    10030    2    1    2    0    0  0.00000000000E+00  0.00000000000E+00  0.17394188732E+04  0.21711233247E+04  0.12993069208E+04 0.  0.
        5    1    3    3  502    0  0.30671967434E+03 -0.47422795961E+03  0.33327769847E+03  0.65579358841E+03  0.46999998093E+01 0.  1.
       -5    1    3    3    0  502 -0.30671967434E+03  0.47422795961E+03  0.14061411748E+04  0.15153297363E+04  0.46999998093E+01 0. -1.
</event>
<event>
 5   0  0.6688086E-05  0.1300195E+04  0.7818609E-02  0.9029410E-01
        2   -1    0    0  501    0  0.00000000000E+00  0.00000000000E+00  0.21653942508E+04  0.21653942508E+04  0.25500000920E-02 0. -1.
       -2   -1    0    0    0  501  0.00000000000E+00  0.00000000000E+00 -0.19517319978E+03  0.19517319980E+03  0.25500000920E-02 0.  1.
    10030    2    1    2    0    0  0.00000000000E+00  0.00000000000E+00  0.19702210510E+04  0.23605674506E+04  0.13001952542E+04 0.  0.
        5    1    3    3  502    0  0.14504609055E+03 -0.59977596252E+03  0.13564568075E+04  0.14902237195E+04  0.46999998093E+01 0.  1.
       -5    1    3    3    0  502 -0.14504609055E+03  0.59977596252E+03  0.61376424345E+03  0.87034373102E+03  0.46999998093E+01 0. -1.
</event>
<event>
 5   0  0.6618060E-05  0.1301529E+04  0.7818609E-02  0.9028354E-01
       -2   -1    0    0    0  501  0.00000000000E+00  0.00000000000E+00  0.42685768351E+03  0.42685768352E+03  0.25500000920E-02 0. -1.
        2   -1    0    0  501    0  0.00000000000E+00  0.00000000000E+00 -0.99212090819E+03  0.99212090820E+03  0.25500000920E-02 0.  1.
    10030    2    1    2    0    0  0.00000000000E+00  0.00000000000E+00 -0.56526322468E+03  0.14189785917E+04  0.13015289972E+04 0.  0.
        2    1    3    3  502    0 -0.55502211045E+03 -0.29167250535E+03 -0.92629263171E+02  0.63380010561E+03  0.25500000920E-02 0. -1.
       -2    1    3    3    0  502  0.55502211045E+03  0.29167250535E+03 -0.47263396151E+03  0.78517848611E+03  0.25500000920E-02 0.  1.
</event>
<event>
 5   0  0.6688086E-05  0.1300999E+04  0.7818609E-02  0.9028773E-01
       -2   -1    0    0    0  501  0.00000000000E+00  0.00000000000E+00  0.12997557868E+04  0.12997557868E+04  0.25500000920E-02 0.  1.
        2   -1    0    0  501    0  0.00000000000E+00  0.00000000000E+00 -0.32556075092E+03  0.32556075093E+03  0.25500000920E-02 0. -1.
    10030    2    1    2    0    0  0.00000000000E+00  0.00000000000E+00  0.97419503590E+03  0.16253165377E+04  0.13009988009E+04 0.  0.
        5    1    3    3  502    0  0.53878875120E+03 -0.74613396813E+02  0.41421982150E+02  0.54552575375E+03  0.46999998093E+01 0. -1.
       -5    1    3    3    0  502 -0.53878875120E+03  0.74613396813E+02  0.93277305375E+03  0.10797907840E+04  0.46999998093E+01 0.  1.
</event>
<event>
 5   0  0.3689707E-05  0.1299731E+04  0.7818609E-02  0.9029778E-01
       -1   -1    0    0    0  501  0.00000000000E+00  0.00000000000E+00  0.49663085504E+03  0.49663085506E+03  0.50400001928E-02 0.  1.
        1   -1    0    0  501    0  0.00000000000E+00  0.00000000000E+00 -0.85038105839E+03  0.85038105841E+03  0.50400001928E-02 0. -1.
    10030    2    1    2    0    0  0.00000000000E+00  0.00000000000E+00 -0.35375020335E+03  0.13470119135E+04  0.12997314679E+04 0.  0.
        1    1    3    3  502    0  0.48551213077E+03  0.34108249647E+02  0.26941740461E+03  0.55630130303E+03  0.50400001928E-02 0.  1.
       -1    1    3    3    0  502 -0.48551213077E+03 -0.34108249647E+02 -0.62316760797E+03  0.79071061044E+03  0.50400001928E-02 0. -1.
</event>
<event>
 5   0  0.6618060E-05  0.1299949E+04  0.7818609E-02  0.9029605E-01
       -2   -1    0    0    0  501  0.00000000000E+00  0.00000000000E+00  0.33829261824E+03  0.33829261825E+03  0.25500000920E-02 0. -1.
        2   -1    0    0  501    0  0.00000000000E+00  0.00000000000E+00 -0.12488211901E+04  0.12488211901E+04  0.25500000920E-02 0.  1.
    10030    2    1    2    0    0  0.00000000000E+00  0.00000000000E+00 -0.91052857185E+03  0.15871138083E+04  0.12999492146E+04 0.  0.
        2    1    3    3  502    0  0.60892560572E+02  0.93901529739E+01  0.33471931872E+03  0.34034262330E+03  0.25500000920E-02 0. -1.
       -2    1    3    3    0  502 -0.60892560572E+02 -0.93901529739E+01 -0.12452478906E+04  0.12467711850E+04  0.25500000920E-02 0.  1.
</event>
<event>
 5   0  0.3552698E-05  0.1300066E+04  0.7818609E-02  0.9029513E-01
        1   -1    0    0  501    0  0.00000000000E+00  0.00000000000E+00  0.11757745911E+04  0.11757745911E+04  0.50400001928E-02 0. -1.
       -1   -1    0    0    0  501  0.00000000000E+00  0.00000000000E+00 -0.35937412384E+03  0.35937412388E+03  0.50400001928E-02 0.  1.
    10030    2    1    2    0    0  0.00000000000E+00  0.00000000000E+00  0.81640046726E+03  0.15351487150E+04  0.13000660961E+04 0.  0.
        5    1    3    3  502    0  0.27881538398E+03 -0.44845404353E+03 -0.39379925727E+02  0.52954878534E+03  0.46999998093E+01 0.  1.
       -5    1    3    3    0  502 -0.27881538398E+03  0.44845404353E+03  0.85578039299E+03  0.10055999297E+04  0.46999998093E+01 0. -1.
</event>
<event>
 5   0  0.3631841E-05  0.1299886E+04  0.7818609E-02  0.9029656E-01
        1   -1    0    0  501    0  0.00000000000E+00  0.00000000000E+00  0.12202842080E+04  0.12202842080E+04  0.50400001928E-02 0. -1.
       -1   -1    0    0    0  501  0.00000000000E+00  0.00000000000E+00 -0.34617007057E+03  0.34617007060E+03  0.50400001928E-02 0.  1.
    10030    2    1    2    0    0  0.00000000000E+00  0.00000000000E+00  0.87411413746E+03  0.15664542786E+04  0.12998859495E+04 0.  0.
        3    1    3    3  502    0  0.63920631082E+03  0.11734659514E+03  0.42690803817E+03  0.77756376873E+03  0.10100000352E+00 0. -1.
       -3    1    3    3    0  502 -0.63920631082E+03 -0.11734659514E+03  0.44720609929E+03  0.78889050991E+03  0.10100000352E+00 0.  1.
</event>
<event>
 5   0  0.6742824E-05  0.1298358E+04  0.7818609E-02  0.9030869E-01
       -2   -1    0    0    0  501  0.00000000000E+00  0.00000000000E+00  0.39728160466E+03  0.39728160467E+03  0.25500000920E-02 0.  1.
        2   -1    0    0  501    0  0.00000000000E+00  0.00000000000E+00 -0.10607918302E+04  0.10607918302E+04  0.25500000920E-02 0. -1.
    10030    2    1    2    0    0  0.00000000000E+00  0.00000000000E+00 -0.66351022551E+03  0.14580734348E+04  0.12983575478E+04 0.  0.
        4    1    3    3  502    0 -0.50943711683E+03  0.39427698890E+03 -0.42195310042E+03  0.77008217213E+03  0.12699999809E+01 0. -1.
       -4    1    3    3    0  502  0.50943711683E+03 -0.39427698890E+03 -0.24155712509E+03  0.68799126271E+03  0.12699999809E+01 0.  1.
</event>
<event>
 5   0  0.3631841E-05  0.1299871E+04  0.7818609E-02  0.9029667E-01
        1   -1    0    0  501    0  0.00000000000E+00  0.00000000000E+00  0.15016967810E+04  0.15016967810E+04  0.50400001928E-02 0. -1.
       -1   -1    0    0    0  501  0.00000000000E+00  0.00000000000E+00 -0.28129266361E+03  0.28129266366E+03  0.50400001928E-02 0.  1.
    10030    2    1    2    0    0  0.00000000000E+00  0.00000000000E+00  0.12204041174E+04  0.17829894447E+04  0.12998712052E+04 0.  0.
        3    1    3    3  502    0 -0.17434869960E+03 -0.10439082309E+03  0.14570005899E+04  0.14711035457E+04  0.10100000352E+00 0. -1.
       -3    1    3    3    0  502  0.17434869960E+03  0.10439082309E+03 -0.23659647249E+03  0.31188589900E+03  0.10100000352E+00 0.  1.
</event>
<event>
 5   0  0.3551277E-05  0.1299851E+04  0.7818609E-02  0.9029683E-01
       -1   -1    0    0    0  501  0.00000000000E+00  0.00000000000E+00  0.24337040286E+03  0.24337040291E+03  0.50400001928E-02 0. -1.
        1   -1    0    0  501    0  0.00000000000E+00  0.00000000000E+00 -0.17356396128E+04  0.17356396128E+04  0.50400001928E-02 0.  1.
    10030    2    1    2    0    0  0.00000000000E+00  0.00000000000E+00 -0.14922692100E+04  0.19790100157E+04  0.12998512405E+04 0.  0.
        4    1    3    3  502    0 -0.34709204702E+03 -0.54936505058E+03 -0.76328212689E+03  0.10024350682E+04  0.12699999809E+01 0.  1.
       -4    1    3    3    0  502  0.34709204702E+03  0.54936505058E+03 -0.72898708308E+03  0.97657494751E+03  0.12699999809E+01 0. -1.
</event>
<event>
 5   0  0.3631841E-05  0.1300896E+04  0.7818609E-02  0.9028855E-01
       -1   -1    0    0    0  501  0.00000000000E+00  0.00000000000E+00  0.71802750990E+03  0.71802750992E+03  0.50400001928E-02 0. -1.
        1   -1    0    0  501    0  0.00000000000E+00  0.00000000000E+00 -0.58922895029E+03  0.58922895031E+03  0.50400001928E-02 0.  1.
    10030    2    1    2    0    0  0.00000000000E+00  0.00000000000E+00  0.12879855961E+03  0.13072564602E+04  0.13008959927E+04 0.  0.
        3    1    3    3  502    0  0.15087478702E+03 -0.97676768959E+02 -0.56378002648E+03  0.59173632727E+03  0.10100000352E+00 0.  1.
       -3    1    3    3    0  502 -0.15087478702E+03  0.97676768959E+02  0.69257858609E+03  0.71552013296E+03  0.10100000352E+00 0. -1.
</event>
<event>
 5   0  0.6688086E-05  0.1299287E+04  0.7818609E-02  0.9030131E-01
        2   -1    0    0  501    0  0.00000000000E+00  0.00000000000E+00  0.22130827353E+04  0.22130827353E+04  0.25500000920E-02 0.  1.
       -2   -1    0    0    0  501  0.00000000000E+00  0.00000000000E+00 -0.19070082488E+03  0.19070082490E+03  0.25500000920E-02 0. -1.
    10030    2    1    2    0    0  0.00000000000E+00  0.00000000000E+00  0.20223819104E+04  0.24037835602E+04  0.12992870401E+04 0.  0.
        5    1    3    3  502    0  0.21660048558E+03  0.51139289963E+03  0.38769474790E+03  0.67732398134E+03  0.46999998093E+01 0. -1.
       -5    1    3    3    0  502 -0.21660048558E+03 -0.51139289963E+03  0.16346871625E+04  0.17264595789E+04  0.46999998093E+01 0.  1.
</event>
<event>
 5   0  0.3551277E-05  0.1300093E+04  0.7818609E-02  0.9029492E-01
        1   -1    0    0  501    0  0.00000000000E+00  0.00000000000E+00  0.86180958480E+03  0.86180958482E+03  0.50400001928E-02 0. -1.
       -1   -1    0    0    0  501  0.00000000000E+00  0.00000000000E+00 -0.49031737339E+03  0.49031737342E+03  0.50400001928E-02 0.  1.
    10030    2    1    2    0    0  0.00000000000E+00  0.00000000000E+00  0.37149221141E+03  0.13521269582E+04  0.13000926306E+04 0.  0.
        4    1    3    3  502    0  0.52676576898E+03 -0.20440212498E+03  0.52000682035E+03  0.76790045590E+03  0.12699999809E+01 0. -1.
       -4    1    3    3    0  502 -0.52676576898E+03  0.20440212498E+03 -0.14851460894E+03  0.58422650234E+03  0.12699999809E+01 0.  1.
</event>
<event>
 5   0  0.3552698E-05  0.1300057E+04  0.7818609E-02  0.9029520E-01
       -1   -1    0    0    0  501  0.00000000000E+00  0.00000000000E+00  0.80171709529E+03  0.80171709531E+03  0.50400001928E-02 0.  1.
        1   -1    0    0  501    0  0.00000000000E+00  0.00000000000E+00 -0.52704021334E+03  0.52704021337E+03  0.50400001928E-02 0. -1.
    10030    2    1    2    0    0  0.00000000000E+00  0.00000000000E+00  0.27467688195E+03  0.13287573087E+04  0.13000571510E+04 0.  0.
        5    1    3    3  502    0 -0.27025221712E+03 -0.34837791749E+03  0.62549252910E+03  0.76528846079E+03  0.46999998093E+01 0.  1.
       -5    1    3    3    0  502  0.27025221712E+03  0.34837791749E+03 -0.35081564715E+03  0.56346884789E+03  0.46999998093E+01 0. -1.
</event>
<event>
 5   0  0.6688086E-05  0.1300491E+04  0.7818609E-02  0.9029176E-01
       -2   -1    0    0    0  501  0.00000000000E+00  0.00000000000E+00  0.40270115947E+03  0.40270115948E+03  0.25500000920E-02 0.  1.
        2   -1    0    0  501    0  0.00000000000E+00  0.00000000000E+00 -0.10499575120E+04  0.10499575120E+04  0.25500000920E-02 0. -1.
    10030    2    1    2    0    0  0.00000000000E+00  0.00000000000E+00 -0.64725635258E+03  0.14526586715E+04  0.13004908420E+04 0.  0.
        5    1    3    3  502    0  0.46394261284E+03 -0.43132089470E+03 -0.15977960657E+03  0.65332386676E+03  0.46999998093E+01 0.  1.
       -5    1    3    3    0  502 -0.46394261284E+03  0.43132089470E+03 -0.48747674601E+03  0.79933480476E+03  0.46999998093E+01 0. -1.
</event>
<event>
 5   0  0.3552698E-05  0.1300198E+04  0.7818609E-02  0.9029408E-01
        1   -1    0    0  501    0  0.00000000000E+00  0.00000000000E+00  0.10092874481E+04  0.10092874481E+04  0.50400001928E-02 0.  1.
       -1   -1    0    0    0  501  0.00000000000E+00  0.00000000000E+00 -0.41873987173E+03  0.41873987176E+03  0.50400001928E-02 0. -1.
    10030    2    1    2    0    0  0.00000000000E+00  0.00000000000E+00  0.59054757634E+03  0.14280273199E+04  0.13001982873E+04 0.  0.
        5    1    3    3  502    0  0.18758439922E+02 -0.49231968171E+03 -0.17054161920E+03  0.52137997847E+03  0.46999998093E+01 0. -1.
       -5    1    3    3    0  502 -0.18758439922E+02  0.49231968171E+03  0.76108919554E+03  0.90664734139E+03  0.46999998093E+01 0.  1.
</event>
<event>
 5   0  0.6742824E-05  0.1299605E+04  0.7818609E-02  0.9029878E-01
        2   -1    0    0  501    0  0.00000000000E+00  0.00000000000E+00  0.83335277786E+03  0.83335277786E+03  0.25500000920E-02 0. -1.
       -2   -1    0    0    0  501  0.00000000000E+00  0.00000000000E+00 -0.50668045975E+03  0.50668045976E+03  0.25500000920E-02 0.  1.
    10030    2    1    2    0    0  0.00000000000E+00  0.00000000000E+00  0.32667231810E+03  0.13400332376E+04  0.12996054303E+04 0.  0.
        4    1    3    3  502    0  0.19928950933E+03 -0.53166566478E+03  0.48916827852E+03  0.74944773349E+03  0.12699999809E+01 0. -1.
       -4    1    3    3    0  502 -0.19928950933E+03  0.53166566478E+03 -0.16249596041E+03  0.59058550413E+03  0.12699999809E+01 0.  1.
</event>
<event>
 5   0  0.3551277E-05  0.1300202E+04  0.7818609E-02  0.9029405E-01
        1   -1    0    0  501    0  0.00000000000E+00  0.00000000000E+00  0.34408193307E+03  0.34408193310E+03  0.50400001928E-02 0.  1.
       -1   -1    0    0    0  501  0.00000000000E+00  0.00000000000E+00 -0.12282870820E+04  0.12282870820E+04  0.50400001928E-02 0. -1.
    10030    2    1    2    0    0  0.00000000000E+00  0.00000000000E+00 -0.88420514892E+03  0.15723690151E+04  0.13002021282E+04 0.  0.
        4    1    3    3  502    0 -0.58128589965E+03 -0.29101354059E+03 -0.45044629041E+03  0.79087650830E+03  0.12699999809E+01 0. -1.
       -4    1    3    3    0  502  0.58128589965E+03  0.29101354059E+03 -0.43375885851E+03  0.78149250679E+03  0.12699999809E+01 0.  1.
</event>
<event>
 5   0  0.3718559E-05  0.1300197E+04  0.7818609E-02  0.9029409E-01
        1   -1    0    0  501    0  0.00000000000E+00  0.00000000000E+00  0.10164544962E+04  0.10164544962E+04  0.50400001928E-02 0.  1.
       -1   -1    0    0    0  501  0.00000000000E+00  0.00000000000E+00 -0.41578644523E+03  0.41578644526E+03  0.50400001928E-02 0. -1.
    10030    2    1    2    0    0  0.00000000000E+00  0.00000000000E+00  0.60066805094E+03  0.14322409414E+04  0.13001969108E+04 0.  0.
        2    1    3    3  502    0 -0.64149878128E+03  0.73007334924E+02  0.38406137126E+03  0.75123491282E+03  0.25500000920E-02 0. -1.
       -2    1    3    3    0  502  0.64149878128E+03 -0.73007334924E+02  0.21660667968E+03  0.68100602862E+03  0.25500000920E-02 0.  1.
</event>
<event>
 5   0  0.3689707E-05  0.1299559E+04  0.7818609E-02  0.9029915E-01
        1   -1    0    0  501    0  0.00000000000E+00  0.00000000000E+00  0.91919247602E+03  0.91919247603E+03  0.50400001928E-02 0.  1.
       -1   -1    0    0    0  501  0.00000000000E+00  0.00000000000E+00 -0.45933066643E+03  0.45933066646E+03  0.50400001928E-02 0. -1.
    10030    2    1    2    0    0  0.00000000000E+00  0.00000000000E+00  0.45986180958E+03  0.13785231425E+04  0.12995588369E+04 0.  0.
        1    1    3    3  502    0  0.14968743698E+03  0.27511178919E+03 -0.37397787397E+03  0.48780352149E+03  0.50400001928E-02 0. -1.
       -1    1    3    3    0  502 -0.14968743698E+03 -0.27511178919E+03  0.83383968355E+03  0.89071962100E+03  0.50400001928E-02 0.  1.
</event>
<event>
 5   0  0.6458698E-05  0.1300267E+04  0.7818609E-02  0.9029354E-01
        2   -1    0    0  501    0  0.00000000000E+00  0.00000000000E+00  0.72372163113E+03  0.72372163114E+03  0.25500000920E-02 0. -1.
       -2   -1    0    0    0  501  0.00000000000E+00  0.00000000000E+00 -0.58402751465E+03  0.58402751466E+03  0.25500000920E-02 0.  1.
    10030    2    1    2    0    0  0.00000000000E+00  0.00000000000E+00  0.13969411648E+03  0.13077491458E+04  0.13002666581E+04 0.  0.
        3    1    3    3  502    0 -0.34743813789E+03 -0.22682792091E+03  0.57323618749E+03  0.70764673546E+03  0.10100000352E+00 0. -1.
       -3    1    3    3    0  502  0.34743813789E+03  0.22682792091E+03 -0.43354207101E+03  0.60010241034E+03  0.10100000352E+00 0.  1.
</event>
<event>
 5   0  0.3718559E-05  0.1300228E+04  0.7818609E-02  0.9029384E-01
        1   -1    0    0  501    0  0.00000000000E+00  0.00000000000E+00  0.11083264764E+04  0.11083264764E+04  0.50400001928E-02 0. -1.
       -1   -1    0    0    0  501  0.00000000000E+00  0.00000000000E+00 -0.38133915131E+03  0.38133915135E+03  0.50400001928E-02 0.  1.
    10030    2    1    2    0    0  0.00000000000E+00  0.00000000000E+00  0.72698732505E+03  0.14896656277E+04  0.13002280998E+04 0.  0.
        2    1    3    3  502    0  0.40293210093E+03 -0.44493139923E+03  0.77459446895E+02  0.60524226050E+03  0.25500000920E-02 0.  1.
       -2    1    3    3    0  502 -0.40293210093E+03  0.44493139923E+03  0.64952787815E+03  0.88442336722E+03  0.25500000920E-02 0. -1.
</event>
<event>
 5   0  0.2512000E-05  0.1299582E+04  0.7818609E-02  0.9029897E-01
        3   -1    0    0  501    0  0.00000000000E+00  0.00000000000E+00  0.70426617790E+03  0.70426618514E+03  0.10100000352E+00 0.  1.
       -3   -1    0    0    0  501  0.00000000000E+00  0.00000000000E+00 -0.59952931983E+03  0.59952932833E+03  0.10100000352E+00 0. -1.
    10030    2    1    2    0    0  0.00000000000E+00  0.00000000000E+00  0.10473685808E+03  0.13037955135E+04  0.12995818295E+04 0.  0.
        3    1    3    3  502    0 -0.21167485923E+03  0.59719669170E+03 -0.92245006351E+02  0.64028063066E+03  0.10100000352E+00 0. -1.
       -3    1    3    3    0  502  0.21167485923E+03 -0.59719669170E+03  0.19698186443E+03  0.66351488282E+03  0.10100000352E+00 0.  1.
</event>
<event>
 5   0  0.3718559E-05  0.1299683E+04  0.7818609E-02  0.9029816E-01
       -1   -1    0    0    0  501  0.00000000000E+00  0.00000000000E+00  0.33462934355E+03  0.33462934359E+03  0.50400001928E-02 0.  1.
        1   -1    0    0  501    0  0.00000000000E+00  0.00000000000E+00 -0.12619758546E+04  0.12619758546E+04  0.50400001928E-02 0. -1.
    10030    2    1    2    0    0  0.00000000000E+00  0.00000000000E+00 -0.92734651105E+03  0.15966051982E+04  0.12996832719E+04 0.  0.
        2    1    3    3  502    0 -0.17461599987E+01  0.59852588361E+03 -0.77459153411E+03  0.97889137658E+03  0.25500000920E-02 0. -1.
       -2    1    3    3    0  502  0.17461599987E+01 -0.59852588361E+03 -0.15275497694E+03  0.61771382161E+03  0.25500000920E-02 0.  1.
</event>
<event>
 5   0  0.6688086E-05  0.1302461E+04  0.7818609E-02  0.9027616E-01
       -2   -1    0    0    0  501  0.00000000000E+00  0.00000000000E+00  0.94180255829E+03  0.94180255830E+03  0.25500000920E-02 0.  1.
        2   -1    0    0  501    0  0.00000000000E+00  0.00000000000E+00 -0.45030803334E+03  0.45030803335E+03  0.25500000920E-02 0. -1.
    10030    2    1    2    0    0  0.00000000000E+00  0.00000000000E+00  0.49149452495E+03  0.13921105916E+04  0.13024611439E+04 0.  0.
        5    1    3    3  502    0 -0.62911528812E+03  0.13731551280E+03  0.14191337803E+03  0.65939600595E+03  0.46999998093E+01 0. -1.
       -5    1    3    3    0  502  0.62911528812E+03 -0.13731551280E+03  0.34958114692E+03  0.73271458569E+03  0.46999998093E+01 0.  1.
</event>
<event>
 5   0  0.6742824E-05  0.1299751E+04  0.7818609E-02  0.9029762E-01
        2   -1    0    0  501    0  0.00000000000E+00  0.00000000000E+00  0.65447224407E+03  0.65447224407E+03  0.25500000920E-02 0. -1.
       -2   -1    0    0    0  501  0.00000000000E+00  0.00000000000E+00 -0.64531148292E+03  0.64531148292E+03  0.25500000920E-02 0.  1.
    10030    2    1    2    0    0  0.00000000000E+00  0.00000000000E+00  0.91607611509E+01  0.12997837270E+04  0.12997514445E+04 0.  0.
        4    1    3    3  502    0 -0.33356540955E+03  0.39897184858E+03 -0.38516308426E+03  0.64714498591E+03  0.12699999809E+01 0.  1.
       -4    1    3    3    0  502  0.33356540955E+03 -0.39897184858E+03  0.39432384541E+03  0.65263874109E+03  0.12699999809E+01 0. -1.
</event>
<event>
 5   0  0.3718559E-05  0.1299791E+04  0.7818609E-02  0.9029731E-01
        1   -1    0    0  501    0  0.00000000000E+00  0.00000000000E+00  0.13775212555E+04  0.13775212555E+04  0.50400001928E-02 0.  1.
       -1   -1    0    0    0  501  0.00000000000E+00  0.00000000000E+00 -0.30661154817E+03  0.30661154821E+03  0.50400001928E-02 0. -1.
    10030    2    1    2    0    0  0.00000000000E+00  0.00000000000E+00  0.10709097073E+04  0.16841328037E+04  0.12997906367E+04 0.  0.
        2    1    3    3  502    0 -0.25942216946E+03  0.47206209523E+03  0.10065990807E+04  0.11416585274E+04  0.25500000920E-02 0.  1.
       -2    1    3    3    0  502  0.25942216946E+03 -0.47206209523E+03  0.64310626552E+02  0.54247427631E+03  0.25500000920E-02 0. -1.
</event>
<event>
 5   0  0.3689707E-05  0.1298661E+04  0.7818609E-02  0.9030628E-01
       -1   -1    0    0    0  501  0.00000000000E+00  0.00000000000E+00  0.49461832569E+03  0.49461832572E+03  0.50400001928E-02 0.  1.
        1   -1    0    0  501    0  0.00000000000E+00  0.00000000000E+00 -0.85243502581E+03  0.85243502583E+03  0.50400001928E-02 0. -1.
    10030    2    1    2    0    0  0.00000000000E+00  0.00000000000E+00 -0.35781670012E+03  0.13470533515E+04  0.12986608260E+04 0.  0.
        1    1    3    3  502    0 -0.23919611289E+03 -0.50752203502E+03  0.16013018505E+03  0.58346814193E+03  0.50400001928E-02 0.  1.
       -1    1    3    3    0  502  0.23919611289E+03  0.50752203502E+03 -0.51794688517E+03  0.76358520961E+03  0.50400001928E-02 0. -1.
</event>
<event>
 5   0  0.3631841E-05  0.1299588E+04  0.7818609E-02  0.9029892E-01
        1   -1    0    0  501    0  0.00000000000E+00  0.00000000000E+00  0.35304458200E+03  0.35304458203E+03  0.50400001928E-02 0. -1.
       -1   -1    0    0    0  501  0.00000000000E+00  0.00000000000E+00 -0.11959748092E+04  0.11959748092E+04  0.50400001928E-02 0.  1.
    10030    2    1    2    0    0  0.00000000000E+00  0.00000000000E+00 -0.84293022717E+03  0.15490193912E+04  0.12995882834E+04 0.  0.
        3    1    3    3  502    0 -0.29299381482E+03 -0.66768460898E+02  0.26524536565E+03  0.40082230115E+03  0.10100000352E+00 0. -1.
       -3    1    3    3    0  502  0.29299381482E+03  0.66768460898E+02 -0.11081755928E+04  0.11481970901E+04  0.10100000352E+00 0.  1.
</event>
<event>
 5   0  0.6618060E-05  0.1299733E+04  0.7818609E-02  0.9029777E-01
       -2   -1    0    0    0  501  0.00000000000E+00  0.00000000000E+00  0.36253337154E+03  0.36253337155E+03  0.25500000920E-02 0. -1.
        2   -1    0    0  501    0  0.00000000000E+00  0.00000000000E+00 -0.11649314381E+04  0.11649314381E+04  0.25500000920E-02 0.  1.
    10030    2    1    2    0    0  0.00000000000E+00  0.00000000000E+00 -0.80239806660E+03  0.15274648097E+04  0.12997330832E+04 0.  0.
        2    1    3    3  502    0 -0.59154444694E+03  0.21854975070E+03 -0.58566535293E+03  0.86063507474E+03  0.25500000920E-02 0.  1.
       -2    1    3    3    0  502  0.59154444694E+03 -0.21854975070E+03 -0.21673271367E+03  0.66682973496E+03  0.25500000920E-02 0. -1.
</event>
<event>
 5   0  0.3689707E-05  0.1297511E+04  0.7818609E-02  0.9031541E-01
       -1   -1    0    0    0  501  0.00000000000E+00  0.00000000000E+00  0.10564504240E+04  0.10564504240E+04  0.50400001928E-02 0.  1.
        1   -1    0    0  501    0  0.00000000000E+00  0.00000000000E+00 -0.39839404612E+03  0.39839404615E+03  0.50400001928E-02 0. -1.
    10030    2    1    2    0    0  0.00000000000E+00  0.00000000000E+00  0.65805637789E+03  0.14548444702E+04  0.12975107845E+04 0.  0.
        1    1    3    3  502    0  0.42150962776E+03  0.95714978577E+02 -0.21342418868E+03  0.48205975538E+03  0.50400001928E-02 0. -1.
       -1    1    3    3    0  502 -0.42150962776E+03 -0.95714978577E+02  0.87148056657E+03  0.97278471480E+03  0.50400001928E-02 0.  1.
</event>
<event>
 5   0  0.6688086E-05  0.1300597E+04  0.7818609E-02  0.9029092E-01
       -2   -1    0    0    0  501  0.00000000000E+00  0.00000000000E+00  0.41361682191E+03  0.41361682192E+03  0.25500000920E-02 0.  1.
        2   -1    0    0  501    0  0.00000000000E+00  0.00000000000E+00 -0.10224150862E+04  0.10224150862E+04  0.25500000920E-02 0. -1.
    10030    2    1    2    0    0  0.00000000000E+00  0.00000000000E+00 -0.60879826427E+03  0.14360319081E+04  0.13005969070E+04 0.  0.
        5    1    3    3  502    0 -0.27816277037E+03 -0.47146212634E+03 -0.69197170138E+03  0.88232533053E+03  0.46999998093E+01 0. -1.
       -5    1    3    3    0  502  0.27816277037E+03  0.47146212634E+03  0.83173437108E+02  0.55370657756E+03  0.46999998093E+01 0.  1.
</event>
<event>
 5   0  0.3631841E-05  0.1298347E+04  0.7818609E-02  0.9030877E-01
       -1   -1    0    0    0  501  0.00000000000E+00  0.00000000000E+00  0.44464283043E+03  0.44464283045E+03  0.50400001928E-02 0.  1.
        1   -1    0    0  501    0  0.00000000000E+00  0.00000000000E+00 -0.94778559421E+03  0.94778559422E+03  0.50400001928E-02 0. -1.
    10030    2    1    2    0    0  0.00000000000E+00  0.00000000000E+00 -0.50314276378E+03  0.13924284247E+04  0.12983467476E+04 0.  0.
        3    1    3    3  502    0 -0.14045897647E+03 -0.41982135387E+03 -0.76079057989E+03  0.88021645627E+03  0.10100000352E+00 0. -1.
       -3    1    3    3    0  502  0.14045897647E+03  0.41982135387E+03  0.25764781610E+03  0.51221196841E+03  0.10100000352E+00 0.  1.
</event>
<event>
 5   0  0.6618060E-05  0.1299266E+04  0.7818609E-02  0.9030148E-01
        2   -1    0    0  501    0  0.00000000000E+00  0.00000000000E+00  0.74561189302E+03  0.74561189302E+03  0.25500000920E-02 0.  1.
       -2   -1    0    0    0  501  0.00000000000E+00  0.00000000000E+00 -0.56600873809E+03  0.56600873809E+03  0.25500000920E-02 0. -1.
    10030    2    1    2    0    0  0.00000000000E+00  0.00000000000E+00  0.17960315493E+03  0.13116206311E+04  0.12992657106E+04 0.  0.
        2    1    3    3  502    0 -0.24466122093E+03  0.29309914732E+03 -0.44079764838E+03  0.58315417345E+03  0.25500000920E-02 0. -1.
       -2    1    3    3    0  502  0.24466122093E+03 -0.29309914732E+03  0.62040080332E+03  0.72846645767E+03  0.25500000920E-02 0.  1.
</event>
<event>
 5   0  0.2512000E-05  0.1299683E+04  0.7818609E-02  0.9029816E-01
        3   -1    0    0  501    0  0.00000000000E+00  0.00000000000E+00  0.76851426793E+03  0.76851427457E+03  0.10100000352E+00 0.  1.
       -3   -1    0    0    0  501  0.00000000000E+00  0.00000000000E+00 -0.54949419911E+03  0.54949420839E+03  0.10100000352E+00 0. -1.
    10030    2    1    2    0    0  0.00000000000E+00  0.00000000000E+00  0.21902006883E+03  0.13180084830E+04  0.12996832578E+04 0.  0.
        2    1    3    3  502    0 -0.57228665185E+03 -0.30708943260E+03  0.13168640786E+03  0.66268940049E+03  0.25500000920E-02 0.  1.
       -2    1    3    3    0  502  0.57228665185E+03  0.30708943260E+03  0.87333660967E+02  0.65531908247E+03  0.25500000920E-02 0. -1.
</event>
<event>
 5   0  0.6688086E-05  0.1300187E+04  0.7818609E-02  0.9029417E-01
        2   -1    0    0  501    0  0.00000000000E+00  0.00000000000E+00  0.14945155360E+04  0.14945155361E+04  0.25500000920E-02 0. -1.
       -2   -1    0    0    0  501  0.00000000000E+00  0.00000000000E+00 -0.28278170211E+03  0.28278170212E+03  0.25500000920E-02 0.  1.
    10030    2    1    2    0    0  0.00000000000E+00  0.00000000000E+00  0.12117338339E+04  0.17772972382E+04  0.13001871360E+04 0.  0.
        5    1    3    3  502    0 -0.45066955084E+03  0.24174849754E+03  0.57286629585E+02  0.51463504354E+03  0.46999998093E+01 0.  1.
       -5    1    3    3    0  502  0.45066955084E+03 -0.24174849754E+03  0.11544472044E+04  0.12626621946E+04  0.46999998093E+01 0. -1.
</event>
<event>
 5   0  0.3689707E-05  0.1299868E+04  0.7818609E-02  0.9029669E-01
        1   -1    0    0  501    0  0.00000000000E+00  0.00000000000E+00  0.11011443510E+04  0.11011443510E+04  0.50400001928E-02 0.  1.
       -1   -1    0    0    0  501  0.00000000000E+00  0.00000000000E+00 -0.38361410906E+03  0.38361410909E+03  0.50400001928E-02 0. -1.
    10030    2    1    2    0    0  0.00000000000E+00  0.00000000000E+00  0.71753024197E+03  0.14847584601E+04  0.12998684690E+04 0.  0.
        1    1    3    3  502    0 -0.49344980853E+03  0.12596099609E+03  0.82000228120E+03  0.96527852316E+03  0.50400001928E-02 0.  1.
       -1    1    3    3    0  502  0.49344980853E+03 -0.12596099609E+03 -0.10247203923E+03  0.51947993698E+03  0.50400001928E-02 0. -1.
</event>
<event>
 5   0  0.3718559E-05  0.1300286E+04  0.7818609E-02  0.9029338E-01
        1   -1    0    0  501    0  0.00000000000E+00  0.00000000000E+00  0.13030987852E+04  0.13030987852E+04  0.50400001928E-02 0.  1.
       -1   -1    0    0    0  501  0.00000000000E+00  0.00000000000E+00 -0.32437004172E+03  0.32437004176E+03  0.50400001928E-02 0. -1.
    10030    2    1    2    0    0  0.00000000000E+00  0.00000000000E+00  0.97872874344E+03  0.16274688269E+04  0.13002864413E+04 0.  0.
        2    1    3    3  502    0 -0.21779311238E+02 -0.58270115004E+03  0.12949004353E+03  0.59731284938E+03  0.25500000920E-02 0. -1.
       -2    1    3    3    0  502  0.21779311238E+02  0.58270115004E+03  0.84923869991E+03  0.10301559776E+04  0.25500000920E-02 0.  1.
</event>
<event>
 5   0  0.6458698E-05  0.1299944E+04  0.7818609E-02  0.9029610E-01
       -2   -1    0    0    0  501  0.00000000000E+00  0.00000000000E+00  0.98356195556E+03  0.98356195556E+03  0.25500000920E-02 0.  1.
        2   -1    0    0  501    0  0.00000000000E+00  0.00000000000E+00 -0.42952413769E+03  0.42952413769E+03  0.25500000920E-02 0. -1.
    10030    2    1    2    0    0  0.00000000000E+00  0.00000000000E+00  0.55403781787E+03  0.14130860933E+04  0.12999440001E+04 0.  0.
        3    1    3    3  502    0  0.84980559144E+02  0.50119828491E+03  0.71729158880E+03  0.87916360810E+03  0.10100000352E+00 0.  1.
       -3    1    3    3    0  502 -0.84980559144E+02 -0.50119828491E+03 -0.16325377093E+03  0.53392248516E+03  0.10100000352E+00 0. -1.
</event>
<event>
 5   0  0.3631841E-05  0.1300447E+04  0.7818609E-02  0.9029211E-01
       -1   -1    0    0    0  501  0.00000000000E+00  0.00000000000E+00  0.40719622380E+03  0.40719622383E+03  0.50400001928E-02 0. -1.
        1   -1    0    0  501    0  0.00000000000E+00  0.00000000000E+00 -0.10382963929E+04  0.10382963929E+04  0.50400001928E-02 0.  1.
    10030    2    1    2    0    0  0.00000000000E+00  0.00000000000E+00 -0.63110016911E+03  0.14454926167E+04  0.13004466470E+04 0.  0.
        3    1    3    3  502    0 -0.12827460225E+03  0.93386212703E+02  0.38534775194E+03  0.41673523781E+03  0.10100000352E+00 0. -1.
       -3    1    3    3    0  502  0.12827460225E+03 -0.93386212703E+02 -0.10164479211E+04  0.10287573789E+04  0.10100000352E+00 0.  1.
</event>
<event>
 5   0  0.6671239E-05  0.1298405E+04  0.7818609E-02  0.9030831E-01
        2   -1    0    0  501    0  0.00000000000E+00  0.00000000000E+00  0.13093520622E+04  0.13093520622E+04  0.25500000920E-02 0. -1.
       -2   -1    0    0    0  501  0.00000000000E+00  0.00000000000E+00 -0.32188737383E+03  0.32188737384E+03  0.25500000920E-02 0.  1.
    10030    2    1    2    0    0  0.00000000000E+00  0.00000000000E+00  0.98746468836E+03  0.16312394360E+04  0.12984050165E+04 0.  0.
        1    1    3    3  502    0  0.20719998499E+03  0.35640896569E+01 -0.27921796653E+03  0.34771713988E+03  0.50400001928E-02 0.  1.
       -1    1    3    3    0  502 -0.20719998499E+03 -0.35640896569E+01  0.12666826549E+04  0.12835222962E+04  0.50400001928E-02 0. -1.
</event>
<event>
 5   0  0.3689707E-05  0.1299964E+04  0.7818609E-02  0.9029594E-01
       -1   -1    0    0    0  501  0.00000000000E+00  0.00000000000E+00  0.32051809701E+03  0.32051809705E+03  0.50400001928E-02 0. -1.
        1   -1    0    0  501    0  0.00000000000E+00  0.00000000000E+00 -0.13181044051E+04  0.13181044051E+04  0.50400001928E-02 0.  1.
    10030    2    1    2    0    0  0.00000000000E+00  0.00000000000E+00 -0.99758630811E+03  0.16386225022E+04  0.12999635620E+04 0.  0.
        1    1    3    3  502    0 -0.64486178396E+03  0.80106804776E+02 -0.48041837532E+03  0.80812476509E+03  0.50400001928E-02 0. -1.
       -1    1    3    3    0  502  0.64486178396E+03 -0.80106804776E+02 -0.51716793279E+03  0.83049773709E+03  0.50400001928E-02 0.  1.
</event>
<event>
 5   0  0.6618060E-05  0.1300077E+04  0.7818609E-02  0.9029504E-01
       -2   -1    0    0    0  501  0.00000000000E+00  0.00000000000E+00  0.10176657368E+04  0.10176657368E+04  0.25500000920E-02 0.  1.
        2   -1    0    0  501    0  0.00000000000E+00  0.00000000000E+00 -0.41521522238E+03  0.41521522239E+03  0.25500000920E-02 0. -1.
    10030    2    1    2    0    0  0.00000000000E+00  0.00000000000E+00  0.60245051440E+03  0.14328809592E+04  0.13000773903E+04 0.  0.
        2    1    3    3  502    0  0.38666902802E+03 -0.51565276222E+03  0.39435271527E+03  0.75559564084E+03  0.25500000920E-02 0.  1.
       -2    1    3    3    0  502 -0.38666902802E+03  0.51565276222E+03  0.20809779913E+03  0.67728531833E+03  0.25500000920E-02 0. -1.
</event>
<event>
 5   0  0.3631841E-05  0.1299330E+04  0.7818609E-02  0.9030097E-01
        1   -1    0    0  501    0  0.00000000000E+00  0.00000000000E+00  0.66605949090E+03  0.66605949092E+03  0.50400001928E-02 0. -1.
       -1   -1    0    0    0  501  0.00000000000E+00  0.00000000000E+00 -0.63367389803E+03  0.63367389805E+03  0.50400001928E-02 0.  1.
    10030    2    1    2    0    0  0.00000000000E+00  0.00000000000E+00  0.32385592877E+02  0.12997333890E+04  0.12993298487E+04 0.  0.
        3    1    3    3  502    0 -0.54673710542E+03 -0.32597821498E+03 -0.11377540002E+03  0.64662826333E+03  0.10100000352E+00 0.  1.
       -3    1    3    3    0  502  0.54673710542E+03  0.32597821498E+03  0.14616099289E+03  0.65310512564E+03  0.10100000352E+00 0. -1.
</event>
<event>
 5   0  0.6742824E-05  0.1300992E+04  0.7818609E-02  0.9028779E-01
       -2   -1    0    0    0  501  0.00000000000E+00  0.00000000000E+00  0.11493807224E+04  0.11493807224E+04  0.25500000920E-02 0.  1.
        2   -1    0    0  501    0  0.00000000000E+00  0.00000000000E+00 -0.36815043512E+03  0.36815043513E+03  0.25500000920E-02 0. -1.
    10030    2    1    2    0    0  0.00000000000E+00  0.00000000000E+00  0.78123028733E+03  0.15175311576E+04  0.13009919494E+04 0.  0.
        4    1    3    3  502    0 -0.62048622267E+03 -0.10606830111E+03  0.19934089878E+03  0.66029693613E+03  0.12699999809E+01 0. -1.
       -4    1    3    3    0  502  0.62048622267E+03  0.10606830111E+03  0.58188938854E+03  0.85723422145E+03  0.12699999809E+01 0.  1.
</event>
<event>
 5   0  0.6671239E-05  0.1301003E+04  0.7818609E-02  0.9028770E-01
        2   -1    0    0  501    0  0.00000000000E+00  0.00000000000E+00  0.60710664136E+03  0.60710664137E+03  0.25500000920E-02 0. -1.
       -2   -1    0    0    0  501  0.00000000000E+00  0.00000000000E+00 -0.69699866539E+03  0.69699866539E+03  0.25500000920E-02 0.  1.
    10030    2    1    2    0    0  0.00000000000E+00  0.00000000000E+00 -0.89892024027E+02  0.13041053068E+04  0.13010034878E+04 0.  0.
        1    1    3    3  502    0 -0.14939456080E+03 -0.45631615983E+03 -0.48486517456E+03  0.68237629651E+03  0.50400001928E-02 0.  1.
       -1    1    3    3    0  502  0.14939456080E+03  0.45631615983E+03  0.39497315054E+03  0.62172901025E+03  0.50400001928E-02 0. -1.
</event>
<event>
 5   0  0.3631841E-05  0.1300116E+04  0.7818609E-02  0.9029473E-01
        1   -1    0    0  501    0  0.00000000000E+00  0.00000000000E+00  0.50167341228E+03  0.50167341230E+03  0.50400001928E-02 0. -1.
       -1   -1    0    0    0  501  0.00000000000E+00  0.00000000000E+00 -0.84233228538E+03  0.84233228540E+03  0.50400001928E-02 0.  1.
    10030    2    1    2    0    0  0.00000000000E+00  0.00000000000E+00 -0.34065887311E+03  0.13440056977E+04  0.13001164746E+04 0.  0.
        3    1    3    3  502    0 -0.98924702623E+02  0.53032309285E+03  0.20460847750E+03  0.57696907964E+03  0.10100000352E+00 0. -1.
       -3    1    3    3    0  502  0.98924702623E+02 -0.53032309285E+03 -0.54526735061E+03  0.76703661806E+03  0.10100000352E+00 0.  1.
</event>
<event>
 5   0  0.3552698E-05  0.1300729E+04  0.7818609E-02  0.9028988E-01
       -1   -1    0    0    0  501  0.00000000000E+00  0.00000000000E+00  0.99785221963E+03  0.99785221965E+03  0.50400001928E-02 0. -1.
        1   -1    0    0  501    0  0.00000000000E+00  0.00000000000E+00 -0.42388412513E+03  0.42388412516E+03  0.50400001928E-02 0.  1.
    10030    2    1    2    0    0  0.00000000000E+00  0.00000000000E+00  0.57396809450E+03  0.14217363448E+04  0.13007285884E+04 0.  0.
        5    1    3    3  502    0  0.36089476861E+03  0.10349599165E+02 -0.30426322873E+03  0.47217618594E+03  0.46999998093E+01 0.  1.
       -5    1    3    3    0  502 -0.36089476861E+03 -0.10349599165E+02  0.87823132323E+03  0.94956015887E+03  0.46999998093E+01 0. -1.
</event>
<event>
 5   0  0.3631841E-05  0.1300281E+04  0.7818609E-02  0.9029343E-01
        1   -1    0    0  501    0  0.00000000000E+00  0.00000000000E+00  0.79012588518E+03  0.79012588520E+03  0.50400001928E-02 0. -1.
       -1   -1    0    0    0  501  0.00000000000E+00  0.00000000000E+00 -0.53495583311E+03  0.53495583314E+03  0.50400001928E-02 0.  1.
    10030    2    1    2    0    0  0.00000000000E+00  0.00000000000E+00  0.25517005207E+03  0.13250817183E+04  0.13002806639E+04 0.  0.
        3    1    3    3  502    0 -0.54662703746E+03  0.34066685002E+03  0.21774522936E+03  0.67990294594E+03  0.10100000352E+00 0. -1.
       -3    1    3    3    0  502  0.54662703746E+03 -0.34066685002E+03  0.37424822708E+02  0.64517877239E+03  0.10100000352E+00 0.  1.
</event>
<event>
 5   0  0.3552698E-05  0.1303006E+04  0.7818609E-02  0.9027185E-01
        1   -1    0    0  501    0  0.00000000000E+00  0.00000000000E+00  0.29412035811E+04  0.29412035811E+04  0.50400001928E-02 0. -1.
       -1   -1    0    0    0  501  0.00000000000E+00  0.00000000000E+00 -0.14431365840E+03  0.14431365849E+03  0.50400001928E-02 0.  1.
    10030    2    1    2    0    0  0.00000000000E+00  0.00000000000E+00  0.27968899227E+04  0.30855172396E+04  0.13030055242E+04 0.  0.
        5    1    3    3  502    0 -0.79498763918E+02  0.27655594627E+02 -0.13134336733E+03  0.15607067475E+03  0.46999998093E+01 0.  1.
       -5    1    3    3    0  502  0.79498763918E+02 -0.27655594627E+02  0.29282332901E+04  0.29294465649E+04  0.46999998093E+01 0. -1.
</event>
<event>
 5   0  0.6618060E-05  0.1300416E+04  0.7818609E-02  0.9029235E-01
       -2   -1    0    0    0  501  0.00000000000E+00  0.00000000000E+00  0.28195129978E+03  0.28195129979E+03  0.25500000920E-02 0. -1.
        2   -1    0    0  501    0  0.00000000000E+00  0.00000000000E+00 -0.14994452538E+04  0.14994452538E+04  0.25500000920E-02 0.  1.
    10030    2    1    2    0    0  0.00000000000E+00  0.00000000000E+00 -0.12174939540E+04  0.17813965536E+04  0.13004161461E+04 0.  0.
        2    1    3    3  502    0 -0.21611679441E+03 -0.55529785484E+03 -0.96519762445E+03  0.11343141675E+04  0.25500000920E-02 0.  1.
       -2    1    3    3    0  502  0.21611679441E+03  0.55529785484E+03 -0.25229632954E+03  0.64708238604E+03  0.25500000920E-02 0. -1.
</event>
<event>
 5   0  0.3631841E-05  0.1301949E+04  0.7818609E-02  0.9028021E-01
       -1   -1    0    0    0  501  0.00000000000E+00  0.00000000000E+00  0.30750525575E+03  0.30750525579E+03  0.50400001928E-02 0. -1.
        1   -1    0    0  501    0  0.00000000000E+00  0.00000000000E+00 -0.13780841367E+04  0.13780841367E+04  0.50400001928E-02 0.  1.
    10030    2    1    2    0    0  0.00000000000E+00  0.00000000000E+00 -0.10705788809E+04  0.16855893925E+04  0.13019494843E+04 0.  0.
        3    1    3    3  502    0  0.76913429705E+02  0.12196339861E+02  0.30145301560E+03  0.31134925275E+03  0.10100000352E+00 0. -1.
       -3    1    3    3    0  502 -0.76913429705E+02 -0.12196339861E+02 -0.13720318965E+04  0.13742401397E+04  0.10100000352E+00 0.  1.
</event>
<event>
 5   0  0.6671239E-05  0.1301153E+04  0.7818609E-02  0.9028652E-01
        2   -1    0    0  501    0  0.00000000000E+00  0.00000000000E+00  0.89643547834E+03  0.89643547834E+03  0.25500000920E-02 0.  1.
       -2   -1    0    0    0  501  0.00000000000E+00  0.00000000000E+00 -0.47214730411E+03  0.47214730412E+03  0.25500000920E-02 0. -1.
    10030    2    1    2    0    0  0.00000000000E+00  0.00000000000E+00  0.42428817423E+03  0.13685827825E+04  0.13011527111E+04 0.  0.
        1    1    3    3  502    0  0.33420317967E+03  0.52385147236E+03  0.41484183476E+03  0.74713176769E+03  0.50400001928E-02 0. -1.
       -1    1    3    3    0  502 -0.33420317967E+03 -0.52385147236E+03  0.94463394661E+01  0.62145101477E+03  0.50400001928E-02 0.  1.
</event>
<event>
 5   0  0.6742824E-05  0.1299951E+04  0.7818609E-02  0.9029604E-01
       -2   -1    0    0    0  501  0.00000000000E+00  0.00000000000E+00  0.38713197474E+03  0.38713197475E+03  0.25500000920E-02 0.  1.
        2   -1    0    0  501    0  0.00000000000E+00  0.00000000000E+00 -0.10912766345E+04  0.10912766345E+04  0.25500000920E-02 0. -1.
    10030    2    1    2    0    0  0.00000000000E+00  0.00000000000E+00 -0.70414465976E+03  0.14784086092E+04  0.12999508891E+04 0.  0.
        4    1    3    3  502    0 -0.53761926688E+02  0.39147692351E+03 -0.93898165486E+03  0.10187407361E+04  0.12699999809E+01 0. -1.
       -4    1    3    3    0  502  0.53761926688E+02 -0.39147692351E+03  0.23483699510E+03  0.45966787311E+03  0.12699999809E+01 0.  1.
</event>
<event>
 5   0  0.3631841E-05  0.1301595E+04  0.7818609E-02  0.9028301E-01
       -1   -1    0    0    0  501  0.00000000000E+00  0.00000000000E+00  0.46519551278E+03  0.46519551280E+03  0.50400001928E-02 0.  1.
        1   -1    0    0  501    0  0.00000000000E+00  0.00000000000E+00 -0.91045040912E+03  0.91045040913E+03  0.50400001928E-02 0. -1.
    10030    2    1    2    0    0  0.00000000000E+00  0.00000000000E+00 -0.44525489634E+03  0.13756459219E+04  0.13015950906E+04 0.  0.
        3    1    3    3  502    0  0.12936159460E+03  0.34456856004E+03 -0.78988977295E+03  0.87142858476E+03  0.10100000352E+00 0. -1.
       -3    1    3    3    0  502 -0.12936159460E+03 -0.34456856004E+03  0.34463487661E+03  0.50421733717E+03  0.10100000352E+00 0.  1.
</event>
<event>
 5   0  0.6458698E-05  0.1299816E+04  0.7818609E-02  0.9029711E-01
        2   -1    0    0  501    0  0.00000000000E+00  0.00000000000E+00  0.37363202611E+03  0.37363202612E+03  0.25500000920E-02 0. -1.
       -2   -1    0    0    0  501  0.00000000000E+00  0.00000000000E+00 -0.11304717118E+04  0.11304717118E+04  0.25500000920E-02 0.  1.
    10030    2    1    2    0    0  0.00000000000E+00  0.00000000000E+00 -0.75683968565E+03  0.15041037379E+04  0.12998160426E+04 0.  0.
        3    1    3    3  502    0 -0.33065144723E+03 -0.45262641944E+03  0.21795782080E+01  0.56054064607E+03  0.10100000352E+00 0. -1.
       -3    1    3    3    0  502  0.33065144723E+03  0.45262641944E+03 -0.75901926386E+03  0.94356309182E+03  0.10100000352E+00 0.  1.
</event>
<event>
 5   0  0.6458698E-05  0.1300503E+04  0.7818609E-02  0.9029166E-01
        2   -1    0    0  501    0  0.00000000000E+00  0.00000000000E+00  0.73005456573E+03  0.73005456573E+03  0.25500000920E-02 0.  1.
       -2   -1    0    0    0  501  0.00000000000E+00  0.00000000000E+00 -0.57917220690E+03  0.57917220691E+03  0.25500000920E-02 0. -1.
    10030    2    1    2    0    0  0.00000000000E+00  0.00000000000E+00  0.15088235882E+03  0.13092267726E+04  0.13005034625E+04 0.  0.
        3    1    3    3  502    0 -0.16358064743E+03 -0.81611572695E+02  0.70365274271E+03  0.72701187716E+03  0.10100000352E+00 0.  1.
       -3    1    3    3    0  502  0.16358064743E+03  0.81611572695E+02 -0.55277038389E+03  0.58221489548E+03  0.10100000352E+00 0. -1.
</event>
<event>
 5   0  0.3718559E-05  0.1294997E+04  0.7818609E-02  0.9033542E-01
       -1   -1    0    0    0  501  0.00000000000E+00  0.00000000000E+00  0.44434043667E+03  0.44434043670E+03  0.50400001928E-02 0. -1.
        1   -1    0    0  501    0  0.00000000000E+00  0.00000000000E+00 -0.94354315972E+03  0.94354315973E+03  0.50400001928E-02 0.  1.
    10030    2    1    2    0    0  0.00000000000E+00  0.00000000000E+00 -0.49920272305E+03  0.13878835964E+04  0.12949971114E+04 0.  0.
        2    1    3    3  502    0  0.50874482054E+03 -0.20398978291E+03 -0.61903064015E+03  0.82682045053E+03  0.25500000920E-02 0.  1.
       -2    1    3    3    0  502 -0.50874482054E+03  0.20398978291E+03  0.11982791711E+03  0.56106314590E+03  0.25500000920E-02 0. -1.
</event>
<event>
 5   0  0.3552698E-05  0.1299974E+04  0.7818609E-02  0.9029586E-01
        1   -1    0    0  501    0  0.00000000000E+00  0.00000000000E+00  0.31474391013E+03  0.31474391017E+03  0.50400001928E-02 0.  1.
       -1   -1    0    0    0  501  0.00000000000E+00  0.00000000000E+00 -0.13423077545E+04  0.13423077545E+04  0.50400001928E-02 0. -1.
    10030    2    1    2    0    0  0.00000000000E+00  0.00000000000E+00 -0.10275638444E+04  0.16570516647E+04  0.12999741402E+04 0.  0.
        5    1    3    3  502    0 -0.14668509374E+03 -0.43044088456E+03 -0.11057406145E+04  0.11956087438E+04  0.46999998093E+01 0. -1.
       -5    1    3    3    0  502  0.14668509374E+03  0.43044088456E+03  0.78176770097E+02  0.46144292086E+03  0.46999998093E+01 0.  1.
</event>
<event>
 5   0  0.3689707E-05  0.1300205E+04  0.7818609E-02  0.9029403E-01
        1   -1    0    0  501    0  0.00000000000E+00  0.00000000000E+00  0.10401827521E+04  0.10401827521E+04  0.50400001928E-02 0.  1.
       -1   -1    0    0    0  501  0.00000000000E+00  0.00000000000E+00 -0.40630655920E+03  0.40630655923E+03  0.50400001928E-02 0. -1.
    10030    2    1    2    0    0  0.00000000000E+00  0.00000000000E+00  0.63387619286E+03  0.14464893113E+04  0.13002047146E+04 0.  0.
        1    1    3    3  502    0 -0.60781501201E+03  0.22523186420E+03  0.26170795710E+03  0.69904187021E+03  0.50400001928E-02 0. -1.
       -1    1    3    3    0  502  0.60781501201E+03 -0.22523186420E+03  0.37216823576E+03  0.74744744110E+03  0.50400001928E-02 0.  1.
</event>
<event>
 5   0  0.6688086E-05  0.1300442E+04  0.7818609E-02  0.9029215E-01
       -2   -1    0    0    0  501  0.00000000000E+00  0.00000000000E+00  0.92714386436E+03  0.92714386436E+03  0.25500000920E-02 0. -1.
        2   -1    0    0  501    0  0.00000000000E+00  0.00000000000E+00 -0.45601070034E+03  0.45601070035E+03  0.25500000920E-02 0.  1.
    10030    2    1    2    0    0  0.00000000000E+00  0.00000000000E+00  0.47113316402E+03  0.13831545647E+04  0.13004422677E+04 0.  0.
        5    1    3    3  502    0  0.17457632696E+03  0.27639555637E+02 -0.42995043014E+03  0.46488740717E+03  0.46999998093E+01 0.  1.
       -5    1    3    3    0  502 -0.17457632696E+03 -0.27639555637E+02  0.90108359415E+03  0.91826715754E+03  0.46999998093E+01 0. -1.
</event>
<event>
 5   0  0.6458698E-05  0.1299983E+04  0.7818609E-02  0.9029579E-01
       -2   -1    0    0    0  501  0.00000000000E+00  0.00000000000E+00  0.26298522412E+03  0.26298522413E+03  0.25500000920E-02 0. -1.
        2   -1    0    0  501    0  0.00000000000E+00  0.00000000000E+00 -0.16065115139E+04  0.16065115139E+04  0.25500000920E-02 0.  1.
    10030    2    1    2    0    0  0.00000000000E+00  0.00000000000E+00 -0.13435262898E+04  0.18694967381E+04  0.12999827546E+04 0.  0.
        3    1    3    3  502    0 -0.51810689228E+03  0.27500258316E+02 -0.10870268428E+03  0.53010121657E+03  0.10100000352E+00 0. -1.
       -3    1    3    3    0  502  0.51810689228E+03 -0.27500258316E+02 -0.12348236055E+04  0.13393955215E+04  0.10100000352E+00 0.  1.
</event>
<event>
 5   0  0.6742824E-05  0.1299967E+04  0.7818609E-02  0.9029591E-01
        2   -1    0    0  501    0  0.00000000000E+00  0.00000000000E+00  0.11498476427E+04  0.11498476427E+04  0.25500000920E-02 0.  1.
       -2   -1    0    0    0  501  0.00000000000E+00  0.00000000000E+00 -0.36742150243E+03  0.36742150244E+03  0.25500000920E-02 0. -1.
    10030    2    1    2    0    0  0.00000000000E+00  0.00000000000E+00  0.78242614026E+03  0.15172691451E+04  0.12999673049E+04 0.  0.
        4    1    3    3  502    0 -0.40109682287E+03 -0.36728810419E+03  0.80665941643E+03  0.97287216005E+03  0.12699999809E+01 0. -1.
       -4    1    3    3    0  502  0.40109682287E+03  0.36728810419E+03 -0.24233276170E+02  0.54439698508E+03  0.12699999809E+01 0.  1.
</event>
<event>
 5   0  0.6458698E-05  0.1299422E+04  0.7818609E-02  0.9030024E-01
        2   -1    0    0  501    0  0.00000000000E+00  0.00000000000E+00  0.46130208070E+03  0.46130208071E+03  0.25500000920E-02 0. -1.
       -2   -1    0    0    0  501  0.00000000000E+00  0.00000000000E+00 -0.91507116771E+03  0.91507116771E+03  0.25500000920E-02 0.  1.
    10030    2    1    2    0    0  0.00000000000E+00  0.00000000000E+00 -0.45376908700E+03  0.13763732484E+04  0.12994217693E+04 0.  0.
        3    1    3    3  502    0  0.59221276053E+03  0.23096582570E+03 -0.84526597928E+02  0.64125339947E+03  0.10100000352E+00 0.  1.
       -3    1    3    3    0  502 -0.59221276053E+03 -0.23096582570E+03 -0.36924248908E+03  0.73511984895E+03  0.10100000352E+00 0. -1.
</event>
<event>
 5   0  0.3552698E-05  0.1301172E+04  0.7818609E-02  0.9028636E-01
       -1   -1    0    0    0  501  0.00000000000E+00  0.00000000000E+00  0.50443131727E+03  0.50443131729E+03  0.50400001928E-02 0.  1.
        1   -1    0    0  501    0  0.00000000000E+00  0.00000000000E+00 -0.83908789516E+03  0.83908789517E+03  0.50400001928E-02 0. -1.
    10030    2    1    2    0    0  0.00000000000E+00  0.00000000000E+00 -0.33465657789E+03  0.13435192125E+04  0.13011721059E+04 0.  0.
        5    1    3    3  502    0 -0.57690919081E+03 -0.29639246762E+03 -0.11500958180E+03  0.65872756372E+03  0.46999998093E+01 0.  1.
       -5    1    3    3    0  502  0.57690919081E+03  0.29639246762E+03 -0.21964699609E+03  0.68479164874E+03  0.46999998093E+01 0. -1.
</event>
<event>
 5   0  0.3551277E-05  0.1300374E+04  0.7818609E-02  0.9029269E-01
       -1   -1    0    0    0  501  0.00000000000E+00  0.00000000000E+00  0.41883147655E+03  0.41883147658E+03  0.50400001928E-02 0. -1.
        1   -1    0    0  501    0  0.00000000000E+00  0.00000000000E+00 -0.10093394932E+04  0.10093394932E+04  0.50400001928E-02 0.  1.
    10030    2    1    2    0    0  0.00000000000E+00  0.00000000000E+00 -0.59050801667E+03  0.14281709698E+04  0.13003740236E+04 0.  0.
        4    1    3    3  502    0  0.18302248811E+02 -0.59095894329E+03  0.18377389231E+01  0.59124650963E+03  0.12699999809E+01 0. -1.
       -4    1    3    3    0  502 -0.18302248811E+02  0.59095894329E+03 -0.59234575559E+03  0.83692446017E+03  0.12699999809E+01 0.  1.
</event>
<event>
 5   0  0.3552698E-05  0.1301285E+04  0.7818609E-02  0.9028547E-01
        1   -1    0    0  501    0  0.00000000000E+00  0.00000000000E+00  0.57218585713E+03  0.57218585716E+03  0.50400001928E-02 0.  1.
       -1   -1    0    0    0  501  0.00000000000E+00  0.00000000000E+00 -0.73985704485E+03  0.73985704486E+03  0.50400001928E-02 0. -1.
    10030    2    1    2    0    0  0.00000000000E+00  0.00000000000E+00 -0.16767118771E+03  0.13120429020E+04  0.13012851146E+04 0.  0.
        5    1    3    3  502    0  0.50440063364E+02  0.64279546885E+03 -0.17163841909E+03  0.66724212372E+03  0.46999998093E+01 0. -1.
       -5    1    3    3    0  502 -0.50440063364E+02 -0.64279546885E+03  0.39672313752E+01  0.64480077830E+03  0.46999998093E+01 0.  1.
</event>
<event>
 5   0  0.3551277E-05  0.1299879E+04  0.7818609E-02  0.9029661E-01
       -1   -1    0    0    0  501  0.00000000000E+00  0.00000000000E+00  0.40795643919E+03  0.40795643922E+03  0.50400001928E-02 0.  1.
        1   -1    0    0  501    0  0.00000000000E+00  0.00000000000E+00 -0.10354572594E+04  0.10354572594E+04  0.50400001928E-02 0. -1.
    10030    2    1    2    0    0  0.00000000000E+00  0.00000000000E+00 -0.62750082021E+03  0.14434136986E+04  0.12998791582E+04 0.  0.
        4    1    3    3  502    0  0.23832003510E+03  0.57058747327E+03 -0.91518095375E+02  0.62509493556E+03  0.12699999809E+01 0.  1.
       -4    1    3    3    0  502 -0.23832003510E+03 -0.57058747327E+03 -0.53598272484E+03  0.81831876308E+03  0.12699999809E+01 0. -1.
</event>
<event>
 5   0  0.6458698E-05  0.1299981E+04  0.7818609E-02  0.9029580E-01
       -2   -1    0    0    0  501  0.00000000000E+00  0.00000000000E+00  0.15863519025E+04  0.15863519025E+04  0.25500000920E-02 0.  1.
        2   -1    0    0  501    0  0.00000000000E+00  0.00000000000E+00 -0.26632673253E+03  0.26632673254E+03  0.25500000920E-02 0. -1.
    10030    2    1    2    0    0  0.00000000000E+00  0.00000000000E+00  0.13200251700E+04  0.18526786351E+04  0.12999814135E+04 0.  0.
        3    1    3    3  502    0 -0.62225803283E+03  0.18658847965E+03  0.69082990429E+03  0.94829651852E+03  0.10100000352E+00 0.  1.
       -3    1    3    3    0  502  0.62225803283E+03 -0.18658847965E+03  0.62919526570E+03  0.90438211655E+03  0.10100000352E+00 0. -1.
</event>
<event>
 5   0  0.3631841E-05  0.1299770E+04  0.7818609E-02  0.9029747E-01
       -1   -1    0    0    0  501  0.00000000000E+00  0.00000000000E+00  0.78746494995E+03  0.78746494996E+03  0.50400001928E-02 0. -1.
        1   -1    0    0  501    0  0.00000000000E+00  0.00000000000E+00 -0.53634233508E+03  0.53634233510E+03  0.50400001928E-02 0.  1.
    10030    2    1    2    0    0  0.00000000000E+00  0.00000000000E+00  0.25112261486E+03  0.13238072851E+04  0.12997704260E+04 0.  0.
        3    1    3    3  502    0  0.24557802424E+03  0.51657890994E+03 -0.18867056170E+03  0.60229471792E+03  0.10100000352E+00 0.  1.
       -3    1    3    3    0  502 -0.24557802424E+03 -0.51657890994E+03  0.43979317657E+03  0.72151256714E+03  0.10100000352E+00 0. -1.
</event>
<event>
 5   0  0.6688086E-05  0.1302545E+04  0.7818609E-02  0.9027549E-01
        2   -1    0    0  501    0  0.00000000000E+00  0.00000000000E+00  0.66628601867E+03  0.66628601867E+03  0.25500000920E-02 0. -1.
       -2   -1    0    0    0  501  0.00000000000E+00  0.00000000000E+00 -0.63659722706E+03  0.63659722706E+03  0.25500000920E-02 0.  1.
    10030    2    1    2    0    0  0.00000000000E+00  0.00000000000E+00  0.29688791610E+02  0.13028832457E+04  0.13025449427E+04 0.  0.
        5    1    3    3  502    0  0.32598727292E+03 -0.42193213670E+03 -0.35920367692E+03  0.64291819199E+03  0.46999998093E+01 0.  1.
       -5    1    3    3    0  502 -0.32598727292E+03  0.42193213670E+03  0.38889246853E+03  0.65996505374E+03  0.46999998093E+01 0. -1.
</event>
<event>
 5   0  0.6458698E-05  0.1299570E+04  0.7818609E-02  0.9029907E-01
        2   -1    0    0  501    0  0.00000000000E+00  0.00000000000E+00  0.95952786151E+03  0.95952786151E+03  0.25500000920E-02 0.  1.
       -2   -1    0    0    0  501  0.00000000000E+00  0.00000000000E+00 -0.44002917238E+03  0.44002917238E+03  0.25500000920E-02 0. -1.
    10030    2    1    2    0    0  0.00000000000E+00  0.00000000000E+00  0.51949868913E+03  0.13995570339E+04  0.12995695453E+04 0.  0.
        3    1    3    3  502    0  0.49755749270E+03  0.24741899066E+03 -0.10297389485E+03  0.56514002575E+03  0.10100000352E+00 0.  1.
       -3    1    3    3    0  502 -0.49755749270E+03 -0.24741899066E+03  0.62247258398E+03  0.83441700815E+03  0.10100000352E+00 0. -1.
</event>
<event>
 5   0  0.3631841E-05  0.1300050E+04  0.7818609E-02  0.9029525E-01
        1   -1    0    0  501    0  0.00000000000E+00  0.00000000000E+00  0.75050337570E+03  0.75050337572E+03  0.50400001928E-02 0. -1.
       -1   -1    0    0    0  501  0.00000000000E+00  0.00000000000E+00 -0.56299900678E+03  0.56299900681E+03  0.50400001928E-02 0.  1.
    10030    2    1    2    0    0  0.00000000000E+00  0.00000000000E+00  0.18750436892E+03  0.13135023825E+04  0.13000502377E+04 0.  0.
        3    1    3    3  502    0 -0.30064058631E+03 -0.11369927205E+02  0.67592502616E+03  0.73985720823E+03  0.10100000352E+00 0. -1.
       -3    1    3    3    0  502  0.30064058631E+03  0.11369927205E+02 -0.48842065724E+03  0.57364517430E+03  0.10100000352E+00 0.  1.
</event>
<event>
 5   0  0.6742824E-05  0.1300182E+04  0.7818609E-02  0.9029421E-01
       -2   -1    0    0    0  501  0.00000000000E+00  0.00000000000E+00  0.76191022821E+03  0.76191022821E+03  0.25500000920E-02 0. -1.
        2   -1    0    0  501    0  0.00000000000E+00  0.00000000000E+00 -0.55468271643E+03  0.55468271643E+03  0.25500000920E-02 0.  1.
    10030    2    1    2    0    0  0.00000000000E+00  0.00000000000E+00  0.20722751178E+03  0.13165929446E+04  0.13001821950E+04 0.  0.
        4    1    3    3  502    0 -0.33198738548E+03  0.41509236753E+03 -0.27540930944E+03  0.59863945604E+03  0.12699999809E+01 0.  1.
       -4    1    3    3    0  502  0.33198738548E+03 -0.41509236753E+03  0.48263682122E+03  0.71795348860E+03  0.12699999809E+01 0. -1.
</event>
<event>
 5   0  0.2512000E-05  0.1300170E+04  0.7818609E-02  0.9029431E-01
       -4   -1    0    0    0  501  0.00000000000E+00  0.00000000000E+00  0.12140497362E+04  0.12140504005E+04  0.12699999809E+01 0.  1.
        4   -1    0    0  501    0  0.00000000000E+00  0.00000000000E+00 -0.34809774725E+03  0.34810006397E+03  0.12699999809E+01 0. -1.
    10030    2    1    2    0    0  0.00000000000E+00  0.00000000000E+00  0.86595198899E+03  0.15621504645E+04  0.13001696914E+04 0.  0.
        2    1    3    3  502    0  0.62284995753E+02  0.62807846681E+03  0.24588034009E+03  0.67736188467E+03  0.25500000920E-02 0. -1.
       -2    1    3    3    0  502 -0.62284995753E+02 -0.62807846681E+03  0.62007164891E+03  0.88478857980E+03  0.25500000920E-02 0.  1.
</event>
<event>
 5   0  0.3718559E-05  0.1299880E+04  0.7818609E-02  0.9029661E-01
        1   -1    0    0  501    0  0.00000000000E+00  0.00000000000E+00  0.99745753497E+03  0.99745753498E+03  0.50400001928E-02 0.  1.
       -1   -1    0    0    0  501  0.00000000000E+00  0.00000000000E+00 -0.42349854792E+03  0.42349854795E+03  0.50400001928E-02 0. -1.
    10030    2    1    2    0    0  0.00000000000E+00  0.00000000000E+00  0.57395898705E+03  0.14209560829E+04  0.12998797140E+04 0.  0.
        2    1    3    3  502    0 -0.43331264330E+02 -0.63222920382E+03  0.44475037332E+03  0.77420556651E+03  0.25500000920E-02 0.  1.
       -2    1    3    3    0  502  0.43331264330E+02  0.63222920382E+03  0.12920861372E+03  0.64675051643E+03  0.25500000920E-02 0. -1.
</event>
<event>
 5   0  0.3551277E-05  0.1299963E+04  0.7818609E-02  0.9029595E-01
       -1   -1    0    0    0  501  0.00000000000E+00  0.00000000000E+00  0.53829835798E+03  0.53829835800E+03  0.50400001928E-02 0.  1.
        1   -1    0    0  501    0  0.00000000000E+00  0.00000000000E+00 -0.78483576118E+03  0.78483576120E+03  0.50400001928E-02 0. -1.
    10030    2    1    2    0    0  0.00000000000E+00  0.00000000000E+00 -0.24653740321E+03  0.13231341192E+04  0.12999627711E+04 0.  0.
        4    1    3    3  502    0 -0.18564163018E+03 -0.55849478220E+03 -0.40403881505E+03  0.71388249283E+03  0.12699999809E+01 0. -1.
       -4    1    3    3    0  502  0.18564163018E+03  0.55849478220E+03  0.15750141184E+03  0.60925162637E+03  0.12699999809E+01 0.  1.
</event>
<event>
 5   0  0.3631841E-05  0.1300394E+04  0.7818609E-02  0.9029253E-01
       -1   -1    0    0    0  501  0.00000000000E+00  0.00000000000E+00  0.56743600573E+03  0.56743600575E+03  0.50400001928E-02 0.  1.
        1   -1    0    0  501    0  0.00000000000E+00  0.00000000000E+00 -0.74502868014E+03  0.74502868016E+03  0.50400001928E-02 0. -1.
    10030    2    1    2    0    0  0.00000000000E+00  0.00000000000E+00 -0.17759267441E+03  0.13124646859E+04  0.13003939379E+04 0.  0.
        3    1    3    3  502    0 -0.11431615633E+03 -0.23055532769E+02  0.55679446872E+03  0.56887593708E+03  0.10100000352E+00 0.  1.
       -3    1    3    3    0  502  0.11431615633E+03  0.23055532769E+02 -0.73438714313E+03  0.74358874883E+03  0.10100000352E+00 0. -1.
</event>
<event>
 5   0  0.3552698E-05  0.1299425E+04  0.7818609E-02  0.9030021E-01
       -1   -1    0    0    0  501  0.00000000000E+00  0.00000000000E+00  0.18151328560E+04  0.18151328561E+04  0.50400001928E-02 0. -1.
        1   -1    0    0  501    0  0.00000000000E+00  0.00000000000E+00 -0.23255941450E+03  0.23255941455E+03  0.50400001928E-02 0.  1.
    10030    2    1    2    0    0  0.00000000000E+00  0.00000000000E+00  0.15825734415E+04  0.20476922706E+04  0.12994248486E+04 0.  0.
        5    1    3    3  502    0 -0.42938727289E+03  0.36171681670E+03  0.13064980824E+04  0.14220308769E+04  0.46999998093E+01 0. -1.
       -5    1    3    3    0  502  0.42938727289E+03 -0.36171681670E+03  0.27607535912E+03  0.62566139366E+03  0.46999998093E+01 0.  1.
</event>
<event>
 5   0  0.6458698E-05  0.1299919E+04  0.7818609E-02  0.9029629E-01
       -2   -1    0    0    0  501  0.00000000000E+00  0.00000000000E+00  0.31424058130E+03  0.31424058131E+03  0.25500000920E-02 0.  1.
        2   -1    0    0  501    0  0.00000000000E+00  0.00000000000E+00 -0.13443438979E+04  0.13443438979E+04  0.25500000920E-02 0. -1.
    10030    2    1    2    0    0  0.00000000000E+00  0.00000000000E+00 -0.10301033166E+04  0.16585844792E+04  0.12999190866E+04 0.  0.
        3    1    3    3  502    0 -0.23835390592E+03  0.31383738809E+03  0.14441292201E+03  0.41971608604E+03  0.10100000352E+00 0.  1.
       -3    1    3    3    0  502  0.23835390592E+03 -0.31383738809E+03 -0.11745162386E+04  0.12388683932E+04  0.10100000352E+00 0. -1.
</event>
<event>
 5   0  0.3689707E-05  0.1299804E+04  0.7818609E-02  0.9029721E-01
       -1   -1    0    0    0  501  0.00000000000E+00  0.00000000000E+00  0.67540185670E+03  0.67540185672E+03  0.50400001928E-02 0.  1.
        1   -1    0    0  501    0  0.00000000000E+00  0.00000000000E+00 -0.62536453607E+03  0.62536453609E+03  0.50400001928E-02 0. -1.
    10030    2    1    2    0    0  0.00000000000E+00  0.00000000000E+00  0.50037320627E+02  0.13007663928E+04  0.12998036295E+04 0.  0.
        1    1    3    3  502    0 -0.29944344845E+03 -0.34168147803E+03  0.49007757958E+03  0.66827288235E+03  0.50400001928E-02 0.  1.
       -1    1    3    3    0  502  0.29944344845E+03  0.34168147803E+03 -0.44004025896E+03  0.63249351046E+03  0.50400001928E-02 0. -1.
</event>
<event>
 5   0  0.6671239E-05  0.1299963E+04  0.7818609E-02  0.9029595E-01
       -2   -1    0    0    0  501  0.00000000000E+00  0.00000000000E+00  0.45818476355E+03  0.45818476356E+03  0.25500000920E-02 0.  1.
        2   -1    0    0  501    0  0.00000000000E+00  0.00000000000E+00 -0.92206432138E+03  0.92206432138E+03  0.25500000920E-02 0. -1.
    10030    2    1    2    0    0  0.00000000000E+00  0.00000000000E+00 -0.46387955783E+03  0.13802490849E+04  0.12999628042E+04 0.  0.
        1    1    3    3  502    0  0.47981791465E+03  0.27820404345E+03 -0.59177022447E+03  0.81105777821E+03  0.50400001928E-02 0. -1.
       -1    1    3    3    0  502 -0.47981791465E+03 -0.27820404345E+03  0.12789066664E+03  0.56919130672E+03  0.50400001928E-02 0.  1.
</event>
<event>
 5   0  0.3631841E-05  0.1300379E+04  0.7818609E-02  0.9029264E-01
        1   -1    0    0  501    0  0.00000000000E+00  0.00000000000E+00  0.19248917216E+04  0.19248917216E+04  0.50400001928E-02 0.  1.
       -1   -1    0    0    0  501  0.00000000000E+00  0.00000000000E+00 -0.21962101131E+03  0.21962101137E+03  0.50400001928E-02 0. -1.
    10030    2    1    2    0    0  0.00000000000E+00  0.00000000000E+00  0.17052707102E+04  0.21445127329E+04  0.13003794317E+04 0.  0.
        3    1    3    3  502    0  0.79355087331E+02 -0.13347155798E+02  0.19166479328E+04  0.19183364369E+04  0.10100000352E+00 0.  1.
       -3    1    3    3    0  502 -0.79355087331E+02  0.13347155798E+02 -0.21137722260E+03  0.22617629604E+03  0.10100000352E+00 0. -1.
</event>
<event>
 5   0  0.3718559E-05  0.1299062E+04  0.7818609E-02  0.9030309E-01
        1   -1    0    0  501    0  0.00000000000E+00  0.00000000000E+00  0.12378139892E+04  0.12378139892E+04  0.50400001928E-02 0.  1.
       -1   -1    0    0    0  501  0.00000000000E+00  0.00000000000E+00 -0.34083508075E+03  0.34083508079E+03  0.50400001928E-02 0. -1.
    10030    2    1    2    0    0  0.00000000000E+00  0.00000000000E+00  0.89697890848E+03  0.15786490700E+04  0.12990618630E+04 0.  0.
        2    1    3    3  502    0 -0.42724762700E+02  0.40750760574E+02 -0.33756726958E+03  0.34269183144E+03  0.25500000920E-02 0. -1.
       -2    1    3    3    0  502  0.42724762700E+02 -0.40750760574E+02  0.12345461781E+04  0.12359572386E+04  0.25500000920E-02 0.  1.
</event>
<event>
 5   0  0.3552698E-05  0.1300162E+04  0.7818609E-02  0.9029437E-01
       -1   -1    0    0    0  501  0.00000000000E+00  0.00000000000E+00  0.26616676793E+03  0.26616676798E+03  0.50400001928E-02 0.  1.
        1   -1    0    0  501    0  0.00000000000E+00  0.00000000000E+00 -0.15877458839E+04  0.15877458839E+04  0.50400001928E-02 0. -1.
    10030    2    1    2    0    0  0.00000000000E+00  0.00000000000E+00 -0.13215791159E+04  0.18539126519E+04  0.13001618211E+04 0.  0.
        5    1    3    3  502    0  0.39475259965E+03 -0.37689799544E+03 -0.15725706576E+03  0.56800844063E+03  0.46999998093E+01 0.  1.
       -5    1    3    3    0  502 -0.39475259965E+03  0.37689799544E+03 -0.11643220502E+04  0.12859042112E+04  0.46999998093E+01 0. -1.
</event>
<event>
 5   0  0.6688086E-05  0.1300154E+04  0.7818609E-02  0.9029443E-01
       -2   -1    0    0    0  501  0.00000000000E+00  0.00000000000E+00  0.79143604707E+03  0.79143604707E+03  0.25500000920E-02 0. -1.
        2   -1    0    0  501    0  0.00000000000E+00  0.00000000000E+00 -0.53396643071E+03  0.53396643071E+03  0.25500000920E-02 0.  1.
    10030    2    1    2    0    0  0.00000000000E+00  0.00000000000E+00  0.25746961636E+03  0.13254024778E+04  0.13001542696E+04 0.  0.
        5    1    3    3  502    0 -0.47634493701E+03  0.11821635808E+03 -0.30580409525E+03  0.57828871769E+03  0.46999998093E+01 0.  1.
       -5    1    3    3    0  502  0.47634493701E+03 -0.11821635808E+03  0.56327371161E+03  0.74711376010E+03  0.46999998093E+01 0. -1.
</event>
<event>
 5   0  0.6688086E-05  0.1300401E+04  0.7818609E-02  0.9029247E-01
       -2   -1    0    0    0  501  0.00000000000E+00  0.00000000000E+00  0.27294830544E+03  0.27294830545E+03  0.25500000920E-02 0. -1.
        2   -1    0    0  501    0  0.00000000000E+00  0.00000000000E+00 -0.15488679844E+04  0.15488679844E+04  0.25500000920E-02 0.  1.
    10030    2    1    2    0    0  0.00000000000E+00  0.00000000000E+00 -0.12759196789E+04  0.18218162898E+04  0.13004013099E+04 0.  0.
        5    1    3    3  502    0 -0.12461277724E+03 -0.42511017225E+03 -0.13046950996E+04  0.13778600784E+04  0.46999998093E+01 0.  1.
       -5    1    3    3    0  502  0.12461277724E+03  0.42511017225E+03  0.28775420674E+02  0.44395621140E+03  0.46999998093E+01 0. -1.
</event>
<event>
 5   0  0.6688086E-05  0.1299969E+04  0.7818609E-02  0.9029589E-01
        2   -1    0    0  501    0  0.00000000000E+00  0.00000000000E+00  0.14666543946E+04  0.14666543946E+04  0.25500000920E-02 0. -1.
       -2   -1    0    0    0  501  0.00000000000E+00  0.00000000000E+00 -0.28805705306E+03  0.28805705308E+03  0.25500000920E-02 0.  1.
    10030    2    1    2    0    0  0.00000000000E+00  0.00000000000E+00  0.11785973415E+04  0.17547114476E+04  0.12999694501E+04 0.  0.
        5    1    3    3  502    0  0.58137560285E+03  0.28969773775E+03  0.55805758912E+03  0.85637184308E+03  0.46999998093E+01 0. -1.
       -5    1    3    3    0  502 -0.58137560285E+03 -0.28969773775E+03  0.62053975238E+03  0.89833960457E+03  0.46999998093E+01 0.  1.
</event>
<event>
 5   0  0.3551277E-05  0.1299954E+04  0.7818609E-02  0.9029602E-01
       -1   -1    0    0    0  501  0.00000000000E+00  0.00000000000E+00  0.20776890932E+03  0.20776890939E+03  0.50400001928E-02 0.  1.
        1   -1    0    0  501    0  0.00000000000E+00  0.00000000000E+00 -0.20333649448E+04  0.20333649449E+04  0.50400001928E-02 0. -1.
    10030    2    1    2    0    0  0.00000000000E+00  0.00000000000E+00 -0.18255960355E+04  0.22411338542E+04  0.12999538714E+04 0.  0.
        4    1    3    3  502    0  0.85202156158E+02  0.32478152302E+03 -0.18722619585E+04  0.19021327239E+04  0.12699999809E+01 0. -1.
       -4    1    3    3    0  502 -0.85202156158E+02 -0.32478152302E+03  0.46665922987E+02  0.33900113035E+03  0.12699999809E+01 0.  1.
</event>
<event>
 5   0  0.6618060E-05  0.1300478E+04  0.7818609E-02  0.9029186E-01
        2   -1    0    0  501    0  0.00000000000E+00  0.00000000000E+00  0.29132312863E+03  0.29132312864E+03  0.25500000920E-02 0. -1.
       -2   -1    0    0    0  501  0.00000000000E+00  0.00000000000E+00 -0.14513465992E+04  0.14513465992E+04  0.25500000920E-02 0.  1.
    10030    2    1    2    0    0  0.00000000000E+00  0.00000000000E+00 -0.11600234705E+04  0.17426697278E+04  0.13004781152E+04 0.  0.
        2    1    3    3  502    0  0.55621011222E+02  0.56961607075E+03 -0.99358758489E+03  0.11466352750E+04  0.25500000920E-02 0.  1.
       -2    1    3    3    0  502 -0.55621011222E+02 -0.56961607075E+03 -0.16643588564E+03  0.59603445284E+03  0.25500000920E-02 0. -1.
</event>
<event>
 5   0  0.6458698E-05  0.1306139E+04  0.7818609E-02  0.9024711E-01
       -2   -1    0    0    0  501  0.00000000000E+00  0.00000000000E+00  0.96155967656E+03  0.96155967657E+03  0.25500000920E-02 0.  1.
        2   -1    0    0  501    0  0.00000000000E+00  0.00000000000E+00 -0.44355023522E+03  0.44355023523E+03  0.25500000920E-02 0. -1.
    10030    2    1    2    0    0  0.00000000000E+00  0.00000000000E+00  0.51800944134E+03  0.14051099118E+04  0.13061393811E+04 0.  0.
        3    1    3    3  502    0 -0.31335421744E+02 -0.19714460054E+03  0.92793516918E+03  0.94916362688E+03  0.10100000352E+00 0.  1.
       -3    1    3    3    0  502  0.31335421744E+02  0.19714460054E+03 -0.40992572785E+03  0.45594628492E+03  0.10100000352E+00 0. -1.
</event>
<event>
 5   0  0.3689707E-05  0.1300284E+04  0.7818609E-02  0.9029340E-01
        1   -1    0    0  501    0  0.00000000000E+00  0.00000000000E+00  0.86201949488E+03  0.86201949489E+03  0.50400001928E-02 0. -1.
       -1   -1    0    0    0  501  0.00000000000E+00  0.00000000000E+00 -0.49034203828E+03  0.49034203830E+03  0.50400001928E-02 0.  1.
    10030    2    1    2    0    0  0.00000000000E+00  0.00000000000E+00  0.37167745660E+03  0.13523615332E+04  0.13002836555E+04 0.  0.
        1    1    3    3  502    0 -0.54038866698E+03 -0.32864774733E+03  0.29294121971E+02  0.63315669375E+03  0.50400001928E-02 0.  1.
       -1    1    3    3    0  502  0.54038866698E+03  0.32864774733E+03  0.34238333463E+03  0.71920483945E+03  0.50400001928E-02 0. -1.
</event>
<event>
 5   0  0.6458698E-05  0.1300121E+04  0.7818609E-02  0.9029469E-01
        2   -1    0    0  501    0  0.00000000000E+00  0.00000000000E+00  0.21668476780E+04  0.21668476780E+04  0.25500000920E-02 0. -1.
       -2   -1    0    0    0  501  0.00000000000E+00  0.00000000000E+00 -0.19502009155E+03  0.19502009157E+03  0.25500000920E-02 0.  1.
    10030    2    1    2    0    0  0.00000000000E+00  0.00000000000E+00  0.19718275865E+04  0.23618677696E+04  0.13001212752E+04 0.  0.
        3    1    3    3  502    0 -0.48940136820E+03  0.34632162090E+03  0.52948038385E+03  0.79987614752E+03  0.10100000352E+00 0.  1.
       -3    1    3    3    0  502  0.48940136820E+03 -0.34632162090E+03  0.14423472026E+04  0.15619916221E+04  0.10100000352E+00 0. -1.
</event>
<event>
 5   0  0.3551277E-05  0.1299845E+04  0.7818609E-02  0.9029688E-01
       -1   -1    0    0    0  501  0.00000000000E+00  0.00000000000E+00  0.54771006786E+03  0.54771006788E+03  0.50400001928E-02 0. -1.
        1   -1    0    0  501    0  0.00000000000E+00  0.00000000000E+00 -0.77120969522E+03  0.77120969524E+03  0.50400001928E-02 0.  1.
    10030    2    1    2    0    0  0.00000000000E+00  0.00000000000E+00 -0.22349962737E+03  0.13189197631E+04  0.12998450900E+04 0.  0.
        4    1    3    3  502    0 -0.90959367374E+02  0.54909410352E+03  0.22876348492E+03  0.60175766382E+03  0.12699999809E+01 0. -1.
       -4    1    3    3    0  502  0.90959367374E+02 -0.54909410352E+03 -0.45226311228E+03  0.71716209930E+03  0.12699999809E+01 0.  1.
</event>
<event>
 5   0  0.6688086E-05  0.1300315E+04  0.7818609E-02  0.9029315E-01
        2   -1    0    0  501    0  0.00000000000E+00  0.00000000000E+00  0.88603769888E+03  0.88603769888E+03  0.25500000920E-02 0.  1.
       -2   -1    0    0    0  501  0.00000000000E+00  0.00000000000E+00 -0.47707307229E+03  0.47707307230E+03  0.25500000920E-02 0. -1.
    10030    2    1    2    0    0  0.00000000000E+00  0.00000000000E+00  0.40896462659E+03  0.13631107712E+04  0.13003149267E+04 0.  0.
        5    1    3    3  502    0  0.51580343926E+03  0.20802034393E+03 -0.14846245289E+03  0.57566382669E+03  0.46999998093E+01 0. -1.
       -5    1    3    3    0  502 -0.51580343926E+03 -0.20802034393E+03  0.55742707949E+03  0.78744694449E+03  0.46999998093E+01 0.  1.
</event>
<event>
 5   0  0.3631841E-05  0.1299616E+04  0.7818609E-02  0.9029869E-01
       -1   -1    0    0    0  501  0.00000000000E+00  0.00000000000E+00  0.32643726080E+03  0.32643726084E+03  0.50400001928E-02 0.  1.
        1   -1    0    0  501    0  0.00000000000E+00  0.00000000000E+00 -0.12935124510E+04  0.12935124510E+04  0.50400001928E-02 0. -1.
    10030    2    1    2    0    0  0.00000000000E+00  0.00000000000E+00 -0.96707519017E+03  0.16199497118E+04  0.12996163454E+04 0.  0.
        3    1    3    3  502    0  0.85597555849E+02  0.19309061825E+03 -0.12495313045E+04  0.12672566510E+04  0.10100000352E+00 0. -1.
       -3    1    3    3    0  502 -0.85597555849E+02 -0.19309061825E+03  0.28245611432E+03  0.35269306080E+03  0.10100000352E+00 0.  1.
</event>
<event>
 5   0  0.6618060E-05  0.1300045E+04  0.7818609E-02  0.9029529E-01
       -2   -1    0    0    0  501  0.00000000000E+00  0.00000000000E+00  0.13176103703E+04  0.13176103703E+04  0.25500000920E-02 0.  1.
        2   -1    0    0  501    0  0.00000000000E+00  0.00000000000E+00 -0.32067856594E+03  0.32067856596E+03  0.25500000920E-02 0. -1.
    10030    2    1    2    0    0  0.00000000000E+00  0.00000000000E+00  0.99693180431E+03  0.16382889362E+04  0.13000452362E+04 0.  0.
        2    1    3    3  502    0  0.17576137536E+03 -0.19815263603E+03 -0.24958864906E+03  0.36393821176E+03  0.25500000920E-02 0. -1.
       -2    1    3    3    0  502 -0.17576137536E+03  0.19815263603E+03  0.12465204534E+04  0.12743507245E+04  0.25500000920E-02 0.  1.
</event>
<event>
 5   0  0.3552698E-05  0.1297622E+04  0.7818609E-02  0.9031453E-01
       -1   -1    0    0    0  501  0.00000000000E+00  0.00000000000E+00  0.10843922226E+04  0.10843922226E+04  0.50400001928E-02 0.  1.
        1   -1    0    0  501    0  0.00000000000E+00  0.00000000000E+00 -0.38819482120E+03  0.38819482124E+03  0.50400001928E-02 0. -1.
    10030    2    1    2    0    0  0.00000000000E+00  0.00000000000E+00  0.69619740141E+03  0.14725870439E+04  0.12976215858E+04 0.  0.
        5    1    3    3  502    0 -0.45507002920E+03 -0.17999870603E+03  0.83149745090E+03  0.96483074500E+03  0.46999998093E+01 0.  1.
       -5    1    3    3    0  502  0.45507002920E+03  0.17999870603E+03 -0.13530004948E+03  0.50775629887E+03  0.46999998093E+01 0. -1.
</event>
<event>
 5   0  0.3718559E-05  0.1299943E+04  0.7818609E-02  0.9029611E-01
        1   -1    0    0  501    0  0.00000000000E+00  0.00000000000E+00  0.92286799171E+03  0.92286799173E+03  0.50400001928E-02 0.  1.
       -1   -1    0    0    0  501  0.00000000000E+00  0.00000000000E+00 -0.45777167359E+03  0.45777167362E+03  0.50400001928E-02 0. -1.
    10030    2    1    2    0    0  0.00000000000E+00  0.00000000000E+00  0.46509631812E+03  0.13806396653E+04  0.12999428066E+04 0.  0.
        2    1    3    3  502    0 -0.13549090072E+03 -0.63140305137E+03  0.15424758064E+03  0.66394270355E+03  0.25500000920E-02 0.  1.
       -2    1    3    3    0  502  0.13549090072E+03  0.63140305137E+03  0.31084873748E+03  0.71669696180E+03  0.25500000920E-02 0. -1.
</event>
<event>
 5   0  0.3552698E-05  0.1299698E+04  0.7818609E-02  0.9029805E-01
        1   -1    0    0  501    0  0.00000000000E+00  0.00000000000E+00  0.12142075729E+04  0.12142075729E+04  0.50400001928E-02 0. -1.
       -1   -1    0    0    0  501  0.00000000000E+00  0.00000000000E+00 -0.34780180034E+03  0.34780180038E+03  0.50400001928E-02 0.  1.
    10030    2    1    2    0    0  0.00000000000E+00  0.00000000000E+00  0.86640577256E+03  0.15620093733E+04  0.12996977801E+04 0.  0.
        5    1    3    3  502    0 -0.29857708441E+03  0.10603152693E+03  0.11150631127E+04  0.11592147322E+04  0.46999998093E+01 0. -1.
       -5    1    3    3    0  502  0.29857708441E+03 -0.10603152693E+03 -0.24865734019E+03  0.40279464106E+03  0.46999998093E+01 0.  1.
</event>
<event>
 5   0  0.6688086E-05  0.1299900E+04  0.7818609E-02  0.9029644E-01
        2   -1    0    0  501    0  0.00000000000E+00  0.00000000000E+00  0.14834463063E+04  0.14834463063E+04  0.25500000920E-02 0. -1.
       -2   -1    0    0    0  501  0.00000000000E+00  0.00000000000E+00 -0.28476603660E+03  0.28476603661E+03  0.25500000920E-02 0.  1.
    10030    2    1    2    0    0  0.00000000000E+00  0.00000000000E+00  0.11986802697E+04  0.17682123429E+04  0.12999001887E+04 0.  0.
        5    1    3    3  502    0  0.39638101112E+03 -0.46370597245E+03  0.90433116157E+03  0.10908611619E+04  0.46999998093E+01 0. -1.
       -5    1    3    3    0  502 -0.39638101112E+03  0.46370597245E+03  0.29434910809E+03  0.67735118092E+03  0.46999998093E+01 0.  1.
</event>
<event>
 5   0  0.3552698E-05  0.1299513E+04  0.7818609E-02  0.9029951E-01
        1   -1    0    0  501    0  0.00000000000E+00  0.00000000000E+00  0.10576661564E+04  0.10576661564E+04  0.50400001928E-02 0.  1.
       -1   -1    0    0    0  501  0.00000000000E+00  0.00000000000E+00 -0.39916520569E+03  0.39916520572E+03  0.50400001928E-02 0. -1.
    10030    2    1    2    0    0  0.00000000000E+00  0.00000000000E+00  0.65850095073E+03  0.14568313621E+04  0.12995130302E+04 0.  0.
        5    1    3    3  502    0  0.27240467336E+03 -0.43436233497E+03  0.77667328577E+03  0.93065483770E+03  0.46999998093E+01 0.  1.
       -5    1    3    3    0  502 -0.27240467336E+03  0.43436233497E+03 -0.11817233504E+03  0.52617652444E+03  0.46999998093E+01 0. -1.
</event>
<event>
 5   0  0.6671239E-05  0.1300040E+04  0.7818609E-02  0.9029533E-01
       -2   -1    0    0    0  501  0.00000000000E+00  0.00000000000E+00  0.50699521078E+03  0.50699521078E+03  0.25500000920E-02 0. -1.
        2   -1    0    0  501    0  0.00000000000E+00  0.00000000000E+00 -0.83339286070E+03  0.83339286071E+03  0.25500000920E-02 0.  1.
    10030    2    1    2    0    0  0.00000000000E+00  0.00000000000E+00 -0.32639764993E+03  0.13403880715E+04  0.13000402903E+04 0.  0.
        1    1    3    3  502    0 -0.61414522000E+02  0.62018021727E+02  0.50092606479E+03  0.50847310739E+03  0.50400001928E-02 0. -1.
       -1    1    3    3    0  502  0.61414522000E+02 -0.62018021727E+02 -0.82732371471E+03  0.83191496410E+03  0.50400001928E-02 0.  1.
</event>
<event>
 5   0  0.6688086E-05  0.1299830E+04  0.7818609E-02  0.9029700E-01
        2   -1    0    0  501    0  0.00000000000E+00  0.00000000000E+00  0.14591878056E+04  0.14591878056E+04  0.25500000920E-02 0.  1.
       -2   -1    0    0    0  501  0.00000000000E+00  0.00000000000E+00 -0.28946899556E+03  0.28946899557E+03  0.25500000920E-02 0. -1.
    10030    2    1    2    0    0  0.00000000000E+00  0.00000000000E+00  0.11697188100E+04  0.17486568012E+04  0.12998301865E+04 0.  0.
        5    1    3    3  502    0  0.93744593945E+02  0.38955574461E+03  0.12732329822E+04  0.13347981286E+04  0.46999998093E+01 0.  1.
       -5    1    3    3    0  502 -0.93744593945E+02 -0.38955574461E+03 -0.10351417217E+03  0.41385867261E+03  0.46999998093E+01 0. -1.
</event>
<event>
 5   0  0.6688086E-05  0.1300047E+04  0.7818609E-02  0.9029528E-01
       -2   -1    0    0    0  501  0.00000000000E+00  0.00000000000E+00  0.72549975181E+03  0.72549975181E+03  0.25500000920E-02 0.  1.
        2   -1    0    0  501    0  0.00000000000E+00  0.00000000000E+00 -0.58239948718E+03  0.58239948718E+03  0.25500000920E-02 0. -1.
    10030    2    1    2    0    0  0.00000000000E+00  0.00000000000E+00  0.14310026463E+03  0.13078992390E+04  0.13000472044E+04 0.  0.
        5    1    3    3  502    0 -0.36261119801E+03 -0.27698631607E+02  0.61355681959E+03  0.71325181807E+03  0.46999998093E+01 0.  1.
       -5    1    3    3    0  502  0.36261119801E+03  0.27698631607E+02 -0.47045655496E+03  0.59464742093E+03  0.46999998093E+01 0. -1.
</event>
<event>
 5   0  0.3552698E-05  0.1300178E+04  0.7818609E-02  0.9029424E-01
        1   -1    0    0  501    0  0.00000000000E+00  0.00000000000E+00  0.74114313113E+03  0.74114313115E+03  0.50400001928E-02 0.  1.
       -1   -1    0    0    0  501  0.00000000000E+00  0.00000000000E+00 -0.57022108472E+03  0.57022108475E+03  0.50400001928E-02 0. -1.
    10030    2    1    2    0    0  0.00000000000E+00  0.00000000000E+00  0.17092204640E+03  0.13113642159E+04  0.13001775882E+04 0.  0.
        5    1    3    3  502    0  0.38511903169E+03  0.36735689554E+03  0.46193598939E+03  0.70475152044E+03  0.46999998093E+01 0.  1.
       -5    1    3    3    0  502 -0.38511903169E+03 -0.36735689554E+03 -0.29101394298E+03  0.60661269545E+03  0.46999998093E+01 0. -1.
</event>
<event>
 5   0  0.3552698E-05  0.1298696E+04  0.7818609E-02  0.9030600E-01
        1   -1    0    0  501    0  0.00000000000E+00  0.00000000000E+00  0.70879610819E+03  0.70879610821E+03  0.50400001928E-02 0.  1.
       -1   -1    0    0    0  501  0.00000000000E+00  0.00000000000E+00 -0.59488626297E+03  0.59488626299E+03  0.50400001928E-02 0. -1.
    10030    2    1    2    0    0  0.00000000000E+00  0.00000000000E+00  0.11390984522E+03  0.13036823712E+04  0.12986963741E+04 0.  0.
        5    1    3    3  502    0 -0.19594032173E+03 -0.50393681534E+03  0.41789907138E+03  0.68337884617E+03  0.46999998093E+01 0.  1.
       -5    1    3    3    0  502  0.19594032173E+03  0.50393681534E+03 -0.30398922616E+03  0.62030352502E+03  0.46999998093E+01 0. -1.
</event>
<event>
 5   0  0.6688086E-05  0.1299416E+04  0.7818609E-02  0.9030028E-01
       -2   -1    0    0    0  501  0.00000000000E+00  0.00000000000E+00  0.40715305343E+03  0.40715305343E+03  0.25500000920E-02 0. -1.
        2   -1    0    0  501    0  0.00000000000E+00  0.00000000000E+00 -0.10367619662E+04  0.10367619662E+04  0.25500000920E-02 0.  1.
    10030    2    1    2    0    0  0.00000000000E+00  0.00000000000E+00 -0.62960891281E+03  0.14439150197E+04  0.12994164848E+04 0.  0.
        5    1    3    3  502    0 -0.48650893349E+03  0.43013268606E+03 -0.33685112705E+03  0.73157080435E+03  0.46999998093E+01 0.  1.
       -5    1    3    3    0  502  0.48650893349E+03 -0.43013268606E+03 -0.29275778575E+03  0.71234421532E+03  0.46999998093E+01 0. -1.
</event>
<event>
 5   0  0.3551277E-05  0.1300087E+04  0.7818609E-02  0.9029496E-01
       -1   -1    0    0    0  501  0.00000000000E+00  0.00000000000E+00  0.23178275240E+03  0.23178275246E+03  0.50400001928E-02 0. -1.
        1   -1    0    0  501    0  0.00000000000E+00  0.00000000000E+00 -0.18230729780E+04  0.18230729780E+04  0.50400001928E-02 0.  1.
    10030    2    1    2    0    0  0.00000000000E+00  0.00000000000E+00 -0.15912902256E+04  0.20548557304E+04  0.13000874936E+04 0.  0.
        4    1    3    3  502    0 -0.19824120736E+03 -0.54952449983E+03 -0.12462507450E+04  0.13763790482E+04  0.12699999809E+01 0.  1.
       -4    1    3    3    0  502  0.19824120736E+03  0.54952449983E+03 -0.34503948061E+03  0.67847668220E+03  0.12699999809E+01 0. -1.
</event>
<event>
 5   0  0.6671239E-05  0.1300038E+04  0.7818609E-02  0.9029535E-01
       -2   -1    0    0    0  501  0.00000000000E+00  0.00000000000E+00  0.27242887321E+03  0.27242887323E+03  0.25500000920E-02 0.  1.
        2   -1    0    0  501    0  0.00000000000E+00  0.00000000000E+00 -0.15509543275E+04  0.15509543275E+04  0.25500000920E-02 0. -1.
    10030    2    1    2    0    0  0.00000000000E+00  0.00000000000E+00 -0.12785254542E+04  0.18233832007E+04  0.13000380608E+04 0.  0.
        1    1    3    3  502    0  0.40660978247E+03 -0.34204494441E+03 -0.11410043452E+03  0.54345668492E+03  0.50400001928E-02 0.  1.
       -1    1    3    3    0  502 -0.40660978247E+03  0.34204494441E+03 -0.11644250197E+04  0.12799265158E+04  0.50400001928E-02 0. -1.
</event>
<event>
 5   0  0.3552698E-05  0.1300182E+04  0.7818609E-02  0.9029421E-01
        1   -1    0    0  501    0  0.00000000000E+00  0.00000000000E+00  0.76076527214E+03  0.76076527216E+03  0.50400001928E-02 0. -1.
       -1   -1    0    0    0  501  0.00000000000E+00  0.00000000000E+00 -0.55551740957E+03  0.55551740959E+03  0.50400001928E-02 0.  1.
    10030    2    1    2    0    0  0.00000000000E+00  0.00000000000E+00  0.20524786257E+03  0.13162826818E+04  0.13001820692E+04 0.  0.
        5    1    3    3  502    0 -0.71560784042E+02 -0.85187861359E+02 -0.54579029450E+03  0.55703415794E+03  0.46999998093E+01 0.  1.
       -5    1    3    3    0  502  0.71560784042E+02  0.85187861359E+02  0.75103815708E+03  0.75924852382E+03  0.46999998093E+01 0. -1.
</event>
<event>
 5   0  0.3689707E-05  0.1300119E+04  0.7818609E-02  0.9029471E-01
        1   -1    0    0  501    0  0.00000000000E+00  0.00000000000E+00  0.10814075764E+04  0.10814075764E+04  0.50400001928E-02 0. -1.
       -1   -1    0    0    0  501  0.00000000000E+00  0.00000000000E+00 -0.39076582525E+03  0.39076582528E+03  0.50400001928E-02 0.  1.
    10030    2    1    2    0    0  0.00000000000E+00  0.00000000000E+00  0.69064175114E+03  0.14721734017E+04  0.13001186470E+04 0.  0.
        1    1    3    3  502    0  0.95677868758E+02 -0.62952821579E+01 -0.38271438119E+03  0.39454300493E+03  0.50400001928E-02 0.  1.
       -1    1    3    3    0  502 -0.95677868758E+02  0.62952821579E+01  0.10733561323E+04  0.10776303967E+04  0.50400001928E-02 0. -1.
</event>
<event>
 5   0  0.3689707E-05  0.1299539E+04  0.7818609E-02  0.9029931E-01
       -1   -1    0    0    0  501  0.00000000000E+00  0.00000000000E+00  0.77552201971E+03  0.77552201973E+03  0.50400001928E-02 0. -1.
        1   -1    0    0  501    0  0.00000000000E+00  0.00000000000E+00 -0.54440763315E+03  0.54440763317E+03  0.50400001928E-02 0.  1.
    10030    2    1    2    0    0  0.00000000000E+00  0.00000000000E+00  0.23111438656E+03  0.13199296529E+04  0.12995385446E+04 0.  0.
        1    1    3    3  502    0  0.16076492746E+03  0.14511544126E+03  0.73778402534E+03  0.76891424832E+03  0.50400001928E-02 0. -1.
       -1    1    3    3    0  502 -0.16076492746E+03 -0.14511544126E+03 -0.50666963878E+03  0.55101540458E+03  0.50400001928E-02 0.  1.
</event>
<event>
 5   0  0.3551277E-05  0.1299982E+04  0.7818609E-02  0.9029579E-01
       -1   -1    0    0    0  501  0.00000000000E+00  0.00000000000E+00  0.48561413391E+03  0.48561413393E+03  0.50400001928E-02 0. -1.
        1   -1    0    0  501    0  0.00000000000E+00  0.00000000000E+00 -0.87000870117E+03  0.87000870118E+03  0.50400001928E-02 0.  1.
    10030    2    1    2    0    0  0.00000000000E+00  0.00000000000E+00 -0.38439456726E+03  0.13556228351E+04  0.12999823413E+04 0.  0.
        4    1    3    3  502    0  0.39990469843E+03  0.39732220590E+03  0.14522288854E+03  0.58213400810E+03  0.12699999809E+01 0. -1.
       -4    1    3    3    0  502 -0.39990469843E+03 -0.39732220590E+03 -0.52961745580E+03  0.77348882702E+03  0.12699999809E+01 0.  1.
</event>
<event>
 5   0  0.6742824E-05  0.1300269E+04  0.7818609E-02  0.9029351E-01
        2   -1    0    0  501    0  0.00000000000E+00  0.00000000000E+00  0.15283614646E+04  0.15283614646E+04  0.25500000920E-02 0.  1.
       -2   -1    0    0    0  501  0.00000000000E+00  0.00000000000E+00 -0.27655445550E+03  0.27655445551E+03  0.25500000920E-02 0. -1.
    10030    2    1    2    0    0  0.00000000000E+00  0.00000000000E+00  0.12518070091E+04  0.18049159201E+04  0.13002694685E+04 0.  0.
        4    1    3    3  502    0 -0.46646550630E+03 -0.38236030688E+03  0.28906433874E+03  0.66884174337E+03  0.12699999809E+01 0.  1.
       -4    1    3    3    0  502  0.46646550630E+03  0.38236030688E+03  0.96274267032E+03  0.11360741767E+04  0.12699999809E+01 0. -1.
</event>
<event>
 5   0  0.6458698E-05  0.1299603E+04  0.7818609E-02  0.9029880E-01
       -2   -1    0    0    0  501  0.00000000000E+00  0.00000000000E+00  0.33298981614E+03  0.33298981615E+03  0.25500000920E-02 0. -1.
        2   -1    0    0  501    0  0.00000000000E+00  0.00000000000E+00 -0.12680320067E+04  0.12680320067E+04  0.25500000920E-02 0.  1.
    10030    2    1    2    0    0  0.00000000000E+00  0.00000000000E+00 -0.93504219061E+03  0.16010218229E+04  0.12996026236E+04 0.  0.
        3    1    3    3  502    0  0.13295912390E+03  0.68827237160E+02 -0.12464941135E+04  0.12554532657E+04  0.10100000352E+00 0.  1.
       -3    1    3    3    0  502 -0.13295912390E+03 -0.68827237160E+02  0.31145192292E+03  0.34556855715E+03  0.10100000352E+00 0. -1.
</event>
<event>
 5   0  0.3551277E-05  0.1301302E+04  0.7818609E-02  0.9028533E-01
        1   -1    0    0  501    0  0.00000000000E+00  0.00000000000E+00  0.67884371105E+03  0.67884371107E+03  0.50400001928E-02 0.  1.
       -1   -1    0    0    0  501  0.00000000000E+00  0.00000000000E+00 -0.62362908383E+03  0.62362908385E+03  0.50400001928E-02 0. -1.
    10030    2    1    2    0    0  0.00000000000E+00  0.00000000000E+00  0.55214627229E+02  0.13024727949E+04  0.13013019352E+04 0.  0.
        4    1    3    3  502    0  0.19757568280E+03  0.39746052404E+03 -0.44856652660E+03  0.63105036272E+03  0.12699999809E+01 0. -1.
       -4    1    3    3    0  502 -0.19757568280E+03 -0.39746052404E+03  0.50378115383E+03  0.67142243220E+03  0.12699999809E+01 0.  1.
</event>
<event>
 5   0  0.6688086E-05  0.1304331E+04  0.7818609E-02  0.9026137E-01
       -2   -1    0    0    0  501  0.00000000000E+00  0.00000000000E+00  0.36879467026E+03  0.36879467027E+03  0.25500000920E-02 0. -1.
        2   -1    0    0  501    0  0.00000000000E+00  0.00000000000E+00 -0.11532706251E+04  0.11532706251E+04  0.25500000920E-02 0.  1.
    10030    2    1    2    0    0  0.00000000000E+00  0.00000000000E+00 -0.78447595480E+03  0.15220652953E+04  0.13043313381E+04 0.  0.
        5    1    3    3  502    0  0.78218885824E+02  0.50142967352E+03 -0.87017877699E+03  0.10073644353E+04  0.46999998093E+01 0.  1.
       -5    1    3    3    0  502 -0.78218885824E+02 -0.50142967352E+03  0.85702822190E+02  0.51470086003E+03  0.46999998093E+01 0. -1.
</event>
<event>
 5   0  0.6458698E-05  0.1300331E+04  0.7818609E-02  0.9029303E-01
       -2   -1    0    0    0  501  0.00000000000E+00  0.00000000000E+00  0.30214707497E+03  0.30214707498E+03  0.25500000920E-02 0.  1.
        2   -1    0    0  501    0  0.00000000000E+00  0.00000000000E+00 -0.13990376325E+04  0.13990376325E+04  0.25500000920E-02 0. -1.
    10030    2    1    2    0    0  0.00000000000E+00  0.00000000000E+00 -0.10968905575E+04  0.17011847074E+04  0.13003309247E+04 0.  0.
        3    1    3    3  502    0  0.16792759651E+03 -0.18454386233E+03 -0.13339078912E+04  0.13570432518E+04  0.10100000352E+00 0. -1.
       -3    1    3    3    0  502 -0.16792759651E+03  0.18454386233E+03  0.23701733374E+03  0.34414145564E+03  0.10100000352E+00 0.  1.
</event>
<event>
 5   0  0.6742824E-05  0.1299844E+04  0.7818609E-02  0.9029688E-01
        2   -1    0    0  501    0  0.00000000000E+00  0.00000000000E+00  0.12301571478E+04  0.12301571478E+04  0.25500000920E-02 0.  1.
       -2   -1    0    0    0  501  0.00000000000E+00  0.00000000000E+00 -0.34336988971E+03  0.34336988972E+03  0.25500000920E-02 0. -1.
    10030    2    1    2    0    0  0.00000000000E+00  0.00000000000E+00  0.88678725807E+03  0.15735270375E+04  0.12998444894E+04 0.  0.
        4    1    3    3  502    0  0.28477138416E+03 -0.22370922530E+03  0.10967058974E+04  0.11549484824E+04  0.12699999809E+01 0.  1.
       -4    1    3    3    0  502 -0.28477138416E+03  0.22370922530E+03 -0.20991863935E+03  0.41857855508E+03  0.12699999809E+01 0. -1.
</event>
<event>
 5   0  0.6618060E-05  0.1299922E+04  0.7818609E-02  0.9029627E-01
        2   -1    0    0  501    0  0.00000000000E+00  0.00000000000E+00  0.13992050885E+04  0.13992050885E+04  0.25500000920E-02 0.  1.
       -2   -1    0    0    0  501  0.00000000000E+00  0.00000000000E+00 -0.30192096692E+03  0.30192096693E+03  0.25500000920E-02 0. -1.
    10030    2    1    2    0    0  0.00000000000E+00  0.00000000000E+00  0.10972841216E+04  0.17011260554E+04  0.12999220796E+04 0.  0.
        2    1    3    3  502    0 -0.67184369267E+02 -0.28260620199E+03  0.13095324075E+04  0.13413631616E+04  0.25500000920E-02 0.  1.
       -2    1    3    3    0  502  0.67184369267E+02  0.28260620199E+03 -0.21224828597E+03  0.35976289384E+03  0.25500000920E-02 0. -1.
</event>
<event>
 5   0  0.6618060E-05  0.1299975E+04  0.7818609E-02  0.9029585E-01
       -2   -1    0    0    0  501  0.00000000000E+00  0.00000000000E+00  0.23446746121E+03  0.23446746122E+03  0.25500000920E-02 0. -1.
        2   -1    0    0  501    0  0.00000000000E+00  0.00000000000E+00 -0.18018868285E+04  0.18018868285E+04  0.25500000920E-02 0.  1.
    10030    2    1    2    0    0  0.00000000000E+00  0.00000000000E+00 -0.15674193673E+04  0.20363542897E+04  0.12999751230E+04 0.  0.
        2    1    3    3  502    0 -0.27583307359E+03 -0.80362815354E+02  0.12960525206E+03  0.31518183314E+03  0.25500000920E-02 0. -1.
       -2    1    3    3    0  502  0.27583307359E+03  0.80362815354E+02 -0.16970246194E+04  0.17211724566E+04  0.25500000920E-02 0.  1.
</event>
<event>
 5   0  0.6618060E-05  0.1300676E+04  0.7818609E-02  0.9029029E-01
        2   -1    0    0  501    0  0.00000000000E+00  0.00000000000E+00  0.60549005883E+03  0.60549005884E+03  0.25500000920E-02 0. -1.
       -2   -1    0    0    0  501  0.00000000000E+00  0.00000000000E+00 -0.69850790934E+03  0.69850790935E+03  0.25500000920E-02 0.  1.
    10030    2    1    2    0    0  0.00000000000E+00  0.00000000000E+00 -0.93017850511E+02  0.13039979682E+04  0.13006761244E+04 0.  0.
        2    1    3    3  502    0  0.11527902892E+03 -0.57180528247E+03 -0.33480038205E+03  0.67256362628E+03  0.25500000920E-02 0. -1.
       -2    1    3    3    0  502 -0.11527902892E+03  0.57180528247E+03  0.24178253154E+03  0.63143434190E+03  0.25500000920E-02 0.  1.
</event>
<event>
 5   0  0.6458698E-05  0.1300485E+04  0.7818609E-02  0.9029181E-01
        2   -1    0    0  501    0  0.00000000000E+00  0.00000000000E+00  0.22949594645E+04  0.22949594645E+04  0.25500000920E-02 0.  1.
       -2   -1    0    0    0  501  0.00000000000E+00  0.00000000000E+00 -0.18423641577E+03  0.18423641578E+03  0.25500000920E-02 0. -1.
    10030    2    1    2    0    0  0.00000000000E+00  0.00000000000E+00  0.21107230487E+04  0.24791958803E+04  0.13004846882E+04 0.  0.
        3    1    3    3  502    0 -0.15576128585E+02 -0.21331511819E+03 -0.11525889091E+03  0.24296209080E+03  0.10100000352E+00 0. -1.
       -3    1    3    3    0  502  0.15576128585E+02  0.21331511819E+03  0.22259819396E+04  0.22362337895E+04  0.10100000352E+00 0.  1.
</event>
<event>
 5   0  0.6742824E-05  0.1300472E+04  0.7818609E-02  0.9029191E-01
       -2   -1    0    0    0  501  0.00000000000E+00  0.00000000000E+00  0.13193829859E+04  0.13193829859E+04  0.25500000920E-02 0. -1.
        2   -1    0    0  501    0  0.00000000000E+00  0.00000000000E+00 -0.32045791025E+03  0.32045791026E+03  0.25500000920E-02 0.  1.
    10030    2    1    2    0    0  0.00000000000E+00  0.00000000000E+00  0.99892507562E+03  0.16398408961E+04  0.13004717828E+04 0.  0.
        4    1    3    3  502    0  0.42854916483E+03  0.37956115581E+03  0.11063716093E+03  0.58306367745E+03  0.12699999809E+01 0.  1.
       -4    1    3    3    0  502 -0.42854916483E+03 -0.37956115581E+03  0.88828791469E+03  0.10567772187E+04  0.12699999809E+01 0. -1.
</event>
<event>
 5   0  0.6671239E-05  0.1300253E+04  0.7818609E-02  0.9029364E-01
        2   -1    0    0  501    0  0.00000000000E+00  0.00000000000E+00  0.16168018726E+04  0.16168018726E+04  0.25500000920E-02 0. -1.
       -2   -1    0    0    0  501  0.00000000000E+00  0.00000000000E+00 -0.26142017069E+03  0.26142017070E+03  0.25500000920E-02 0.  1.
    10030    2    1    2    0    0  0.00000000000E+00  0.00000000000E+00  0.13553817019E+04  0.18782220433E+04  0.13002532392E+04 0.  0.
        1    1    3    3  502    0 -0.27102861457E+02  0.59600389354E+03  0.10507799465E+04  0.12083433710E+04  0.50400001928E-02 0.  1.
       -1    1    3    3    0  502  0.27102861457E+02 -0.59600389354E+03  0.30460175544E+03  0.66987867234E+03  0.50400001928E-02 0. -1.
</event>
<event>
 5   0  0.3689707E-05  0.1298613E+04  0.7818609E-02  0.9030666E-01
        1   -1    0    0  501    0  0.00000000000E+00  0.00000000000E+00  0.56520187500E+03  0.56520187502E+03  0.50400001928E-02 0.  1.
       -1   -1    0    0    0  501  0.00000000000E+00  0.00000000000E+00 -0.74592646345E+03  0.74592646347E+03  0.50400001928E-02 0. -1.
    10030    2    1    2    0    0  0.00000000000E+00  0.00000000000E+00 -0.18072458845E+03  0.13111283385E+04  0.12986131615E+04 0.  0.
        1    1    3    3  502    0  0.36024300390E+03  0.39366848015E+03  0.28313412538E+03  0.60408180498E+03  0.50400001928E-02 0.  1.
       -1    1    3    3    0  502 -0.36024300390E+03 -0.39366848015E+03 -0.46385871383E+03  0.70704653351E+03  0.50400001928E-02 0. -1.
</event>
<event>
 5   0  0.3631841E-05  0.1300007E+04  0.7818609E-02  0.9029559E-01
        1   -1    0    0  501    0  0.00000000000E+00  0.00000000000E+00  0.11227531634E+04  0.11227531634E+04  0.50400001928E-02 0. -1.
       -1   -1    0    0    0  501  0.00000000000E+00  0.00000000000E+00 -0.37631144231E+03  0.37631144234E+03  0.50400001928E-02 0.  1.
    10030    2    1    2    0    0  0.00000000000E+00  0.00000000000E+00  0.74644172108E+03  0.14990646057E+04  0.13000074804E+04 0.  0.
        3    1    3    3  502    0 -0.35848401887E+03  0.77873555306E+02 -0.24553280370E+03  0.44143113879E+03  0.10100000352E+00 0.  1.
       -3    1    3    3    0  502  0.35848401887E+03 -0.77873555306E+02  0.99197452478E+03  0.10576334670E+04  0.10100000352E+00 0. -1.
</event>
<event>
 5   0  0.3689707E-05  0.1300370E+04  0.7818609E-02  0.9029272E-01
        1   -1    0    0  501    0  0.00000000000E+00  0.00000000000E+00  0.12218274912E+04  0.12218274912E+04  0.50400001928E-02 0. -1.
       -1   -1    0    0    0  501  0.00000000000E+00  0.00000000000E+00 -0.34599025940E+03  0.34599025943E+03  0.50400001928E-02 0.  1.
    10030    2    1    2    0    0  0.00000000000E+00  0.00000000000E+00  0.87583723183E+03  0.15678177507E+04  0.13003698100E+04 0.  0.
        1    1    3    3  502    0 -0.21724348566E+03 -0.33161496671E+03  0.10592511387E+04  0.11310067166E+04  0.50400001928E-02 0. -1.
       -1    1    3    3    0  502  0.21724348566E+03  0.33161496671E+03 -0.18341390686E+03  0.43681103405E+03  0.50400001928E-02 0.  1.
</event>
<event>
 5   0  0.6742824E-05  0.1299622E+04  0.7818609E-02  0.9029865E-01
        2   -1    0    0  501    0  0.00000000000E+00  0.00000000000E+00  0.64002858036E+03  0.64002858037E+03  0.25500000920E-02 0.  1.
       -2   -1    0    0    0  501  0.00000000000E+00  0.00000000000E+00 -0.65974278885E+03  0.65974278885E+03  0.25500000920E-02 0. -1.
    10030    2    1    2    0    0  0.00000000000E+00  0.00000000000E+00 -0.19714208487E+02  0.12997713692E+04  0.12996218536E+04 0.  0.
        4    1    3    3  502    0  0.47057996557E+03 -0.40603942865E+02 -0.45618016067E+03  0.65665526424E+03  0.12699999809E+01 0. -1.
       -4    1    3    3    0  502 -0.47057996557E+03  0.40603942865E+02  0.43646595218E+03  0.64311610498E+03  0.12699999809E+01 0.  1.
</event>
<event>
 5   0  0.6618060E-05  0.1300032E+04  0.7818609E-02  0.9029540E-01
       -2   -1    0    0    0  501  0.00000000000E+00  0.00000000000E+00  0.21634559799E+03  0.21634559800E+03  0.25500000920E-02 0. -1.
        2   -1    0    0  501    0  0.00000000000E+00  0.00000000000E+00 -0.19529887426E+04  0.19529887426E+04  0.25500000920E-02 0.  1.
    10030    2    1    2    0    0  0.00000000000E+00  0.00000000000E+00 -0.17366431446E+04  0.21693343406E+04  0.13000315648E+04 0.  0.
        2    1    3    3  502    0 -0.14556824611E+03 -0.18956777254E+03  0.14035881123E+03  0.27717620850E+03  0.25500000920E-02 0. -1.
       -2    1    3    3    0  502  0.14556824611E+03  0.18956777254E+03 -0.18770019558E+04  0.18921581321E+04  0.25500000920E-02 0.  1.
</event>
<event>
 5   0  0.6618060E-05  0.1299235E+04  0.7818609E-02  0.9030172E-01
       -2   -1    0    0    0  501  0.00000000000E+00  0.00000000000E+00  0.17494640314E+03  0.17494640315E+03  0.25500000920E-02 0. -1.
        2   -1    0    0  501    0  0.00000000000E+00  0.00000000000E+00 -0.24121850377E+04  0.24121850377E+04  0.25500000920E-02 0.  1.
    10030    2    1    2    0    0  0.00000000000E+00  0.00000000000E+00 -0.22372386345E+04  0.25871314408E+04  0.12992353075E+04 0.  0.
        2    1    3    3  502    0  0.40758419785E+03  0.36946548572E+03 -0.43062540805E+03  0.69861854079E+03  0.25500000920E-02 0. -1.
       -2    1    3    3    0  502 -0.40758419785E+03 -0.36946548572E+03 -0.18066132265E+04  0.18885129000E+04  0.25500000920E-02 0.  1.
</event>
<event>
 5   0  0.6671239E-05  0.1298365E+04  0.7818609E-02  0.9030863E-01
        2   -1    0    0  501    0  0.00000000000E+00  0.00000000000E+00  0.15275649622E+04  0.15275649622E+04  0.25500000920E-02 0. -1.
       -2   -1    0    0    0  501  0.00000000000E+00  0.00000000000E+00 -0.27588852221E+03  0.27588852222E+03  0.25500000920E-02 0.  1.
    10030    2    1    2    0    0  0.00000000000E+00  0.00000000000E+00  0.12516764400E+04  0.18034534844E+04  0.12983645713E+04 0.  0.
        1    1    3    3  502    0 -0.32838498499E+03 -0.27190336296E+03  0.13058472446E+04  0.13736830652E+04  0.50400001928E-02 0. -1.
       -1    1    3    3    0  502  0.32838498499E+03  0.27190336296E+03 -0.54170804659E+02  0.42977041925E+03  0.50400001928E-02 0.  1.
</event>
<event>
 5   0  0.6688086E-05  0.1300114E+04  0.7818609E-02  0.9029475E-01
       -2   -1    0    0    0  501  0.00000000000E+00  0.00000000000E+00  0.46080883496E+03  0.46080883497E+03  0.25500000920E-02 0. -1.
        2   -1    0    0  501    0  0.00000000000E+00  0.00000000000E+00 -0.91702664701E+03  0.91702664701E+03  0.25500000920E-02 0.  1.
    10030    2    1    2    0    0  0.00000000000E+00  0.00000000000E+00 -0.45621781205E+03  0.13778354820E+04  0.13001138117E+04 0.  0.
        5    1    3    3  502    0 -0.41588803311E+03  0.40555512076E+03 -0.53729268000E+03  0.79129218752E+03  0.46999998093E+01 0.  1.
       -5    1    3    3    0  502  0.41588803311E+03 -0.40555512076E+03  0.81074867948E+02  0.58654329446E+03  0.46999998093E+01 0. -1.
</event>
<event>
 5   0  0.3718559E-05  0.1300095E+04  0.7818609E-02  0.9029490E-01
        1   -1    0    0  501    0  0.00000000000E+00  0.00000000000E+00  0.17889999628E+04  0.17889999628E+04  0.50400001928E-02 0. -1.
       -1   -1    0    0    0  501  0.00000000000E+00  0.00000000000E+00 -0.23620003440E+03  0.23620003445E+03  0.50400001928E-02 0.  1.
    10030    2    1    2    0    0  0.00000000000E+00  0.00000000000E+00  0.15527999284E+04  0.20251999972E+04  0.13000951547E+04 0.  0.
        2    1    3    3  502    0  0.35516588611E+03 -0.45436426121E+03  0.12436473306E+04  0.13708568019E+04  0.25500000920E-02 0.  1.
       -2    1    3    3    0  502 -0.35516588611E+03  0.45436426121E+03  0.30915259780E+03  0.65434319531E+03  0.25500000920E-02 0. -1.
</event>
<event>
 5   0  0.3631841E-05  0.1299563E+04  0.7818609E-02  0.9029911E-01
       -1   -1    0    0    0  501  0.00000000000E+00  0.00000000000E+00  0.99474789122E+03  0.99474789123E+03  0.50400001928E-02 0. -1.
        1   -1    0    0  501    0  0.00000000000E+00  0.00000000000E+00 -0.42444553366E+03  0.42444553369E+03  0.50400001928E-02 0.  1.
    10030    2    1    2    0    0  0.00000000000E+00  0.00000000000E+00  0.57030235756E+03  0.14191934249E+04  0.12995634645E+04 0.  0.
        3    1    3    3  502    0  0.21347873208E+03 -0.19084507969E+03 -0.35182740607E+03  0.45362710165E+03  0.10100000352E+00 0.  1.
       -3    1    3    3    0  502 -0.21347873208E+03  0.19084507969E+03  0.92212976362E+03  0.96556632328E+03  0.10100000352E+00 0. -1.
</event>
<event>
 5   0  0.3689707E-05  0.1299843E+04  0.7818609E-02  0.9029690E-01
       -1   -1    0    0    0  501  0.00000000000E+00  0.00000000000E+00  0.74082045252E+03  0.74082045253E+03  0.50400001928E-02 0. -1.
        1   -1    0    0  501    0  0.00000000000E+00  0.00000000000E+00 -0.57017561215E+03  0.57017561217E+03  0.50400001928E-02 0.  1.
    10030    2    1    2    0    0  0.00000000000E+00  0.00000000000E+00  0.17064484037E+03  0.13109960647E+04  0.12998426905E+04 0.  0.
        1    1    3    3  502    0 -0.63246818047E+03  0.14759409711E+03  0.10998088856E+03  0.65870768379E+03  0.50400001928E-02 0. -1.
       -1    1    3    3    0  502  0.63246818047E+03 -0.14759409711E+03  0.60663951804E+02  0.65228838092E+03  0.50400001928E-02 0.  1.
</event>
<event>
 5   0  0.3718559E-05  0.1300170E+04  0.7818609E-02  0.9029430E-01
        1   -1    0    0  501    0  0.00000000000E+00  0.00000000000E+00  0.16679154136E+04  0.16679154136E+04  0.50400001928E-02 0.  1.
       -1   -1    0    0    0  501  0.00000000000E+00  0.00000000000E+00 -0.25337640758E+03  0.25337640763E+03  0.50400001928E-02 0. -1.
    10030    2    1    2    0    0  0.00000000000E+00  0.00000000000E+00  0.14145390061E+04  0.19212918213E+04  0.13001698592E+04 0.  0.
        2    1    3    3  502    0  0.51223777115E+03  0.38876039684E+03  0.84814420906E+03  0.10643640259E+04  0.25500000920E-02 0.  1.
       -2    1    3    3    0  502 -0.51223777115E+03 -0.38876039684E+03  0.56639479699E+03  0.85692779533E+03  0.25500000920E-02 0. -1.
</event>
<event>
 5   0  0.6458698E-05  0.1299695E+04  0.7818609E-02  0.9029807E-01
        2   -1    0    0  501    0  0.00000000000E+00  0.00000000000E+00  0.15939952955E+04  0.15939952955E+04  0.25500000920E-02 0. -1.
       -2   -1    0    0    0  501  0.00000000000E+00  0.00000000000E+00 -0.26493290316E+03  0.26493290318E+03  0.25500000920E-02 0.  1.
    10030    2    1    2    0    0  0.00000000000E+00  0.00000000000E+00  0.13290623923E+04  0.18589281987E+04  0.12996950431E+04 0.  0.
        3    1    3    3  502    0  0.31115781029E+03 -0.55809192962E+03  0.49520143563E+03  0.80839981251E+03  0.10100000352E+00 0.  1.
       -3    1    3    3    0  502 -0.31115781029E+03  0.55809192962E+03  0.83386095670E+03  0.10505283862E+04  0.10100000352E+00 0. -1.
</event>
<event>
 5   0  0.3718559E-05  0.1300591E+04  0.7818609E-02  0.9029097E-01
       -1   -1    0    0    0  501  0.00000000000E+00  0.00000000000E+00  0.88019491135E+03  0.88019491136E+03  0.50400001928E-02 0. -1.
        1   -1    0    0  501    0  0.00000000000E+00  0.00000000000E+00 -0.48044392487E+03  0.48044392490E+03  0.50400001928E-02 0.  1.
    10030    2    1    2    0    0  0.00000000000E+00  0.00000000000E+00  0.39975098648E+03  0.13606388363E+04  0.13005910931E+04 0.  0.
        2    1    3    3  502    0  0.20475791949E+01  0.32247175654E+03 -0.39090200869E+03  0.50675103034E+03  0.25500000920E-02 0.  1.
       -2    1    3    3    0  502 -0.20475791949E+01 -0.32247175654E+03  0.79065299516E+03  0.85388780593E+03  0.25500000920E-02 0. -1.
</event>
<event>
 5   0  0.6688086E-05  0.1300030E+04  0.7818609E-02  0.9029542E-01
       -2   -1    0    0    0  501  0.00000000000E+00  0.00000000000E+00  0.54435141699E+03  0.54435141699E+03  0.25500000920E-02 0. -1.
        2   -1    0    0  501    0  0.00000000000E+00  0.00000000000E+00 -0.77618855102E+03  0.77618855102E+03  0.25500000920E-02 0.  1.
    10030    2    1    2    0    0  0.00000000000E+00  0.00000000000E+00 -0.23183713403E+03  0.13205399680E+04  0.13000297498E+04 0.  0.
        5    1    3    3  502    0  0.55796912301E+03  0.18275424854E+03 -0.39918842969E+03  0.71000151407E+03  0.46999998093E+01 0.  1.
       -5    1    3    3    0  502 -0.55796912301E+03 -0.18275424854E+03  0.16735129566E+03  0.61053845394E+03  0.46999998093E+01 0. -1.
</event>
<event>
 5   0  0.6671239E-05  0.1299109E+04  0.7818609E-02  0.9030272E-01
        2   -1    0    0  501    0  0.00000000000E+00  0.00000000000E+00  0.19371798813E+04  0.19371798813E+04  0.25500000920E-02 0. -1.
       -2   -1    0    0    0  501  0.00000000000E+00  0.00000000000E+00 -0.21780162353E+03  0.21780162355E+03  0.25500000920E-02 0.  1.
    10030    2    1    2    0    0  0.00000000000E+00  0.00000000000E+00  0.17193782577E+04  0.21549815048E+04  0.12991088072E+04 0.  0.
        1    1    3    3  502    0  0.62120531740E+03  0.11618867095E+03  0.11086499976E+04  0.12761272158E+04  0.50400001928E-02 0. -1.
       -1    1    3    3    0  502 -0.62120531740E+03 -0.11618867095E+03  0.61072826011E+03  0.87885428903E+03  0.50400001928E-02 0.  1.
</event>
<event>
 5   0  0.3552698E-05  0.1300901E+04  0.7818609E-02  0.9028851E-01
       -1   -1    0    0    0  501  0.00000000000E+00  0.00000000000E+00  0.16054459190E+03  0.16054459198E+03  0.50400001928E-02 0. -1.
        1   -1    0    0  501    0  0.00000000000E+00  0.00000000000E+00 -0.26353164892E+04  0.26353164892E+04  0.50400001928E-02 0.  1.
    10030    2    1    2    0    0  0.00000000000E+00  0.00000000000E+00 -0.24747718973E+04  0.27958610812E+04  0.13009009346E+04 0.  0.
        5    1    3    3  502    0 -0.16091126478E+03  0.57743453430E+03 -0.69478620272E+03  0.91764537487E+03  0.46999998093E+01 0. -1.
       -5    1    3    3    0  502  0.16091126478E+03 -0.57743453430E+03 -0.17799856946E+04  0.18782157063E+04  0.46999998093E+01 0.  1.
</event>
<event>
 5   0  0.3631841E-05  0.1301044E+04  0.7818609E-02  0.9028738E-01
       -1   -1    0    0    0  501  0.00000000000E+00  0.00000000000E+00  0.26045034861E+03  0.26045034866E+03  0.50400001928E-02 0. -1.
        1   -1    0    0  501    0  0.00000000000E+00  0.00000000000E+00 -0.16247962083E+04  0.16247962083E+04  0.50400001928E-02 0.  1.
    10030    2    1    2    0    0  0.00000000000E+00  0.00000000000E+00 -0.13643458596E+04  0.18852465569E+04  0.13010437947E+04 0.  0.
        3    1    3    3  502    0  0.22051978060E+03 -0.58433310695E+03 -0.41852749823E+03  0.75182406884E+03  0.10100000352E+00 0. -1.
       -3    1    3    3    0  502 -0.22051978060E+03  0.58433310695E+03 -0.94581836142E+03  0.11334224881E+04  0.10100000352E+00 0.  1.
</event>
<event>
 5   0  0.3551277E-05  0.1299625E+04  0.7818609E-02  0.9029862E-01
       -1   -1    0    0    0  501  0.00000000000E+00  0.00000000000E+00  0.96535680122E+03  0.96535680123E+03  0.50400001928E-02 0. -1.
        1   -1    0    0  501    0  0.00000000000E+00  0.00000000000E+00 -0.43740965513E+03  0.43740965516E+03  0.50400001928E-02 0.  1.
    10030    2    1    2    0    0  0.00000000000E+00  0.00000000000E+00  0.52794714610E+03  0.14027664564E+04  0.12996251545E+04 0.  0.
        4    1    3    3  502    0  0.42272123446E+03 -0.17081837397E+03 -0.23578706152E+03  0.51329261657E+03  0.12699999809E+01 0.  1.
       -4    1    3    3    0  502 -0.42272123446E+03  0.17081837397E+03  0.76373420761E+03  0.88947383982E+03  0.12699999809E+01 0. -1.
</event>
<event>
 5   0  0.3552698E-05  0.1300559E+04  0.7818609E-02  0.9029122E-01
       -1   -1    0    0    0  501  0.00000000000E+00  0.00000000000E+00  0.77889627533E+03  0.77889627535E+03  0.50400001928E-02 0.  1.
        1   -1    0    0  501    0  0.00000000000E+00  0.00000000000E+00 -0.54290083449E+03  0.54290083452E+03  0.50400001928E-02 0. -1.
    10030    2    1    2    0    0  0.00000000000E+00  0.00000000000E+00  0.23599544084E+03  0.13217971099E+04  0.13005590150E+04 0.  0.
        5    1    3    3  502    0  0.56992716804E+03  0.20722187841E+03 -0.12053356935E+03  0.61831085637E+03  0.46999998093E+01 0. -1.
       -5    1    3    3    0  502 -0.56992716804E+03 -0.20722187841E+03  0.35652901019E+03  0.70348625350E+03  0.46999998093E+01 0.  1.
</event>
<event>
 5   0  0.6618060E-05  0.1299124E+04  0.7818609E-02  0.9030260E-01
        2   -1    0    0  501    0  0.00000000000E+00  0.00000000000E+00  0.99337543137E+03  0.99337543138E+03  0.25500000920E-02 0. -1.
       -2   -1    0    0    0  501  0.00000000000E+00  0.00000000000E+00 -0.42474474820E+03  0.42474474821E+03  0.25500000920E-02 0.  1.
    10030    2    1    2    0    0  0.00000000000E+00  0.00000000000E+00  0.56863068317E+03  0.14181201796E+04  0.12991243166E+04 0.  0.
        2    1    3    3  502    0 -0.36645318652E+03 -0.90834385989E+02  0.86130687908E+03  0.94041924882E+03  0.25500000920E-02 0. -1.
       -2    1    3    3    0  502  0.36645318652E+03  0.90834385989E+02 -0.29267619591E+03  0.47770093076E+03  0.25500000920E-02 0.  1.
</event>
<event>
 5   0  0.3718559E-05  0.1303103E+04  0.7818609E-02  0.9027108E-01
       -1   -1    0    0    0  501  0.00000000000E+00  0.00000000000E+00  0.82508548969E+03  0.82508548970E+03  0.50400001928E-02 0. -1.
        1   -1    0    0  501    0  0.00000000000E+00  0.00000000000E+00 -0.51451542196E+03  0.51451542199E+03  0.50400001928E-02 0.  1.
    10030    2    1    2    0    0  0.00000000000E+00  0.00000000000E+00  0.31057006773E+03  0.13396009117E+04  0.13031027725E+04 0.  0.
        2    1    3    3  502    0 -0.45058244503E+03  0.42603069003E+03  0.36086753836E+03  0.71746224212E+03  0.25500000920E-02 0. -1.
       -2    1    3    3    0  502  0.45058244503E+03 -0.42603069003E+03 -0.50297470638E+02  0.62213866957E+03  0.25500000920E-02 0.  1.
</event>
<event>
 5   0  0.6688086E-05  0.1300023E+04  0.7818609E-02  0.9029547E-01
       -2   -1    0    0    0  501  0.00000000000E+00  0.00000000000E+00  0.24536976290E+03  0.24536976291E+03  0.25500000920E-02 0. -1.
        2   -1    0    0  501    0  0.00000000000E+00  0.00000000000E+00 -0.17219507367E+04  0.17219507367E+04  0.25500000920E-02 0.  1.
    10030    2    1    2    0    0  0.00000000000E+00  0.00000000000E+00 -0.14765809738E+04  0.19673204996E+04  0.13000225290E+04 0.  0.
        5    1    3    3  502    0 -0.58694068805E+03  0.27896530070E+03 -0.75811085269E+03  0.99853651172E+03  0.46999998093E+01 0. -1.
       -5    1    3    3    0  502  0.58694068805E+03 -0.27896530070E+03 -0.71847012115E+03  0.96878398793E+03  0.46999998093E+01 0.  1.
</event>
<event>
 5   0  0.3689707E-05  0.1298353E+04  0.7818609E-02  0.9030873E-01
       -1   -1    0    0    0  501  0.00000000000E+00  0.00000000000E+00  0.32634198584E+03  0.32634198588E+03  0.50400001928E-02 0. -1.
        1   -1    0    0  501    0  0.00000000000E+00  0.00000000000E+00 -0.12913748699E+04  0.12913748699E+04  0.50400001928E-02 0.  1.
    10030    2    1    2    0    0  0.00000000000E+00  0.00000000000E+00 -0.96503288407E+03  0.16177168558E+04  0.12983525554E+04 0.  0.
        1    1    3    3  502    0 -0.58945294146E+03 -0.26304137098E+03 -0.39633388612E+03  0.75744708221E+03  0.50400001928E-02 0. -1.
       -1    1    3    3    0  502  0.58945294146E+03  0.26304137098E+03 -0.56869899795E+03  0.86026977358E+03  0.50400001928E-02 0.  1.
</event>
<event>
 5   0  0.6458698E-05  0.1300033E+04  0.7818609E-02  0.9029539E-01
        2   -1    0    0  501    0  0.00000000000E+00  0.00000000000E+00  0.14666284978E+04  0.14666284978E+04  0.25500000920E-02 0.  1.
       -2   -1    0    0    0  501  0.00000000000E+00  0.00000000000E+00 -0.28809041226E+03  0.28809041227E+03  0.25500000920E-02 0. -1.
    10030    2    1    2    0    0  0.00000000000E+00  0.00000000000E+00  0.11785380855E+04  0.17547189100E+04  0.13000332435E+04 0.  0.
        3    1    3    3  502    0 -0.41815943286E+03  0.14619059679E+03 -0.52809669272E+02  0.44611419306E+03  0.10100000352E+00 0. -1.
       -3    1    3    3    0  502  0.41815943286E+03 -0.14619059679E+03  0.12313477548E+04  0.13086047170E+04  0.10100000352E+00 0.  1.
</event>
<event>
 5   0  0.6688086E-05  0.1299900E+04  0.7818609E-02  0.9029645E-01
        2   -1    0    0  501    0  0.00000000000E+00  0.00000000000E+00  0.21746743284E+04  0.21746743284E+04  0.25500000920E-02 0. -1.
       -2   -1    0    0    0  501  0.00000000000E+00  0.00000000000E+00 -0.19425205381E+03  0.19425205383E+03  0.25500000920E-02 0.  1.
    10030    2    1    2    0    0  0.00000000000E+00  0.00000000000E+00  0.19804222745E+04  0.23689263822E+04  0.12998999264E+04 0.  0.
        5    1    3    3  502    0  0.53602410498E+03  0.34435332047E+03  0.12243853358E+04  0.13802328032E+04  0.46999998093E+01 0. -1.
       -5    1    3    3    0  502 -0.53602410498E+03 -0.34435332047E+03  0.75603693877E+03  0.98869357903E+03  0.46999998093E+01 0.  1.
</event>
<event>
 5   0  0.6688086E-05  0.1299515E+04  0.7818609E-02  0.9029950E-01
        2   -1    0    0  501    0  0.00000000000E+00  0.00000000000E+00  0.16720555614E+04  0.16720555614E+04  0.25500000920E-02 0.  1.
       -2   -1    0    0    0  501  0.00000000000E+00  0.00000000000E+00 -0.25249440861E+03  0.25249440862E+03  0.25500000920E-02 0. -1.
    10030    2    1    2    0    0  0.00000000000E+00  0.00000000000E+00  0.14195611528E+04  0.19245499700E+04  0.12995148020E+04 0.  0.
        5    1    3    3  502    0 -0.16094117702E+03  0.53199083944E+03  0.21140135994E+03  0.59466708391E+03  0.46999998093E+01 0.  1.
       -5    1    3    3    0  502  0.16094117702E+03 -0.53199083944E+03  0.12081597929E+04  0.13298828861E+04  0.46999998093E+01 0. -1.
</event>
<event>
 5   0  0.6458698E-05  0.1300016E+04  0.7818609E-02  0.9029553E-01
        2   -1    0    0  501    0  0.00000000000E+00  0.00000000000E+00  0.12605311358E+04  0.12605311358E+04  0.25500000920E-02 0. -1.
       -2   -1    0    0    0  501  0.00000000000E+00  0.00000000000E+00 -0.33518440069E+03  0.33518440070E+03  0.25500000920E-02 0.  1.
    10030    2    1    2    0    0  0.00000000000E+00  0.00000000000E+00  0.92534673511E+03  0.15957155365E+04  0.13000159588E+04 0.  0.
        3    1    3    3  502    0 -0.19584703480E+03 -0.10172907447E+03 -0.28779023169E+03  0.36266802077E+03  0.10100000352E+00 0.  1.
       -3    1    3    3    0  502  0.19584703480E+03  0.10172907447E+03  0.12131369668E+04  0.12330475157E+04  0.10100000352E+00 0. -1.
</event>
<event>
 5   0  0.3689707E-05  0.1299985E+04  0.7818609E-02  0.9029577E-01
        1   -1    0    0  501    0  0.00000000000E+00  0.00000000000E+00  0.14702483657E+04  0.14702483657E+04  0.50400001928E-02 0.  1.
       -1   -1    0    0    0  501  0.00000000000E+00  0.00000000000E+00 -0.28735970995E+03  0.28735970999E+03  0.50400001928E-02 0. -1.
    10030    2    1    2    0    0  0.00000000000E+00  0.00000000000E+00  0.11828886557E+04  0.17576080757E+04  0.12999848368E+04 0.  0.
        1    1    3    3  502    0 -0.24088171456E+03  0.10119614904E+03 -0.21323649852E+03  0.33724540814E+03  0.50400001928E-02 0. -1.
       -1    1    3    3    0  502  0.24088171456E+03 -0.10119614904E+03  0.13961251543E+04  0.14203626676E+04  0.50400001928E-02 0.  1.
</event>
<event>
 5   0  0.3718559E-05  0.1298531E+04  0.7818609E-02  0.9030731E-01
       -1   -1    0    0    0  501  0.00000000000E+00  0.00000000000E+00  0.23347658028E+03  0.23347658033E+03  0.50400001928E-02 0. -1.
        1   -1    0    0  501    0  0.00000000000E+00  0.00000000000E+00 -0.18055161798E+04  0.18055161799E+04  0.50400001928E-02 0.  1.
    10030    2    1    2    0    0  0.00000000000E+00  0.00000000000E+00 -0.15720395996E+04  0.20389927602E+04  0.12985310830E+04 0.  0.
        2    1    3    3  502    0 -0.59635246124E+03  0.25257588471E+03 -0.85823174661E+03  0.10751709476E+04  0.25500000920E-02 0.  1.
       -2    1    3    3    0  502  0.59635246124E+03 -0.25257588471E+03 -0.71380785296E+03  0.96382181264E+03  0.25500000920E-02 0. -1.
</event>
<event>
 5   0  0.3552698E-05  0.1298781E+04  0.7818609E-02  0.9030532E-01
       -1   -1    0    0    0  501  0.00000000000E+00  0.00000000000E+00  0.90713839253E+03  0.90713839254E+03  0.50400001928E-02 0. -1.
        1   -1    0    0  501    0  0.00000000000E+00  0.00000000000E+00 -0.46487748810E+03  0.46487748813E+03  0.50400001928E-02 0.  1.
    10030    2    1    2    0    0  0.00000000000E+00  0.00000000000E+00  0.44226090443E+03  0.13720158807E+04  0.12987813015E+04 0.  0.
        5    1    3    3  502    0  0.85294661688E+02 -0.10526607067E+03  0.89202362934E+03  0.90226624133E+03  0.46999998093E+01 0. -1.
       -5    1    3    3    0  502 -0.85294661688E+02  0.10526607067E+03 -0.44976272491E+03  0.46974963934E+03  0.46999998093E+01 0.  1.
</event>
<event>
 5   0  0.6618060E-05  0.1299908E+04  0.7818609E-02  0.9029638E-01
       -2   -1    0    0    0  501  0.00000000000E+00  0.00000000000E+00  0.47394399744E+03  0.47394399745E+03  0.25500000920E-02 0. -1.
        2   -1    0    0  501    0  0.00000000000E+00  0.00000000000E+00 -0.89132917789E+03  0.89132917789E+03  0.25500000920E-02 0.  1.
    10030    2    1    2    0    0  0.00000000000E+00  0.00000000000E+00 -0.41738518045E+03  0.13652731753E+04  0.12999078638E+04 0.  0.
        2    1    3    3  502    0 -0.62653609088E+03  0.21545667020E+02 -0.38886591535E+03  0.73771836704E+03  0.25500000920E-02 0.  1.
       -2    1    3    3    0  502  0.62653609088E+03 -0.21545667020E+02 -0.28519265097E+02  0.62755480830E+03  0.25500000920E-02 0. -1.
</event>
<event>
 5   0  0.3631841E-05  0.1299119E+04  0.7818609E-02  0.9030264E-01
        1   -1    0    0  501    0  0.00000000000E+00  0.00000000000E+00  0.11572428136E+04  0.11572428136E+04  0.50400001928E-02 0. -1.
       -1   -1    0    0    0  501  0.00000000000E+00  0.00000000000E+00 -0.36459704495E+03  0.36459704499E+03  0.50400001928E-02 0.  1.
    10030    2    1    2    0    0  0.00000000000E+00  0.00000000000E+00  0.79264576864E+03  0.15218398586E+04  0.12991186399E+04 0.  0.
        3    1    3    3  502    0  0.54980006347E+03 -0.22688205543E+03  0.70218259688E+03  0.92022605181E+03  0.10100000352E+00 0.  1.
       -3    1    3    3    0  502 -0.54980006347E+03  0.22688205543E+03  0.90463171760E+02  0.60161380678E+03  0.10100000352E+00 0. -1.
</event>
<event>
 5   0  0.3551277E-05  0.1299634E+04  0.7818609E-02  0.9029855E-01
        1   -1    0    0  501    0  0.00000000000E+00  0.00000000000E+00  0.17257869583E+04  0.17257869583E+04  0.50400001928E-02 0.  1.
       -1   -1    0    0    0  501  0.00000000000E+00  0.00000000000E+00 -0.24467817117E+03  0.24467817122E+03  0.50400001928E-02 0. -1.
    10030    2    1    2    0    0  0.00000000000E+00  0.00000000000E+00  0.14811087871E+04  0.19704651295E+04  0.12996344053E+04 0.  0.
        4    1    3    3  502    0  0.92249943940E+02  0.26902392044E+03  0.16264133793E+04  0.16510923703E+04  0.12699999809E+01 0.  1.
       -4    1    3    3    0  502 -0.92249943940E+02 -0.26902392044E+03 -0.14530459219E+03  0.31937275923E+03  0.12699999809E+01 0. -1.
</event>
<event>
 5   0  0.6742824E-05  0.1300239E+04  0.7818609E-02  0.9029376E-01
       -2   -1    0    0    0  501  0.00000000000E+00  0.00000000000E+00  0.31592521693E+03  0.31592521694E+03  0.25500000920E-02 0. -1.
        2   -1    0    0  501    0  0.00000000000E+00  0.00000000000E+00 -0.13378332844E+04  0.13378332844E+04  0.25500000920E-02 0.  1.
    10030    2    1    2    0    0  0.00000000000E+00  0.00000000000E+00 -0.10219080674E+04  0.16537585013E+04  0.13002388559E+04 0.  0.
        4    1    3    3  502    0  0.46502470695E+03  0.11404782103E+03  0.48385876046E+02  0.48124597604E+03  0.12699999809E+01 0.  1.
       -4    1    3    3    0  502 -0.46502470695E+03 -0.11404782103E+03 -0.10702939435E+04  0.11725125253E+04  0.12699999809E+01 0. -1.
</event>
<event>
 5   0  0.2512000E-05  0.1301385E+04  0.7818609E-02  0.9028468E-01
        3   -1    0    0  501    0  0.00000000000E+00  0.00000000000E+00  0.32664838407E+03  0.32664839968E+03  0.10100000352E+00 0.  1.
       -3   -1    0    0    0  501  0.00000000000E+00  0.00000000000E+00 -0.12961972021E+04  0.12961972061E+04  0.10100000352E+00 0. -1.
    10030    2    1    2    0    0  0.00000000000E+00  0.00000000000E+00 -0.96954881806E+03  0.16228456057E+04  0.13013850120E+04 0.  0.
        5    1    3    3  502    0  0.22112451082E+03  0.43008300408E+03 -0.10276356721E+04  0.11357484776E+04  0.46999998093E+01 0. -1.
       -5    1    3    3    0  502 -0.22112451082E+03 -0.43008300408E+03  0.58086854049E+02  0.48709712819E+03  0.46999998093E+01 0.  1.
</event>
<event>
 5   0  0.3551277E-05  0.1299327E+04  0.7818609E-02  0.9030099E-01
        1   -1    0    0  501    0  0.00000000000E+00  0.00000000000E+00  0.10457666516E+04  0.10457666516E+04  0.50400001928E-02 0.  1.
       -1   -1    0    0    0  501  0.00000000000E+00  0.00000000000E+00 -0.40359153536E+03  0.40359153539E+03  0.50400001928E-02 0. -1.
    10030    2    1    2    0    0  0.00000000000E+00  0.00000000000E+00  0.64217511627E+03  0.14493581870E+04  0.12993268543E+04 0.  0.
        4    1    3    3  502    0  0.20474642870E+03 -0.61248892704E+03  0.24223434945E+03  0.68974116795E+03  0.12699999809E+01 0. -1.
       -4    1    3    3    0  502 -0.20474642870E+03  0.61248892704E+03  0.39994076682E+03  0.75961701908E+03  0.12699999809E+01 0.  1.
</event>
<event>
 5   0  0.3551277E-05  0.1293622E+04  0.7818609E-02  0.9034638E-01
        1   -1    0    0  501    0  0.00000000000E+00  0.00000000000E+00  0.31596158470E+03  0.31596158474E+03  0.50400001928E-02 0. -1.
       -1   -1    0    0    0  501  0.00000000000E+00  0.00000000000E+00 -0.13240992390E+04  0.13240992390E+04  0.50400001928E-02 0.  1.
    10030    2    1    2    0    0  0.00000000000E+00  0.00000000000E+00 -0.10081376543E+04  0.16400608238E+04  0.12936220374E+04 0.  0.
        4    1    3    3  502    0  0.71333842214E+02 -0.37446309167E+02  0.30957391795E+03  0.31988805337E+03  0.12699999809E+01 0. -1.
       -4    1    3    3    0  502 -0.71333842214E+02  0.37446309167E+02 -0.13177115723E+04  0.13201727704E+04  0.12699999809E+01 0.  1.
</event>
<event>
 5   0  0.3689707E-05  0.1300247E+04  0.7818609E-02  0.9029369E-01
       -1   -1    0    0    0  501  0.00000000000E+00  0.00000000000E+00  0.67036802721E+03  0.67036802722E+03  0.50400001928E-02 0.  1.
        1   -1    0    0  501    0  0.00000000000E+00  0.00000000000E+00 -0.63049056151E+03  0.63049056153E+03  0.50400001928E-02 0. -1.
    10030    2    1    2    0    0  0.00000000000E+00  0.00000000000E+00  0.39877465694E+02  0.13008585888E+04  0.13002472287E+04 0.  0.
        1    1    3    3  502    0 -0.56612578093E+03 -0.31881434714E+03 -0.28694886098E+01  0.64973011456E+03  0.50400001928E-02 0. -1.
       -1    1    3    3    0  502  0.56612578093E+03  0.31881434714E+03  0.42746954303E+02  0.65112847419E+03  0.50400001928E-02 0.  1.
</event>
<event>
 5   0  0.6671239E-05  0.1299434E+04  0.7818609E-02  0.9030014E-01
       -2   -1    0    0    0  501  0.00000000000E+00  0.00000000000E+00  0.52942151423E+03  0.52942151424E+03  0.25500000920E-02 0.  1.
        2   -1    0    0  501    0  0.00000000000E+00  0.00000000000E+00 -0.79734593281E+03  0.79734593281E+03  0.25500000920E-02 0. -1.
    10030    2    1    2    0    0  0.00000000000E+00  0.00000000000E+00 -0.26792441858E+03  0.13267674470E+04  0.12994338631E+04 0.  0.
        1    1    3    3  502    0  0.11149257668E+03  0.62955612968E+03 -0.25198155924E+03  0.68721628422E+03  0.50400001928E-02 0. -1.
       -1    1    3    3    0  502 -0.11149257668E+03 -0.62955612968E+03 -0.15942859330E+02  0.63955116282E+03  0.50400001928E-02 0.  1.
</event>
<event>
 5   0  0.3631841E-05  0.1300863E+04  0.7818609E-02  0.9028881E-01
       -1   -1    0    0    0  501  0.00000000000E+00  0.00000000000E+00  0.32077948924E+03  0.32077948928E+03  0.50400001928E-02 0.  1.
        1   -1    0    0  501    0  0.00000000000E+00  0.00000000000E+00 -0.13188544085E+04  0.13188544085E+04  0.50400001928E-02 0. -1.
    10030    2    1    2    0    0  0.00000000000E+00  0.00000000000E+00 -0.99807491928E+03  0.16396338978E+04  0.13008634726E+04 0.  0.
        3    1    3    3  502    0  0.45316208244E+03 -0.44394656596E+02  0.86392773107E+02  0.46345493842E+03  0.10100000352E+00 0.  1.
       -3    1    3    3    0  502 -0.45316208244E+03  0.44394656596E+02 -0.10844676924E+04  0.11761789594E+04  0.10100000352E+00 0. -1.
</event>
<event>
 5   0  0.6618060E-05  0.1299900E+04  0.7818609E-02  0.9029644E-01
        2   -1    0    0  501    0  0.00000000000E+00  0.00000000000E+00  0.17472157493E+04  0.17472157493E+04  0.25500000920E-02 0. -1.
       -2   -1    0    0    0  501  0.00000000000E+00  0.00000000000E+00 -0.24177610601E+03  0.24177610602E+03  0.25500000920E-02 0.  1.
    10030    2    1    2    0    0  0.00000000000E+00  0.00000000000E+00  0.15054396433E+04  0.19889918553E+04  0.12999000273E+04 0.  0.
        2    1    3    3  502    0 -0.42745879312E+03 -0.12920108609E+03  0.30123063284E+02  0.44757271969E+03  0.25500000920E-02 0.  1.
       -2    1    3    3    0  502  0.42745879312E+03  0.12920108609E+03  0.14753165800E+04  0.15414191356E+04  0.25500000920E-02 0. -1.
</event>
<event>
 5   0  0.6458698E-05  0.1299927E+04  0.7818609E-02  0.9029623E-01
        2   -1    0    0  501    0  0.00000000000E+00  0.00000000000E+00  0.70536415057E+03  0.70536415058E+03  0.25500000920E-02 0.  1.
       -2   -1    0    0    0  501  0.00000000000E+00  0.00000000000E+00 -0.59891437652E+03  0.59891437652E+03  0.25500000920E-02 0. -1.
    10030    2    1    2    0    0  0.00000000000E+00  0.00000000000E+00  0.10644977405E+03  0.13042785271E+04  0.12999272756E+04 0.  0.
        3    1    3    3  502    0  0.34320709976E+03 -0.41191953687E+03 -0.31540647186E+03  0.62205310937E+03  0.10100000352E+00 0. -1.
       -3    1    3    3    0  502 -0.34320709976E+03  0.41191953687E+03  0.42185624592E+03  0.68222541773E+03  0.10100000352E+00 0.  1.
</event>
<event>
 5   0  0.2512000E-05  0.1294168E+04  0.7818609E-02  0.9034203E-01
        3   -1    0    0  501    0  0.00000000000E+00  0.00000000000E+00  0.18432265059E+03  0.18432267826E+03  0.10100000352E+00 0.  1.
       -3   -1    0    0    0  501  0.00000000000E+00  0.00000000000E+00 -0.22716556903E+04  0.22716556926E+04  0.10100000352E+00 0. -1.
    10030    2    1    2    0    0  0.00000000000E+00  0.00000000000E+00 -0.20873330397E+04  0.24559783708E+04  0.12941678945E+04 0.  0.
        4    1    3    3  502    0 -0.45277986173E+03  0.17980252506E+03 -0.23545397579E+03  0.54109032408E+03  0.12699999809E+01 0.  1.
       -4    1    3    3    0  502  0.45277986173E+03 -0.17980252506E+03 -0.18518790640E+04  0.19148880468E+04  0.12699999809E+01 0. -1.
</event>
<event>
 5   0  0.3552698E-05  0.1300123E+04  0.7818609E-02  0.9029468E-01
        1   -1    0    0  501    0  0.00000000000E+00  0.00000000000E+00  0.46918981229E+03  0.46918981232E+03  0.50400001928E-02 0. -1.
       -1   -1    0    0    0  501  0.00000000000E+00  0.00000000000E+00 -0.90065818579E+03  0.90065818581E+03  0.50400001928E-02 0.  1.
    10030    2    1    2    0    0  0.00000000000E+00  0.00000000000E+00 -0.43146837350E+03  0.13698479981E+04  0.13001225252E+04 0.  0.
        5    1    3    3  502    0  0.18484535288E+02 -0.61161766939E+03 -0.44690862059E+03  0.75773825079E+03  0.46999998093E+01 0. -1.
       -5    1    3    3    0  502 -0.18484535288E+02  0.61161766939E+03  0.15440247090E+02  0.61210974734E+03  0.46999998093E+01 0.  1.
</event>
<event>
 5   0  0.6742824E-05  0.1299936E+04  0.7818609E-02  0.9029616E-01
       -2   -1    0    0    0  501  0.00000000000E+00  0.00000000000E+00  0.52213449503E+03  0.52213449503E+03  0.25500000920E-02 0.  1.
        2   -1    0    0  501    0  0.00000000000E+00  0.00000000000E+00 -0.80909922279E+03  0.80909922279E+03  0.25500000920E-02 0. -1.
    10030    2    1    2    0    0  0.00000000000E+00  0.00000000000E+00 -0.28696472777E+03  0.13312337178E+04  0.12999363279E+04 0.  0.
        4    1    3    3  502    0  0.10204683483E+03 -0.30576585561E+03 -0.72147392932E+03  0.79021045206E+03  0.12699999809E+01 0. -1.
       -4    1    3    3    0  502 -0.10204683483E+03  0.30576585561E+03  0.43450920156E+03  0.54102326576E+03  0.12699999809E+01 0.  1.
</event>
<event>
 5   0  0.6742824E-05  0.1300753E+04  0.7818609E-02  0.9028968E-01
       -2   -1    0    0    0  501  0.00000000000E+00  0.00000000000E+00  0.18382009992E+03  0.18382009994E+03  0.25500000920E-02 0.  1.
        2   -1    0    0  501    0  0.00000000000E+00  0.00000000000E+00 -0.23011075855E+04  0.23011075855E+04  0.25500000920E-02 0. -1.
    10030    2    1    2    0    0  0.00000000000E+00  0.00000000000E+00 -0.21172874855E+04  0.24849276854E+04  0.13007533607E+04 0.  0.
        4    1    3    3  502    0 -0.35143740957E+03  0.53822081037E+03 -0.86954240360E+03  0.10813396775E+04  0.12699999809E+01 0. -1.
       -4    1    3    3    0  502  0.35143740957E+03 -0.53822081037E+03 -0.12477450819E+04  0.14035880079E+04  0.12699999809E+01 0.  1.
</event>
<event>
 5   0  0.6618060E-05  0.1300576E+04  0.7818609E-02  0.9029109E-01
        2   -1    0    0  501    0  0.00000000000E+00  0.00000000000E+00  0.14315684801E+04  0.14315684801E+04  0.25500000920E-02 0.  1.
       -2   -1    0    0    0  501  0.00000000000E+00  0.00000000000E+00 -0.29539227906E+03  0.29539227907E+03  0.25500000920E-02 0. -1.
    10030    2    1    2    0    0  0.00000000000E+00  0.00000000000E+00  0.11361762010E+04  0.17269607592E+04  0.13005756817E+04 0.  0.
        2    1    3    3  502    0  0.52705461361E+03  0.37704737151E+03  0.63987752907E+03  0.91071100702E+03  0.25500000920E-02 0. -1.
       -2    1    3    3    0  502 -0.52705461361E+03 -0.37704737151E+03  0.49629867197E+03  0.81624975215E+03  0.25500000920E-02 0.  1.
</event>
<event>
 5   0  0.3552698E-05  0.1298669E+04  0.7818609E-02  0.9030621E-01
        1   -1    0    0  501    0  0.00000000000E+00  0.00000000000E+00  0.49162543244E+03  0.49162543246E+03  0.50400001928E-02 0.  1.
       -1   -1    0    0    0  501  0.00000000000E+00  0.00000000000E+00 -0.85763508936E+03  0.85763508937E+03  0.50400001928E-02 0. -1.
    10030    2    1    2    0    0  0.00000000000E+00  0.00000000000E+00 -0.36600965692E+03  0.13492605218E+04  0.12986688904E+04 0.  0.
        5    1    3    3  502    0  0.16128684907E+03  0.12132697543E+02 -0.83635277281E+03  0.85186190232E+03  0.46999998093E+01 0. -1.
       -5    1    3    3    0  502 -0.16128684907E+03 -0.12132697543E+02  0.47034311589E+03  0.49739861952E+03  0.46999998093E+01 0.  1.
</event>
<event>
 5   0  0.6458698E-05  0.1300053E+04  0.7818609E-02  0.9029523E-01
        2   -1    0    0  501    0  0.00000000000E+00  0.00000000000E+00  0.78500348762E+03  0.78500348762E+03  0.25500000920E-02 0.  1.
       -2   -1    0    0    0  501  0.00000000000E+00  0.00000000000E+00 -0.53825785132E+03  0.53825785133E+03  0.25500000920E-02 0. -1.
    10030    2    1    2    0    0  0.00000000000E+00  0.00000000000E+00  0.24674563630E+03  0.13232613390E+04  0.13000527536E+04 0.  0.
        3    1    3    3  502    0 -0.44656835231E+03 -0.45562661519E+03 -0.34115705861E+01  0.63798946290E+03  0.10100000352E+00 0.  1.
       -3    1    3    3    0  502  0.44656835231E+03  0.45562661519E+03  0.25015720688E+03  0.68527187605E+03  0.10100000352E+00 0. -1.
</event>
<event>
 5   0  0.3552698E-05  0.1299320E+04  0.7818609E-02  0.9030104E-01
       -1   -1    0    0    0  501  0.00000000000E+00  0.00000000000E+00  0.38899305898E+03  0.38899305901E+03  0.50400001928E-02 0. -1.
        1   -1    0    0  501    0  0.00000000000E+00  0.00000000000E+00 -0.10850022958E+04  0.10850022958E+04  0.50400001928E-02 0.  1.
    10030    2    1    2    0    0  0.00000000000E+00  0.00000000000E+00 -0.69600923684E+03  0.14739953548E+04  0.12993203794E+04 0.  0.
        5    1    3    3  502    0  0.42833556267E+03  0.26430092845E+03  0.11795705503E+03  0.51697416943E+03  0.46999998093E+01 0. -1.
       -5    1    3    3    0  502 -0.42833556267E+03 -0.26430092845E+03 -0.81396629188E+03  0.95702118542E+03  0.46999998093E+01 0.  1.
</event>
<event>
 5   0  0.3631841E-05  0.1299483E+04  0.7818609E-02  0.9029975E-01
        1   -1    0    0  501    0  0.00000000000E+00  0.00000000000E+00  0.54297588693E+03  0.54297588695E+03  0.50400001928E-02 0. -1.
       -1   -1    0    0    0  501  0.00000000000E+00  0.00000000000E+00 -0.77750059461E+03  0.77750059462E+03  0.50400001928E-02 0.  1.
    10030    2    1    2    0    0  0.00000000000E+00  0.00000000000E+00 -0.23452470768E+03  0.13204764816E+04  0.12994830895E+04 0.  0.
        3    1    3    3  502    0  0.64880885889E+03  0.21702472662E+02 -0.14490723021E+03  0.66514814009E+03  0.10100000352E+00 0.  1.
       -3    1    3    3    0  502 -0.64880885889E+03 -0.21702472662E+02 -0.89617477467E+02  0.65532834149E+03  0.10100000352E+00 0. -1.
</event>
<event>
 5   0  0.3552698E-05  0.1300255E+04  0.7818609E-02  0.9029363E-01
        1   -1    0    0  501    0  0.00000000000E+00  0.00000000000E+00  0.11261636493E+04  0.11261636493E+04  0.50400001928E-02 0. -1.
       -1   -1    0    0    0  501  0.00000000000E+00  0.00000000000E+00 -0.37531478827E+03  0.37531478830E+03  0.50400001928E-02 0.  1.
    10030    2    1    2    0    0  0.00000000000E+00  0.00000000000E+00  0.75084886100E+03  0.15014784376E+04  0.13002551620E+04 0.  0.
        5    1    3    3  502    0 -0.94872179993E+02 -0.41861155038E+02 -0.36568357318E+03  0.38013109914E+03  0.46999998093E+01 0.  1.
       -5    1    3    3    0  502  0.94872179993E+02  0.41861155038E+02  0.11165324342E+04  0.11213473384E+04  0.46999998093E+01 0. -1.
</event>
<event>
 5   0  0.6742824E-05  0.1299261E+04  0.7818609E-02  0.9030151E-01
       -2   -1    0    0    0  501  0.00000000000E+00  0.00000000000E+00  0.59183862345E+03  0.59183862345E+03  0.25500000920E-02 0.  1.
        2   -1    0    0  501    0  0.00000000000E+00  0.00000000000E+00 -0.71306592834E+03  0.71306592835E+03  0.25500000920E-02 0. -1.
    10030    2    1    2    0    0  0.00000000000E+00  0.00000000000E+00 -0.12122730489E+03  0.13049045518E+04  0.12992612631E+04 0.  0.
        4    1    3    3  502    0  0.56783591498E+03 -0.25932886928E+03  0.11997069715E+03  0.63567575843E+03  0.12699999809E+01 0. -1.
       -4    1    3    3    0  502 -0.56783591498E+03  0.25932886928E+03 -0.24119800204E+03  0.66922879337E+03  0.12699999809E+01 0.  1.
</event>
<event>
 5   0  0.3551277E-05  0.1300523E+04  0.7818609E-02  0.9029151E-01
       -1   -1    0    0    0  501  0.00000000000E+00  0.00000000000E+00  0.19802756915E+03  0.19802756922E+03  0.50400001928E-02 0.  1.
        1   -1    0    0  501    0  0.00000000000E+00  0.00000000000E+00 -0.21352581965E+04  0.21352581965E+04  0.50400001928E-02 0. -1.
    10030    2    1    2    0    0  0.00000000000E+00  0.00000000000E+00 -0.19372306274E+04  0.23332857658E+04  0.13005229567E+04 0.  0.
        4    1    3    3  502    0  0.18299035123E+03  0.10546348334E+03  0.13477229728E+03  0.25054580415E+03  0.12699999809E+01 0.  1.
       -4    1    3    3    0  502 -0.18299035123E+03 -0.10546348334E+03 -0.20720029247E+04  0.20827399616E+04  0.12699999809E+01 0. -1.
</event>
<event>
 5   0  0.3631841E-05  0.1300139E+04  0.7818609E-02  0.9029455E-01
        1   -1    0    0  501    0  0.00000000000E+00  0.00000000000E+00  0.10062233186E+04  0.10062233186E+04  0.50400001928E-02 0.  1.
       -1   -1    0    0    0  501  0.00000000000E+00  0.00000000000E+00 -0.41997674696E+03  0.41997674699E+03  0.50400001928E-02 0. -1.
    10030    2    1    2    0    0  0.00000000000E+00  0.00000000000E+00  0.58624657163E+03  0.14262000656E+04  0.13001390635E+04 0.  0.
        3    1    3    3  502    0  0.39812083604E+03  0.17586180411E+02 -0.27027085712E+03  0.48151409143E+03  0.10100000352E+00 0. -1.
       -3    1    3    3    0  502 -0.39812083604E+03 -0.17586180411E+02  0.85651742875E+03  0.94468597416E+03  0.10100000352E+00 0.  1.
</event>
<event>
 5   0  0.6618060E-05  0.1300758E+04  0.7818609E-02  0.9028964E-01
       -2   -1    0    0    0  501  0.00000000000E+00  0.00000000000E+00  0.79127338684E+03  0.79127338685E+03  0.25500000920E-02 0.  1.
        2   -1    0    0  501    0  0.00000000000E+00  0.00000000000E+00 -0.53457208646E+03  0.53457208647E+03  0.25500000920E-02 0. -1.
    10030    2    1    2    0    0  0.00000000000E+00  0.00000000000E+00  0.25670130038E+03  0.13258454733E+04  0.13007577259E+04 0.  0.
        2    1    3    3  502    0  0.33864005352E+03 -0.39603918699E+03 -0.26834525580E+03  0.58611713829E+03  0.25500000920E-02 0. -1.
       -2    1    3    3    0  502 -0.33864005352E+03  0.39603918699E+03  0.52504655618E+03  0.73972833503E+03  0.25500000920E-02 0.  1.
</event>
<event>
 5   0  0.3631841E-05  0.1301875E+04  0.7818609E-02  0.9028079E-01
        1   -1    0    0  501    0  0.00000000000E+00  0.00000000000E+00  0.11675691434E+04  0.11675691434E+04  0.50400001928E-02 0. -1.
       -1   -1    0    0    0  501  0.00000000000E+00  0.00000000000E+00 -0.36290776726E+03  0.36290776730E+03  0.50400001928E-02 0.  1.
    10030    2    1    2    0    0  0.00000000000E+00  0.00000000000E+00  0.80466137613E+03  0.15304769107E+04  0.13018754333E+04 0.  0.
        3    1    3    3  502    0  0.15388664316E+03  0.57639991550E+02 -0.33812222414E+03  0.37593897940E+03  0.10100000352E+00 0.  1.
       -3    1    3    3    0  502 -0.15388664316E+03 -0.57639991550E+02  0.11427836003E+04  0.11545379313E+04  0.10100000352E+00 0. -1.
</event>
<event>
 5   0  0.6742824E-05  0.1299865E+04  0.7818609E-02  0.9029672E-01
        2   -1    0    0  501    0  0.00000000000E+00  0.00000000000E+00  0.13803492074E+04  0.13803492074E+04  0.25500000920E-02 0. -1.
       -2   -1    0    0    0  501  0.00000000000E+00  0.00000000000E+00 -0.30601862120E+03  0.30601862121E+03  0.25500000920E-02 0.  1.
    10030    2    1    2    0    0  0.00000000000E+00  0.00000000000E+00  0.10743305862E+04  0.16863678286E+04  0.12998654719E+04 0.  0.
        4    1    3    3  502    0  0.49585009139E+03  0.72942110399E+02  0.33741909179E+00  0.50118817958E+03  0.12699999809E+01 0.  1.
       -4    1    3    3    0  502 -0.49585009139E+03 -0.72942110399E+02  0.10739931671E+04  0.11851796491E+04  0.12699999809E+01 0. -1.
</event>
<event>
 5   0  0.6671239E-05  0.1299757E+04  0.7818609E-02  0.9029758E-01
        2   -1    0    0  501    0  0.00000000000E+00  0.00000000000E+00  0.86395622268E+03  0.86395622269E+03  0.25500000920E-02 0.  1.
       -2   -1    0    0    0  501  0.00000000000E+00  0.00000000000E+00 -0.48884684691E+03  0.48884684692E+03  0.25500000920E-02 0. -1.
    10030    2    1    2    0    0  0.00000000000E+00  0.00000000000E+00  0.37510937578E+03  0.13528030696E+04  0.12997573240E+04 0.  0.
        1    1    3    3  502    0  0.57795741538E+03  0.12440894516E+03 -0.93329447354E+02  0.59851712206E+03  0.50400001928E-02 0. -1.
       -1    1    3    3    0  502 -0.57795741538E+03 -0.12440894516E+03  0.46843882313E+03  0.75428594755E+03  0.50400001928E-02 0.  1.
</event>
<event>
 5   0  0.6458698E-05  0.1300126E+04  0.7818609E-02  0.9029465E-01
        2   -1    0    0  501    0  0.00000000000E+00  0.00000000000E+00  0.99588500715E+03  0.99588500716E+03  0.25500000920E-02 0. -1.
       -2   -1    0    0    0  501  0.00000000000E+00  0.00000000000E+00 -0.42432832307E+03  0.42432832308E+03  0.25500000920E-02 0.  1.
    10030    2    1    2    0    0  0.00000000000E+00  0.00000000000E+00  0.57155668408E+03  0.14202133302E+04  0.13001264786E+04 0.  0.
        3    1    3    3  502    0  0.21405681466E+03  0.34020034062E+03 -0.27231847252E+03  0.48550381290E+03  0.10100000352E+00 0.  1.
       -3    1    3    3    0  502 -0.21405681466E+03 -0.34020034062E+03  0.84387515661E+03  0.93470951734E+03  0.10100000352E+00 0. -1.
</event>
<event>
 5   0  0.6458698E-05  0.1300000E+04  0.7818609E-02  0.9029565E-01
        2   -1    0    0  501    0  0.00000000000E+00  0.00000000000E+00  0.10649499757E+04  0.10649499757E+04  0.25500000920E-02 0.  1.
       -2   -1    0    0    0  501  0.00000000000E+00  0.00000000000E+00 -0.39673250225E+03  0.39673250226E+03  0.25500000920E-02 0. -1.
    10030    2    1    2    0    0  0.00000000000E+00  0.00000000000E+00  0.66821747347E+03  0.14616824780E+04  0.13000004133E+04 0.  0.
        3    1    3    3  502    0 -0.21064351493E+03  0.60311539802E+03  0.19927148164E+03  0.66919952728E+03  0.10100000352E+00 0.  1.
       -3    1    3    3    0  502  0.21064351493E+03 -0.60311539802E+03  0.46894599183E+03  0.79248295071E+03  0.10100000352E+00 0. -1.
</event>
<event>
 5   0  0.6688086E-05  0.1299791E+04  0.7818609E-02  0.9029731E-01
        2   -1    0    0  501    0  0.00000000000E+00  0.00000000000E+00  0.36618589755E+03  0.36618589756E+03  0.25500000920E-02 0. -1.
       -2   -1    0    0    0  501  0.00000000000E+00  0.00000000000E+00 -0.11534146911E+04  0.11534146911E+04  0.25500000920E-02 0.  1.
    10030    2    1    2    0    0  0.00000000000E+00  0.00000000000E+00 -0.78722879356E+03  0.15196005887E+04  0.12997910508E+04 0.  0.
        5    1    3    3  502    0 -0.38187506749E+03  0.37166600070E+02  0.21962013979E+03  0.44211426026E+03  0.46999998093E+01 0. -1.
       -5    1    3    3    0  502  0.38187506749E+03 -0.37166600070E+02 -0.10068489334E+04  0.10774863284E+04  0.46999998093E+01 0.  1.
</event>
<event>
 5   0  0.3631841E-05  0.1300072E+04  0.7818609E-02  0.9029508E-01
        1   -1    0    0  501    0  0.00000000000E+00  0.00000000000E+00  0.34065054661E+03  0.34065054665E+03  0.50400001928E-02 0.  1.
       -1   -1    0    0    0  501  0.00000000000E+00  0.00000000000E+00 -0.12404112060E+04  0.12404112060E+04  0.50400001928E-02 0. -1.
    10030    2    1    2    0    0  0.00000000000E+00  0.00000000000E+00 -0.89976065935E+03  0.15810617526E+04  0.13000719293E+04 0.  0.
        3    1    3    3  502    0  0.11015019850E+03  0.55128688943E+03 -0.84675100100E+03  0.10163845574E+04  0.10100000352E+00 0. -1.
       -3    1    3    3    0  502 -0.11015019850E+03 -0.55128688943E+03 -0.53009658356E+02  0.56467719519E+03  0.10100000352E+00 0.  1.
</event>
<event>
 5   0  0.3551277E-05  0.1300196E+04  0.7818609E-02  0.9029409E-01
        1   -1    0    0  501    0  0.00000000000E+00  0.00000000000E+00  0.16055867665E+04  0.16055867665E+04  0.50400001928E-02 0. -1.
       -1   -1    0    0    0  501  0.00000000000E+00  0.00000000000E+00 -0.26322315779E+03  0.26322315784E+03  0.50400001928E-02 0.  1.
    10030    2    1    2    0    0  0.00000000000E+00  0.00000000000E+00  0.13423636087E+04  0.18688099243E+04  0.13001963218E+04 0.  0.
        4    1    3    3  502    0 -0.31515331125E+02 -0.35280520766E+03 -0.11234219849E+03  0.37160074423E+03  0.12699999809E+01 0.  1.
       -4    1    3    3    0  502  0.31515331125E+02  0.35280520766E+03  0.14547058072E+04  0.14972091801E+04  0.12699999809E+01 0. -1.
</event>
<event>
 5   0  0.6742824E-05  0.1300275E+04  0.7818609E-02  0.9029347E-01
        2   -1    0    0  501    0  0.00000000000E+00  0.00000000000E+00  0.10886603090E+04  0.10886603090E+04  0.25500000920E-02 0.  1.
       -2   -1    0    0    0  501  0.00000000000E+00  0.00000000000E+00 -0.38825572253E+03  0.38825572254E+03  0.25500000920E-02 0. -1.
    10030    2    1    2    0    0  0.00000000000E+00  0.00000000000E+00  0.70040458649E+03  0.14769160316E+04  0.13002747323E+04 0.  0.
        4    1    3    3  502    0  0.17406103467E+03  0.46411887635E+02  0.10597451002E+04  0.10749477184E+04  0.12699999809E+01 0.  1.
       -4    1    3    3    0  502 -0.17406103467E+03 -0.46411887635E+02 -0.35934051368E+03  0.40196831315E+03  0.12699999809E+01 0. -1.
</event>
<event>
 5   0  0.3631841E-05  0.1300197E+04  0.7818609E-02  0.9029409E-01
       -1   -1    0    0    0  501  0.00000000000E+00  0.00000000000E+00  0.60438379576E+03  0.60438379578E+03  0.50400001928E-02 0.  1.
        1   -1    0    0  501    0  0.00000000000E+00  0.00000000000E+00 -0.69927116892E+03  0.69927116893E+03  0.50400001928E-02 0. -1.
    10030    2    1    2    0    0  0.00000000000E+00  0.00000000000E+00 -0.94887373159E+02  0.13036549647E+04  0.13001971594E+04 0.  0.
        3    1    3    3  502    0  0.33979413327E+03  0.59989352616E+01 -0.60311255222E+03  0.69227220158E+03  0.10100000352E+00 0. -1.
       -3    1    3    3    0  502 -0.33979413327E+03 -0.59989352616E+01  0.50822517906E+03  0.61138276314E+03  0.10100000352E+00 0.  1.
</event>
<event>
 5   0  0.3718559E-05  0.1299695E+04  0.7818609E-02  0.9029807E-01
       -1   -1    0    0    0  501  0.00000000000E+00  0.00000000000E+00  0.27256928835E+03  0.27256928840E+03  0.50400001928E-02 0. -1.
        1   -1    0    0  501    0  0.00000000000E+00  0.00000000000E+00 -0.15493367846E+04  0.15493367846E+04  0.50400001928E-02 0.  1.
    10030    2    1    2    0    0  0.00000000000E+00  0.00000000000E+00 -0.12767674962E+04  0.18219060730E+04  0.12996947716E+04 0.  0.
        2    1    3    3  502    0  0.25486140956E+03 -0.51875206216E+03 -0.10547985732E+04  0.12027709965E+04  0.25500000920E-02 0.  1.
       -2    1    3    3    0  502 -0.25486140956E+03  0.51875206216E+03 -0.22196892302E+03  0.61913507644E+03  0.25500000920E-02 0. -1.
</event>
<event>
 5   0  0.3631841E-05  0.1300112E+04  0.7818609E-02  0.9029477E-01
       -1   -1    0    0    0  501  0.00000000000E+00  0.00000000000E+00  0.38070276383E+03  0.38070276386E+03  0.50400001928E-02 0. -1.
        1   -1    0    0  501    0  0.00000000000E+00  0.00000000000E+00 -0.11099801027E+04  0.11099801027E+04  0.50400001928E-02 0.  1.
    10030    2    1    2    0    0  0.00000000000E+00  0.00000000000E+00 -0.72927733887E+03  0.14906828666E+04  0.13001115228E+04 0.  0.
        3    1    3    3  502    0 -0.39363283941E+03  0.52556780350E+02  0.22544782194E+03  0.45665715591E+03  0.10100000352E+00 0. -1.
       -3    1    3    3    0  502  0.39363283941E+03 -0.52556780350E+02 -0.95472516082E+03  0.10340257107E+04  0.10100000352E+00 0.  1.
</event>
<event>
 5   0  0.3631841E-05  0.1298701E+04  0.7818609E-02  0.9030596E-01
       -1   -1    0    0    0  501  0.00000000000E+00  0.00000000000E+00  0.53232702459E+03  0.53232702461E+03  0.50400001928E-02 0.  1.
        1   -1    0    0  501    0  0.00000000000E+00  0.00000000000E+00 -0.79209975381E+03  0.79209975382E+03  0.50400001928E-02 0. -1.
    10030    2    1    2    0    0  0.00000000000E+00  0.00000000000E+00 -0.25977272922E+03  0.13244267784E+04  0.12987010513E+04 0.  0.
        3    1    3    3  502    0  0.57102343672E+03  0.30330890746E+03 -0.68765551863E+02  0.65022516865E+03  0.10100000352E+00 0. -1.
       -3    1    3    3    0  502 -0.57102343672E+03 -0.30330890746E+03 -0.19100717736E+03  0.67420160978E+03  0.10100000352E+00 0.  1.
</event>
<event>
 5   0  0.3552698E-05  0.1292312E+04  0.7818609E-02  0.9035684E-01
        1   -1    0    0  501    0  0.00000000000E+00  0.00000000000E+00  0.20904961610E+03  0.20904961617E+03  0.50400001928E-02 0.  1.
       -1   -1    0    0    0  501  0.00000000000E+00  0.00000000000E+00 -0.19972179927E+04  0.19972179927E+04  0.50400001928E-02 0. -1.
    10030    2    1    2    0    0  0.00000000000E+00  0.00000000000E+00 -0.17881683766E+04  0.22062676089E+04  0.12923121213E+04 0.  0.
        5    1    3    3  502    0  0.46215710026E+03  0.39227892152E+02 -0.12608420587E+03  0.48067382892E+03  0.46999998093E+01 0.  1.
       -5    1    3    3    0  502 -0.46215710026E+03 -0.39227892152E+02 -0.16620841707E+04  0.17255937799E+04  0.46999998093E+01 0. -1.
</event>
<event>
 5   0  0.3718559E-05  0.1299673E+04  0.7818609E-02  0.9029824E-01
       -1   -1    0    0    0  501  0.00000000000E+00  0.00000000000E+00  0.61667576714E+03  0.61667576716E+03  0.50400001928E-02 0. -1.
        1   -1    0    0  501    0  0.00000000000E+00  0.00000000000E+00 -0.68478046639E+03  0.68478046641E+03  0.50400001928E-02 0.  1.
    10030    2    1    2    0    0  0.00000000000E+00  0.00000000000E+00 -0.68104699249E+02  0.13014562336E+04  0.12996730657E+04 0.  0.
        2    1    3    3  502    0  0.42292337887E+03 -0.23253147097E+03  0.40169114649E+03  0.62792582886E+03  0.25500000920E-02 0. -1.
       -2    1    3    3    0  502 -0.42292337887E+03  0.23253147097E+03 -0.46979584574E+03  0.67353040470E+03  0.25500000920E-02 0.  1.
</event>
<event>
 5   0  0.2512000E-05  0.1299412E+04  0.7818609E-02  0.9030031E-01
        3   -1    0    0  501    0  0.00000000000E+00  0.00000000000E+00  0.73152608394E+03  0.73152609091E+03  0.10100000352E+00 0.  1.
       -3   -1    0    0    0  501  0.00000000000E+00  0.00000000000E+00 -0.57703757303E+03  0.57703758187E+03  0.10100000352E+00 0. -1.
    10030    2    1    2    0    0  0.00000000000E+00  0.00000000000E+00  0.15448851091E+03  0.13085636728E+04  0.12994122462E+04 0.  0.
        4    1    3    3  502    0 -0.79563401101E+02 -0.32034749950E+03  0.64079564840E+03  0.72081449149E+03  0.12699999809E+01 0.  1.
       -4    1    3    3    0  502  0.79563401101E+02  0.32034749950E+03 -0.48630713749E+03  0.58774918129E+03  0.12699999809E+01 0. -1.
</event>
<event>
 5   0  0.3718559E-05  0.1299750E+04  0.7818609E-02  0.9029764E-01
        1   -1    0    0  501    0  0.00000000000E+00  0.00000000000E+00  0.16442336915E+04  0.16442336915E+04  0.50400001928E-02 0. -1.
       -1   -1    0    0    0  501  0.00000000000E+00  0.00000000000E+00 -0.25685963001E+03  0.25685963006E+03  0.50400001928E-02 0.  1.
    10030    2    1    2    0    0  0.00000000000E+00  0.00000000000E+00  0.13873740615E+04  0.19010933215E+04  0.12997496031E+04 0.  0.
        2    1    3    3  502    0  0.12761116373E+03 -0.15959788160E+03 -0.20864710692E+03  0.29204401749E+03  0.25500000920E-02 0.  1.
       -2    1    3    3    0  502 -0.12761116373E+03  0.15959788160E+03  0.15960211684E+04  0.16090493040E+04  0.25500000920E-02 0. -1.
</event>
<event>
 5   0  0.6688086E-05  0.1299788E+04  0.7818609E-02  0.9029733E-01
        2   -1    0    0  501    0  0.00000000000E+00  0.00000000000E+00  0.13118347082E+04  0.13118347082E+04  0.25500000920E-02 0.  1.
       -2   -1    0    0    0  501  0.00000000000E+00  0.00000000000E+00 -0.32196307911E+03  0.32196307912E+03  0.25500000920E-02 0. -1.
    10030    2    1    2    0    0  0.00000000000E+00  0.00000000000E+00  0.98987162910E+03  0.16337977873E+04  0.12997882011E+04 0.  0.
        5    1    3    3  502    0  0.41069979659E+03 -0.16707490332E+03 -0.10229392522E+03  0.45505437409E+03  0.46999998093E+01 0. -1.
       -5    1    3    3    0  502 -0.41069979659E+03  0.16707490332E+03  0.10921655543E+04  0.11787434133E+04  0.46999998093E+01 0.  1.
</event>
<event>
 5   0  0.3631841E-05  0.1299351E+04  0.7818609E-02  0.9030080E-01
       -1   -1    0    0    0  501  0.00000000000E+00  0.00000000000E+00  0.50755615956E+03  0.50755615959E+03  0.50400001928E-02 0.  1.
        1   -1    0    0  501    0  0.00000000000E+00  0.00000000000E+00 -0.83158922605E+03  0.83158922607E+03  0.50400001928E-02 0. -1.
    10030    2    1    2    0    0  0.00000000000E+00  0.00000000000E+00 -0.32403306649E+03  0.13391453857E+04  0.12993509671E+04 0.  0.
        3    1    3    3  502    0 -0.49868751285E+03 -0.22896776579E+03 -0.52046529286E+03  0.75630655459E+03  0.10100000352E+00 0. -1.
       -3    1    3    3    0  502  0.49868751285E+03  0.22896776579E+03  0.19643222637E+03  0.58283883107E+03  0.10100000352E+00 0.  1.
</event>
<event>
 5   0  0.6688086E-05  0.1300219E+04  0.7818609E-02  0.9029391E-01
        2   -1    0    0  501    0  0.00000000000E+00  0.00000000000E+00  0.12010964196E+04  0.12010964196E+04  0.25500000920E-02 0.  1.
       -2   -1    0    0    0  501  0.00000000000E+00  0.00000000000E+00 -0.35188064516E+03  0.35188064517E+03  0.25500000920E-02 0. -1.
    10030    2    1    2    0    0  0.00000000000E+00  0.00000000000E+00  0.84921577447E+03  0.15529770648E+04  0.13002193400E+04 0.  0.
        5    1    3    3  502    0  0.42466031833E+03  0.34737926866E+03  0.80875698208E+01  0.54872237156E+03  0.46999998093E+01 0.  1.
       -5    1    3    3    0  502 -0.42466031833E+03 -0.34737926866E+03  0.84112820465E+03  0.10042546933E+04  0.46999998093E+01 0. -1.
</event>
<event>
 5   0  0.3631841E-05  0.1299816E+04  0.7818609E-02  0.9029711E-01
       -1   -1    0    0    0  501  0.00000000000E+00  0.00000000000E+00  0.74469753715E+03  0.74469753717E+03  0.50400001928E-02 0. -1.
        1   -1    0    0  501    0  0.00000000000E+00  0.00000000000E+00 -0.56718424289E+03  0.56718424292E+03  0.50400001928E-02 0.  1.
    10030    2    1    2    0    0  0.00000000000E+00  0.00000000000E+00  0.17751329426E+03  0.13118817801E+04  0.12998164622E+04 0.  0.
        3    1    3    3  502    0  0.41038489018E+03 -0.37043937335E+03 -0.25608664993E+03  0.60927946781E+03  0.10100000352E+00 0.  1.
       -3    1    3    3    0  502 -0.41038489018E+03  0.37043937335E+03  0.43359994419E+03  0.70260231228E+03  0.10100000352E+00 0. -1.
</event>
<event>
 5   0  0.6742824E-05  0.1300018E+04  0.7818609E-02  0.9029551E-01
       -2   -1    0    0    0  501  0.00000000000E+00  0.00000000000E+00  0.30756502466E+03  0.30756502467E+03  0.25500000920E-02 0.  1.
        2   -1    0    0  501    0  0.00000000000E+00  0.00000000000E+00 -0.13737317321E+04  0.13737317321E+04  0.25500000920E-02 0. -1.
    10030    2    1    2    0    0  0.00000000000E+00  0.00000000000E+00 -0.10661667074E+04  0.16812967567E+04  0.13000182061E+04 0.  0.
        4    1    3    3  502    0  0.19607977002E+03 -0.13647239632E+03  0.24872792267E+03  0.34487560596E+03  0.12699999809E+01 0.  1.
       -4    1    3    3    0  502 -0.19607977002E+03  0.13647239632E+03 -0.13148946301E+04  0.13364211508E+04  0.12699999809E+01 0. -1.
</event>
<event>
 5   0  0.3551277E-05  0.1302301E+04  0.7818609E-02  0.9027743E-01
        1   -1    0    0  501    0  0.00000000000E+00  0.00000000000E+00  0.54952228578E+03  0.54952228580E+03  0.50400001928E-02 0.  1.
       -1   -1    0    0    0  501  0.00000000000E+00  0.00000000000E+00 -0.77157332794E+03  0.77157332796E+03  0.50400001928E-02 0. -1.
    10030    2    1    2    0    0  0.00000000000E+00  0.00000000000E+00 -0.22205104217E+03  0.13210956138E+04  0.13023006394E+04 0.  0.
        4    1    3    3  502    0 -0.16399679756E+03 -0.31232297638E+03  0.44418916614E+03  0.56722677951E+03  0.12699999809E+01 0.  1.
       -4    1    3    3    0  502  0.16399679756E+03  0.31232297638E+03 -0.66624020831E+03  0.75386883425E+03  0.12699999809E+01 0. -1.
</event>
<event>
 5   0  0.6742824E-05  0.1299818E+04  0.7818609E-02  0.9029709E-01
       -2   -1    0    0    0  501  0.00000000000E+00  0.00000000000E+00  0.74657666483E+03  0.74657666483E+03  0.25500000920E-02 0. -1.
        2   -1    0    0  501    0  0.00000000000E+00  0.00000000000E+00 -0.56575807949E+03  0.56575807950E+03  0.25500000920E-02 0.  1.
    10030    2    1    2    0    0  0.00000000000E+00  0.00000000000E+00  0.18081858533E+03  0.13123347443E+04  0.12998181105E+04 0.  0.
        4    1    3    3  502    0 -0.10793423200E+03 -0.60675454074E+03  0.29874383448E+03  0.68487251564E+03  0.12699999809E+01 0. -1.
       -4    1    3    3    0  502  0.10793423200E+03  0.60675454074E+03 -0.11792524914E+03  0.62746222869E+03  0.12699999809E+01 0.  1.
</event>
<event>
 5   0  0.6618060E-05  0.1299324E+04  0.7818609E-02  0.9030101E-01
        2   -1    0    0  501    0  0.00000000000E+00  0.00000000000E+00  0.28688844142E+03  0.28688844143E+03  0.25500000920E-02 0.  1.
       -2   -1    0    0    0  501  0.00000000000E+00  0.00000000000E+00 -0.14711665963E+04  0.14711665964E+04  0.25500000920E-02 0. -1.
    10030    2    1    2    0    0  0.00000000000E+00  0.00000000000E+00 -0.11842781549E+04  0.17580550378E+04  0.12993239656E+04 0.  0.
        2    1    3    3  502    0  0.25316819184E+03 -0.28634474052E+03 -0.13029408639E+04  0.13578447402E+04  0.25500000920E-02 0. -1.
       -2    1    3    3    0  502 -0.25316819184E+03  0.28634474052E+03  0.11866270893E+03  0.40021029757E+03  0.25500000920E-02 0.  1.
</event>
<event>
 5   0  0.3689707E-05  0.1300735E+04  0.7818609E-02  0.9028983E-01
        1   -1    0    0  501    0  0.00000000000E+00  0.00000000000E+00  0.10974746997E+04  0.10974746997E+04  0.50400001928E-02 0.  1.
       -1   -1    0    0    0  501  0.00000000000E+00  0.00000000000E+00 -0.38540996718E+03  0.38540996722E+03  0.50400001928E-02 0. -1.
    10030    2    1    2    0    0  0.00000000000E+00  0.00000000000E+00  0.71206473252E+03  0.14828846669E+04  0.13007346970E+04 0.  0.
        1    1    3    3  502    0 -0.29796591855E+03  0.42255158467E+02  0.10133188631E+04  0.10570640025E+04  0.50400001928E-02 0.  1.
       -1    1    3    3    0  502  0.29796591855E+03 -0.42255158467E+02 -0.30125413058E+03  0.42582066443E+03  0.50400001928E-02 0. -1.
</event>
<event>
 5   0  0.2512000E-05  0.1300038E+04  0.7818609E-02  0.9029535E-01
        3   -1    0    0  501    0  0.00000000000E+00  0.00000000000E+00  0.44247647053E+03  0.44247648206E+03  0.10100000352E+00 0. -1.
       -3   -1    0    0    0  501  0.00000000000E+00  0.00000000000E+00 -0.95490858780E+03  0.95490859314E+03  0.10100000352E+00 0.  1.
    10030    2    1    2    0    0  0.00000000000E+00  0.00000000000E+00 -0.51243211727E+03  0.13973850752E+04  0.13000378354E+04 0.  0.
        2    1    3    3  502    0  0.68583622957E+01 -0.46398538521E+03 -0.74548750156E+03  0.87811223076E+03  0.25500000920E-02 0.  1.
       -2    1    3    3    0  502 -0.68583622957E+01  0.46398538521E+03  0.23305538429E+03  0.51927284444E+03  0.25500000920E-02 0. -1.
</event>
<event>
 5   0  0.3689707E-05  0.1299952E+04  0.7818609E-02  0.9029603E-01
        1   -1    0    0  501    0  0.00000000000E+00  0.00000000000E+00  0.94025937387E+03  0.94025937389E+03  0.50400001928E-02 0. -1.
       -1   -1    0    0    0  501  0.00000000000E+00  0.00000000000E+00 -0.44931076673E+03  0.44931076675E+03  0.50400001928E-02 0.  1.
    10030    2    1    2    0    0  0.00000000000E+00  0.00000000000E+00  0.49094860715E+03  0.13895701406E+04  0.12999517841E+04 0.  0.
        1    1    3    3  502    0 -0.41635235348E+03 -0.46129687779E+03  0.41745018612E+02  0.62280553812E+03  0.50400001928E-02 0.  1.
       -1    1    3    3    0  502  0.41635235348E+03  0.46129687779E+03  0.44920358854E+03  0.76676460252E+03  0.50400001928E-02 0. -1.
</event>
<event>
 5   0  0.6688086E-05  0.1300321E+04  0.7818609E-02  0.9029310E-01
        2   -1    0    0  501    0  0.00000000000E+00  0.00000000000E+00  0.13565757334E+04  0.13565757334E+04  0.25500000920E-02 0.  1.
       -2   -1    0    0    0  501  0.00000000000E+00  0.00000000000E+00 -0.31159997326E+03  0.31159997327E+03  0.25500000920E-02 0. -1.
    10030    2    1    2    0    0  0.00000000000E+00  0.00000000000E+00  0.10449757601E+04  0.16681757067E+04  0.13003214407E+04 0.  0.
        5    1    3    3  502    0 -0.33693572745E+03  0.20406657346E+03 -0.14105285665E+03  0.41843380504E+03  0.46999998093E+01 0. -1.
       -5    1    3    3    0  502  0.33693572745E+03 -0.20406657346E+03  0.11860286168E+04  0.12497419016E+04  0.46999998093E+01 0.  1.
</event>
<event>
 5   0  0.6458698E-05  0.1299845E+04  0.7818609E-02  0.9029688E-01
        2   -1    0    0  501    0  0.00000000000E+00  0.00000000000E+00  0.18933050353E+04  0.18933050353E+04  0.25500000920E-02 0.  1.
       -2   -1    0    0    0  501  0.00000000000E+00  0.00000000000E+00 -0.22310157061E+03  0.22310157062E+03  0.25500000920E-02 0. -1.
    10030    2    1    2    0    0  0.00000000000E+00  0.00000000000E+00  0.16702034647E+04  0.21164066059E+04  0.12998451093E+04 0.  0.
        3    1    3    3  502    0  0.20061851792E+03 -0.57563993579E+03  0.12020437366E+04  0.13477827274E+04  0.10100000352E+00 0.  1.
       -3    1    3    3    0  502 -0.20061851792E+03  0.57563993579E+03  0.46815972809E+03  0.76862387851E+03  0.10100000352E+00 0. -1.
</event>
<event>
 5   0  0.6688086E-05  0.1301666E+04  0.7818609E-02  0.9028245E-01
        2   -1    0    0  501    0  0.00000000000E+00  0.00000000000E+00  0.96224421795E+03  0.96224421795E+03  0.25500000920E-02 0.  1.
       -2   -1    0    0    0  501  0.00000000000E+00  0.00000000000E+00 -0.44020361125E+03  0.44020361126E+03  0.25500000920E-02 0. -1.
    10030    2    1    2    0    0  0.00000000000E+00  0.00000000000E+00  0.52204060670E+03  0.14024478292E+04  0.13016656708E+04 0.  0.
        5    1    3    3  502    0 -0.18912756626E+03 -0.62264459749E+03  0.27210043740E+03  0.70534833177E+03  0.46999998093E+01 0. -1.
       -5    1    3    3    0  502  0.18912756626E+03  0.62264459749E+03  0.24994016930E+03  0.69709949744E+03  0.46999998093E+01 0.  1.
</event>
<event>
 5   0  0.3718559E-05  0.1305746E+04  0.7818609E-02  0.9025021E-01
       -1   -1    0    0    0  501  0.00000000000E+00  0.00000000000E+00  0.42685593333E+03  0.42685593336E+03  0.50400001928E-02 0.  1.
        1   -1    0    0  501    0  0.00000000000E+00  0.00000000000E+00 -0.99856417198E+03  0.99856417199E+03  0.50400001928E-02 0. -1.
    10030    2    1    2    0    0  0.00000000000E+00  0.00000000000E+00 -0.57170823865E+03  0.14254201053E+04  0.13057458277E+04 0.  0.
        2    1    3    3  502    0 -0.52027893820E+03  0.34601614204E+03 -0.49247849815E+03  0.79558306621E+03  0.25500000920E-02 0. -1.
       -2    1    3    3    0  502  0.52027893820E+03 -0.34601614204E+03 -0.79229740500E+02  0.62983703914E+03  0.25500000920E-02 0.  1.
</event>
<event>
 5   0  0.6742824E-05  0.1300019E+04  0.7818609E-02  0.9029550E-01
       -2   -1    0    0    0  501  0.00000000000E+00  0.00000000000E+00  0.50757710789E+03  0.50757710790E+03  0.25500000920E-02 0. -1.
        2   -1    0    0  501    0  0.00000000000E+00  0.00000000000E+00 -0.83241031917E+03  0.83241031918E+03  0.25500000920E-02 0.  1.
    10030    2    1    2    0    0  0.00000000000E+00  0.00000000000E+00 -0.32483321128E+03  0.13399874271E+04  0.13000191112E+04 0.  0.
        4    1    3    3  502    0  0.29462841282E+03  0.28606336440E+03 -0.68176519085E+03  0.79589166250E+03  0.12699999809E+01 0.  1.
       -4    1    3    3    0  502 -0.29462841282E+03 -0.28606336440E+03  0.35693197957E+03  0.54409576457E+03  0.12699999809E+01 0. -1.
</event>
<event>
 5   0  0.3689707E-05  0.1300026E+04  0.7818609E-02  0.9029544E-01
       -1   -1    0    0    0  501  0.00000000000E+00  0.00000000000E+00  0.11513639796E+04  0.11513639796E+04  0.50400001928E-02 0. -1.
        1   -1    0    0  501    0  0.00000000000E+00  0.00000000000E+00 -0.36697101022E+03  0.36697101026E+03  0.50400001928E-02 0.  1.
    10030    2    1    2    0    0  0.00000000000E+00  0.00000000000E+00  0.78439296939E+03  0.15183349899E+04  0.13000264655E+04 0.  0.
        1    1    3    3  502    0  0.53130608153E+03 -0.88280956465E+02  0.81722780277E+03  0.97874458424E+03  0.50400001928E-02 0. -1.
       -1    1    3    3    0  502 -0.53130608153E+03  0.88280956465E+02 -0.32834833383E+02  0.53959040563E+03  0.50400001928E-02 0.  1.
</event>
<event>
 5   0  0.6458698E-05  0.1300495E+04  0.7818609E-02  0.9029172E-01
       -2   -1    0    0    0  501  0.00000000000E+00  0.00000000000E+00  0.53068831582E+03  0.53068831582E+03  0.25500000920E-02 0. -1.
        2   -1    0    0  501    0  0.00000000000E+00  0.00000000000E+00 -0.79674269438E+03  0.79674269438E+03  0.25500000920E-02 0.  1.
    10030    2    1    2    0    0  0.00000000000E+00  0.00000000000E+00 -0.26605437856E+03  0.13274310102E+04  0.13004953497E+04 0.  0.
        3    1    3    3  502    0 -0.19632408688E+03 -0.58207745271E+03  0.84613662865E+02  0.62009417848E+03  0.10100000352E+00 0. -1.
       -3    1    3    3    0  502  0.19632408688E+03  0.58207745271E+03 -0.35066804143E+03  0.70733683173E+03  0.10100000352E+00 0.  1.
</event>
<event>
 5   0  0.3689707E-05  0.1299477E+04  0.7818609E-02  0.9029980E-01
       -1   -1    0    0    0  501  0.00000000000E+00  0.00000000000E+00  0.38770655842E+03  0.38770655845E+03  0.50400001928E-02 0. -1.
        1   -1    0    0  501    0  0.00000000000E+00  0.00000000000E+00 -0.10888651684E+04  0.10888651685E+04  0.50400001928E-02 0.  1.
    10030    2    1    2    0    0  0.00000000000E+00  0.00000000000E+00 -0.70115861002E+03  0.14765717269E+04  0.12994770749E+04 0.  0.
        1    1    3    3  502    0  0.36216118811E+03  0.19030508760E+03  0.22297098405E+03  0.46593219710E+03  0.50400001928E-02 0. -1.
       -1    1    3    3    0  502 -0.36216118811E+03 -0.19030508760E+03 -0.92412959407E+03  0.10106395298E+04  0.50400001928E-02 0.  1.
</event>
<event>
 5   0  0.6688086E-05  0.1300940E+04  0.7818609E-02  0.9028820E-01
        2   -1    0    0  501    0  0.00000000000E+00  0.00000000000E+00  0.13620845353E+04  0.13620845353E+04  0.25500000920E-02 0. -1.
       -2   -1    0    0    0  501  0.00000000000E+00  0.00000000000E+00 -0.31063492279E+03  0.31063492280E+03  0.25500000920E-02 0.  1.
    10030    2    1    2    0    0  0.00000000000E+00  0.00000000000E+00  0.10514496125E+04  0.16727194581E+04  0.13009396980E+04 0.  0.
        5    1    3    3  502    0  0.10394844994E+03 -0.22375979960E+03 -0.24811182100E+03  0.34993612829E+03  0.46999998093E+01 0.  1.
       -5    1    3    3    0  502 -0.10394844994E+03  0.22375979960E+03  0.12995614335E+04  0.13227833298E+04  0.46999998093E+01 0. -1.
</event>
<event>
 5   0  0.2512000E-05  0.1299044E+04  0.7818609E-02  0.9030324E-01
        3   -1    0    0  501    0  0.00000000000E+00  0.00000000000E+00  0.87508948179E+03  0.87508948762E+03  0.10100000352E+00 0.  1.
       -3   -1    0    0    0  501  0.00000000000E+00  0.00000000000E+00 -0.48209800528E+03  0.48209801585E+03  0.10100000352E+00 0. -1.
    10030    2    1    2    0    0  0.00000000000E+00  0.00000000000E+00  0.39299147652E+03  0.13571875035E+04  0.12990441174E+04 0.  0.
        4    1    3    3  502    0 -0.41129921797E+03  0.45980172967E+03 -0.15805311963E+02  0.61711919278E+03  0.12699999809E+01 0. -1.
       -4    1    3    3    0  502  0.41129921797E+03 -0.45980172967E+03  0.40879678848E+03  0.74006831069E+03  0.12699999809E+01 0.  1.
</event>
<event>
 5   0  0.3551277E-05  0.1299471E+04  0.7818609E-02  0.9029984E-01
        1   -1    0    0  501    0  0.00000000000E+00  0.00000000000E+00  0.10868096624E+04  0.10868096624E+04  0.50400001928E-02 0. -1.
       -1   -1    0    0    0  501  0.00000000000E+00  0.00000000000E+00 -0.38843647642E+03  0.38843647646E+03  0.50400001928E-02 0.  1.
    10030    2    1    2    0    0  0.00000000000E+00  0.00000000000E+00  0.69837318593E+03  0.14752461388E+04  0.12994714554E+04 0.  0.
        4    1    3    3  502    0 -0.32120569571E+03  0.40064537976E+03 -0.10273650062E+03  0.52368523059E+03  0.12699999809E+01 0. -1.
       -4    1    3    3    0  502  0.32120569571E+03 -0.40064537976E+03  0.80110968656E+03  0.95156090823E+03  0.12699999809E+01 0.  1.
</event>
<event>
 5   0  0.6618060E-05  0.1299982E+04  0.7818609E-02  0.9029579E-01
        2   -1    0    0  501    0  0.00000000000E+00  0.00000000000E+00  0.65789499711E+03  0.65789499711E+03  0.25500000920E-02 0.  1.
       -2   -1    0    0    0  501  0.00000000000E+00  0.00000000000E+00 -0.64218211401E+03  0.64218211402E+03  0.25500000920E-02 0. -1.
    10030    2    1    2    0    0  0.00000000000E+00  0.00000000000E+00  0.15712883099E+02  0.13000771111E+04  0.12999821538E+04 0.  0.
        2    1    3    3  502    0  0.51952260217E+03  0.34662230679E+03 -0.17226124583E+03  0.64786163226E+03  0.25500000920E-02 0. -1.
       -2    1    3    3    0  502 -0.51952260217E+03 -0.34662230679E+03  0.18797412893E+03  0.65221547887E+03  0.25500000920E-02 0.  1.
</event>
<event>
 5   0  0.6458698E-05  0.1300080E+04  0.7818609E-02  0.9029502E-01
        2   -1    0    0  501    0  0.00000000000E+00  0.00000000000E+00  0.17557991322E+04  0.17557991322E+04  0.25500000920E-02 0. -1.
       -2   -1    0    0    0  501  0.00000000000E+00  0.00000000000E+00 -0.24066075077E+03  0.24066075078E+03  0.25500000920E-02 0.  1.
    10030    2    1    2    0    0  0.00000000000E+00  0.00000000000E+00  0.15151383814E+04  0.19964598830E+04  0.13000799012E+04 0.  0.
        3    1    3    3  502    0  0.25055224454E+03  0.21766363676E+03 -0.10074184125E+03  0.34684696163E+03  0.10100000352E+00 0.  1.
       -3    1    3    3    0  502 -0.25055224454E+03 -0.21766363676E+03  0.16158802227E+04  0.16496129213E+04  0.10100000352E+00 0. -1.
</event>
<event>
 5   0  0.3552698E-05  0.1299972E+04  0.7818609E-02  0.9029587E-01
       -1   -1    0    0    0  501  0.00000000000E+00  0.00000000000E+00  0.31803108312E+03  0.31803108316E+03  0.50400001928E-02 0.  1.
        1   -1    0    0  501    0  0.00000000000E+00  0.00000000000E+00 -0.13284302508E+04  0.13284302508E+04  0.50400001928E-02 0. -1.
    10030    2    1    2    0    0  0.00000000000E+00  0.00000000000E+00 -0.10103991677E+04  0.16464613340E+04  0.12999724790E+04 0.  0.
        5    1    3    3  502    0 -0.28709577702E+03 -0.31404001787E+02  0.23227853660E+03  0.37065564217E+03  0.46999998093E+01 0.  1.
       -5    1    3    3    0  502  0.28709577702E+03  0.31404001787E+02 -0.12426777043E+04  0.12758056918E+04  0.46999998093E+01 0. -1.
</event>
<event>
 5   0  0.2512000E-05  0.1298628E+04  0.7818609E-02  0.9030654E-01
        4   -1    0    0  501    0  0.00000000000E+00  0.00000000000E+00  0.18500306033E+04  0.18500310392E+04  0.12699999809E+01 0.  1.
       -4   -1    0    0    0  501  0.00000000000E+00  0.00000000000E+00 -0.22789070248E+03  0.22789424121E+03  0.12699999809E+01 0. -1.
    10030    2    1    2    0    0  0.00000000000E+00  0.00000000000E+00  0.16221399008E+04  0.20779252804E+04  0.12986283584E+04 0.  0.
        4    1    3    3  502    0  0.18348768051E+03  0.72759328195E+02 -0.17872088873E+03  0.26627883451E+03  0.12699999809E+01 0. -1.
       -4    1    3    3    0  502 -0.18348768051E+03 -0.72759328195E+02  0.18008607896E+04  0.18116464459E+04  0.12699999809E+01 0.  1.
</event>
<event>
 5   0  0.6742824E-05  0.1300228E+04  0.7818609E-02  0.9029385E-01
        2   -1    0    0  501    0  0.00000000000E+00  0.00000000000E+00  0.10194675185E+04  0.10194675185E+04  0.25500000920E-02 0. -1.
       -2   -1    0    0    0  501  0.00000000000E+00  0.00000000000E+00 -0.41457710965E+03  0.41457710966E+03  0.25500000920E-02 0.  1.
    10030    2    1    2    0    0  0.00000000000E+00  0.00000000000E+00  0.60489040883E+03  0.14340446281E+04  0.13002275142E+04 0.  0.
        4    1    3    3  502    0 -0.23602770556E+03  0.34681893397E+03  0.85020133872E+03  0.94806981811E+03  0.12699999809E+01 0. -1.
       -4    1    3    3    0  502  0.23602770556E+03 -0.34681893397E+03 -0.24531092989E+03  0.48597481002E+03  0.12699999809E+01 0.  1.
</event>
<event>
 5   0  0.6618060E-05  0.1299849E+04  0.7818609E-02  0.9029685E-01
       -2   -1    0    0    0  501  0.00000000000E+00  0.00000000000E+00  0.65410846799E+03  0.65410846800E+03  0.25500000920E-02 0.  1.
        2   -1    0    0  501    0  0.00000000000E+00  0.00000000000E+00 -0.64576738476E+03  0.64576738477E+03  0.25500000920E-02 0. -1.
    10030    2    1    2    0    0  0.00000000000E+00  0.00000000000E+00  0.83410832308E+01  0.12998758528E+04  0.12998490908E+04 0.  0.
        2    1    3    3  502    0  0.36794146820E+03 -0.53565047614E+03  0.14148628338E+02  0.65000195407E+03  0.25500000920E-02 0.  1.
       -2    1    3    3    0  502 -0.36794146820E+03  0.53565047614E+03 -0.58075451077E+01  0.64987389869E+03  0.25500000920E-02 0. -1.
</event>
<event>
 5   0  0.3718559E-05  0.1298541E+04  0.7818609E-02  0.9030723E-01
        1   -1    0    0  501    0  0.00000000000E+00  0.00000000000E+00  0.12468759331E+04  0.12468759331E+04  0.50400001928E-02 0.  1.
       -1   -1    0    0    0  501  0.00000000000E+00  0.00000000000E+00 -0.33808683155E+03  0.33808683159E+03  0.50400001928E-02 0. -1.
    10030    2    1    2    0    0  0.00000000000E+00  0.00000000000E+00  0.90878910154E+03  0.15849627647E+04  0.12985412332E+04 0.  0.
        2    1    3    3  502    0 -0.59537022868E+03 -0.12650651071E+03  0.17852716668E+03  0.63430399313E+03  0.25500000920E-02 0. -1.
       -2    1    3    3    0  502  0.59537022868E+03  0.12650651071E+03  0.73026193486E+03  0.95065877157E+03  0.25500000920E-02 0.  1.
</event>
<event>
 5   0  0.6618060E-05  0.1300268E+04  0.7818609E-02  0.9029353E-01
       -2   -1    0    0    0  501  0.00000000000E+00  0.00000000000E+00  0.27356378837E+03  0.27356378838E+03  0.25500000920E-02 0.  1.
        2   -1    0    0  501    0  0.00000000000E+00  0.00000000000E+00 -0.15450662487E+04  0.15450662487E+04  0.25500000920E-02 0. -1.
    10030    2    1    2    0    0  0.00000000000E+00  0.00000000000E+00 -0.12715024603E+04  0.18186300371E+04  0.13002679359E+04 0.  0.
        2    1    3    3  502    0  0.23555032767E+03  0.51169714877E+03 -0.18176607384E+03  0.59190948170E+03  0.25500000920E-02 0.  1.
       -2    1    3    3    0  502 -0.23555032767E+03 -0.51169714877E+03 -0.10897363865E+04  0.12267205554E+04  0.25500000920E-02 0. -1.
</event>
<event>
 5   0  0.6688086E-05  0.1299737E+04  0.7818609E-02  0.9029774E-01
        2   -1    0    0  501    0  0.00000000000E+00  0.00000000000E+00  0.44612104357E+03  0.44612104358E+03  0.25500000920E-02 0.  1.
       -2   -1    0    0    0  501  0.00000000000E+00  0.00000000000E+00 -0.94666900449E+03  0.94666900449E+03  0.25500000920E-02 0. -1.
    10030    2    1    2    0    0  0.00000000000E+00  0.00000000000E+00 -0.50054796092E+03  0.13927900481E+04  0.12997368414E+04 0.  0.
        5    1    3    3  502    0  0.62681026487E+02  0.58599218262E+03 -0.54372468744E+03  0.80185682943E+03  0.46999998093E+01 0. -1.
       -5    1    3    3    0  502 -0.62681026487E+02 -0.58599218262E+03  0.43176726522E+02  0.59093321864E+03  0.46999998093E+01 0.  1.
</event>
<event>
 5   0  0.6742824E-05  0.1300317E+04  0.7818609E-02  0.9029314E-01
       -2   -1    0    0    0  501  0.00000000000E+00  0.00000000000E+00  0.66038423665E+03  0.66038423666E+03  0.25500000920E-02 0. -1.
        2   -1    0    0  501    0  0.00000000000E+00  0.00000000000E+00 -0.64009064653E+03  0.64009064654E+03  0.25500000920E-02 0.  1.
    10030    2    1    2    0    0  0.00000000000E+00  0.00000000000E+00  0.20293590119E+02  0.13004748832E+04  0.13003165353E+04 0.  0.
        4    1    3    3  502    0  0.33266575513E+03  0.48064146337E+03 -0.27453051938E+03  0.64579512225E+03  0.12699999809E+01 0. -1.
       -4    1    3    3    0  502 -0.33266575513E+03 -0.48064146337E+03  0.29482410950E+03  0.65467976095E+03  0.12699999809E+01 0.  1.
</event>
<event>
 5   0  0.6618060E-05  0.1299985E+04  0.7818609E-02  0.9029577E-01
       -2   -1    0    0    0  501  0.00000000000E+00  0.00000000000E+00  0.30819042131E+03  0.30819042132E+03  0.25500000920E-02 0.  1.
        2   -1    0    0  501    0  0.00000000000E+00  0.00000000000E+00 -0.13708744455E+04  0.13708744455E+04  0.25500000920E-02 0. -1.
    10030    2    1    2    0    0  0.00000000000E+00  0.00000000000E+00 -0.10626840242E+04  0.16790648668E+04  0.12999851890E+04 0.  0.
        2    1    3    3  502    0 -0.39673371385E+03 -0.31032318631E+03 -0.10619885382E+04  0.11753798428E+04  0.25500000920E-02 0. -1.
       -2    1    3    3    0  502  0.39673371385E+03  0.31032318631E+03 -0.69548597794E+00  0.50368502397E+03  0.25500000920E-02 0.  1.
</event>
<event>
 5   0  0.6688086E-05  0.1299706E+04  0.7818609E-02  0.9029798E-01
        2   -1    0    0  501    0  0.00000000000E+00  0.00000000000E+00  0.22573753941E+04  0.22573753941E+04  0.25500000920E-02 0.  1.
       -2   -1    0    0    0  501  0.00000000000E+00  0.00000000000E+00 -0.18707966621E+03  0.18707966623E+03  0.25500000920E-02 0. -1.
    10030    2    1    2    0    0  0.00000000000E+00  0.00000000000E+00  0.20702957279E+04  0.24444550604E+04  0.12997061749E+04 0.  0.
        5    1    3    3  502    0 -0.31733309859E+03 -0.43953803209E+03  0.36122918379E+03  0.65146188709E+03  0.46999998093E+01 0. -1.
       -5    1    3    3    0  502  0.31733309859E+03  0.43953803209E+03  0.17090665441E+04  0.17929931733E+04  0.46999998093E+01 0.  1.
</event>
<event>
 5   0  0.3689707E-05  0.1299935E+04  0.7818609E-02  0.9029616E-01
       -1   -1    0    0    0  501  0.00000000000E+00  0.00000000000E+00  0.28176986562E+03  0.28176986567E+03  0.50400001928E-02 0.  1.
        1   -1    0    0  501    0  0.00000000000E+00  0.00000000000E+00 -0.14993014339E+04  0.14993014339E+04  0.50400001928E-02 0. -1.
    10030    2    1    2    0    0  0.00000000000E+00  0.00000000000E+00 -0.12175315683E+04  0.17810712996E+04  0.12999353270E+04 0.  0.
        1    1    3    3  502    0 -0.37738389262E+03 -0.31840761106E+03 -0.29646126638E+02  0.49465230420E+03  0.50400001928E-02 0.  1.
       -1    1    3    3    0  502  0.37738389262E+03  0.31840761106E+03 -0.11878854416E+04  0.12864189954E+04  0.50400001928E-02 0. -1.
</event>
<event>
 5   0  0.6458698E-05  0.1300140E+04  0.7818609E-02  0.9029454E-01
       -2   -1    0    0    0  501  0.00000000000E+00  0.00000000000E+00  0.56870196338E+03  0.56870196338E+03  0.25500000920E-02 0. -1.
        2   -1    0    0  501    0  0.00000000000E+00  0.00000000000E+00 -0.74307994694E+03  0.74307994695E+03  0.25500000920E-02 0.  1.
    10030    2    1    2    0    0  0.00000000000E+00  0.00000000000E+00 -0.17437798357E+03  0.13117819103E+04  0.13001400306E+04 0.  0.
        3    1    3    3  502    0 -0.10929048817E+03  0.57529918097E+03  0.19761051801E+03  0.61803194534E+03  0.10100000352E+00 0. -1.
       -3    1    3    3    0  502  0.10929048817E+03 -0.57529918097E+03 -0.37198850158E+03  0.69374996500E+03  0.10100000352E+00 0.  1.
</event>
<event>
 5   0  0.3689707E-05  0.1299890E+04  0.7818609E-02  0.9029652E-01
       -1   -1    0    0    0  501  0.00000000000E+00  0.00000000000E+00  0.20917141125E+03  0.20917141131E+03  0.50400001928E-02 0. -1.
        1   -1    0    0  501    0  0.00000000000E+00  0.00000000000E+00 -0.20195332227E+04  0.20195332227E+04  0.50400001928E-02 0.  1.
    10030    2    1    2    0    0  0.00000000000E+00  0.00000000000E+00 -0.18103618114E+04  0.22287046340E+04  0.12998901713E+04 0.  0.
        1    1    3    3  502    0  0.32445161185E+01 -0.55449925185E+03 -0.32388424786E+03  0.64216894445E+03  0.50400001928E-02 0. -1.
       -1    1    3    3    0  502 -0.32445161185E+01  0.55449925185E+03 -0.14864775635E+04  0.15865356895E+04  0.50400001928E-02 0.  1.
</event>
<event>
 5   0  0.6618060E-05  0.1299432E+04  0.7818609E-02  0.9030016E-01
       -2   -1    0    0    0  501  0.00000000000E+00  0.00000000000E+00  0.14103392892E+04  0.14103392892E+04  0.25500000920E-02 0.  1.
        2   -1    0    0  501    0  0.00000000000E+00  0.00000000000E+00 -0.29931168562E+03  0.29931168563E+03  0.25500000920E-02 0. -1.
    10030    2    1    2    0    0  0.00000000000E+00  0.00000000000E+00  0.11110276036E+04  0.17096509748E+04  0.12994322298E+04 0.  0.
        2    1    3    3  502    0  0.41404637504E+03 -0.48943059958E+03  0.41655843529E+03  0.76452445514E+03  0.25500000920E-02 0. -1.
       -2    1    3    3    0  502 -0.41404637504E+03  0.48943059958E+03  0.69446916826E+03  0.94512651966E+03  0.25500000920E-02 0.  1.
</event>
<event>
 5   0  0.6688086E-05  0.1299206E+04  0.7818609E-02  0.9030195E-01
       -2   -1    0    0    0  501  0.00000000000E+00  0.00000000000E+00  0.48867467190E+03  0.48867467190E+03  0.25500000920E-02 0. -1.
        2   -1    0    0  501    0  0.00000000000E+00  0.00000000000E+00 -0.86352697929E+03  0.86352697929E+03  0.25500000920E-02 0.  1.
    10030    2    1    2    0    0  0.00000000000E+00  0.00000000000E+00 -0.37485230739E+03  0.13522016512E+04  0.12992055469E+04 0.  0.
        5    1    3    3  502    0 -0.13490361946E+03  0.32273256011E+03 -0.75711684798E+03  0.83402835886E+03  0.46999998093E+01 0.  1.
       -5    1    3    3    0  502  0.13490361946E+03 -0.32273256011E+03  0.38226454059E+03  0.51817329233E+03  0.46999998093E+01 0. -1.
</event>
<event>
 5   0  0.3689707E-05  0.1299920E+04  0.7818609E-02  0.9029629E-01
        1   -1    0    0  501    0  0.00000000000E+00  0.00000000000E+00  0.25594012633E+04  0.25594012633E+04  0.50400001928E-02 0.  1.
       -1   -1    0    0    0  501  0.00000000000E+00  0.00000000000E+00 -0.16505732701E+03  0.16505732708E+03  0.50400001928E-02 0. -1.
    10030    2    1    2    0    0  0.00000000000E+00  0.00000000000E+00  0.23943439363E+04  0.27244585904E+04  0.12999198920E+04 0.  0.
        1    1    3    3  502    0 -0.46332333666E+03 -0.26811134780E+03  0.19697929800E+04  0.20412340858E+04  0.50400001928E-02 0. -1.
       -1    1    3    3    0  502  0.46332333666E+03  0.26811134780E+03  0.42455095631E+03  0.68322450457E+03  0.50400001928E-02 0.  1.
</event>
<event>
 5   0  0.3551277E-05  0.1298908E+04  0.7818609E-02  0.9030432E-01
        1   -1    0    0  501    0  0.00000000000E+00  0.00000000000E+00  0.70378214843E+03  0.70378214844E+03  0.50400001928E-02 0. -1.
       -1   -1    0    0    0  501  0.00000000000E+00  0.00000000000E+00 -0.59931948249E+03  0.59931948251E+03  0.50400001928E-02 0.  1.
    10030    2    1    2    0    0  0.00000000000E+00  0.00000000000E+00  0.10446266594E+03  0.13031016310E+04  0.12989077766E+04 0.  0.
        4    1    3    3  502    0  0.22907587293E+01  0.26721028905E+03 -0.54161073575E+03  0.60394568310E+03  0.12699999809E+01 0.  1.
       -4    1    3    3    0  502 -0.22907587293E+01 -0.26721028905E+03  0.64607340169E+03  0.69915594785E+03  0.12699999809E+01 0. -1.
</event>
<event>
 5   0  0.3631841E-05  0.1300609E+04  0.7818609E-02  0.9029082E-01
       -1   -1    0    0    0  501  0.00000000000E+00  0.00000000000E+00  0.73362944280E+03  0.73362944282E+03  0.50400001928E-02 0. -1.
        1   -1    0    0  501    0  0.00000000000E+00  0.00000000000E+00 -0.57644346768E+03  0.57644346770E+03  0.50400001928E-02 0.  1.
    10030    2    1    2    0    0  0.00000000000E+00  0.00000000000E+00  0.15718597512E+03  0.13100729105E+04  0.13006089343E+04 0.  0.
        3    1    3    3  502    0 -0.19588159043E+03  0.47116189148E+02  0.70140143327E+03  0.72976264192E+03  0.10100000352E+00 0. -1.
       -3    1    3    3    0  502  0.19588159043E+03 -0.47116189148E+02 -0.54421545815E+03  0.58031026860E+03  0.10100000352E+00 0.  1.
</event>
<event>
 5   0  0.2512000E-05  0.1295790E+04  0.7818609E-02  0.9032910E-01
        3   -1    0    0  501    0  0.00000000000E+00  0.00000000000E+00  0.80480937012E+03  0.80480937646E+03  0.10100000352E+00 0.  1.
       -3   -1    0    0    0  501  0.00000000000E+00  0.00000000000E+00 -0.52157440217E+03  0.52157441195E+03  0.10100000352E+00 0. -1.
    10030    2    1    2    0    0  0.00000000000E+00  0.00000000000E+00  0.28323496796E+03  0.13263837884E+04  0.12957900706E+04 0.  0.
        4    1    3    3  502    0 -0.41376613169E+03 -0.14497611901E+03  0.62989760420E+03  0.76745885330E+03  0.12699999809E+01 0.  1.
       -4    1    3    3    0  502  0.41376613169E+03  0.14497611901E+03 -0.34666263625E+03  0.55892493511E+03  0.12699999809E+01 0. -1.
</event>
<event>
 5   0  0.3552698E-05  0.1299978E+04  0.7818609E-02  0.9029582E-01
        1   -1    0    0  501    0  0.00000000000E+00  0.00000000000E+00  0.10819944170E+04  0.10819944170E+04  0.50400001928E-02 0. -1.
       -1   -1    0    0    0  501  0.00000000000E+00  0.00000000000E+00 -0.39046962113E+03  0.39046962116E+03  0.50400001928E-02 0.  1.
    10030    2    1    2    0    0  0.00000000000E+00  0.00000000000E+00  0.69152479588E+03  0.14724640382E+04  0.12999783846E+04 0.  0.
        5    1    3    3  502    0  0.16941968725E+03  0.45673175409E+03 -0.14162978187E+03  0.50733421995E+03  0.46999998093E+01 0.  1.
       -5    1    3    3    0  502 -0.16941968725E+03 -0.45673175409E+03  0.83315457776E+03  0.96512981824E+03  0.46999998093E+01 0. -1.
</event>
<event>
 5   0  0.3631841E-05  0.1300607E+04  0.7818609E-02  0.9029084E-01
       -1   -1    0    0    0  501  0.00000000000E+00  0.00000000000E+00  0.25681521410E+03  0.25681521415E+03  0.50400001928E-02 0. -1.
        1   -1    0    0  501    0  0.00000000000E+00  0.00000000000E+00 -0.16466887327E+04  0.16466887327E+04  0.50400001928E-02 0.  1.
    10030    2    1    2    0    0  0.00000000000E+00  0.00000000000E+00 -0.13898735186E+04  0.19035039469E+04  0.13006071190E+04 0.  0.
        3    1    3    3  502    0 -0.56300557014E+03  0.99520008390E+02 -0.11484371464E+04  0.12828824551E+04  0.10100000352E+00 0.  1.
       -3    1    3    3    0  502  0.56300557014E+03 -0.99520008390E+02 -0.24143637221E+03  0.62062149182E+03  0.10100000352E+00 0. -1.
</event>
<event>
 5   0  0.6688086E-05  0.1299986E+04  0.7818609E-02  0.9029576E-01
        2   -1    0    0  501    0  0.00000000000E+00  0.00000000000E+00  0.75248280063E+03  0.75248280063E+03  0.25500000920E-02 0.  1.
       -2   -1    0    0    0  501  0.00000000000E+00  0.00000000000E+00 -0.56146278519E+03  0.56146278519E+03  0.25500000920E-02 0. -1.
    10030    2    1    2    0    0  0.00000000000E+00  0.00000000000E+00  0.19102001544E+03  0.13139455858E+04  0.12999862908E+04 0.  0.
        5    1    3    3  502    0 -0.35620436695E+03  0.40694134438E+02 -0.45246610301E+03  0.57730860723E+03  0.46999998093E+01 0. -1.
       -5    1    3    3    0  502  0.35620436695E+03 -0.40694134438E+02  0.64348611844E+03  0.73663697860E+03  0.46999998093E+01 0.  1.
</event>
<event>
 5   0  0.3552698E-05  0.1300010E+04  0.7818609E-02  0.9029557E-01
       -1   -1    0    0    0  501  0.00000000000E+00  0.00000000000E+00  0.74499053793E+03  0.74499053794E+03  0.50400001928E-02 0.  1.
        1   -1    0    0  501    0  0.00000000000E+00  0.00000000000E+00 -0.56713009877E+03  0.56713009879E+03  0.50400001928E-02 0. -1.
    10030    2    1    2    0    0  0.00000000000E+00  0.00000000000E+00  0.17786043916E+03  0.13121206367E+04  0.13000100882E+04 0.  0.
        5    1    3    3  502    0 -0.47146824955E+03 -0.30447669470E+03 -0.24199007059E+03  0.61120344585E+03  0.46999998093E+01 0. -1.
       -5    1    3    3    0  502  0.47146824955E+03  0.30447669470E+03  0.41985050974E+03  0.70091719089E+03  0.46999998093E+01 0.  1.
</event>
<event>
 5   0  0.6688086E-05  0.1300151E+04  0.7818609E-02  0.9029446E-01
       -2   -1    0    0    0  501  0.00000000000E+00  0.00000000000E+00  0.34769349767E+03  0.34769349768E+03  0.25500000920E-02 0.  1.
        2   -1    0    0  501    0  0.00000000000E+00  0.00000000000E+00 -0.12154326887E+04  0.12154326887E+04  0.25500000920E-02 0. -1.
    10030    2    1    2    0    0  0.00000000000E+00  0.00000000000E+00 -0.86773919100E+03  0.15631261863E+04  0.13001508262E+04 0.  0.
        5    1    3    3  502    0 -0.54642861250E+02 -0.17553937058E+03 -0.11835049284E+04  0.11977086117E+04  0.46999998093E+01 0. -1.
       -5    1    3    3    0  502  0.54642861250E+02  0.17553937058E+03  0.31576573745E+03  0.36541757464E+03  0.46999998093E+01 0.  1.
</event>
<event>
 5   0  0.3551277E-05  0.1301165E+04  0.7818609E-02  0.9028642E-01
        1   -1    0    0  501    0  0.00000000000E+00  0.00000000000E+00  0.10624860172E+04  0.10624860172E+04  0.50400001928E-02 0. -1.
       -1   -1    0    0    0  501  0.00000000000E+00  0.00000000000E+00 -0.39836517762E+03  0.39836517765E+03  0.50400001928E-02 0.  1.
    10030    2    1    2    0    0  0.00000000000E+00  0.00000000000E+00  0.66412083961E+03  0.14608511949E+04  0.13011647567E+04 0.  0.
        4    1    3    3  502    0  0.63511540767E+03 -0.13615544676E+03  0.37324978938E+03  0.74915078917E+03  0.12699999809E+01 0.  1.
       -4    1    3    3    0  502 -0.63511540767E+03  0.13615544676E+03  0.29087105023E+03  0.71170040573E+03  0.12699999809E+01 0. -1.
</event>
<event>
 5   0  0.3552698E-05  0.1301689E+04  0.7818609E-02  0.9028227E-01
       -1   -1    0    0    0  501  0.00000000000E+00  0.00000000000E+00  0.64627173269E+03  0.64627173271E+03  0.50400001928E-02 0.  1.
        1   -1    0    0  501    0  0.00000000000E+00  0.00000000000E+00 -0.65544973200E+03  0.65544973202E+03  0.50400001928E-02 0. -1.
    10030    2    1    2    0    0  0.00000000000E+00  0.00000000000E+00 -0.91779993151E+01  0.13017214647E+04  0.13016891088E+04 0.  0.
        5    1    3    3  502    0  0.43701555347E+03  0.49167279934E+02 -0.48436808600E+03  0.65424349300E+03  0.46999998093E+01 0. -1.
       -5    1    3    3    0  502 -0.43701555347E+03 -0.49167279934E+02  0.47519008669E+03  0.64747797173E+03  0.46999998093E+01 0.  1.
</event>
<event>
 5   0  0.6458698E-05  0.1299736E+04  0.7818609E-02  0.9029774E-01
       -2   -1    0    0    0  501  0.00000000000E+00  0.00000000000E+00  0.12119938925E+04  0.12119938925E+04  0.25500000920E-02 0. -1.
        2   -1    0    0  501    0  0.00000000000E+00  0.00000000000E+00 -0.34845779060E+03  0.34845779061E+03  0.25500000920E-02 0.  1.
    10030    2    1    2    0    0  0.00000000000E+00  0.00000000000E+00  0.86353610193E+03  0.15604516832E+04  0.12997364564E+04 0.  0.
        3    1    3    3  502    0  0.29401900882E+03 -0.21091740259E+03 -0.21632348994E+03  0.42157940031E+03  0.10100000352E+00 0.  1.
       -3    1    3    3    0  502 -0.29401900882E+03  0.21091740259E+03  0.10798595919E+04  0.11388722828E+04  0.10100000352E+00 0. -1.
</event>
<event>
 5   0  0.6688086E-05  0.1300497E+04  0.7818609E-02  0.9029171E-01
        2   -1    0    0  501    0  0.00000000000E+00  0.00000000000E+00  0.15419902819E+04  0.15419902819E+04  0.25500000920E-02 0. -1.
       -2   -1    0    0    0  501  0.00000000000E+00  0.00000000000E+00 -0.27420620665E+03  0.27420620666E+03  0.25500000920E-02 0.  1.
    10030    2    1    2    0    0  0.00000000000E+00  0.00000000000E+00  0.12677840753E+04  0.18161964886E+04  0.13004972986E+04 0.  0.
        5    1    3    3  502    0 -0.35026033899E+03 -0.28247210694E+03 -0.21632023179E+02  0.45051396281E+03  0.46999998093E+01 0.  1.
       -5    1    3    3    0  502  0.35026033899E+03  0.28247210694E+03  0.12894160985E+04  0.13656825258E+04  0.46999998093E+01 0. -1.
</event>
<event>
 5   0  0.3552698E-05  0.1301866E+04  0.7818609E-02  0.9028087E-01
        1   -1    0    0  501    0  0.00000000000E+00  0.00000000000E+00  0.98717050377E+03  0.98717050378E+03  0.50400001928E-02 0. -1.
       -1   -1    0    0    0  501  0.00000000000E+00  0.00000000000E+00 -0.42922053295E+03  0.42922053298E+03  0.50400001928E-02 0.  1.
    10030    2    1    2    0    0  0.00000000000E+00  0.00000000000E+00  0.55794997082E+03  0.14163910368E+04  0.13018661218E+04 0.  0.
        5    1    3    3  502    0  0.34318739582E+03  0.54923310427E+03  0.20798824181E+03  0.68023215904E+03  0.46999998093E+01 0. -1.
       -5    1    3    3    0  502 -0.34318739582E+03 -0.54923310427E+03  0.34996172901E+03  0.73615887772E+03  0.46999998093E+01 0.  1.
</event>
<event>
 5   0  0.6742824E-05  0.1299432E+04  0.7818609E-02  0.9030016E-01
        2   -1    0    0  501    0  0.00000000000E+00  0.00000000000E+00  0.16549761155E+04  0.16549761155E+04  0.25500000920E-02 0.  1.
       -2   -1    0    0    0  501  0.00000000000E+00  0.00000000000E+00 -0.25506773794E+03  0.25506773796E+03  0.25500000920E-02 0. -1.
    10030    2    1    2    0    0  0.00000000000E+00  0.00000000000E+00  0.13999083776E+04  0.19100438535E+04  0.12994322055E+04 0.  0.
        4    1    3    3  502    0 -0.30211797244E+03  0.48126795379E+03  0.11629987430E+04  0.12943963079E+04  0.12699999809E+01 0.  1.
       -4    1    3    3    0  502  0.30211797244E+03 -0.48126795379E+03  0.23690963458E+03  0.61564754565E+03  0.12699999809E+01 0. -1.
</event>
<event>
 5   0  0.3689707E-05  0.1300074E+04  0.7818609E-02  0.9029506E-01
       -1   -1    0    0    0  501  0.00000000000E+00  0.00000000000E+00  0.18584287902E+03  0.18584287909E+03  0.50400001928E-02 0. -1.
        1   -1    0    0  501    0  0.00000000000E+00  0.00000000000E+00 -0.22736862343E+04  0.22736862343E+04  0.50400001928E-02 0.  1.
    10030    2    1    2    0    0  0.00000000000E+00  0.00000000000E+00 -0.20878433553E+04  0.24595291134E+04  0.13000744530E+04 0.  0.
        1    1    3    3  502    0  0.38105154173E+03 -0.10572402352E+03 -0.20199529745E+04  0.20582973220E+04  0.50400001928E-02 0.  1.
       -1    1    3    3    0  502 -0.38105154173E+03  0.10572402352E+03 -0.67890380819E+02  0.40123179141E+03  0.50400001928E-02 0. -1.
</event>
<event>
 5   0  0.3718559E-05  0.1301597E+04  0.7818609E-02  0.9028300E-01
       -1   -1    0    0    0  501  0.00000000000E+00  0.00000000000E+00  0.44283503482E+03  0.44283503485E+03  0.50400001928E-02 0.  1.
        1   -1    0    0  501    0  0.00000000000E+00  0.00000000000E+00 -0.95642549927E+03  0.95642549929E+03  0.50400001928E-02 0. -1.
    10030    2    1    2    0    0  0.00000000000E+00  0.00000000000E+00 -0.51359046445E+03  0.13992605341E+04  0.13015970487E+04 0.  0.
        2    1    3    3  502    0 -0.58888385856E+03 -0.63272353813E+02 -0.54675777568E+03  0.80605933709E+03  0.25500000920E-02 0. -1.
       -2    1    3    3    0  502  0.58888385856E+03  0.63272353813E+02  0.33167311231E+02  0.59320119704E+03  0.25500000920E-02 0.  1.
</event>
<event>
 5   0  0.3551277E-05  0.1299977E+04  0.7818609E-02  0.9029583E-01
       -1   -1    0    0    0  501  0.00000000000E+00  0.00000000000E+00  0.60574866023E+03  0.60574866025E+03  0.50400001928E-02 0. -1.
        1   -1    0    0  501    0  0.00000000000E+00  0.00000000000E+00 -0.69745930009E+03  0.69745930011E+03  0.50400001928E-02 0.  1.
    10030    2    1    2    0    0  0.00000000000E+00  0.00000000000E+00 -0.91710639858E+02  0.13032079604E+04  0.12999769792E+04 0.  0.
        4    1    3    3  502    0  0.22383071308E+03 -0.42250077921E+03 -0.48726357849E+03  0.68266719884E+03  0.12699999809E+01 0.  1.
       -4    1    3    3    0  502 -0.22383071308E+03  0.42250077921E+03  0.39555293863E+03  0.62054076152E+03  0.12699999809E+01 0. -1.
</event>
<event>
 5   0  0.3551277E-05  0.1300145E+04  0.7818609E-02  0.9029451E-01
       -1   -1    0    0    0  501  0.00000000000E+00  0.00000000000E+00  0.71492913569E+03  0.71492913571E+03  0.50400001928E-02 0. -1.
        1   -1    0    0  501    0  0.00000000000E+00  0.00000000000E+00 -0.59109910963E+03  0.59109910965E+03  0.50400001928E-02 0.  1.
    10030    2    1    2    0    0  0.00000000000E+00  0.00000000000E+00  0.12383002606E+03  0.13060282454E+04  0.13001445698E+04 0.  0.
        4    1    3    3  502    0  0.24955060140E+03 -0.25321334215E+03 -0.48479036985E+03  0.60117868799E+03  0.12699999809E+01 0.  1.
       -4    1    3    3    0  502 -0.24955060140E+03  0.25321334215E+03  0.60862039591E+03  0.70484955736E+03  0.12699999809E+01 0. -1.
</event>
<event>
 5   0  0.3689707E-05  0.1300497E+04  0.7818609E-02  0.9029171E-01
        1   -1    0    0  501    0  0.00000000000E+00  0.00000000000E+00  0.77253181461E+03  0.77253181463E+03  0.50400001928E-02 0. -1.
       -1   -1    0    0    0  501  0.00000000000E+00  0.00000000000E+00 -0.54732153574E+03  0.54732153577E+03  0.50400001928E-02 0.  1.
    10030    2    1    2    0    0  0.00000000000E+00  0.00000000000E+00  0.22521027887E+03  0.13198533504E+04  0.13004972883E+04 0.  0.
        1    1    3    3  502    0  0.55188681535E+02 -0.49787928127E+03 -0.30816629248E+03  0.58812926567E+03  0.50400001928E-02 0.  1.
       -1    1    3    3    0  502 -0.55188681535E+02  0.49787928127E+03  0.53337657135E+03  0.73172408473E+03  0.50400001928E-02 0. -1.
</event>
<event>
 5   0  0.3552698E-05  0.1300462E+04  0.7818609E-02  0.9029199E-01
        1   -1    0    0  501    0  0.00000000000E+00  0.00000000000E+00  0.16439830789E+04  0.16439830789E+04  0.50400001928E-02 0.  1.
       -1   -1    0    0    0  501  0.00000000000E+00  0.00000000000E+00 -0.25718043288E+03  0.25718043293E+03  0.50400001928E-02 0. -1.
    10030    2    1    2    0    0  0.00000000000E+00  0.00000000000E+00  0.13868026460E+04  0.19011635118E+04  0.13004618871E+04 0.  0.
        5    1    3    3  502    0 -0.64898617188E+03  0.25994296561E+02  0.64907288768E+03  0.91824640390E+03  0.46999998093E+01 0. -1.
       -5    1    3    3    0  502  0.64898617188E+03 -0.25994296561E+02  0.73772975833E+03  0.98291710794E+03  0.46999998093E+01 0.  1.
</event>
<event>
 5   0  0.6742824E-05  0.1299841E+04  0.7818609E-02  0.9029691E-01
       -2   -1    0    0    0  501  0.00000000000E+00  0.00000000000E+00  0.66240521023E+03  0.66240521024E+03  0.25500000920E-02 0.  1.
        2   -1    0    0  501    0  0.00000000000E+00  0.00000000000E+00 -0.63767143817E+03  0.63767143817E+03  0.25500000920E-02 0. -1.
    10030    2    1    2    0    0  0.00000000000E+00  0.00000000000E+00  0.24733772068E+02  0.13000766484E+04  0.12998413489E+04 0.  0.
        4    1    3    3  502    0 -0.34425355381E+03 -0.55110663688E+03  0.25262460007E+02  0.65028366065E+03  0.12699999809E+01 0.  1.
       -4    1    3    3    0  502  0.34425355381E+03  0.55110663688E+03 -0.52868793848E+00  0.64979298776E+03  0.12699999809E+01 0. -1.
</event>
<event>
 5   0  0.3552698E-05  0.1300240E+04  0.7818609E-02  0.9029375E-01
       -1   -1    0    0    0  501  0.00000000000E+00  0.00000000000E+00  0.34042101326E+03  0.34042101330E+03  0.50400001928E-02 0.  1.
        1   -1    0    0  501    0  0.00000000000E+00  0.00000000000E+00 -0.12415678344E+04  0.12415678345E+04  0.50400001928E-02 0. -1.
    10030    2    1    2    0    0  0.00000000000E+00  0.00000000000E+00 -0.90114682118E+03  0.15819888478E+04  0.13002396399E+04 0.  0.
        5    1    3    3  502    0 -0.48546908100E+03 -0.35346133672E+02 -0.97488659215E+03  0.10896584489E+04  0.46999998093E+01 0. -1.
       -5    1    3    3    0  502  0.48546908100E+03  0.35346133672E+02  0.73739770976E+02  0.49233039881E+03  0.46999998093E+01 0.  1.
</event>
<event>
 5   0  0.6742824E-05  0.1299864E+04  0.7818609E-02  0.9029673E-01
       -2   -1    0    0    0  501  0.00000000000E+00  0.00000000000E+00  0.50508946540E+03  0.50508946540E+03  0.25500000920E-02 0. -1.
        2   -1    0    0  501    0  0.00000000000E+00  0.00000000000E+00 -0.83631064193E+03  0.83631064193E+03  0.25500000920E-02 0.  1.
    10030    2    1    2    0    0  0.00000000000E+00  0.00000000000E+00 -0.33122117653E+03  0.13414001073E+04  0.12998641391E+04 0.  0.
        4    1    3    3  502    0 -0.59693533446E+03 -0.25137580846E+03 -0.11014853749E+03  0.65700525402E+03  0.12699999809E+01 0.  1.
       -4    1    3    3    0  502  0.59693533446E+03  0.25137580846E+03 -0.22107263904E+03  0.68439485331E+03  0.12699999809E+01 0. -1.
</event>
<event>
 5   0  0.3689707E-05  0.1299979E+04  0.7818609E-02  0.9029582E-01
       -1   -1    0    0    0  501  0.00000000000E+00  0.00000000000E+00  0.34070440627E+03  0.34070440630E+03  0.50400001928E-02 0.  1.
        1   -1    0    0  501    0  0.00000000000E+00  0.00000000000E+00 -0.12400377652E+04  0.12400377652E+04  0.50400001928E-02 0. -1.
    10030    2    1    2    0    0  0.00000000000E+00  0.00000000000E+00 -0.89933335893E+03  0.15807421715E+04  0.12999789699E+04 0.  0.
        1    1    3    3  502    0 -0.50809688051E+03  0.36112477475E+03 -0.22573968137E+03  0.66297205574E+03  0.50400001928E-02 0.  1.
       -1    1    3    3    0  502  0.50809688051E+03 -0.36112477475E+03 -0.67359367756E+03  0.91777011577E+03  0.50400001928E-02 0. -1.
</event>
<event>
 5   0  0.2512000E-05  0.1299984E+04  0.7818609E-02  0.9029578E-01
       -3   -1    0    0    0  501  0.00000000000E+00  0.00000000000E+00  0.28078375938E+03  0.28078377755E+03  0.10100000352E+00 0.  1.
        3   -1    0    0  501    0  0.00000000000E+00  0.00000000000E+00 -0.15046792178E+04  0.15046792211E+04  0.10100000352E+00 0. -1.
    10030    2    1    2    0    0  0.00000000000E+00  0.00000000000E+00 -0.12238954584E+04  0.17854629987E+04  0.12999838563E+04 0.  0.
        5    1    3    3  502    0  0.11305401908E+03  0.21848676165E+03 -0.14382463542E+04  0.14591409602E+04  0.46999998093E+01 0. -1.
       -5    1    3    3    0  502 -0.11305401908E+03 -0.21848676165E+03  0.21435089587E+03  0.32632203849E+03  0.46999998093E+01 0.  1.
</event>
<event>
 5   0  0.6671239E-05  0.1299729E+04  0.7818609E-02  0.9029780E-01
        2   -1    0    0  501    0  0.00000000000E+00  0.00000000000E+00  0.19030418718E+04  0.19030418718E+04  0.25500000920E-02 0. -1.
       -2   -1    0    0    0  501  0.00000000000E+00  0.00000000000E+00 -0.22192044178E+03  0.22192044179E+03  0.25500000920E-02 0.  1.
    10030    2    1    2    0    0  0.00000000000E+00  0.00000000000E+00  0.16811214301E+04  0.21249623136E+04  0.12997290378E+04 0.  0.
        1    1    3    3  502    0  0.53239101847E+03  0.21886091499E+03  0.34740966764E+03  0.67233456988E+03  0.50400001928E-02 0.  1.
       -1    1    3    3    0  502 -0.53239101847E+03 -0.21886091499E+03  0.13337117624E+04  0.14526277438E+04  0.50400001928E-02 0. -1.
</event>
<event>
 5   0  0.3631841E-05  0.1298638E+04  0.7818609E-02  0.9030646E-01
       -1   -1    0    0    0  501  0.00000000000E+00  0.00000000000E+00  0.88344125378E+03  0.88344125379E+03  0.50400001928E-02 0. -1.
        1   -1    0    0  501    0  0.00000000000E+00  0.00000000000E+00 -0.47724205633E+03  0.47724205636E+03  0.50400001928E-02 0.  1.
    10030    2    1    2    0    0  0.00000000000E+00  0.00000000000E+00  0.40619919744E+03  0.13606833102E+04  0.12986382416E+04 0.  0.
        3    1    3    3  502    0 -0.34187245215E+03  0.29653904981E+03  0.69096682361E+03  0.82598265304E+03  0.10100000352E+00 0. -1.
       -3    1    3    3    0  502  0.34187245215E+03 -0.29653904981E+03 -0.28476762617E+03  0.53470065711E+03  0.10100000352E+00 0.  1.
</event>
<event>
 5   0  0.6618060E-05  0.1300893E+04  0.7818609E-02  0.9028857E-01
       -2   -1    0    0    0  501  0.00000000000E+00  0.00000000000E+00  0.60113120625E+03  0.60113120626E+03  0.25500000920E-02 0.  1.
        2   -1    0    0  501    0  0.00000000000E+00  0.00000000000E+00 -0.70380743175E+03  0.70380743176E+03  0.25500000920E-02 0. -1.
    10030    2    1    2    0    0  0.00000000000E+00  0.00000000000E+00 -0.10267622550E+03  0.13049386380E+04  0.13008929401E+04 0.  0.
        2    1    3    3  502    0  0.63323692454E+02 -0.42216189515E+03  0.44095290092E+03  0.61373448378E+03  0.25500000920E-02 0.  1.
       -2    1    3    3    0  502 -0.63323692454E+02  0.42216189515E+03 -0.54362912642E+03  0.69120415424E+03  0.25500000920E-02 0. -1.
</event>
<event>
 5   0  0.3689707E-05  0.1300329E+04  0.7818609E-02  0.9029304E-01
        1   -1    0    0  501    0  0.00000000000E+00  0.00000000000E+00  0.14544296201E+04  0.14544296201E+04  0.50400001928E-02 0.  1.
       -1   -1    0    0    0  501  0.00000000000E+00  0.00000000000E+00 -0.29063915476E+03  0.29063915480E+03  0.50400001928E-02 0. -1.
    10030    2    1    2    0    0  0.00000000000E+00  0.00000000000E+00  0.11637904654E+04  0.17450687749E+04  0.13003294898E+04 0.  0.
        1    1    3    3  502    0  0.44621091376E+03  0.24633721294E+03  0.11235929309E+04  0.12337938549E+04  0.50400001928E-02 0.  1.
       -1    1    3    3    0  502 -0.44621091376E+03 -0.24633721294E+03  0.40197534473E+02  0.51127492002E+03  0.50400001928E-02 0. -1.
</event>
<event>
 5   0  0.3631841E-05  0.1299993E+04  0.7818609E-02  0.9029571E-01
       -1   -1    0    0    0  501  0.00000000000E+00  0.00000000000E+00  0.36750198767E+03  0.36750198770E+03  0.50400001928E-02 0. -1.
        1   -1    0    0  501    0  0.00000000000E+00  0.00000000000E+00 -0.11496408243E+04  0.11496408243E+04  0.50400001928E-02 0.  1.
    10030    2    1    2    0    0  0.00000000000E+00  0.00000000000E+00 -0.78213883665E+03  0.15171428120E+04  0.12999927509E+04 0.  0.
        3    1    3    3  502    0 -0.50535891930E+02  0.15888948575E+03 -0.11242595970E+04  0.11365559364E+04  0.10100000352E+00 0.  1.
       -3    1    3    3    0  502  0.50535891930E+02 -0.15888948575E+03  0.34212076031E+03  0.38058687561E+03  0.10100000352E+00 0. -1.
</event>
<event>
 5   0  0.3689707E-05  0.1302281E+04  0.7818609E-02  0.9027758E-01
        1   -1    0    0  501    0  0.00000000000E+00  0.00000000000E+00  0.12066085492E+04  0.12066085492E+04  0.50400001928E-02 0. -1.
       -1   -1    0    0    0  501  0.00000000000E+00  0.00000000000E+00 -0.35138476627E+03  0.35138476631E+03  0.50400001928E-02 0.  1.
    10030    2    1    2    0    0  0.00000000000E+00  0.00000000000E+00  0.85522378289E+03  0.15579933155E+04  0.13022808654E+04 0.  0.
        1    1    3    3  502    0 -0.61772484801E+03  0.10776296777E+03  0.21769627763E+03  0.66376841924E+03  0.50400001928E-02 0.  1.
       -1    1    3    3    0  502  0.61772484801E+03 -0.10776296777E+03  0.63752750526E+03  0.89422489624E+03  0.50400001928E-02 0. -1.
</event>
<event>
 5   0  0.6688086E-05  0.1293218E+04  0.7818609E-02  0.9034961E-01
        2   -1    0    0  501    0  0.00000000000E+00  0.00000000000E+00  0.12000359572E+04  0.12000359572E+04  0.25500000920E-02 0. -1.
       -2   -1    0    0    0  501  0.00000000000E+00  0.00000000000E+00 -0.34840862809E+03  0.34840862810E+03  0.25500000920E-02 0.  1.
    10030    2    1    2    0    0  0.00000000000E+00  0.00000000000E+00  0.85162732908E+03  0.15484445853E+04  0.12932175092E+04 0.  0.
        5    1    3    3  502    0  0.21567531219E+03  0.51939519230E+03  0.80783207881E+03  0.98432817882E+03  0.46999998093E+01 0. -1.
       -5    1    3    3    0  502 -0.21567531219E+03 -0.51939519230E+03  0.43795250268E+02  0.56411640644E+03  0.46999998093E+01 0.  1.
</event>
<event>
 5   0  0.6458698E-05  0.1300290E+04  0.7818609E-02  0.9029335E-01
       -2   -1    0    0    0  501  0.00000000000E+00  0.00000000000E+00  0.10526336405E+04  0.10526336405E+04  0.25500000920E-02 0. -1.
        2   -1    0    0  501    0  0.00000000000E+00  0.00000000000E+00 -0.40155335290E+03  0.40155335291E+03  0.25500000920E-02 0.  1.
    10030    2    1    2    0    0  0.00000000000E+00  0.00000000000E+00  0.65108028759E+03  0.14541869934E+04  0.13002900718E+04 0.  0.
        3    1    3    3  502    0  0.28204115788E+03 -0.21516862682E+03 -0.28377785086E+03  0.45428474721E+03  0.10100000352E+00 0.  1.
       -3    1    3    3    0  502 -0.28204115788E+03  0.21516862682E+03  0.93485813845E+03  0.99990224619E+03  0.10100000352E+00 0. -1.
</event>
<event>
 5   0  0.6671239E-05  0.1300058E+04  0.7818609E-02  0.9029519E-01
       -2   -1    0    0    0  501  0.00000000000E+00  0.00000000000E+00  0.38546320264E+03  0.38546320265E+03  0.25500000920E-02 0.  1.
        2   -1    0    0  501    0  0.00000000000E+00  0.00000000000E+00 -0.10961813451E+04  0.10961813451E+04  0.25500000920E-02 0. -1.
    10030    2    1    2    0    0  0.00000000000E+00  0.00000000000E+00 -0.71071814243E+03  0.14816445477E+04  0.13000578017E+04 0.  0.
        1    1    3    3  502    0 -0.33877487506E+02  0.59125566900E+03 -0.66075525979E+03  0.88731531241E+03  0.50400001928E-02 0. -1.
       -1    1    3    3    0  502  0.33877487506E+02 -0.59125566900E+03 -0.49962882642E+02  0.59432923531E+03  0.50400001928E-02 0.  1.
</event>
<event>
 5   0  0.3718559E-05  0.1301050E+04  0.7818609E-02  0.9028733E-01
       -1   -1    0    0    0  501  0.00000000000E+00  0.00000000000E+00  0.55611056048E+03  0.55611056051E+03  0.50400001928E-02 0.  1.
        1   -1    0    0  501    0  0.00000000000E+00  0.00000000000E+00 -0.76096861706E+03  0.76096861707E+03  0.50400001928E-02 0. -1.
    10030    2    1    2    0    0  0.00000000000E+00  0.00000000000E+00 -0.20485805657E+03  0.13170791776E+04  0.13010498594E+04 0.  0.
        2    1    3    3  502    0  0.28018274754E+03  0.93355997877E+02  0.48433697357E+03  0.56727420031E+03  0.25500000920E-02 0.  1.
       -2    1    3    3    0  502 -0.28018274754E+03 -0.93355997877E+02 -0.68919503014E+03  0.74980497727E+03  0.25500000920E-02 0. -1.
</event>
<event>
 5   0  0.3689707E-05  0.1299718E+04  0.7818609E-02  0.9029789E-01
       -1   -1    0    0    0  501  0.00000000000E+00  0.00000000000E+00  0.46344021188E+03  0.46344021191E+03  0.50400001928E-02 0. -1.
        1   -1    0    0  501    0  0.00000000000E+00  0.00000000000E+00 -0.91126421184E+03  0.91126421185E+03  0.50400001928E-02 0.  1.
    10030    2    1    2    0    0  0.00000000000E+00  0.00000000000E+00 -0.44782399996E+03  0.13747044238E+04  0.12997176300E+04 0.  0.
        1    1    3    3  502    0  0.21024247534E+02 -0.12358741255E+01  0.46307916432E+03  0.46355782683E+03  0.50400001928E-02 0. -1.
       -1    1    3    3    0  502 -0.21024247534E+02  0.12358741255E+01 -0.91090316427E+03  0.91114659692E+03  0.50400001928E-02 0.  1.
</event>
<event>
 5   0  0.6688086E-05  0.1298905E+04  0.7818609E-02  0.9030434E-01
       -2   -1    0    0    0  501  0.00000000000E+00  0.00000000000E+00  0.80787306567E+03  0.80787306568E+03  0.25500000920E-02 0. -1.
        2   -1    0    0  501    0  0.00000000000E+00  0.00000000000E+00 -0.52209716346E+03  0.52209716346E+03  0.25500000920E-02 0.  1.
    10030    2    1    2    0    0  0.00000000000E+00  0.00000000000E+00  0.28577590222E+03  0.13299702291E+04  0.12989045169E+04 0.  0.
        5    1    3    3  502    0 -0.50240804320E+03  0.41093125998E+03  0.16550246463E+03  0.66984438349E+03  0.46999998093E+01 0.  1.
       -5    1    3    3    0  502  0.50240804320E+03 -0.41093125998E+03  0.12027343758E+03  0.66012584564E+03  0.46999998093E+01 0. -1.
</event>
<event>
 5   0  0.3631841E-05  0.1300121E+04  0.7818609E-02  0.9029470E-01
        1   -1    0    0  501    0  0.00000000000E+00  0.00000000000E+00  0.13115219927E+04  0.13115219927E+04  0.50400001928E-02 0.  1.
       -1   -1    0    0    0  501  0.00000000000E+00  0.00000000000E+00 -0.32220456028E+03  0.32220456032E+03  0.50400001928E-02 0. -1.
    10030    2    1    2    0    0  0.00000000000E+00  0.00000000000E+00  0.98931743238E+03  0.16337265530E+04  0.13001205590E+04 0.  0.
        3    1    3    3  502    0  0.21117082614E+03 -0.45333395497E+03 -0.27204889949E+02  0.50084419611E+03  0.10100000352E+00 0. -1.
       -3    1    3    3    0  502 -0.21117082614E+03  0.45333395497E+03  0.10165223223E+04  0.11328823569E+04  0.10100000352E+00 0.  1.
</event>
<event>
 5   0  0.3551277E-05  0.1300134E+04  0.7818609E-02  0.9029459E-01
       -1   -1    0    0    0  501  0.00000000000E+00  0.00000000000E+00  0.20876068251E+03  0.20876068257E+03  0.50400001928E-02 0.  1.
        1   -1    0    0  501    0  0.00000000000E+00  0.00000000000E+00 -0.20242665538E+04  0.20242665538E+04  0.50400001928E-02 0. -1.
    10030    2    1    2    0    0  0.00000000000E+00  0.00000000000E+00 -0.18155058713E+04  0.22330272363E+04  0.13001342506E+04 0.  0.
        4    1    3    3  502    0  0.21177836103E+03  0.17747562457E+03 -0.19183852381E+04  0.19381824491E+04  0.12699999809E+01 0. -1.
       -4    1    3    3    0  502 -0.21177836103E+03 -0.17747562457E+03  0.10287936684E+03  0.29484478720E+03  0.12699999809E+01 0.  1.
</event>
<event>
 5   0  0.6688086E-05  0.1299635E+04  0.7818609E-02  0.9029854E-01
        2   -1    0    0  501    0  0.00000000000E+00  0.00000000000E+00  0.10088234947E+04  0.10088234947E+04  0.25500000920E-02 0.  1.
       -2   -1    0    0    0  501  0.00000000000E+00  0.00000000000E+00 -0.41856971906E+03  0.41856971907E+03  0.25500000920E-02 0. -1.
    10030    2    1    2    0    0  0.00000000000E+00  0.00000000000E+00  0.59025377564E+03  0.14273932138E+04  0.12996352823E+04 0.  0.
        5    1    3    3  502    0  0.52890645763E+03 -0.19680580533E+03 -0.58666997787E+02  0.56739622184E+03  0.46999998093E+01 0. -1.
       -5    1    3    3    0  502 -0.52890645763E+03  0.19680580533E+03  0.64892077342E+03  0.85999699192E+03  0.46999998093E+01 0.  1.
</event>
<event>
 5   0  0.3552698E-05  0.1300018E+04  0.7818609E-02  0.9029551E-01
        1   -1    0    0  501    0  0.00000000000E+00  0.00000000000E+00  0.89984960029E+03  0.89984960030E+03  0.50400001928E-02 0. -1.
       -1   -1    0    0    0  501  0.00000000000E+00  0.00000000000E+00 -0.46953567373E+03  0.46953567376E+03  0.50400001928E-02 0.  1.
    10030    2    1    2    0    0  0.00000000000E+00  0.00000000000E+00  0.43031392656E+03  0.13693852741E+04  0.13000176743E+04 0.  0.
        5    1    3    3  502    0  0.96583874468E+01 -0.39825343545E+03  0.75616761998E+03  0.85469915339E+03  0.46999998093E+01 0. -1.
       -5    1    3    3    0  502 -0.96583874468E+01  0.39825343545E+03 -0.32585369342E+03  0.51468612067E+03  0.46999998093E+01 0.  1.
</event>
<event>
 5   0  0.6688086E-05  0.1301428E+04  0.7818609E-02  0.9028434E-01
        2   -1    0    0  501    0  0.00000000000E+00  0.00000000000E+00  0.18084718494E+04  0.18084718494E+04  0.25500000920E-02 0. -1.
       -2   -1    0    0    0  501  0.00000000000E+00  0.00000000000E+00 -0.23413611377E+03  0.23413611379E+03  0.25500000920E-02 0.  1.
    10030    2    1    2    0    0  0.00000000000E+00  0.00000000000E+00  0.15743357357E+04  0.20426079632E+04  0.13014277863E+04 0.  0.
        5    1    3    3  502    0  0.18026785251E+03  0.47609365762E+03  0.14232464537E+04  0.15115601965E+04  0.46999998093E+01 0. -1.
       -5    1    3    3    0  502 -0.18026785251E+03 -0.47609365762E+03  0.15108928195E+03  0.53104776677E+03  0.46999998093E+01 0.  1.
</event>
<event>
 5   0  0.6742824E-05  0.1300147E+04  0.7818609E-02  0.9029448E-01
       -2   -1    0    0    0  501  0.00000000000E+00  0.00000000000E+00  0.54643009692E+03  0.54643009693E+03  0.25500000920E-02 0. -1.
        2   -1    0    0  501    0  0.00000000000E+00  0.00000000000E+00 -0.77337572000E+03  0.77337572000E+03  0.25500000920E-02 0.  1.
    10030    2    1    2    0    0  0.00000000000E+00  0.00000000000E+00 -0.22694562308E+03  0.13198058169E+04  0.13001473296E+04 0.  0.
        4    1    3    3  502    0  0.16032533030E+01  0.25790076391E+03  0.49227313673E+03  0.55574259193E+03  0.12699999809E+01 0. -1.
       -4    1    3    3    0  502 -0.16032533030E+01 -0.25790076391E+03 -0.71921875980E+03  0.76406322500E+03  0.12699999809E+01 0.  1.
</event>
<event>
 5   0  0.6671239E-05  0.1299177E+04  0.7818609E-02  0.9030218E-01
       -2   -1    0    0    0  501  0.00000000000E+00  0.00000000000E+00  0.65394497825E+03  0.65394497826E+03  0.25500000920E-02 0.  1.
        2   -1    0    0  501    0  0.00000000000E+00  0.00000000000E+00 -0.64526152145E+03  0.64526152146E+03  0.25500000920E-02 0. -1.
    10030    2    1    2    0    0  0.00000000000E+00  0.00000000000E+00  0.86834567997E+01  0.12992064997E+04  0.12991774807E+04 0.  0.
        1    1    3    3  502    0 -0.79168801952E+02  0.26080266367E+03 -0.58531523546E+03  0.64566218216E+03  0.50400001928E-02 0. -1.
       -1    1    3    3    0  502  0.79168801952E+02 -0.26080266367E+03  0.59399869226E+03  0.65354431756E+03  0.50400001928E-02 0.  1.
</event>
<event>
 5   0  0.6671239E-05  0.1300755E+04  0.7818609E-02  0.9028966E-01
        2   -1    0    0  501    0  0.00000000000E+00  0.00000000000E+00  0.43910180767E+03  0.43910180768E+03  0.25500000920E-02 0.  1.
       -2   -1    0    0    0  501  0.00000000000E+00  0.00000000000E+00 -0.96330969092E+03  0.96330969093E+03  0.25500000920E-02 0. -1.
    10030    2    1    2    0    0  0.00000000000E+00  0.00000000000E+00 -0.52420788325E+03  0.14024114986E+04  0.13007552062E+04 0.  0.
        1    1    3    3  502    0  0.33438945395E+03  0.45150829884E+03 -0.61529529028E+03  0.83322526672E+03  0.50400001928E-02 0. -1.
       -1    1    3    3    0  502 -0.33438945395E+03 -0.45150829884E+03  0.91087407035E+02  0.56918623189E+03  0.50400001928E-02 0.  1.
</event>
<event>
 5   0  0.3718559E-05  0.1299826E+04  0.7818609E-02  0.9029703E-01
        1   -1    0    0  501    0  0.00000000000E+00  0.00000000000E+00  0.81830881845E+03  0.81830881846E+03  0.50400001928E-02 0.  1.
       -1   -1    0    0    0  501  0.00000000000E+00  0.00000000000E+00 -0.51617056157E+03  0.51617056159E+03  0.50400001928E-02 0. -1.
    10030    2    1    2    0    0  0.00000000000E+00  0.00000000000E+00  0.30213825688E+03  0.13344793801E+04  0.12998260228E+04 0.  0.
        2    1    3    3  502    0  0.10314532593E+03 -0.60639063357E+03  0.36651700932E+03  0.71601904784E+03  0.25500000920E-02 0.  1.
       -2    1    3    3    0  502 -0.10314532593E+03  0.60639063357E+03 -0.64378752437E+02  0.61846033221E+03  0.25500000920E-02 0. -1.
</event>
<event>
 5   0  0.6671239E-05  0.1300242E+04  0.7818609E-02  0.9029373E-01
       -2   -1    0    0    0  501  0.00000000000E+00  0.00000000000E+00  0.22746785960E+03  0.22746785961E+03  0.25500000920E-02 0. -1.
        2   -1    0    0  501    0  0.00000000000E+00  0.00000000000E+00 -0.18580969132E+04  0.18580969132E+04  0.25500000920E-02 0.  1.
    10030    2    1    2    0    0  0.00000000000E+00  0.00000000000E+00 -0.16306290536E+04  0.20855647729E+04  0.13002420202E+04 0.  0.
        1    1    3    3  502    0  0.37666232209E+03  0.51145123568E+03 -0.59305762220E+03  0.86900760333E+03  0.50400001928E-02 0. -1.
       -1    1    3    3    0  502 -0.37666232209E+03 -0.51145123568E+03 -0.10375714314E+04  0.12165571695E+04  0.50400001928E-02 0.  1.
</event>
<event>
 5   0  0.3552698E-05  0.1304514E+04  0.7818609E-02  0.9025993E-01
       -1   -1    0    0    0  501  0.00000000000E+00  0.00000000000E+00  0.99611394199E+03  0.99611394200E+03  0.50400001928E-02 0.  1.
        1   -1    0    0  501    0  0.00000000000E+00  0.00000000000E+00 -0.42709919256E+03  0.42709919258E+03  0.50400001928E-02 0. -1.
    10030    2    1    2    0    0  0.00000000000E+00  0.00000000000E+00  0.56901474944E+03  0.14232131346E+04  0.13045144083E+04 0.  0.
        5    1    3    3  502    0 -0.10874770246E+03  0.40147256505E+03 -0.26361215511E+03  0.49246293424E+03  0.46999998093E+01 0. -1.
       -5    1    3    3    0  502  0.10874770246E+03 -0.40147256505E+03  0.83262690455E+03  0.93075020035E+03  0.46999998093E+01 0.  1.
</event>
<event>
 5   0  0.3631841E-05  0.1300179E+04  0.7818609E-02  0.9029424E-01
       -1   -1    0    0    0  501  0.00000000000E+00  0.00000000000E+00  0.35930988840E+03  0.35930988843E+03  0.50400001928E-02 0.  1.
        1   -1    0    0  501    0  0.00000000000E+00  0.00000000000E+00 -0.11761882716E+04  0.11761882716E+04  0.50400001928E-02 0. -1.
    10030    2    1    2    0    0  0.00000000000E+00  0.00000000000E+00 -0.81687838322E+03  0.15354981601E+04  0.13001785672E+04 0.  0.
        3    1    3    3  502    0 -0.53888574193E+03  0.15315263038E+03 -0.18958547659E+02  0.56054706117E+03  0.10100000352E+00 0.  1.
       -3    1    3    3    0  502  0.53888574193E+03 -0.15315263038E+03 -0.79791983557E+03  0.97495109890E+03  0.10100000352E+00 0. -1.
</event>
<event>
 5   0  0.6742824E-05  0.1300159E+04  0.7818609E-02  0.9029439E-01
        2   -1    0    0  501    0  0.00000000000E+00  0.00000000000E+00  0.73788045251E+03  0.73788045251E+03  0.25500000920E-02 0.  1.
       -2   -1    0    0    0  501  0.00000000000E+00  0.00000000000E+00 -0.57272599477E+03  0.57272599478E+03  0.25500000920E-02 0. -1.
    10030    2    1    2    0    0  0.00000000000E+00  0.00000000000E+00  0.16515445774E+03  0.13106064473E+04  0.13001589383E+04 0.  0.
        4    1    3    3  502    0 -0.49515915778E+03 -0.32556002555E+02  0.50590322291E+03  0.70864812755E+03  0.12699999809E+01 0.  1.
       -4    1    3    3    0  502  0.49515915778E+03  0.32556002555E+02 -0.34074876517E+03  0.60195831974E+03  0.12699999809E+01 0. -1.
</event>
<event>
 5   0  0.3551277E-05  0.1309525E+04  0.7818609E-02  0.9022046E-01
        1   -1    0    0  501    0  0.00000000000E+00  0.00000000000E+00  0.13584976630E+04  0.13584976630E+04  0.50400001928E-02 0. -1.
       -1   -1    0    0    0  501  0.00000000000E+00  0.00000000000E+00 -0.31557943444E+03  0.31557943449E+03  0.50400001928E-02 0.  1.
    10030    2    1    2    0    0  0.00000000000E+00  0.00000000000E+00  0.10429182286E+04  0.16740770975E+04  0.13095249890E+04 0.  0.
        4    1    3    3  502    0 -0.11559938571E+03  0.19571460688E+03  0.13064383918E+04  0.13260657261E+04  0.12699999809E+01 0. -1.
       -4    1    3    3    0  502  0.11559938571E+03 -0.19571460688E+03 -0.26352016324E+03  0.34801137145E+03  0.12699999809E+01 0.  1.
</event>
<event>
 5   0  0.6458698E-05  0.1300186E+04  0.7818609E-02  0.9029417E-01
        2   -1    0    0  501    0  0.00000000000E+00  0.00000000000E+00  0.10338346924E+04  0.10338346924E+04  0.25500000920E-02 0. -1.
       -2   -1    0    0    0  501  0.00000000000E+00  0.00000000000E+00 -0.40878987377E+03  0.40878987378E+03  0.25500000920E-02 0.  1.
    10030    2    1    2    0    0  0.00000000000E+00  0.00000000000E+00  0.62504481860E+03  0.14426245662E+04  0.13001863765E+04 0.  0.
        3    1    3    3  502    0  0.29186165398E+03 -0.38537507841E+03  0.79479351244E+03  0.93026550712E+03  0.10100000352E+00 0. -1.
       -3    1    3    3    0  502 -0.29186165398E+03  0.38537507841E+03 -0.16974869383E+03  0.51235905904E+03  0.10100000352E+00 0.  1.
</event>
<event>
 5   0  0.6458698E-05  0.1299933E+04  0.7818609E-02  0.9029618E-01
       -2   -1    0    0    0  501  0.00000000000E+00  0.00000000000E+00  0.72938975478E+03  0.72938975478E+03  0.25500000920E-02 0.  1.
        2   -1    0    0  501    0  0.00000000000E+00  0.00000000000E+00 -0.57919205287E+03  0.57919205287E+03  0.25500000920E-02 0. -1.
    10030    2    1    2    0    0  0.00000000000E+00  0.00000000000E+00  0.15019770191E+03  0.13085818077E+04  0.12999334589E+04 0.  0.
        3    1    3    3  502    0  0.21781472006E+03  0.55228502466E+03  0.34142416862E+03  0.68485945555E+03  0.10100000352E+00 0.  1.
       -3    1    3    3    0  502 -0.21781472006E+03 -0.55228502466E+03 -0.19122646671E+03  0.62372235210E+03  0.10100000352E+00 0. -1.
</event>
<event>
 5   0  0.6458698E-05  0.1294120E+04  0.7818609E-02  0.9034241E-01
       -2   -1    0    0    0  501  0.00000000000E+00  0.00000000000E+00  0.15025464813E+04  0.15025464813E+04  0.25500000920E-02 0. -1.
        2   -1    0    0  501    0  0.00000000000E+00  0.00000000000E+00 -0.27865121218E+03  0.27865121219E+03  0.25500000920E-02 0.  1.
    10030    2    1    2    0    0  0.00000000000E+00  0.00000000000E+00  0.12238952691E+04  0.17811976935E+04  0.12941196210E+04 0.  0.
        3    1    3    3  502    0  0.18230797391E+03  0.49072619624E+03  0.11354020805E+04  0.12502744866E+04  0.10100000352E+00 0. -1.
       -3    1    3    3    0  502 -0.18230797391E+03 -0.49072619624E+03  0.88493188561E+02  0.53092320692E+03  0.10100000352E+00 0.  1.
</event>
<event>
 5   0  0.3718559E-05  0.1300409E+04  0.7818609E-02  0.9029241E-01
        1   -1    0    0  501    0  0.00000000000E+00  0.00000000000E+00  0.15445548850E+04  0.15445548850E+04  0.50400001928E-02 0. -1.
       -1   -1    0    0    0  501  0.00000000000E+00  0.00000000000E+00 -0.27371356644E+03  0.27371356648E+03  0.50400001928E-02 0.  1.
    10030    2    1    2    0    0  0.00000000000E+00  0.00000000000E+00  0.12708413186E+04  0.18182684515E+04  0.13004085915E+04 0.  0.
        2    1    3    3  502    0  0.27302368080E+03 -0.11195415910E+03  0.14455369227E+04  0.14753483178E+04  0.25500000920E-02 0. -1.
       -2    1    3    3    0  502 -0.27302368080E+03  0.11195415910E+03 -0.17469560408E+03  0.34292013372E+03  0.25500000920E-02 0.  1.
</event>
<event>
 5   0  0.6688086E-05  0.1299858E+04  0.7818609E-02  0.9029678E-01
        2   -1    0    0  501    0  0.00000000000E+00  0.00000000000E+00  0.62872465942E+03  0.62872465943E+03  0.25500000920E-02 0.  1.
       -2   -1    0    0    0  501  0.00000000000E+00  0.00000000000E+00 -0.67184819061E+03  0.67184819062E+03  0.25500000920E-02 0. -1.
    10030    2    1    2    0    0  0.00000000000E+00  0.00000000000E+00 -0.43123531190E+02  0.13005728500E+04  0.12998577227E+04 0.  0.
        5    1    3    3  502    0 -0.11823412767E+03  0.36609450899E+03  0.50254025238E+03  0.63290859823E+03  0.46999998093E+01 0.  1.
       -5    1    3    3    0  502  0.11823412767E+03 -0.36609450899E+03 -0.54566378357E+03  0.66766425182E+03  0.46999998093E+01 0. -1.
</event>
<event>
 5   0  0.6688086E-05  0.1299761E+04  0.7818609E-02  0.9029755E-01
       -2   -1    0    0    0  501  0.00000000000E+00  0.00000000000E+00  0.39445637862E+03  0.39445637863E+03  0.25500000920E-02 0.  1.
        2   -1    0    0  501    0  0.00000000000E+00  0.00000000000E+00 -0.10707004434E+04  0.10707004434E+04  0.25500000920E-02 0. -1.
    10030    2    1    2    0    0  0.00000000000E+00  0.00000000000E+00 -0.67624406476E+03  0.14651568220E+04  0.12997609311E+04 0.  0.
        5    1    3    3  502    0  0.25492064522E+03 -0.54082212865E+03 -0.62518269219E+03  0.86507144145E+03  0.46999998093E+01 0. -1.
       -5    1    3    3    0  502 -0.25492064522E+03  0.54082212865E+03 -0.51061372563E+02  0.60008538056E+03  0.46999998093E+01 0.  1.
</event>
<event>
 5   0  0.6742824E-05  0.1298863E+04  0.7818609E-02  0.9030468E-01
       -2   -1    0    0    0  501  0.00000000000E+00  0.00000000000E+00  0.86162120491E+03  0.86162120492E+03  0.25500000920E-02 0.  1.
        2   -1    0    0  501    0  0.00000000000E+00  0.00000000000E+00 -0.48949700363E+03  0.48949700364E+03  0.25500000920E-02 0. -1.
    10030    2    1    2    0    0  0.00000000000E+00  0.00000000000E+00  0.37212420128E+03  0.13511182086E+04  0.12988625764E+04 0.  0.
        4    1    3    3  502    0 -0.33326633195E+03 -0.38790765600E+02 -0.39235564451E+03  0.51625162100E+03  0.12699999809E+01 0. -1.
       -4    1    3    3    0  502  0.33326633195E+03  0.38790765600E+02  0.76447984579E+03  0.83486658756E+03  0.12699999809E+01 0.  1.
</event>
<event>
 5   0  0.6742824E-05  0.1299438E+04  0.7818609E-02  0.9030011E-01
        2   -1    0    0  501    0  0.00000000000E+00  0.00000000000E+00  0.17352609791E+04  0.17352609791E+04  0.25500000920E-02 0.  1.
       -2   -1    0    0    0  501  0.00000000000E+00  0.00000000000E+00 -0.24326874661E+03  0.24326874662E+03  0.25500000920E-02 0. -1.
    10030    2    1    2    0    0  0.00000000000E+00  0.00000000000E+00  0.14919922325E+04  0.19785297258E+04  0.12994379761E+04 0.  0.
        4    1    3    3  502    0 -0.18745775115E+03 -0.55251035468E+03  0.31072021613E+03  0.66102705399E+03  0.12699999809E+01 0. -1.
       -4    1    3    3    0  502  0.18745775115E+03  0.55251035468E+03  0.11812720164E+04  0.13175026718E+04  0.12699999809E+01 0.  1.
</event>
<event>
 5   0  0.3718559E-05  0.1299799E+04  0.7818609E-02  0.9029724E-01
        1   -1    0    0  501    0  0.00000000000E+00  0.00000000000E+00  0.80978174754E+03  0.80978174755E+03  0.50400001928E-02 0. -1.
       -1   -1    0    0    0  501  0.00000000000E+00  0.00000000000E+00 -0.52158427820E+03  0.52158427822E+03  0.50400001928E-02 0.  1.
    10030    2    1    2    0    0  0.00000000000E+00  0.00000000000E+00  0.28819746934E+03  0.13313660258E+04  0.12997991050E+04 0.  0.
        2    1    3    3  502    0  0.14806094858E+03 -0.35839088821E+03  0.67830424958E+03  0.78132114284E+03  0.25500000920E-02 0. -1.
       -2    1    3    3    0  502 -0.14806094858E+03  0.35839088821E+03 -0.39010678024E+03  0.55004488293E+03  0.25500000920E-02 0.  1.
</event>
<event>
 5   0  0.6458698E-05  0.1300251E+04  0.7818609E-02  0.9029366E-01
       -2   -1    0    0    0  501  0.00000000000E+00  0.00000000000E+00  0.56191990480E+03  0.56191990481E+03  0.25500000920E-02 0.  1.
        2   -1    0    0  501    0  0.00000000000E+00  0.00000000000E+00 -0.75217732488E+03  0.75217732489E+03  0.25500000920E-02 0. -1.
    10030    2    1    2    0    0  0.00000000000E+00  0.00000000000E+00 -0.19025742008E+03  0.13140972297E+04  0.13002513769E+04 0.  0.
        3    1    3    3  502    0  0.43978751509E+03 -0.33901250913E+03 -0.43684282665E+03  0.70652261476E+03  0.10100000352E+00 0. -1.
       -3    1    3    3    0  502 -0.43978751509E+03  0.33901250913E+03  0.24658540657E+03  0.60757461493E+03  0.10100000352E+00 0.  1.
</event>
<event>
 5   0  0.3551277E-05  0.1298952E+04  0.7818609E-02  0.9030397E-01
        1   -1    0    0  501    0  0.00000000000E+00  0.00000000000E+00  0.20385139740E+04  0.20385139740E+04  0.50400001928E-02 0. -1.
       -1   -1    0    0    0  501  0.00000000000E+00  0.00000000000E+00 -0.20692468803E+03  0.20692468809E+03  0.50400001928E-02 0.  1.
    10030    2    1    2    0    0  0.00000000000E+00  0.00000000000E+00  0.18315892860E+04  0.22454386621E+04  0.12989516822E+04 0.  0.
        4    1    3    3  502    0 -0.61999204700E+02  0.53301241719E+03  0.28330758555E+03  0.60680387209E+03  0.12699999809E+01 0.  1.
       -4    1    3    3    0  502  0.61999204700E+02 -0.53301241719E+03  0.15482817004E+04  0.16386347900E+04  0.12699999809E+01 0. -1.
</event>
<event>
 5   0  0.6671239E-05  0.1300702E+04  0.7818609E-02  0.9029009E-01
        2   -1    0    0  501    0  0.00000000000E+00  0.00000000000E+00  0.94956617052E+03  0.94956617052E+03  0.25500000920E-02 0.  1.
       -2   -1    0    0    0  501  0.00000000000E+00  0.00000000000E+00 -0.44542051785E+03  0.44542051786E+03  0.25500000920E-02 0. -1.
    10030    2    1    2    0    0  0.00000000000E+00  0.00000000000E+00  0.50414565267E+03  0.13949866884E+04  0.13007017420E+04 0.  0.
        1    1    3    3  502    0 -0.18091996009E+03  0.44185486959E+02 -0.41621000365E+03  0.45597714458E+03  0.50400001928E-02 0. -1.
       -1    1    3    3    0  502  0.18091996009E+03 -0.44185486959E+02  0.92035565631E+03  0.93900954380E+03  0.50400001928E-02 0.  1.
</event>
<event>
 5   0  0.6618060E-05  0.1301165E+04  0.7818609E-02  0.9028642E-01
       -2   -1    0    0    0  501  0.00000000000E+00  0.00000000000E+00  0.42773636215E+03  0.42773636216E+03  0.25500000920E-02 0. -1.
        2   -1    0    0  501    0  0.00000000000E+00  0.00000000000E+00 -0.98952897184E+03  0.98952897184E+03  0.25500000920E-02 0.  1.
    10030    2    1    2    0    0  0.00000000000E+00  0.00000000000E+00 -0.56179260969E+03  0.14172653340E+04  0.13011648976E+04 0.  0.
        2    1    3    3  502    0 -0.58350594809E+03  0.23718801897E+03 -0.10351533806E+03  0.63832027464E+03  0.25500000920E-02 0.  1.
       -2    1    3    3    0  502  0.58350594809E+03 -0.23718801897E+03 -0.45827727163E+03  0.77894505936E+03  0.25500000920E-02 0. -1.
</event>
<event>
 5   0  0.3551277E-05  0.1299977E+04  0.7818609E-02  0.9029583E-01
        1   -1    0    0  501    0  0.00000000000E+00  0.00000000000E+00  0.62719439235E+03  0.62719439237E+03  0.50400001928E-02 0.  1.
       -1   -1    0    0    0  501  0.00000000000E+00  0.00000000000E+00 -0.67361126480E+03  0.67361126482E+03  0.50400001928E-02 0. -1.
    10030    2    1    2    0    0  0.00000000000E+00  0.00000000000E+00 -0.46416872455E+02  0.13008056572E+04  0.12999772428E+04 0.  0.
        4    1    3    3  502    0  0.22900756145E+03  0.14353282030E+03  0.56830061981E+03  0.62929590900E+03  0.12699999809E+01 0.  1.
       -4    1    3    3    0  502 -0.22900756145E+03 -0.14353282030E+03 -0.61471749227E+03  0.67150974819E+03  0.12699999809E+01 0. -1.
</event>
<event>
 5   0  0.3718559E-05  0.1302945E+04  0.7818609E-02  0.9027233E-01
       -1   -1    0    0    0  501  0.00000000000E+00  0.00000000000E+00  0.42423954733E+03  0.42423954736E+03  0.50400001928E-02 0.  1.
        1   -1    0    0  501    0  0.00000000000E+00  0.00000000000E+00 -0.10004170611E+04  0.10004170611E+04  0.50400001928E-02 0. -1.
    10030    2    1    2    0    0  0.00000000000E+00  0.00000000000E+00 -0.57617751376E+03  0.14246566085E+04  0.13029450966E+04 0.  0.
        2    1    3    3  502    0  0.49063194702E+03  0.82298709987E+02 -0.74800323659E+03  0.89833269286E+03  0.25500000920E-02 0. -1.
       -2    1    3    3    0  502 -0.49063194702E+03 -0.82298709987E+02  0.17182572283E+03  0.52632391560E+03  0.25500000920E-02 0.  1.
</event>
<event>
 5   0  0.6742824E-05  0.1299917E+04  0.7818609E-02  0.9029631E-01
       -2   -1    0    0    0  501  0.00000000000E+00  0.00000000000E+00  0.36442960196E+03  0.36442960197E+03  0.25500000920E-02 0.  1.
        2   -1    0    0  501    0  0.00000000000E+00  0.00000000000E+00 -0.11591982050E+04  0.11591982050E+04  0.25500000920E-02 0. -1.
    10030    2    1    2    0    0  0.00000000000E+00  0.00000000000E+00 -0.79476860301E+03  0.15236278070E+04  0.12999171365E+04 0.  0.
        4    1    3    3  502    0 -0.44969067224E+03 -0.30326675041E+03  0.22370306074E+02  0.54285768493E+03  0.12699999809E+01 0.  1.
       -4    1    3    3    0  502  0.44969067224E+03  0.30326675041E+03 -0.81713890909E+03  0.98077012202E+03  0.12699999809E+01 0. -1.
</event>
<event>
 5   0  0.6742824E-05  0.1300882E+04  0.7818609E-02  0.9028866E-01
       -2   -1    0    0    0  501  0.00000000000E+00  0.00000000000E+00  0.32028670607E+03  0.32028670608E+03  0.25500000920E-02 0.  1.
        2   -1    0    0  501    0  0.00000000000E+00  0.00000000000E+00 -0.13209220570E+04  0.13209220570E+04  0.25500000920E-02 0. -1.
    10030    2    1    2    0    0  0.00000000000E+00  0.00000000000E+00 -0.10006353510E+04  0.16412087631E+04  0.13008824307E+04 0.  0.
        4    1    3    3  502    0  0.55187273955E+03  0.24930338615E+03 -0.20081711323E+03  0.63800064646E+03  0.12699999809E+01 0.  1.
       -4    1    3    3    0  502 -0.55187273955E+03 -0.24930338615E+03 -0.79981823775E+03  0.10032081167E+04  0.12699999809E+01 0. -1.
</event>
<event>
 5   0  0.3551277E-05  0.1299810E+04  0.7818609E-02  0.9029716E-01
        1   -1    0    0  501    0  0.00000000000E+00  0.00000000000E+00  0.18722085147E+04  0.18722085148E+04  0.50400001928E-02 0.  1.
       -1   -1    0    0    0  501  0.00000000000E+00  0.00000000000E+00 -0.22560323612E+03  0.22560323618E+03  0.50400001928E-02 0. -1.
    10030    2    1    2    0    0  0.00000000000E+00  0.00000000000E+00  0.16466052786E+04  0.20978117509E+04  0.12998096779E+04 0.  0.
        4    1    3    3  502    0  0.64399925283E+03  0.40852098145E+02  0.94801266845E+03  0.11467927293E+04  0.12699999809E+01 0. -1.
       -4    1    3    3    0  502 -0.64399925283E+03 -0.40852098145E+02  0.69859261018E+03  0.95101902161E+03  0.12699999809E+01 0.  1.
</event>
<event>
 5   0  0.3718559E-05  0.1299759E+04  0.7818609E-02  0.9029757E-01
       -1   -1    0    0    0  501  0.00000000000E+00  0.00000000000E+00  0.34014041966E+03  0.34014041970E+03  0.50400001928E-02 0.  1.
        1   -1    0    0  501    0  0.00000000000E+00  0.00000000000E+00 -0.12416728296E+04  0.12416728296E+04  0.50400001928E-02 0. -1.
    10030    2    1    2    0    0  0.00000000000E+00  0.00000000000E+00 -0.90153240990E+03  0.15818132493E+04  0.12997586197E+04 0.  0.
        2    1    3    3  502    0 -0.61204860231E+03  0.15514110251E+03 -0.26352580574E+03  0.68419156936E+03  0.25500000920E-02 0.  1.
       -2    1    3    3    0  502  0.61204860231E+03 -0.15514110251E+03 -0.63800660416E+03  0.89762167991E+03  0.25500000920E-02 0. -1.
</event>
<event>
 5   0  0.6688086E-05  0.1300141E+04  0.7818609E-02  0.9029453E-01
        2   -1    0    0  501    0  0.00000000000E+00  0.00000000000E+00  0.86254783166E+03  0.86254783167E+03  0.25500000920E-02 0. -1.
       -2   -1    0    0    0  501  0.00000000000E+00  0.00000000000E+00 -0.48993424942E+03  0.48993424943E+03  0.25500000920E-02 0.  1.
    10030    2    1    2    0    0  0.00000000000E+00  0.00000000000E+00  0.37261358224E+03  0.13524820811E+04  0.13001411070E+04 0.  0.
        5    1    3    3  502    0  0.44055833326E+03 -0.66799641133E+02  0.67866405883E+03  0.81188720387E+03  0.46999998093E+01 0. -1.
       -5    1    3    3    0  502 -0.44055833326E+03  0.66799641133E+02 -0.30605047658E+03  0.54059487722E+03  0.46999998093E+01 0.  1.
</event>
<event>
 5   0  0.6688086E-05  0.1300412E+04  0.7818609E-02  0.9029238E-01
       -2   -1    0    0    0  501  0.00000000000E+00  0.00000000000E+00  0.34748610298E+03  0.34748610299E+03  0.25500000920E-02 0.  1.
        2   -1    0    0  501    0  0.00000000000E+00  0.00000000000E+00 -0.12166468235E+04  0.12166468235E+04  0.25500000920E-02 0. -1.
    10030    2    1    2    0    0  0.00000000000E+00  0.00000000000E+00 -0.86916072054E+03  0.15641329265E+04  0.13004120323E+04 0.  0.
        5    1    3    3  502    0  0.27902669698E+03  0.46986493090E+03 -0.10832026432E+02  0.54659708535E+03  0.46999998093E+01 0.  1.
       -5    1    3    3    0  502 -0.27902669698E+03 -0.46986493090E+03 -0.85832869411E+03  0.10175358412E+04  0.46999998093E+01 0. -1.
</event>
<event>
 5   0  0.3552698E-05  0.1300426E+04  0.7818609E-02  0.9029227E-01
        1   -1    0    0  501    0  0.00000000000E+00  0.00000000000E+00  0.82381175757E+03  0.82381175759E+03  0.50400001928E-02 0. -1.
       -1   -1    0    0    0  501  0.00000000000E+00  0.00000000000E+00 -0.51319610127E+03  0.51319610130E+03  0.50400001928E-02 0.  1.
    10030    2    1    2    0    0  0.00000000000E+00  0.00000000000E+00  0.31061565630E+03  0.13370078589E+04  0.13004260566E+04 0.  0.
        5    1    3    3  502    0 -0.12581795643E+03 -0.45193487102E+03 -0.30755608567E+03  0.56097069588E+03  0.46999998093E+01 0.  1.
       -5    1    3    3    0  502  0.12581795643E+03  0.45193487102E+03  0.61817174197E+03  0.77603716301E+03  0.46999998093E+01 0. -1.
</event>
<event>
 5   0  0.6618060E-05  0.1299661E+04  0.7818609E-02  0.9029834E-01
        2   -1    0    0  501    0  0.00000000000E+00  0.00000000000E+00  0.16290055442E+04  0.16290055442E+04  0.25500000920E-02 0.  1.
       -2   -1    0    0    0  501  0.00000000000E+00  0.00000000000E+00 -0.25922536260E+03  0.25922536261E+03  0.25500000920E-02 0. -1.
    10030    2    1    2    0    0  0.00000000000E+00  0.00000000000E+00  0.13697801816E+04  0.18882309068E+04  0.12996608064E+04 0.  0.
        2    1    3    3  502    0 -0.41568402314E+03  0.29813692516E+03  0.10265440098E+03  0.52174395951E+03  0.25500000920E-02 0. -1.
       -2    1    3    3    0  502  0.41568402314E+03 -0.29813692516E+03  0.12671257806E+04  0.13664869473E+04  0.25500000920E-02 0.  1.
</event>
<event>
 5   0  0.3551277E-05  0.1299118E+04  0.7818609E-02  0.9030265E-01
       -1   -1    0    0    0  501  0.00000000000E+00  0.00000000000E+00  0.10504678128E+04  0.10504678128E+04  0.50400001928E-02 0. -1.
        1   -1    0    0  501    0  0.00000000000E+00  0.00000000000E+00 -0.40165645157E+03  0.40165645160E+03  0.50400001928E-02 0.  1.
    10030    2    1    2    0    0  0.00000000000E+00  0.00000000000E+00  0.64881136126E+03  0.14521242644E+04  0.12991184307E+04 0.  0.
        4    1    3    3  502    0  0.52938783058E+03  0.31536278822E+03  0.55408198920E+03  0.82868186117E+03  0.12699999809E+01 0.  1.
       -4    1    3    3    0  502 -0.52938783058E+03 -0.31536278822E+03  0.94729372054E+02  0.62344240327E+03  0.12699999809E+01 0. -1.
</event>
<event>
 5   0  0.6458698E-05  0.1299712E+04  0.7818609E-02  0.9029794E-01
       -2   -1    0    0    0  501  0.00000000000E+00  0.00000000000E+00  0.25125963853E+03  0.25125963854E+03  0.25500000920E-02 0. -1.
        2   -1    0    0  501    0  0.00000000000E+00  0.00000000000E+00 -0.16807823935E+04  0.16807823935E+04  0.25500000920E-02 0.  1.
    10030    2    1    2    0    0  0.00000000000E+00  0.00000000000E+00 -0.14295227549E+04  0.19320420320E+04  0.12997119321E+04 0.  0.
        3    1    3    3  502    0 -0.16457747153E+03 -0.62688853057E+03 -0.64444129430E+03  0.91399100975E+03  0.10100000352E+00 0. -1.
       -3    1    3    3    0  502  0.16457747153E+03  0.62688853057E+03 -0.78508146063E+03  0.10180510223E+04  0.10100000352E+00 0.  1.
</event>
<event>
 5   0  0.2512000E-05  0.1301097E+04  0.7818609E-02  0.9028696E-01
        4   -1    0    0  501    0  0.00000000000E+00  0.00000000000E+00  0.11069556388E+04  0.11069563674E+04  0.12699999809E+01 0. -1.
       -4   -1    0    0    0  501  0.00000000000E+00  0.00000000000E+00 -0.38232008038E+03  0.38232218974E+03  0.12699999809E+01 0.  1.
    10030    2    1    2    0    0  0.00000000000E+00  0.00000000000E+00  0.72463555844E+03  0.14892785571E+04  0.13010972016E+04 0.  0.
        4    1    3    3  502    0 -0.10255408805E+03 -0.22173915284E+02  0.10972066772E+04  0.11022128328E+04  0.12699999809E+01 0. -1.
       -4    1    3    3    0  502  0.10255408805E+03  0.22173915284E+02 -0.37257111873E+03  0.38706572427E+03  0.12699999809E+01 0.  1.
</event>
<event>
 5   0  0.6618060E-05  0.1299697E+04  0.7818609E-02  0.9029806E-01
       -2   -1    0    0    0  501  0.00000000000E+00  0.00000000000E+00  0.34422570566E+03  0.34422570567E+03  0.25500000920E-02 0. -1.
        2   -1    0    0  501    0  0.00000000000E+00  0.00000000000E+00 -0.12268195739E+04  0.12268195739E+04  0.25500000920E-02 0.  1.
    10030    2    1    2    0    0  0.00000000000E+00  0.00000000000E+00 -0.88259386825E+03  0.15710452796E+04  0.12996966316E+04 0.  0.
        2    1    3    3  502    0 -0.94144603294E+01 -0.64950543961E+03 -0.46413246457E+03  0.79835135925E+03  0.25500000920E-02 0.  1.
       -2    1    3    3    0  502  0.94144603294E+01  0.64950543961E+03 -0.41846140368E+03  0.77269392034E+03  0.25500000920E-02 0. -1.
</event>
<event>
 5   0  0.3631841E-05  0.1299227E+04  0.7818609E-02  0.9030179E-01
       -1   -1    0    0    0  501  0.00000000000E+00  0.00000000000E+00  0.13249261060E+04  0.13249261060E+04  0.50400001928E-02 0. -1.
        1   -1    0    0  501    0  0.00000000000E+00  0.00000000000E+00 -0.31850635671E+03  0.31850635675E+03  0.50400001928E-02 0.  1.
    10030    2    1    2    0    0  0.00000000000E+00  0.00000000000E+00  0.10064197493E+04  0.16434324628E+04  0.12992265191E+04 0.  0.
        3    1    3    3  502    0  0.53378367048E+03 -0.20497746134E+03  0.11321567633E+03  0.58288812485E+03  0.10100000352E+00 0.  1.
       -3    1    3    3    0  502 -0.53378367048E+03  0.20497746134E+03  0.89320407298E+03  0.10605443379E+04  0.10100000352E+00 0. -1.
</event>
<event>
 5   0  0.6618060E-05  0.1299449E+04  0.7818609E-02  0.9030003E-01
        2   -1    0    0  501    0  0.00000000000E+00  0.00000000000E+00  0.20240879860E+04  0.20240879860E+04  0.25500000920E-02 0. -1.
       -2   -1    0    0    0  501  0.00000000000E+00  0.00000000000E+00 -0.20855893965E+03  0.20855893967E+03  0.25500000920E-02 0.  1.
    10030    2    1    2    0    0  0.00000000000E+00  0.00000000000E+00  0.18155290463E+04  0.22326469256E+04  0.12994485663E+04 0.  0.
        2    1    3    3  502    0  0.64856937700E+03  0.37655140318E+02  0.92327530760E+03  0.11289364198E+04  0.25500000920E-02 0. -1.
       -2    1    3    3    0  502 -0.64856937700E+03 -0.37655140318E+02  0.89225373871E+03  0.11037105058E+04  0.25500000920E-02 0.  1.
</event>
<event>
 5   0  0.3552698E-05  0.1299575E+04  0.7818609E-02  0.9029902E-01
       -1   -1    0    0    0  501  0.00000000000E+00  0.00000000000E+00  0.59906758184E+03  0.59906758186E+03  0.50400001928E-02 0.  1.
        1   -1    0    0  501    0  0.00000000000E+00  0.00000000000E+00 -0.70480171673E+03  0.70480171675E+03  0.50400001928E-02 0. -1.
    10030    2    1    2    0    0  0.00000000000E+00  0.00000000000E+00 -0.10573413489E+03  0.13038692986E+04  0.12995751000E+04 0.  0.
        5    1    3    3  502    0  0.49663884953E+03 -0.66506227847E+02 -0.46791084444E+03  0.68559162301E+03  0.46999998093E+01 0. -1.
       -5    1    3    3    0  502 -0.49663884953E+03  0.66506227847E+02  0.36217670955E+03  0.61827767560E+03  0.46999998093E+01 0.  1.
</event>
<event>
 5   0  0.3551277E-05  0.1300140E+04  0.7818609E-02  0.9029454E-01
        1   -1    0    0  501    0  0.00000000000E+00  0.00000000000E+00  0.48642434587E+03  0.48642434590E+03  0.50400001928E-02 0. -1.
       -1   -1    0    0    0  501  0.00000000000E+00  0.00000000000E+00 -0.86877009501E+03  0.86877009503E+03  0.50400001928E-02 0.  1.
    10030    2    1    2    0    0  0.00000000000E+00  0.00000000000E+00 -0.38234574914E+03  0.13551944409E+04  0.13001398774E+04 0.  0.
        4    1    3    3  502    0 -0.13714241269E+03 -0.11235103376E+03  0.46073755249E+03  0.49367145078E+03  0.12699999809E+01 0. -1.
       -4    1    3    3    0  502  0.13714241269E+03  0.11235103376E+03 -0.84308330164E+03  0.86152299014E+03  0.12699999809E+01 0.  1.
</event>
<event>
 5   0  0.6458698E-05  0.1299539E+04  0.7818609E-02  0.9029931E-01
       -2   -1    0    0    0  501  0.00000000000E+00  0.00000000000E+00  0.59614330347E+03  0.59614330347E+03  0.25500000920E-02 0.  1.
        2   -1    0    0  501    0  0.00000000000E+00  0.00000000000E+00 -0.70821948627E+03  0.70821948628E+03  0.25500000920E-02 0. -1.
    10030    2    1    2    0    0  0.00000000000E+00  0.00000000000E+00 -0.11207618281E+03  0.13043627897E+04  0.12995388476E+04 0.  0.
        3    1    3    3  502    0 -0.62458497317E+03 -0.71026704373E+02 -0.22111474045E+03  0.66636545535E+03  0.10100000352E+00 0. -1.
       -3    1    3    3    0  502  0.62458497317E+03  0.71026704373E+02  0.10903855764E+03  0.63799733440E+03  0.10100000352E+00 0.  1.
</event>
<event>
 5   0  0.3631841E-05  0.1299833E+04  0.7818609E-02  0.9029698E-01
        1   -1    0    0  501    0  0.00000000000E+00  0.00000000000E+00  0.19770685820E+04  0.19770685820E+04  0.50400001928E-02 0.  1.
       -1   -1    0    0    0  501  0.00000000000E+00  0.00000000000E+00 -0.21364529722E+03  0.21364529728E+03  0.50400001928E-02 0. -1.
    10030    2    1    2    0    0  0.00000000000E+00  0.00000000000E+00  0.17634232848E+04  0.21907138793E+04  0.12998329199E+04 0.  0.
        3    1    3    3  502    0  0.47264886737E+03 -0.17130852283E+03  0.18753134034E+03  0.53657392373E+03  0.10100000352E+00 0. -1.
       -3    1    3    3    0  502 -0.47264886737E+03  0.17130852283E+03  0.15758919444E+04  0.16541399555E+04  0.10100000352E+00 0.  1.
</event>
<event>
 5   0  0.3718559E-05  0.1301280E+04  0.7818609E-02  0.9028551E-01
       -1   -1    0    0    0  501  0.00000000000E+00  0.00000000000E+00  0.49566583337E+03  0.49566583339E+03  0.50400001928E-02 0. -1.
        1   -1    0    0  501    0  0.00000000000E+00  0.00000000000E+00 -0.85406785545E+03  0.85406785546E+03  0.50400001928E-02 0.  1.
    10030    2    1    2    0    0  0.00000000000E+00  0.00000000000E+00 -0.35840202208E+03  0.13497336889E+04  0.13012797629E+04 0.  0.
        2    1    3    3  502    0 -0.73952225039E+02  0.17801499887E+03 -0.82376927435E+03  0.84602251080E+03  0.25500000920E-02 0.  1.
       -2    1    3    3    0  502  0.73952225039E+02 -0.17801499887E+03  0.46536725227E+03  0.50371117806E+03  0.25500000920E-02 0. -1.
</event>
<event>
 5   0  0.3718559E-05  0.1300354E+04  0.7818609E-02  0.9029284E-01
       -1   -1    0    0    0  501  0.00000000000E+00  0.00000000000E+00  0.60519589822E+03  0.60519589824E+03  0.50400001928E-02 0.  1.
        1   -1    0    0  501    0  0.00000000000E+00  0.00000000000E+00 -0.69850131920E+03  0.69850131921E+03  0.50400001928E-02 0. -1.
    10030    2    1    2    0    0  0.00000000000E+00  0.00000000000E+00 -0.93305420975E+02  0.13036972175E+04  0.13003540030E+04 0.  0.
        2    1    3    3  502    0 -0.11820347444E+03 -0.31795128533E+03 -0.60275441116E+03  0.69164872688E+03  0.25500000920E-02 0. -1.
       -2    1    3    3    0  502  0.11820347444E+03  0.31795128533E+03  0.50944899019E+03  0.61204849058E+03  0.25500000920E-02 0.  1.
</event>
<event>
 5   0  0.6742824E-05  0.1293194E+04  0.7818609E-02  0.9034980E-01
       -2   -1    0    0    0  501  0.00000000000E+00  0.00000000000E+00  0.63246811751E+03  0.63246811752E+03  0.25500000920E-02 0.  1.
        2   -1    0    0  501    0  0.00000000000E+00  0.00000000000E+00 -0.66104148857E+03  0.66104148858E+03  0.25500000920E-02 0. -1.
    10030    2    1    2    0    0  0.00000000000E+00  0.00000000000E+00 -0.28573371057E+02  0.12935096061E+04  0.12931939775E+04 0.  0.
        4    1    3    3  502    0 -0.20690640436E+03  0.22104647433E+03  0.55717950214E+03  0.63413122812E+03  0.12699999809E+01 0.  1.
       -4    1    3    3    0  502  0.20690640436E+03 -0.22104647433E+03 -0.58575287320E+03  0.65937837797E+03  0.12699999809E+01 0. -1.
</event>
<event>
 5   0  0.3551277E-05  0.1299491E+04  0.7818609E-02  0.9029969E-01
       -1   -1    0    0    0  501  0.00000000000E+00  0.00000000000E+00  0.45068238239E+03  0.45068238242E+03  0.50400001928E-02 0. -1.
        1   -1    0    0  501    0  0.00000000000E+00  0.00000000000E+00 -0.93673296294E+03  0.93673296296E+03  0.50400001928E-02 0.  1.
    10030    2    1    2    0    0  0.00000000000E+00  0.00000000000E+00 -0.48605058055E+03  0.13874153454E+04  0.12994907363E+04 0.  0.
        4    1    3    3  502    0  0.88110098935E+02  0.71105811649E+02 -0.92611799094E+03  0.93301423999E+03  0.12699999809E+01 0.  1.
       -4    1    3    3    0  502 -0.88110098935E+02 -0.71105811649E+02  0.44006741039E+03  0.45440110538E+03  0.12699999809E+01 0. -1.
</event>
<event>
 5   0  0.3689707E-05  0.1301288E+04  0.7818609E-02  0.9028544E-01
        1   -1    0    0  501    0  0.00000000000E+00  0.00000000000E+00  0.11663299108E+04  0.11663299108E+04  0.50400001928E-02 0.  1.
       -1   -1    0    0    0  501  0.00000000000E+00  0.00000000000E+00 -0.36296564938E+03  0.36296564941E+03  0.50400001928E-02 0. -1.
    10030    2    1    2    0    0  0.00000000000E+00  0.00000000000E+00  0.80336426141E+03  0.15292955602E+04  0.13012881210E+04 0.  0.
        1    1    3    3  502    0 -0.22968930535E+02 -0.56274618815E+03  0.78453384687E+03  0.96576612125E+03  0.50400001928E-02 0.  1.
       -1    1    3    3    0  502  0.22968930535E+02  0.56274618815E+03  0.18830414543E+02  0.56352943896E+03  0.50400001928E-02 0. -1.
</event>
<event>
 5   0  0.6688086E-05  0.1300160E+04  0.7818609E-02  0.9029438E-01
       -2   -1    0    0    0  501  0.00000000000E+00  0.00000000000E+00  0.34209654785E+03  0.34209654786E+03  0.25500000920E-02 0. -1.
        2   -1    0    0  501    0  0.00000000000E+00  0.00000000000E+00 -0.12353351562E+04  0.12353351562E+04  0.25500000920E-02 0.  1.
    10030    2    1    2    0    0  0.00000000000E+00  0.00000000000E+00 -0.89323860839E+03  0.15774317041E+04  0.13001598246E+04 0.  0.
        5    1    3    3  502    0 -0.11771765424E+03 -0.18538794146E+03 -0.11889476243E+04  0.12090676897E+04  0.46999998093E+01 0.  1.
       -5    1    3    3    0  502  0.11771765424E+03  0.18538794146E+03  0.29570901595E+03  0.36836401436E+03  0.46999998093E+01 0. -1.
</event>
<event>
 5   0  0.6671239E-05  0.1294784E+04  0.7818609E-02  0.9033712E-01
        2   -1    0    0  501    0  0.00000000000E+00  0.00000000000E+00  0.61368414263E+03  0.61368414264E+03  0.25500000920E-02 0. -1.
       -2   -1    0    0    0  501  0.00000000000E+00  0.00000000000E+00 -0.68295135960E+03  0.68295135960E+03  0.25500000920E-02 0.  1.
    10030    2    1    2    0    0  0.00000000000E+00  0.00000000000E+00 -0.69267216967E+02  0.12966355022E+04  0.12947840277E+04 0.  0.
        1    1    3    3  502    0 -0.12623375937E+03 -0.36335373450E+03 -0.55610417575E+03  0.67617509026E+03  0.50400001928E-02 0.  1.
       -1    1    3    3    0  502  0.12623375937E+03  0.36335373450E+03  0.48683695878E+03  0.62046041198E+03  0.50400001928E-02 0. -1.
</event>
<event>
 5   0  0.6671239E-05  0.1300307E+04  0.7818609E-02  0.9029321E-01
        2   -1    0    0  501    0  0.00000000000E+00  0.00000000000E+00  0.49526341713E+03  0.49526341714E+03  0.25500000920E-02 0.  1.
       -2   -1    0    0    0  501  0.00000000000E+00  0.00000000000E+00 -0.85348500166E+03  0.85348500166E+03  0.25500000920E-02 0. -1.
    10030    2    1    2    0    0  0.00000000000E+00  0.00000000000E+00 -0.35822158452E+03  0.13487484188E+04  0.13003074996E+04 0.  0.
        1    1    3    3  502    0 -0.42797689232E+03 -0.47784356525E+03 -0.69332301153E+02  0.64521753015E+03  0.50400001928E-02 0. -1.
       -1    1    3    3    0  502  0.42797689232E+03  0.47784356525E+03 -0.28888928337E+03  0.70353088865E+03  0.50400001928E-02 0.  1.
</event>
<event>
 5   0  0.3631841E-05  0.1300317E+04  0.7818609E-02  0.9029314E-01
        1   -1    0    0  501    0  0.00000000000E+00  0.00000000000E+00  0.80014465766E+03  0.80014465768E+03  0.50400001928E-02 0. -1.
       -1   -1    0    0    0  501  0.00000000000E+00  0.00000000000E+00 -0.52828723045E+03  0.52828723047E+03  0.50400001928E-02 0.  1.
    10030    2    1    2    0    0  0.00000000000E+00  0.00000000000E+00  0.27185742721E+03  0.13284318882E+04  0.13003172000E+04 0.  0.
        3    1    3    3  502    0 -0.14269487489E+03  0.92246247955E+02  0.77706024724E+03  0.79542054011E+03  0.10100000352E+00 0. -1.
       -3    1    3    3    0  502  0.14269487489E+03 -0.92246247955E+02 -0.50520282003E+03  0.53301134805E+03  0.10100000352E+00 0.  1.
</event>
<event>
 5   0  0.6688086E-05  0.1300215E+04  0.7818609E-02  0.9029395E-01
        2   -1    0    0  501    0  0.00000000000E+00  0.00000000000E+00  0.12820497645E+04  0.12820497645E+04  0.25500000920E-02 0. -1.
       -2   -1    0    0    0  501  0.00000000000E+00  0.00000000000E+00 -0.32965946253E+03  0.32965946254E+03  0.25500000920E-02 0.  1.
    10030    2    1    2    0    0  0.00000000000E+00  0.00000000000E+00  0.95239030196E+03  0.16117092270E+04  0.13002151150E+04 0.  0.
        5    1    3    3  502    0 -0.38955557830E+03  0.30239233169E+03 -0.48866899368E+02  0.49558524464E+03  0.46999998093E+01 0.  1.
       -5    1    3    3    0  502  0.38955557830E+03 -0.30239233169E+03  0.10012572013E+04  0.11161239824E+04  0.46999998093E+01 0. -1.
</event>
<event>
 5   0  0.6618060E-05  0.1300313E+04  0.7818609E-02  0.9029317E-01
        2   -1    0    0  501    0  0.00000000000E+00  0.00000000000E+00  0.23815356532E+04  0.23815356532E+04  0.25500000920E-02 0. -1.
       -2   -1    0    0    0  501  0.00000000000E+00  0.00000000000E+00 -0.17749201119E+03  0.17749201121E+03  0.25500000920E-02 0.  1.
    10030    2    1    2    0    0  0.00000000000E+00  0.00000000000E+00  0.22040436420E+04  0.25590276644E+04  0.13003131205E+04 0.  0.
        2    1    3    3  502    0 -0.42441386822E+03  0.21288989992E+03  0.19760798947E+04  0.20323240370E+04  0.25500000920E-02 0. -1.
       -2    1    3    3    0  502  0.42441386822E+03 -0.21288989992E+03  0.22796374724E+03  0.52670362737E+03  0.25500000920E-02 0.  1.
</event>
<event>
 5   0  0.3552698E-05  0.1300372E+04  0.7818609E-02  0.9029270E-01
       -1   -1    0    0    0  501  0.00000000000E+00  0.00000000000E+00  0.24808014950E+03  0.24808014955E+03  0.50400001928E-02 0. -1.
        1   -1    0    0  501    0  0.00000000000E+00  0.00000000000E+00 -0.17040525414E+04  0.17040525414E+04  0.50400001928E-02 0.  1.
    10030    2    1    2    0    0  0.00000000000E+00  0.00000000000E+00 -0.14559723919E+04  0.19521326909E+04  0.13003716535E+04 0.  0.
        5    1    3    3  502    0  0.29256901711E+03  0.51480896587E+03 -0.11310680649E+04  0.12766996352E+04  0.46999998093E+01 0. -1.
       -5    1    3    3    0  502 -0.29256901711E+03 -0.51480896587E+03 -0.32490432702E+03  0.67543305577E+03  0.46999998093E+01 0.  1.
</event>
<event>
 5   0  0.6671239E-05  0.1299417E+04  0.7818609E-02  0.9030028E-01
       -2   -1    0    0    0  501  0.00000000000E+00  0.00000000000E+00  0.58438553340E+03  0.58438553340E+03  0.25500000920E-02 0. -1.
        2   -1    0    0  501    0  0.00000000000E+00  0.00000000000E+00 -0.72233326059E+03  0.72233326060E+03  0.25500000920E-02 0.  1.
    10030    2    1    2    0    0  0.00000000000E+00  0.00000000000E+00 -0.13794772720E+03  0.13067187940E+04  0.12994169582E+04 0.  0.
        1    1    3    3  502    0 -0.55836286699E+03 -0.20825199946E+03  0.19129145323E+03  0.62588370055E+03  0.50400001928E-02 0. -1.
       -1    1    3    3    0  502  0.55836286699E+03  0.20825199946E+03 -0.32923918043E+03  0.68083509345E+03  0.50400001928E-02 0.  1.
</event>
<event>
 5   0  0.6742824E-05  0.1300174E+04  0.7818609E-02  0.9029427E-01
        2   -1    0    0  501    0  0.00000000000E+00  0.00000000000E+00  0.63906556574E+03  0.63906556574E+03  0.25500000920E-02 0.  1.
       -2   -1    0    0    0  501  0.00000000000E+00  0.00000000000E+00 -0.66129884545E+03  0.66129884545E+03  0.25500000920E-02 0. -1.
    10030    2    1    2    0    0  0.00000000000E+00  0.00000000000E+00 -0.22233279710E+02  0.13003644112E+04  0.13001743280E+04 0.  0.
        4    1    3    3  502    0  0.10218350252E+03 -0.20032483239E+03 -0.62115679627E+03  0.66061250753E+03  0.12699999809E+01 0. -1.
       -4    1    3    3    0  502 -0.10218350252E+03  0.20032483239E+03  0.59892351656E+03  0.63975190367E+03  0.12699999809E+01 0.  1.
</event>
<event>
 5   0  0.6671239E-05  0.1298260E+04  0.7818609E-02  0.9030946E-01
       -2   -1    0    0    0  501  0.00000000000E+00  0.00000000000E+00  0.12638999458E+04  0.12638999458E+04  0.25500000920E-02 0.  1.
        2   -1    0    0  501    0  0.00000000000E+00  0.00000000000E+00 -0.33338837888E+03  0.33338837889E+03  0.25500000920E-02 0. -1.
    10030    2    1    2    0    0  0.00000000000E+00  0.00000000000E+00  0.93051156696E+03  0.15972883247E+04  0.12982596875E+04 0.  0.
        1    1    3    3  502    0  0.47277067172E+03  0.34182761921E+03  0.11507314370E+03  0.59464279843E+03  0.50400001928E-02 0. -1.
       -1    1    3    3    0  502 -0.47277067172E+03 -0.34182761921E+03  0.81543842326E+03  0.10026455263E+04  0.50400001928E-02 0.  1.
</event>
<event>
 5   0  0.6618060E-05  0.1299807E+04  0.7818609E-02  0.9029718E-01
        2   -1    0    0  501    0  0.00000000000E+00  0.00000000000E+00  0.12539750866E+04  0.12539750866E+04  0.25500000920E-02 0. -1.
       -2   -1    0    0    0  501  0.00000000000E+00  0.00000000000E+00 -0.33682869543E+03  0.33682869544E+03  0.25500000920E-02 0.  1.
    10030    2    1    2    0    0  0.00000000000E+00  0.00000000000E+00  0.91714639121E+03  0.15908037821E+04  0.12998073589E+04 0.  0.
        2    1    3    3  502    0 -0.51855231389E+03  0.23620768150E+03  0.76056995144E+02  0.57486975704E+03  0.25500000920E-02 0.  1.
       -2    1    3    3    0  502  0.51855231389E+03 -0.23620768150E+03  0.84108939607E+03  0.10159340250E+04  0.25500000920E-02 0. -1.
</event>
<event>
 5   0  0.3718559E-05  0.1299573E+04  0.7818609E-02  0.9029904E-01
        1   -1    0    0  501    0  0.00000000000E+00  0.00000000000E+00  0.36766455884E+03  0.36766455887E+03  0.50400001928E-02 0.  1.
       -1   -1    0    0    0  501  0.00000000000E+00  0.00000000000E+00 -0.11483902542E+04  0.11483902542E+04  0.50400001928E-02 0. -1.
    10030    2    1    2    0    0  0.00000000000E+00  0.00000000000E+00 -0.78072569538E+03  0.15160548131E+04  0.12995728471E+04 0.  0.
        2    1    3    3  502    0  0.12562448045E+03  0.45394717183E+03  0.13183336045E+03  0.48911100973E+03  0.25500000920E-02 0.  1.
       -2    1    3    3    0  502 -0.12562448045E+03 -0.45394717183E+03 -0.91255905583E+03  0.10269438034E+04  0.25500000920E-02 0. -1.
</event>
<event>
 5   0  0.3718559E-05  0.1300984E+04  0.7818609E-02  0.9028785E-01
       -1   -1    0    0    0  501  0.00000000000E+00  0.00000000000E+00  0.12840442853E+04  0.12840442853E+04  0.50400001928E-02 0. -1.
        1   -1    0    0  501    0  0.00000000000E+00  0.00000000000E+00 -0.32953687466E+03  0.32953687469E+03  0.50400001928E-02 0.  1.
    10030    2    1    2    0    0  0.00000000000E+00  0.00000000000E+00  0.95450741067E+03  0.16135811600E+04  0.13009841517E+04 0.  0.
        2    1    3    3  502    0 -0.32686360247E+03 -0.12499010865E+03  0.11573483344E+04  0.12090978078E+04  0.25500000920E-02 0. -1.
       -2    1    3    3    0  502  0.32686360247E+03  0.12499010865E+03 -0.20284092368E+03  0.40448335220E+03  0.25500000920E-02 0.  1.
</event>
<event>
 5   0  0.6671239E-05  0.1299827E+04  0.7818609E-02  0.9029702E-01
        2   -1    0    0  501    0  0.00000000000E+00  0.00000000000E+00  0.14269946680E+04  0.14269946680E+04  0.25500000920E-02 0. -1.
       -2   -1    0    0    0  501  0.00000000000E+00  0.00000000000E+00 -0.29599795488E+03  0.29599795489E+03  0.25500000920E-02 0.  1.
    10030    2    1    2    0    0  0.00000000000E+00  0.00000000000E+00  0.11309967131E+04  0.17229926229E+04  0.12998269167E+04 0.  0.
        1    1    3    3  502    0  0.52277018491E+03 -0.22968411331E+03  0.97694197478E+03  0.11315737184E+04  0.50400001928E-02 0. -1.
       -1    1    3    3    0  502 -0.52277018491E+03  0.22968411331E+03  0.15405473835E+03  0.59141890447E+03  0.50400001928E-02 0.  1.
</event>
<event>
 5   0  0.3689707E-05  0.1299872E+04  0.7818609E-02  0.9029667E-01
        1   -1    0    0  501    0  0.00000000000E+00  0.00000000000E+00  0.92115797329E+03  0.92115797330E+03  0.50400001928E-02 0. -1.
       -1   -1    0    0    0  501  0.00000000000E+00  0.00000000000E+00 -0.45857140546E+03  0.45857140549E+03  0.50400001928E-02 0.  1.
    10030    2    1    2    0    0  0.00000000000E+00  0.00000000000E+00  0.46258656783E+03  0.13797293788E+04  0.12998718498E+04 0.  0.
        1    1    3    3  502    0  0.11647917956E+02 -0.15398820121E+03  0.90140151099E+03  0.91453415690E+03  0.50400001928E-02 0. -1.
       -1    1    3    3    0  502 -0.11647917956E+02  0.15398820121E+03 -0.43881494316E+03  0.46519522189E+03  0.50400001928E-02 0.  1.
</event>
<event>
 5   0  0.3552698E-05  0.1299827E+04  0.7818609E-02  0.9029703E-01
        1   -1    0    0  501    0  0.00000000000E+00  0.00000000000E+00  0.41135687039E+03  0.41135687042E+03  0.50400001928E-02 0. -1.
       -1   -1    0    0    0  501  0.00000000000E+00  0.00000000000E+00 -0.10268147689E+04  0.10268147689E+04  0.50400001928E-02 0.  1.
    10030    2    1    2    0    0  0.00000000000E+00  0.00000000000E+00 -0.61545789854E+03  0.14381716394E+04  0.12998266190E+04 0.  0.
        5    1    3    3  502    0 -0.27190946556E+03 -0.56512780829E+03 -0.49634590905E+03  0.79980344372E+03  0.46999998093E+01 0.  1.
       -5    1    3    3    0  502  0.27190946556E+03  0.56512780829E+03 -0.11911198949E+03  0.63836819564E+03  0.46999998093E+01 0. -1.
</event>
<event>
 5   0  0.6458698E-05  0.1305397E+04  0.7818609E-02  0.9025297E-01
       -2   -1    0    0    0  501  0.00000000000E+00  0.00000000000E+00  0.59430573463E+03  0.59430573464E+03  0.25500000920E-02 0.  1.
        2   -1    0    0  501    0  0.00000000000E+00  0.00000000000E+00 -0.71682817047E+03  0.71682817048E+03  0.25500000920E-02 0. -1.
    10030    2    1    2    0    0  0.00000000000E+00  0.00000000000E+00 -0.12252243584E+03  0.13111339051E+04  0.13053966332E+04 0.  0.
        3    1    3    3  502    0 -0.27737259373E+03 -0.24123374507E+03  0.48044750068E+03  0.60494552369E+03  0.10100000352E+00 0.  1.
       -3    1    3    3    0  502  0.27737259373E+03  0.24123374507E+03 -0.60296993652E+03  0.70618838143E+03  0.10100000352E+00 0. -1.
</event>
<event>
 5   0  0.3551277E-05  0.1300200E+04  0.7818609E-02  0.9029407E-01
       -1   -1    0    0    0  501  0.00000000000E+00  0.00000000000E+00  0.41179323842E+03  0.41179323845E+03  0.50400001928E-02 0.  1.
        1   -1    0    0  501    0  0.00000000000E+00  0.00000000000E+00 -0.10263161186E+04  0.10263161186E+04  0.50400001928E-02 0. -1.
    10030    2    1    2    0    0  0.00000000000E+00  0.00000000000E+00 -0.61452288017E+03  0.14381093571E+04  0.13002000433E+04 0.  0.
        4    1    3    3  502    0  0.60749487459E+02 -0.56078958281E+02  0.40595338516E+03  0.41428868390E+03  0.12699999809E+01 0.  1.
       -4    1    3    3    0  502 -0.60749487459E+02  0.56078958281E+02 -0.10204762653E+04  0.10238206732E+04  0.12699999809E+01 0. -1.
</event>
<event>
 5   0  0.6618060E-05  0.1299254E+04  0.7818609E-02  0.9030157E-01
        2   -1    0    0  501    0  0.00000000000E+00  0.00000000000E+00  0.96522797631E+03  0.96522797631E+03  0.25500000920E-02 0.  1.
       -2   -1    0    0    0  501  0.00000000000E+00  0.00000000000E+00 -0.43721804847E+03  0.43721804848E+03  0.25500000920E-02 0. -1.
    10030    2    1    2    0    0  0.00000000000E+00  0.00000000000E+00  0.52800992784E+03  0.14024460248E+04  0.12992537737E+04 0.  0.
        2    1    3    3  502    0  0.38230510041E+03  0.33308268167E+03 -0.17434472956E+03  0.53618779113E+03  0.25500000920E-02 0.  1.
       -2    1    3    3    0  502 -0.38230510041E+03 -0.33308268167E+03  0.70235465739E+03  0.86625823367E+03  0.25500000920E-02 0. -1.
</event>
<event>
 5   0  0.3551277E-05  0.1300268E+04  0.7818609E-02  0.9029353E-01
       -1   -1    0    0    0  501  0.00000000000E+00  0.00000000000E+00  0.35735524000E+03  0.35735524003E+03  0.50400001928E-02 0.  1.
        1   -1    0    0  501    0  0.00000000000E+00  0.00000000000E+00 -0.11827841928E+04  0.11827841928E+04  0.50400001928E-02 0. -1.
    10030    2    1    2    0    0  0.00000000000E+00  0.00000000000E+00 -0.82542895276E+03  0.15401394328E+04  0.13002678633E+04 0.  0.
        4    1    3    3  502    0  0.45168743647E+03 -0.25840253509E+01 -0.96656974354E+03  0.10669052908E+04  0.12699999809E+01 0. -1.
       -4    1    3    3    0  502 -0.45168743647E+03  0.25840253509E+01  0.14114079079E+03  0.47323414202E+03  0.12699999809E+01 0.  1.
</event>
<event>
 5   0  0.3689707E-05  0.1300667E+04  0.7818609E-02  0.9029036E-01
       -1   -1    0    0    0  501  0.00000000000E+00  0.00000000000E+00  0.69279632949E+03  0.69279632951E+03  0.50400001928E-02 0.  1.
        1   -1    0    0  501    0  0.00000000000E+00  0.00000000000E+00 -0.61047365050E+03  0.61047365052E+03  0.50400001928E-02 0. -1.
    10030    2    1    2    0    0  0.00000000000E+00  0.00000000000E+00  0.82322678993E+02  0.13032699800E+04  0.13006673738E+04 0.  0.
        1    1    3    3  502    0 -0.32127521632E+03  0.38197466325E+03 -0.37657994175E+03  0.62524783929E+03  0.50400001928E-02 0. -1.
       -1    1    3    3    0  502  0.32127521632E+03 -0.38197466325E+03  0.45890262074E+03  0.67802214074E+03  0.50400001928E-02 0.  1.
</event>
<event>
 5   0  0.6688086E-05  0.1300410E+04  0.7818609E-02  0.9029240E-01
       -2   -1    0    0    0  501  0.00000000000E+00  0.00000000000E+00  0.44858968850E+03  0.44858968851E+03  0.25500000920E-02 0. -1.
        2   -1    0    0  501    0  0.00000000000E+00  0.00000000000E+00 -0.94243515056E+03  0.94243515056E+03  0.25500000920E-02 0.  1.
    10030    2    1    2    0    0  0.00000000000E+00  0.00000000000E+00 -0.49384546206E+03  0.13910248391E+04  0.13004102285E+04 0.  0.
        5    1    3    3  502    0  0.83730847745E+02 -0.10252132000E+03 -0.92785139886E+03  0.93725758695E+03  0.46999998093E+01 0.  1.
       -5    1    3    3    0  502 -0.83730847745E+02  0.10252132000E+03  0.43400593680E+03  0.45376725212E+03  0.46999998093E+01 0. -1.
</event>
<event>
 5   0  0.3631841E-05  0.1300131E+04  0.7818609E-02  0.9029461E-01
        1   -1    0    0  501    0  0.00000000000E+00  0.00000000000E+00  0.63258132383E+03  0.63258132385E+03  0.50400001928E-02 0.  1.
       -1   -1    0    0    0  501  0.00000000000E+00  0.00000000000E+00 -0.66803342224E+03  0.66803342226E+03  0.50400001928E-02 0. -1.
    10030    2    1    2    0    0  0.00000000000E+00  0.00000000000E+00 -0.35452098410E+02  0.13006147461E+04  0.13001314805E+04 0.  0.
        3    1    3    3  502    0 -0.38638751078E+03  0.14442094462E+03  0.48488755456E+03  0.63660715399E+03  0.10100000352E+00 0.  1.
       -3    1    3    3    0  502  0.38638751078E+03 -0.14442094462E+03 -0.52033965297E+03  0.66400759212E+03  0.10100000352E+00 0. -1.
</event>
<event>
 5   0  0.3631841E-05  0.1300263E+04  0.7818609E-02  0.9029356E-01
        1   -1    0    0  501    0  0.00000000000E+00  0.00000000000E+00  0.13768764971E+04  0.13768764971E+04  0.50400001928E-02 0. -1.
       -1   -1    0    0    0  501  0.00000000000E+00  0.00000000000E+00 -0.30697826372E+03  0.30697826376E+03  0.50400001928E-02 0.  1.
    10030    2    1    2    0    0  0.00000000000E+00  0.00000000000E+00  0.10698982334E+04  0.16838547609E+04  0.13002632910E+04 0.  0.
        3    1    3    3  502    0 -0.30010644416E+03 -0.40700178939E+03  0.10640949723E+04  0.11781394038E+04  0.10100000352E+00 0. -1.
       -3    1    3    3    0  502  0.30010644416E+03  0.40700178939E+03  0.58032610887E+01  0.50571535713E+03  0.10100000352E+00 0.  1.
</event>
<event>
 5   0  0.6618060E-05  0.1295547E+04  0.7818609E-02  0.9033104E-01
        2   -1    0    0  501    0  0.00000000000E+00  0.00000000000E+00  0.10840777785E+04  0.10840777785E+04  0.25500000920E-02 0. -1.
       -2   -1    0    0    0  501  0.00000000000E+00  0.00000000000E+00 -0.38706654883E+03  0.38706654883E+03  0.25500000920E-02 0.  1.
    10030    2    1    2    0    0  0.00000000000E+00  0.00000000000E+00  0.69701122967E+03  0.14711443273E+04  0.12955465941E+04 0.  0.
        2    1    3    3  502    0  0.33220450175E+01  0.55422186609E+03  0.72927104309E+03  0.91597443585E+03  0.25500000920E-02 0. -1.
       -2    1    3    3    0  502 -0.33220450175E+01 -0.55422186609E+03 -0.32259813423E+02  0.55516989148E+03  0.25500000920E-02 0.  1.
</event>
<event>
 5   0  0.6742824E-05  0.1293628E+04  0.7818609E-02  0.9034633E-01
       -2   -1    0    0    0  501  0.00000000000E+00  0.00000000000E+00  0.10863429874E+04  0.10863429874E+04  0.25500000920E-02 0. -1.
        2   -1    0    0  501    0  0.00000000000E+00  0.00000000000E+00 -0.38511646277E+03  0.38511646278E+03  0.25500000920E-02 0.  1.
    10030    2    1    2    0    0  0.00000000000E+00  0.00000000000E+00  0.70122652465E+03  0.14714594502E+04  0.12936283372E+04 0.  0.
        4    1    3    3  502    0 -0.19163139866E+03  0.53128108237E+02  0.10507070774E+04  0.10693606334E+04  0.12699999809E+01 0. -1.
       -4    1    3    3    0  502  0.19163139866E+03 -0.53128108237E+02 -0.34948055275E+03  0.40209881682E+03  0.12699999809E+01 0.  1.
</event>
<event>
 5   0  0.3631841E-05  0.1296501E+04  0.7818609E-02  0.9032345E-01
       -1   -1    0    0    0  501  0.00000000000E+00  0.00000000000E+00  0.79541620541E+03  0.79541620543E+03  0.50400001928E-02 0.  1.
        1   -1    0    0  501    0  0.00000000000E+00  0.00000000000E+00 -0.52831296845E+03  0.52831296848E+03  0.50400001928E-02 0. -1.
    10030    2    1    2    0    0  0.00000000000E+00  0.00000000000E+00  0.26710323696E+03  0.13237291739E+04  0.12965009783E+04 0.  0.
        3    1    3    3  502    0 -0.22797638225E+03  0.60248713204E+03  0.20763376765E+03  0.67681294817E+03  0.10100000352E+00 0.  1.
       -3    1    3    3    0  502  0.22797638225E+03 -0.60248713204E+03  0.59469469312E+02  0.64691622574E+03  0.10100000352E+00 0. -1.
</event>
<event>
 5   0  0.6618060E-05  0.1298300E+04  0.7818609E-02  0.9030914E-01
        2   -1    0    0  501    0  0.00000000000E+00  0.00000000000E+00  0.35876393241E+03  0.35876393242E+03  0.25500000920E-02 0. -1.
       -2   -1    0    0    0  501  0.00000000000E+00  0.00000000000E+00 -0.11745772004E+04  0.11745772004E+04  0.25500000920E-02 0.  1.
    10030    2    1    2    0    0  0.00000000000E+00  0.00000000000E+00 -0.81581326796E+03  0.15333411328E+04  0.12983003279E+04 0.  0.
        2    1    3    3  502    0 -0.13943301349E+03  0.63008969085E+03 -0.32488591390E+03  0.72249944001E+03  0.25500000920E-02 0. -1.
       -2    1    3    3    0  502  0.13943301349E+03 -0.63008969085E+03 -0.49092735406E+03  0.81084169277E+03  0.25500000920E-02 0.  1.
</event>
<event>
 5   0  0.6742824E-05  0.1299939E+04  0.7818609E-02  0.9029614E-01
       -2   -1    0    0    0  501  0.00000000000E+00  0.00000000000E+00  0.27413441796E+03  0.27413441797E+03  0.25500000920E-02 0. -1.
        2   -1    0    0  501    0  0.00000000000E+00  0.00000000000E+00 -0.15410696403E+04  0.15410696403E+04  0.25500000920E-02 0.  1.
    10030    2    1    2    0    0  0.00000000000E+00  0.00000000000E+00 -0.12669352223E+04  0.18152040583E+04  0.12999388122E+04 0.  0.
        4    1    3    3  502    0 -0.62075008176E+03 -0.14655358097E+03 -0.80815425965E+03  0.10295258794E+04  0.12699999809E+01 0.  1.
       -4    1    3    3    0  502  0.62075008176E+03  0.14655358097E+03 -0.45878096269E+03  0.78567817885E+03  0.12699999809E+01 0. -1.
</event>
<event>
 5   0  0.6458698E-05  0.1300349E+04  0.7818609E-02  0.9029288E-01
        2   -1    0    0  501    0  0.00000000000E+00  0.00000000000E+00  0.15353642607E+04  0.15353642607E+04  0.25500000920E-02 0. -1.
       -2   -1    0    0    0  501  0.00000000000E+00  0.00000000000E+00 -0.27532688793E+03  0.27532688795E+03  0.25500000920E-02 0.  1.
    10030    2    1    2    0    0  0.00000000000E+00  0.00000000000E+00  0.12600373727E+04  0.18106911486E+04  0.13003492819E+04 0.  0.
        3    1    3    3  502    0  0.25030135306E+03 -0.22334025559E+03 -0.14551746036E+03  0.36565964856E+03  0.10100000352E+00 0.  1.
       -3    1    3    3    0  502 -0.25030135306E+03  0.22334025559E+03  0.14055548331E+04  0.14450315001E+04  0.10100000352E+00 0. -1.
</event>
<event>
 5   0  0.3631841E-05  0.1299066E+04  0.7818609E-02  0.9030306E-01
        1   -1    0    0  501    0  0.00000000000E+00  0.00000000000E+00  0.97210356826E+03  0.97210356828E+03  0.50400001928E-02 0.  1.
       -1   -1    0    0    0  501  0.00000000000E+00  0.00000000000E+00 -0.43400012941E+03  0.43400012944E+03  0.50400001928E-02 0. -1.
    10030    2    1    2    0    0  0.00000000000E+00  0.00000000000E+00  0.53810343885E+03  0.14061036977E+04  0.12990659328E+04 0.  0.
        3    1    3    3  502    0 -0.12391306057E+03 -0.62786459252E+03  0.14888787165E+03  0.65706620796E+03  0.10100000352E+00 0. -1.
       -3    1    3    3    0  502  0.12391306057E+03  0.62786459252E+03  0.38921556720E+03  0.74903748976E+03  0.10100000352E+00 0.  1.
</event>
<event>
 5   0  0.6618060E-05  0.1300028E+04  0.7818609E-02  0.9029543E-01
       -2   -1    0    0    0  501  0.00000000000E+00  0.00000000000E+00  0.39796907180E+03  0.39796907180E+03  0.25500000920E-02 0.  1.
        2   -1    0    0  501    0  0.00000000000E+00  0.00000000000E+00 -0.10616863231E+04  0.10616863231E+04  0.25500000920E-02 0. -1.
    10030    2    1    2    0    0  0.00000000000E+00  0.00000000000E+00 -0.66371725129E+03  0.14596553949E+04  0.13000281851E+04 0.  0.
        2    1    3    3  502    0  0.11964520138E+03 -0.53835977738E+03  0.54439177454E+02  0.55417492560E+03  0.25500000920E-02 0.  1.
       -2    1    3    3    0  502 -0.11964520138E+03  0.53835977738E+03 -0.71815642874E+03  0.90548046929E+03  0.25500000920E-02 0. -1.
</event>
<event>
 5   0  0.3552698E-05  0.1299621E+04  0.7818609E-02  0.9029866E-01
        1   -1    0    0  501    0  0.00000000000E+00  0.00000000000E+00  0.11269155455E+04  0.11269155455E+04  0.50400001928E-02 0.  1.
       -1   -1    0    0    0  501  0.00000000000E+00  0.00000000000E+00 -0.37469853296E+03  0.37469853299E+03  0.50400001928E-02 0. -1.
    10030    2    1    2    0    0  0.00000000000E+00  0.00000000000E+00  0.75221701258E+03  0.15016140785E+04  0.12996208704E+04 0.  0.
        5    1    3    3  502    0 -0.14331330222E+03 -0.38185654736E+03 -0.20835642235E+03  0.45802577884E+03  0.46999998093E+01 0. -1.
       -5    1    3    3    0  502  0.14331330222E+03  0.38185654736E+03  0.96057343493E+03  0.10435882997E+04  0.46999998093E+01 0.  1.
</event>
<event>
 5   0  0.3551277E-05  0.1299887E+04  0.7818609E-02  0.9029654E-01
       -1   -1    0    0    0  501  0.00000000000E+00  0.00000000000E+00  0.63936297357E+03  0.63936297359E+03  0.50400001928E-02 0. -1.
        1   -1    0    0  501    0  0.00000000000E+00  0.00000000000E+00 -0.66069955965E+03  0.66069955967E+03  0.50400001928E-02 0.  1.
    10030    2    1    2    0    0  0.00000000000E+00  0.00000000000E+00 -0.21336586082E+02  0.13000625333E+04  0.12998874338E+04 0.  0.
        4    1    3    3  502    0  0.70041302613E+02 -0.47799404983E+03  0.42417887430E+03  0.64289456837E+03  0.12699999809E+01 0. -1.
       -4    1    3    3    0  502 -0.70041302613E+02  0.47799404983E+03 -0.44551546038E+03  0.65716796489E+03  0.12699999809E+01 0.  1.
</event>
<event>
 5   0  0.6618060E-05  0.1298944E+04  0.7818609E-02  0.9030403E-01
       -2   -1    0    0    0  501  0.00000000000E+00  0.00000000000E+00  0.25451013434E+03  0.25451013436E+03  0.25500000920E-02 0.  1.
        2   -1    0    0  501    0  0.00000000000E+00  0.00000000000E+00 -0.16573554111E+04  0.16573554111E+04  0.25500000920E-02 0. -1.
    10030    2    1    2    0    0  0.00000000000E+00  0.00000000000E+00 -0.14028452768E+04  0.19118655455E+04  0.12989437992E+04 0.  0.
        2    1    3    3  502    0 -0.32832912831E+03 -0.28272371948E+03 -0.14135375759E+04  0.14784522977E+04  0.25500000920E-02 0. -1.
       -2    1    3    3    0  502  0.32832912831E+03  0.28272371948E+03  0.10692299171E+02  0.43341324775E+03  0.25500000920E-02 0.  1.
</event>
<event>
 5   0  0.3552698E-05  0.1299944E+04  0.7818609E-02  0.9029610E-01
        1   -1    0    0  501    0  0.00000000000E+00  0.00000000000E+00  0.70205980372E+03  0.70205980374E+03  0.50400001928E-02 0.  1.
       -1   -1    0    0    0  501  0.00000000000E+00  0.00000000000E+00 -0.60174857456E+03  0.60174857458E+03  0.50400001928E-02 0. -1.
    10030    2    1    2    0    0  0.00000000000E+00  0.00000000000E+00  0.10031122916E+03  0.13038083783E+04  0.12999438237E+04 0.  0.
        5    1    3    3  502    0 -0.46418558805E+03  0.26203112918E+03  0.42316555527E+03  0.68060249043E+03  0.46999998093E+01 0.  1.
       -5    1    3    3    0  502  0.46418558805E+03 -0.26203112918E+03 -0.32285432611E+03  0.62320588789E+03  0.46999998093E+01 0. -1.
</event>
<event>
 5   0  0.3631841E-05  0.1299892E+04  0.7818609E-02  0.9029651E-01
       -1   -1    0    0    0  501  0.00000000000E+00  0.00000000000E+00  0.98892854440E+03  0.98892854442E+03  0.50400001928E-02 0. -1.
        1   -1    0    0  501    0  0.00000000000E+00  0.00000000000E+00 -0.42715929141E+03  0.42715929144E+03  0.50400001928E-02 0.  1.
    10030    2    1    2    0    0  0.00000000000E+00  0.00000000000E+00  0.56176925299E+03  0.14160878359E+04  0.12998923283E+04 0.  0.
        3    1    3    3  502    0 -0.59599972171E+03 -0.82562871921E+02  0.13157086278E+02  0.60183503987E+03  0.10100000352E+00 0.  1.
       -3    1    3    3    0  502  0.59599972171E+03  0.82562871921E+02  0.54861216672E+03  0.81425279598E+03  0.10100000352E+00 0. -1.
</event>
<event>
 5   0  0.3631841E-05  0.1299936E+04  0.7818609E-02  0.9029616E-01
        1   -1    0    0  501    0  0.00000000000E+00  0.00000000000E+00  0.11643062563E+04  0.11643062563E+04  0.50400001928E-02 0.  1.
       -1   -1    0    0    0  501  0.00000000000E+00  0.00000000000E+00 -0.36284138143E+03  0.36284138146E+03  0.50400001928E-02 0. -1.
    10030    2    1    2    0    0  0.00000000000E+00  0.00000000000E+00  0.80146487485E+03  0.15271476377E+04  0.12999361376E+04 0.  0.
        3    1    3    3  502    0 -0.30298483296E+03  0.30156397742E+03 -0.17445472490E+03  0.46170889392E+03  0.10100000352E+00 0. -1.
       -3    1    3    3    0  502  0.30298483296E+03 -0.30156397742E+03  0.97591959975E+03  0.10654387438E+04  0.10100000352E+00 0.  1.
</event>
<event>
 5   0  0.3718559E-05  0.1300236E+04  0.7818609E-02  0.9029378E-01
       -1   -1    0    0    0  501  0.00000000000E+00  0.00000000000E+00  0.31344048040E+03  0.31344048044E+03  0.50400001928E-02 0. -1.
        1   -1    0    0  501    0  0.00000000000E+00  0.00000000000E+00 -0.13484335928E+04  0.13484335929E+04  0.50400001928E-02 0.  1.
    10030    2    1    2    0    0  0.00000000000E+00  0.00000000000E+00 -0.10349931124E+04  0.16618740733E+04  0.13002363988E+04 0.  0.
        2    1    3    3  502    0  0.64161368953E+03 -0.86816855912E+02 -0.44244091167E+03  0.78419337755E+03  0.25500000920E-02 0. -1.
       -2    1    3    3    0  502 -0.64161368953E+03  0.86816855912E+02 -0.59255220077E+03  0.87768069575E+03  0.25500000920E-02 0.  1.
</event>
<event>
 5   0  0.6688086E-05  0.1300541E+04  0.7818609E-02  0.9029136E-01
       -2   -1    0    0    0  501  0.00000000000E+00  0.00000000000E+00  0.19263747362E+03  0.19263747364E+03  0.25500000920E-02 0.  1.
        2   -1    0    0  501    0  0.00000000000E+00  0.00000000000E+00 -0.21950643825E+04  0.21950643825E+04  0.25500000920E-02 0. -1.
    10030    2    1    2    0    0  0.00000000000E+00  0.00000000000E+00 -0.20024269089E+04  0.23877018561E+04  0.13005408984E+04 0.  0.
        5    1    3    3  502    0 -0.62656689510E+03  0.17386272369E+03 -0.99404477114E+03  0.11878389696E+04  0.46999998093E+01 0. -1.
       -5    1    3    3    0  502  0.62656689510E+03 -0.17386272369E+03 -0.10083821377E+04  0.11998628865E+04  0.46999998093E+01 0.  1.
</event>
<event>
 5   0  0.3551277E-05  0.1302719E+04  0.7818609E-02  0.9027412E-01
       -1   -1    0    0    0  501  0.00000000000E+00  0.00000000000E+00  0.39005012015E+03  0.39005012018E+03  0.50400001928E-02 0.  1.
        1   -1    0    0  501    0  0.00000000000E+00  0.00000000000E+00 -0.10877297397E+04  0.10877297397E+04  0.50400001928E-02 0. -1.
    10030    2    1    2    0    0  0.00000000000E+00  0.00000000000E+00 -0.69767961955E+03  0.14777798599E+04  0.13027188733E+04 0.  0.
        4    1    3    3  502    0 -0.21961324804E+03  0.56248976506E+03 -0.71802661850E+02  0.60809699034E+03  0.12699999809E+01 0.  1.
       -4    1    3    3    0  502  0.21961324804E+03 -0.56248976506E+03 -0.62587695770E+03  0.86968286955E+03  0.12699999809E+01 0. -1.
</event>
<event>
 5   0  0.3631841E-05  0.1297971E+04  0.7818609E-02  0.9031176E-01
        1   -1    0    0  501    0  0.00000000000E+00  0.00000000000E+00  0.14413657683E+04  0.14413657683E+04  0.50400001928E-02 0. -1.
       -1   -1    0    0    0  501  0.00000000000E+00  0.00000000000E+00 -0.29221051278E+03  0.29221051282E+03  0.50400001928E-02 0.  1.
    10030    2    1    2    0    0  0.00000000000E+00  0.00000000000E+00  0.11491552556E+04  0.17335762812E+04  0.12979710787E+04 0.  0.
        3    1    3    3  502    0 -0.15697892852E+03  0.57206066467E+03  0.92613971925E+03  0.10998320680E+04  0.10100000352E+00 0. -1.
       -3    1    3    3    0  502  0.15697892852E+03 -0.57206066467E+03  0.22301553630E+03  0.63374421315E+03  0.10100000352E+00 0.  1.
</event>
<event>
 5   0  0.6618060E-05  0.1300236E+04  0.7818609E-02  0.9029378E-01
       -2   -1    0    0    0  501  0.00000000000E+00  0.00000000000E+00  0.77773085622E+03  0.77773085623E+03  0.25500000920E-02 0. -1.
        2   -1    0    0  501    0  0.00000000000E+00  0.00000000000E+00 -0.54344457199E+03  0.54344457199E+03  0.25500000920E-02 0.  1.
    10030    2    1    2    0    0  0.00000000000E+00  0.00000000000E+00  0.23428628424E+03  0.13211754282E+04  0.13002363051E+04 0.  0.
        2    1    3    3  502    0 -0.42333577494E+03  0.22048554726E+03 -0.33135668291E+03  0.58105447784E+03  0.25500000920E-02 0.  1.
       -2    1    3    3    0  502  0.42333577494E+03 -0.22048554726E+03  0.56564296715E+03  0.74012095038E+03  0.25500000920E-02 0. -1.
</event>
<event>
 5   0  0.3718559E-05  0.1298639E+04  0.7818609E-02  0.9030645E-01
       -1   -1    0    0    0  501  0.00000000000E+00  0.00000000000E+00  0.78375382556E+03  0.78375382558E+03  0.50400001928E-02 0.  1.
        1   -1    0    0  501    0  0.00000000000E+00  0.00000000000E+00 -0.53794390819E+03  0.53794390821E+03  0.50400001928E-02 0. -1.
    10030    2    1    2    0    0  0.00000000000E+00  0.00000000000E+00  0.24580991737E+03  0.13216977338E+04  0.12986386657E+04 0.  0.
        2    1    3    3  502    0 -0.13289097653E+03 -0.45984916212E+03  0.56943716658E+03  0.74389512045E+03  0.25500000920E-02 0.  1.
       -2    1    3    3    0  502  0.13289097653E+03  0.45984916212E+03 -0.32362724921E+03  0.57780261334E+03  0.25500000920E-02 0. -1.
</event>
<event>
 5   0  0.6688086E-05  0.1299581E+04  0.7818609E-02  0.9029898E-01
       -2   -1    0    0    0  501  0.00000000000E+00  0.00000000000E+00  0.25622084816E+03  0.25622084817E+03  0.25500000920E-02 0.  1.
        2   -1    0    0  501    0  0.00000000000E+00  0.00000000000E+00 -0.16479051089E+04  0.16479051089E+04  0.25500000920E-02 0. -1.
    10030    2    1    2    0    0  0.00000000000E+00  0.00000000000E+00 -0.13916842608E+04  0.19041259571E+04  0.12995809243E+04 0.  0.
        5    1    3    3  502    0 -0.33935938688E+03 -0.44371142118E+03 -0.11821442404E+04  0.13074906172E+04  0.46999998093E+01 0.  1.
       -5    1    3    3    0  502  0.33935938688E+03  0.44371142118E+03 -0.20954002033E+03  0.59663533994E+03  0.46999998093E+01 0. -1.
</event>
<event>
 5   0  0.3689707E-05  0.1300640E+04  0.7818609E-02  0.9029058E-01
        1   -1    0    0  501    0  0.00000000000E+00  0.00000000000E+00  0.15618716413E+04  0.15618716413E+04  0.50400001928E-02 0. -1.
       -1   -1    0    0    0  501  0.00000000000E+00  0.00000000000E+00 -0.27077515767E+03  0.27077515772E+03  0.50400001928E-02 0.  1.
    10030    2    1    2    0    0  0.00000000000E+00  0.00000000000E+00  0.12910964836E+04  0.18326467990E+04  0.13006399040E+04 0.  0.
        1    1    3    3  502    0  0.12362064248E+03  0.72155439151E+02  0.15394001287E+04  0.15460404997E+04  0.50400001928E-02 0. -1.
       -1    1    3    3    0  502 -0.12362064248E+03 -0.72155439151E+02 -0.24830364502E+03  0.28660629931E+03  0.50400001928E-02 0.  1.
</event>
<event>
 5   0  0.6458698E-05  0.1300009E+04  0.7818609E-02  0.9029558E-01
        2   -1    0    0  501    0  0.00000000000E+00  0.00000000000E+00  0.95020017273E+03  0.95020017274E+03  0.25500000920E-02 0. -1.
       -2   -1    0    0    0  501  0.00000000000E+00  0.00000000000E+00 -0.44464910636E+03  0.44464910637E+03  0.25500000920E-02 0.  1.
    10030    2    1    2    0    0  0.00000000000E+00  0.00000000000E+00  0.50555106637E+03  0.13948492791E+04  0.13000087041E+04 0.  0.
        3    1    3    3  502    0  0.52271526213E+03 -0.33721077447E+03  0.45511566250E+03  0.77076107072E+03  0.10100000352E+00 0. -1.
       -3    1    3    3    0  502 -0.52271526213E+03  0.33721077447E+03  0.50435403872E+02  0.62408820839E+03  0.10100000352E+00 0.  1.
</event>
<event>
 5   0  0.6688086E-05  0.1301372E+04  0.7818609E-02  0.9028478E-01
       -2   -1    0    0    0  501  0.00000000000E+00  0.00000000000E+00  0.26974604565E+03  0.26974604566E+03  0.25500000920E-02 0. -1.
        2   -1    0    0  501    0  0.00000000000E+00  0.00000000000E+00 -0.15695950879E+04  0.15695950879E+04  0.25500000920E-02 0.  1.
    10030    2    1    2    0    0  0.00000000000E+00  0.00000000000E+00 -0.12998490423E+04  0.18393411336E+04  0.13013716890E+04 0.  0.
        5    1    3    3  502    0  0.41600149201E+03 -0.30483578426E+03 -0.12106452010E+04  0.13159278055E+04  0.46999998093E+01 0.  1.
       -5    1    3    3    0  502 -0.41600149201E+03  0.30483578426E+03 -0.89203841326E+02  0.52341332809E+03  0.46999998093E+01 0. -1.
</event>
<event>
 5   0  0.3689707E-05  0.1299951E+04  0.7818609E-02  0.9029604E-01
       -1   -1    0    0    0  501  0.00000000000E+00  0.00000000000E+00  0.40482453200E+03  0.40482453203E+03  0.50400001928E-02 0. -1.
        1   -1    0    0  501    0  0.00000000000E+00  0.00000000000E+00 -0.10435835503E+04  0.10435835503E+04  0.50400001928E-02 0.  1.
    10030    2    1    2    0    0  0.00000000000E+00  0.00000000000E+00 -0.63875901829E+03  0.14484080823E+04  0.12999511104E+04 0.  0.
        1    1    3    3  502    0 -0.61369673985E+03 -0.20598814265E+03 -0.25428284746E+03  0.69549591656E+03  0.50400001928E-02 0.  1.
       -1    1    3    3    0  502  0.61369673985E+03  0.20598814265E+03 -0.38447617083E+03  0.75291216578E+03  0.50400001928E-02 0. -1.
</event>
<event>
 5   0  0.6618060E-05  0.1299669E+04  0.7818609E-02  0.9029827E-01
       -2   -1    0    0    0  501  0.00000000000E+00  0.00000000000E+00  0.18688123784E+03  0.18688123786E+03  0.25500000920E-02 0. -1.
        2   -1    0    0  501    0  0.00000000000E+00  0.00000000000E+00 -0.22596445828E+04  0.22596445828E+04  0.25500000920E-02 0.  1.
    10030    2    1    2    0    0  0.00000000000E+00  0.00000000000E+00 -0.20727633450E+04  0.24465258207E+04  0.12996694607E+04 0.  0.
        2    1    3    3  502    0 -0.20702190509E+02 -0.55288045131E+03 -0.39475529935E+03  0.67965956221E+03  0.25500000920E-02 0. -1.
       -2    1    3    3    0  502  0.20702190509E+02  0.55288045131E+03 -0.16780080456E+04  0.17668662585E+04  0.25500000920E-02 0.  1.
</event>
<event>
 5   0  0.6688086E-05  0.1300239E+04  0.7818609E-02  0.9029376E-01
       -2   -1    0    0    0  501  0.00000000000E+00  0.00000000000E+00  0.33888997338E+03  0.33888997339E+03  0.25500000920E-02 0.  1.
        2   -1    0    0  501    0  0.00000000000E+00  0.00000000000E+00 -0.12471750494E+04  0.12471750494E+04  0.25500000920E-02 0. -1.
    10030    2    1    2    0    0  0.00000000000E+00  0.00000000000E+00 -0.90828507605E+03  0.15860650228E+04  0.13002386232E+04 0.  0.
        5    1    3    3  502    0 -0.15192176864E+03  0.40629847615E+03  0.13652839427E+03  0.45477551379E+03  0.46999998093E+01 0.  1.
       -5    1    3    3    0  502  0.15192176864E+03 -0.40629847615E+03 -0.10448134703E+04  0.11312895090E+04  0.46999998093E+01 0. -1.
</event>
<event>
 5   0  0.3718559E-05  0.1298873E+04  0.7818609E-02  0.9030459E-01
       -1   -1    0    0    0  501  0.00000000000E+00  0.00000000000E+00  0.77628699437E+03  0.77628699439E+03  0.50400001928E-02 0. -1.
        1   -1    0    0  501    0  0.00000000000E+00  0.00000000000E+00 -0.54331432261E+03  0.54331432263E+03  0.50400001928E-02 0.  1.
    10030    2    1    2    0    0  0.00000000000E+00  0.00000000000E+00  0.23297267177E+03  0.13196013170E+04  0.12988731155E+04 0.  0.
        2    1    3    3  502    0 -0.24396539462E+02 -0.15021680942E+03 -0.52494294167E+03  0.54655774899E+03  0.25500000920E-02 0.  1.
       -2    1    3    3    0  502  0.24396539462E+02  0.15021680942E+03  0.75791561343E+03  0.77304356802E+03  0.25500000920E-02 0. -1.
</event>
<event>
 5   0  0.6688086E-05  0.1300164E+04  0.7818609E-02  0.9029435E-01
        2   -1    0    0  501    0  0.00000000000E+00  0.00000000000E+00  0.63317456539E+03  0.63317456540E+03  0.25500000920E-02 0. -1.
       -2   -1    0    0    0  501  0.00000000000E+00  0.00000000000E+00 -0.66744123939E+03  0.66744123939E+03  0.25500000920E-02 0.  1.
    10030    2    1    2    0    0  0.00000000000E+00  0.00000000000E+00 -0.34266673996E+02  0.13006158048E+04  0.13001643230E+04 0.  0.
        5    1    3    3  502    0  0.17292205946E+03  0.42731232101E+03  0.44137816659E+03  0.63822772917E+03  0.46999998093E+01 0. -1.
       -5    1    3    3    0  502 -0.17292205946E+03 -0.42731232101E+03 -0.47564484059E+03  0.66238807562E+03  0.46999998093E+01 0.  1.
</event>
<event>
 5   0  0.3551277E-05  0.1299859E+04  0.7818609E-02  0.9029677E-01
       -1   -1    0    0    0  501  0.00000000000E+00  0.00000000000E+00  0.26950811174E+03  0.26950811178E+03  0.50400001928E-02 0.  1.
        1   -1    0    0  501    0  0.00000000000E+00  0.00000000000E+00 -0.15673316891E+04  0.15673316891E+04  0.50400001928E-02 0. -1.
    10030    2    1    2    0    0  0.00000000000E+00  0.00000000000E+00 -0.12978235774E+04  0.18368398009E+04  0.12998593832E+04 0.  0.
        4    1    3    3  502    0  0.43513748304E+03  0.34156462735E+02  0.31577437487E+02  0.43761860170E+03  0.12699999809E+01 0.  1.
       -4    1    3    3    0  502 -0.43513748304E+03 -0.34156462735E+02 -0.13294010149E+04  0.13992211992E+04  0.12699999809E+01 0. -1.
</event>
<event>
 5   0  0.3552698E-05  0.1299811E+04  0.7818609E-02  0.9029715E-01
        1   -1    0    0  501    0  0.00000000000E+00  0.00000000000E+00  0.26253211968E+04  0.26253211968E+04  0.50400001928E-02 0. -1.
       -1   -1    0    0    0  501  0.00000000000E+00  0.00000000000E+00 -0.16088597142E+03  0.16088597150E+03  0.50400001928E-02 0.  1.
    10030    2    1    2    0    0  0.00000000000E+00  0.00000000000E+00  0.24644352254E+04  0.27862071683E+04  0.12998112958E+04 0.  0.
        5    1    3    3  502    0 -0.22412064293E+03  0.43579974436E+03  0.21471980135E+04  0.22024152376E+04  0.46999998093E+01 0. -1.
       -5    1    3    3    0  502  0.22412064293E+03 -0.43579974436E+03  0.31723721195E+03  0.58379193076E+03  0.46999998093E+01 0.  1.
</event>
<event>
 5   0  0.3552698E-05  0.1300046E+04  0.7818609E-02  0.9029529E-01
       -1   -1    0    0    0  501  0.00000000000E+00  0.00000000000E+00  0.19451237796E+03  0.19451237803E+03  0.50400001928E-02 0.  1.
        1   -1    0    0  501    0  0.00000000000E+00  0.00000000000E+00 -0.21722524358E+04  0.21722524358E+04  0.50400001928E-02 0. -1.
    10030    2    1    2    0    0  0.00000000000E+00  0.00000000000E+00 -0.19777400578E+04  0.23667648138E+04  0.13000461329E+04 0.  0.
        5    1    3    3  502    0 -0.74425311337E+01 -0.64689252696E+03 -0.11037588394E+04  0.12793869619E+04  0.46999998093E+01 0. -1.
       -5    1    3    3    0  502  0.74425311337E+01  0.64689252696E+03 -0.87398121844E+03  0.10873778519E+04  0.46999998093E+01 0.  1.
</event>
<event>
 5   0  0.3552698E-05  0.1299984E+04  0.7818609E-02  0.9029578E-01
        1   -1    0    0  501    0  0.00000000000E+00  0.00000000000E+00  0.13581660567E+04  0.13581660567E+04  0.50400001928E-02 0.  1.
       -1   -1    0    0    0  501  0.00000000000E+00  0.00000000000E+00 -0.31107338593E+03  0.31107338597E+03  0.50400001928E-02 0. -1.
    10030    2    1    2    0    0  0.00000000000E+00  0.00000000000E+00  0.10470926708E+04  0.16692394427E+04  0.12999835598E+04 0.  0.
        5    1    3    3  502    0  0.16598446464E+03  0.71792376017E+01  0.13304190144E+04  0.13407606900E+04  0.46999998093E+01 0.  1.
       -5    1    3    3    0  502 -0.16598446464E+03 -0.71792376017E+01 -0.28332634364E+03  0.32847875267E+03  0.46999998093E+01 0. -1.
</event>
<event>
 5   0  0.6458698E-05  0.1299910E+04  0.7818609E-02  0.9029637E-01
       -2   -1    0    0    0  501  0.00000000000E+00  0.00000000000E+00  0.84262699124E+03  0.84262699125E+03  0.25500000920E-02 0.  1.
        2   -1    0    0  501    0  0.00000000000E+00  0.00000000000E+00 -0.50133853944E+03  0.50133853944E+03  0.25500000920E-02 0. -1.
    10030    2    1    2    0    0  0.00000000000E+00  0.00000000000E+00  0.34128845180E+03  0.13439655307E+04  0.12999098201E+04 0.  0.
        3    1    3    3  502    0  0.19962500528E+03 -0.45159974531E+03 -0.26634937916E+03  0.56101200939E+03  0.10100000352E+00 0. -1.
       -3    1    3    3    0  502 -0.19962500528E+03  0.45159974531E+03  0.60763783096E+03  0.78295352130E+03  0.10100000352E+00 0.  1.
</event>
<event>
 5   0  0.3552698E-05  0.1298777E+04  0.7818609E-02  0.9030536E-01
       -1   -1    0    0    0  501  0.00000000000E+00  0.00000000000E+00  0.45356879004E+03  0.45356879007E+03  0.50400001928E-02 0. -1.
        1   -1    0    0  501    0  0.00000000000E+00  0.00000000000E+00 -0.92974964372E+03  0.92974964374E+03  0.50400001928E-02 0.  1.
    10030    2    1    2    0    0  0.00000000000E+00  0.00000000000E+00 -0.47618085369E+03  0.13833184338E+04  0.12987769954E+04 0.  0.
        5    1    3    3  502    0  0.39356315967E+03  0.44511979485E+03  0.40995957588E+02  0.59558907893E+03  0.46999998093E+01 0. -1.
       -5    1    3    3    0  502 -0.39356315967E+03 -0.44511979485E+03 -0.51717681127E+03  0.78772935487E+03  0.46999998093E+01 0.  1.
</event>
<event>
 5   0  0.3552698E-05  0.1299711E+04  0.7818609E-02  0.9029795E-01
        1   -1    0    0  501    0  0.00000000000E+00  0.00000000000E+00  0.97714997848E+03  0.97714997850E+03  0.50400001928E-02 0.  1.
       -1   -1    0    0    0  501  0.00000000000E+00  0.00000000000E+00 -0.43218734880E+03  0.43218734883E+03  0.50400001928E-02 0. -1.
    10030    2    1    2    0    0  0.00000000000E+00  0.00000000000E+00  0.54496262968E+03  0.14093373273E+04  0.12997105195E+04 0.  0.
        5    1    3    3  502    0 -0.17768545778E+03  0.23828264003E+03  0.89909793743E+03  0.94696881128E+03  0.46999998093E+01 0.  1.
       -5    1    3    3    0  502  0.17768545778E+03 -0.23828264003E+03 -0.35413530775E+03  0.46236851605E+03  0.46999998093E+01 0. -1.
</event>
<event>
 5   0  0.6458698E-05  0.1299942E+04  0.7818609E-02  0.9029611E-01
        2   -1    0    0  501    0  0.00000000000E+00  0.00000000000E+00  0.15632616321E+04  0.15632616321E+04  0.25500000920E-02 0. -1.
       -2   -1    0    0    0  501  0.00000000000E+00  0.00000000000E+00 -0.27024434907E+03  0.27024434909E+03  0.25500000920E-02 0.  1.
    10030    2    1    2    0    0  0.00000000000E+00  0.00000000000E+00  0.12930172830E+04  0.18335059812E+04  0.12999424944E+04 0.  0.
        3    1    3    3  502    0  0.39023221986E+03  0.82509254990E+02 -0.77334312013E+02  0.40628754423E+03  0.10100000352E+00 0.  1.
       -3    1    3    3    0  502 -0.39023221986E+03 -0.82509254990E+02  0.13703515951E+04  0.14272184370E+04  0.10100000352E+00 0. -1.
</event>
<event>
 5   0  0.6671239E-05  0.1299588E+04  0.7818609E-02  0.9029892E-01
        2   -1    0    0  501    0  0.00000000000E+00  0.00000000000E+00  0.12077358520E+04  0.12077358520E+04  0.25500000920E-02 0. -1.
       -2   -1    0    0    0  501  0.00000000000E+00  0.00000000000E+00 -0.34960632024E+03  0.34960632025E+03  0.25500000920E-02 0.  1.
    10030    2    1    2    0    0  0.00000000000E+00  0.00000000000E+00  0.85812953179E+03  0.15573421723E+04  0.12995877609E+04 0.  0.
        1    1    3    3  502    0 -0.33690580432E+03 -0.47115120532E+03  0.76128797416E+02  0.58419566335E+03  0.50400001928E-02 0.  1.
       -1    1    3    3    0  502  0.33690580432E+03  0.47115120532E+03  0.78200073437E+03  0.97314650893E+03  0.50400001928E-02 0. -1.
</event>
<event>
 5   0  0.6742824E-05  0.1300265E+04  0.7818609E-02  0.9029355E-01
       -2   -1    0    0    0  501  0.00000000000E+00  0.00000000000E+00  0.20405669966E+03  0.20405669967E+03  0.25500000920E-02 0.  1.
        2   -1    0    0  501    0  0.00000000000E+00  0.00000000000E+00 -0.20713458384E+04  0.20713458384E+04  0.25500000920E-02 0. -1.
    10030    2    1    2    0    0  0.00000000000E+00  0.00000000000E+00 -0.18672891387E+04  0.22754025380E+04  0.13002645818E+04 0.  0.
        4    1    3    3  502    0  0.30343747097E+03  0.54461908213E+03 -0.61103486875E+03  0.87295444734E+03  0.12699999809E+01 0.  1.
       -4    1    3    3    0  502 -0.30343747097E+03 -0.54461908213E+03 -0.12562542700E+04  0.14024480907E+04  0.12699999809E+01 0. -1.
</event>
<event>
 5   0  0.3718559E-05  0.1299900E+04  0.7818609E-02  0.9029644E-01
       -1   -1    0    0    0  501  0.00000000000E+00  0.00000000000E+00  0.37560282883E+03  0.37560282886E+03  0.50400001928E-02 0.  1.
        1   -1    0    0  501    0  0.00000000000E+00  0.00000000000E+00 -0.11246856941E+04  0.11246856941E+04  0.50400001928E-02 0. -1.
    10030    2    1    2    0    0  0.00000000000E+00  0.00000000000E+00 -0.74908286529E+03  0.15002885230E+04  0.12999001935E+04 0.  0.
        2    1    3    3  502    0 -0.17184963718E+03  0.22432177734E+03  0.30099287588E+03  0.41285502168E+03  0.25500000920E-02 0.  1.
       -2    1    3    3    0  502  0.17184963718E+03 -0.22432177734E+03 -0.10500757412E+04  0.10874335013E+04  0.25500000920E-02 0. -1.
</event>
<event>
 5   0  0.6688086E-05  0.1300032E+04  0.7818609E-02  0.9029540E-01
        2   -1    0    0  501    0  0.00000000000E+00  0.00000000000E+00  0.21797200973E+04  0.21797200973E+04  0.25500000920E-02 0. -1.
       -2   -1    0    0    0  501  0.00000000000E+00  0.00000000000E+00 -0.19384165151E+03  0.19384165153E+03  0.25500000920E-02 0.  1.
    10030    2    1    2    0    0  0.00000000000E+00  0.00000000000E+00  0.19858784458E+04  0.23735617489E+04  0.13000316050E+04 0.  0.
        5    1    3    3  502    0 -0.46407992612E+03 -0.42609162849E+03  0.12849155567E+04  0.14310675496E+04  0.46999998093E+01 0. -1.
       -5    1    3    3    0  502  0.46407992612E+03  0.42609162849E+03  0.70096288911E+03  0.94249419924E+03  0.46999998093E+01 0.  1.
</event>
<event>
 5   0  0.3551277E-05  0.1299747E+04  0.7818609E-02  0.9029766E-01
       -1   -1    0    0    0  501  0.00000000000E+00  0.00000000000E+00  0.31587295020E+03  0.31587295025E+03  0.50400001928E-02 0. -1.
        1   -1    0    0  501    0  0.00000000000E+00  0.00000000000E+00 -0.13370430787E+04  0.13370430788E+04  0.50400001928E-02 0.  1.
    10030    2    1    2    0    0  0.00000000000E+00  0.00000000000E+00 -0.10211701285E+04  0.16529160290E+04  0.12997472706E+04 0.  0.
        4    1    3    3  502    0 -0.16214540955E+03 -0.21406782828E+03  0.24200951189E+03  0.36150572013E+03  0.12699999809E+01 0. -1.
       -4    1    3    3    0  502  0.16214540955E+03  0.21406782828E+03 -0.12631796404E+04  0.12914103089E+04  0.12699999809E+01 0.  1.
</event>
<event>
 5   0  0.6671239E-05  0.1299675E+04  0.7818609E-02  0.9029823E-01
        2   -1    0    0  501    0  0.00000000000E+00  0.00000000000E+00  0.44650624690E+03  0.44650624691E+03  0.25500000920E-02 0.  1.
       -2   -1    0    0    0  501  0.00000000000E+00  0.00000000000E+00 -0.94576191619E+03  0.94576191619E+03  0.25500000920E-02 0. -1.
    10030    2    1    2    0    0  0.00000000000E+00  0.00000000000E+00 -0.49925566929E+03  0.13922681631E+04  0.12996747342E+04 0.  0.
        1    1    3    3  502    0  0.64546023746E+03  0.74266061312E+02 -0.23632379890E+03  0.69136336608E+03  0.50400001928E-02 0.  1.
       -1    1    3    3    0  502 -0.64546023746E+03 -0.74266061312E+02 -0.26293187039E+03  0.70090479702E+03  0.50400001928E-02 0. -1.
</event>
<event>
 5   0  0.6688086E-05  0.1299099E+04  0.7818609E-02  0.9030280E-01
       -2   -1    0    0    0  501  0.00000000000E+00  0.00000000000E+00  0.50853053828E+03  0.50853053828E+03  0.25500000920E-02 0.  1.
        2   -1    0    0  501    0  0.00000000000E+00  0.00000000000E+00 -0.82967355141E+03  0.82967355141E+03  0.25500000920E-02 0. -1.
    10030    2    1    2    0    0  0.00000000000E+00  0.00000000000E+00 -0.32114301313E+03  0.13382040897E+04  0.12990986686E+04 0.  0.
        5    1    3    3  502    0  0.53777110691E+03 -0.47165313552E+02  0.21150770733E+03  0.57981025386E+03  0.46999998093E+01 0.  1.
       -5    1    3    3    0  502 -0.53777110691E+03  0.47165313552E+02 -0.53265072046E+03  0.75839383584E+03  0.46999998093E+01 0. -1.
</event>
<event>
 5   0  0.6618060E-05  0.1299854E+04  0.7818609E-02  0.9029681E-01
        2   -1    0    0  501    0  0.00000000000E+00  0.00000000000E+00  0.13413590440E+04  0.13413590440E+04  0.25500000920E-02 0.  1.
       -2   -1    0    0    0  501  0.00000000000E+00  0.00000000000E+00 -0.31490846513E+03  0.31490846514E+03  0.25500000920E-02 0. -1.
    10030    2    1    2    0    0  0.00000000000E+00  0.00000000000E+00  0.10264505789E+04  0.16562675091E+04  0.12998543268E+04 0.  0.
        2    1    3    3  502    0  0.59263734895E+03 -0.25746187957E+03  0.42403465461E+03  0.77285900080E+03  0.25500000920E-02 0. -1.
       -2    1    3    3    0  502 -0.59263734895E+03  0.25746187957E+03  0.60241592425E+03  0.88340850833E+03  0.25500000920E-02 0.  1.
</event>
<event>
 5   0  0.3689707E-05  0.1299182E+04  0.7818609E-02  0.9030214E-01
        1   -1    0    0  501    0  0.00000000000E+00  0.00000000000E+00  0.60779863585E+03  0.60779863588E+03  0.50400001928E-02 0. -1.
       -1   -1    0    0    0  501  0.00000000000E+00  0.00000000000E+00 -0.69425748560E+03  0.69425748561E+03  0.50400001928E-02 0.  1.
    10030    2    1    2    0    0  0.00000000000E+00  0.00000000000E+00 -0.86458849741E+02  0.13020561215E+04  0.12991824394E+04 0.  0.
        1    1    3    3  502    0 -0.24442183599E+03  0.22337423403E+03  0.51687225938E+03  0.61383630951E+03  0.50400001928E-02 0. -1.
       -1    1    3    3    0  502  0.24442183599E+03 -0.22337423403E+03 -0.60333110912E+03  0.68821981197E+03  0.50400001928E-02 0.  1.
</event>
<event>
 5   0  0.3551277E-05  0.1299609E+04  0.7818609E-02  0.9029875E-01
        1   -1    0    0  501    0  0.00000000000E+00  0.00000000000E+00  0.60883432461E+03  0.60883432463E+03  0.50400001928E-02 0. -1.
       -1   -1    0    0    0  501  0.00000000000E+00  0.00000000000E+00 -0.69353191877E+03  0.69353191879E+03  0.50400001928E-02 0.  1.
    10030    2    1    2    0    0  0.00000000000E+00  0.00000000000E+00 -0.84697594163E+02  0.13023662434E+04  0.12996092296E+04 0.  0.
        4    1    3    3  502    0 -0.58431447541E+03 -0.88494647818E+02  0.22839042697E+03  0.63357596932E+03  0.12699999809E+01 0. -1.
       -4    1    3    3    0  502  0.58431447541E+03  0.88494647818E+02 -0.31308802113E+03  0.66879027411E+03  0.12699999809E+01 0.  1.
</event>
<event>
 5   0  0.6618060E-05  0.1300148E+04  0.7818609E-02  0.9029448E-01
        2   -1    0    0  501    0  0.00000000000E+00  0.00000000000E+00  0.90180630384E+03  0.90180630384E+03  0.25500000920E-02 0. -1.
       -2   -1    0    0    0  501  0.00000000000E+00  0.00000000000E+00 -0.46861069430E+03  0.46861069430E+03  0.25500000920E-02 0.  1.
    10030    2    1    2    0    0  0.00000000000E+00  0.00000000000E+00  0.43319560954E+03  0.13704169981E+04  0.13001478042E+04 0.  0.
        2    1    3    3  502    0  0.21498544781E+02  0.53015055803E+03  0.61249636825E+03  0.81035399840E+03  0.25500000920E-02 0. -1.
       -2    1    3    3    0  502 -0.21498544781E+02 -0.53015055803E+03 -0.17930075870E+03  0.56006299975E+03  0.25500000920E-02 0.  1.
</event>
<event>
 5   0  0.6688086E-05  0.1299728E+04  0.7818609E-02  0.9029781E-01
       -2   -1    0    0    0  501  0.00000000000E+00  0.00000000000E+00  0.35634369208E+03  0.35634369209E+03  0.25500000920E-02 0. -1.
        2   -1    0    0  501    0  0.00000000000E+00  0.00000000000E+00 -0.11851564870E+04  0.11851564870E+04  0.25500000920E-02 0.  1.
    10030    2    1    2    0    0  0.00000000000E+00  0.00000000000E+00 -0.82881279492E+03  0.15415001791E+04  0.12997277227E+04 0.  0.
        5    1    3    3  502    0 -0.42483388076E+03  0.27941315057E+03 -0.89433404467E+03  0.10287910421E+04  0.46999998093E+01 0.  1.
       -5    1    3    3    0  502  0.42483388076E+03 -0.27941315057E+03  0.65521249743E+02  0.51270913695E+03  0.46999998093E+01 0. -1.
</event>
<event>
 5   0  0.3551277E-05  0.1301886E+04  0.7818609E-02  0.9028071E-01
        1   -1    0    0  501    0  0.00000000000E+00  0.00000000000E+00  0.14516777324E+04  0.14516777324E+04  0.50400001928E-02 0.  1.
       -1   -1    0    0    0  501  0.00000000000E+00  0.00000000000E+00 -0.29188761167E+03  0.29188761172E+03  0.50400001928E-02 0. -1.
    10030    2    1    2    0    0  0.00000000000E+00  0.00000000000E+00  0.11597901208E+04  0.17435653442E+04  0.13018859340E+04 0.  0.
        4    1    3    3  502    0  0.35754621442E+03  0.71885546076E+02  0.13020019411E+04  0.13521159324E+04  0.12699999809E+01 0.  1.
       -4    1    3    3    0  502 -0.35754621442E+03 -0.71885546076E+02 -0.14221182036E+03  0.39144941172E+03  0.12699999809E+01 0. -1.
</event>
<event>
 5   0  0.3718559E-05  0.1293631E+04  0.7818609E-02  0.9034631E-01
        1   -1    0    0  501    0  0.00000000000E+00  0.00000000000E+00  0.26431074317E+03  0.26431074322E+03  0.50400001928E-02 0. -1.
       -1   -1    0    0    0  501  0.00000000000E+00  0.00000000000E+00 -0.15828731937E+04  0.15828731937E+04  0.50400001928E-02 0.  1.
    10030    2    1    2    0    0  0.00000000000E+00  0.00000000000E+00 -0.13185624505E+04  0.18471839369E+04  0.12936311533E+04 0.  0.
        2    1    3    3  502    0  0.51963582946E+03  0.38515810507E+03 -0.65714935577E+03  0.92207019091E+03  0.25500000920E-02 0.  1.
       -2    1    3    3    0  502 -0.51963582946E+03 -0.38515810507E+03 -0.66141309476E+03  0.92511374603E+03  0.25500000920E-02 0. -1.
</event>
<event>
 5   0  0.6742824E-05  0.1299795E+04  0.7818609E-02  0.9029728E-01
       -2   -1    0    0    0  501  0.00000000000E+00  0.00000000000E+00  0.23426175501E+03  0.23426175502E+03  0.25500000920E-02 0.  1.
        2   -1    0    0  501    0  0.00000000000E+00  0.00000000000E+00 -0.18029680859E+04  0.18029680859E+04  0.25500000920E-02 0. -1.
    10030    2    1    2    0    0  0.00000000000E+00  0.00000000000E+00 -0.15687063309E+04  0.20372298410E+04  0.12997945500E+04 0.  0.
        4    1    3    3  502    0  0.60754038440E+03  0.48846690054E+02 -0.11378709651E+04  0.12908304551E+04  0.12699999809E+01 0.  1.
       -4    1    3    3    0  502 -0.60754038440E+03 -0.48846690054E+02 -0.43083536584E+03  0.74639938583E+03  0.12699999809E+01 0. -1.
</event>
<event>
 5   0  0.3552698E-05  0.1299914E+04  0.7818609E-02  0.9029633E-01
       -1   -1    0    0    0  501  0.00000000000E+00  0.00000000000E+00  0.63734765914E+03  0.63734765916E+03  0.50400001928E-02 0. -1.
        1   -1    0    0  501    0  0.00000000000E+00  0.00000000000E+00 -0.66281611487E+03  0.66281611489E+03  0.50400001928E-02 0.  1.
    10030    2    1    2    0    0  0.00000000000E+00  0.00000000000E+00 -0.25468455729E+02  0.13001637740E+04  0.12999143038E+04 0.  0.
        5    1    3    3  502    0  0.48326650359E+03 -0.37333041812E+03 -0.23526309325E+03  0.65444092753E+03  0.46999998093E+01 0.  1.
       -5    1    3    3    0  502 -0.48326650359E+03  0.37333041812E+03  0.20979463752E+03  0.64572284652E+03  0.46999998093E+01 0. -1.
</event>
<event>
 5   0  0.6742824E-05  0.1300643E+04  0.7818609E-02  0.9029055E-01
       -2   -1    0    0    0  501  0.00000000000E+00  0.00000000000E+00  0.26452752079E+03  0.26452752080E+03  0.25500000920E-02 0. -1.
        2   -1    0    0  501    0  0.00000000000E+00  0.00000000000E+00 -0.15987675299E+04  0.15987675299E+04  0.25500000920E-02 0.  1.
    10030    2    1    2    0    0  0.00000000000E+00  0.00000000000E+00 -0.13342400091E+04  0.18632950507E+04  0.13006429349E+04 0.  0.
        4    1    3    3  502    0  0.76482459213E+02 -0.10549802262E+03 -0.15798721500E+04  0.15852372134E+04  0.12699999809E+01 0.  1.
       -4    1    3    3    0  502 -0.76482459213E+02  0.10549802262E+03  0.24563214092E+03  0.27805783732E+03  0.12699999809E+01 0. -1.
</event>
<event>
 5   0  0.6742824E-05  0.1299648E+04  0.7818609E-02  0.9029844E-01
        2   -1    0    0  501    0  0.00000000000E+00  0.00000000000E+00  0.80588916218E+03  0.80588916218E+03  0.25500000920E-02 0.  1.
       -2   -1    0    0    0  501  0.00000000000E+00  0.00000000000E+00 -0.52398198996E+03  0.52398198997E+03  0.25500000920E-02 0. -1.
    10030    2    1    2    0    0  0.00000000000E+00  0.00000000000E+00  0.28190717222E+03  0.13298711521E+04  0.12996482707E+04 0.  0.
        4    1    3    3  502    0 -0.38965323735E+03 -0.51553604543E+03  0.21082573088E+03  0.67974713035E+03  0.12699999809E+01 0.  1.
       -4    1    3    3    0  502  0.38965323735E+03  0.51553604543E+03  0.71081441342E+02  0.65012402180E+03  0.12699999809E+01 0. -1.
</event>
<event>
 5   0  0.6458698E-05  0.1299833E+04  0.7818609E-02  0.9029698E-01
       -2   -1    0    0    0  501  0.00000000000E+00  0.00000000000E+00  0.31847041993E+03  0.31847041994E+03  0.25500000920E-02 0.  1.
        2   -1    0    0  501    0  0.00000000000E+00  0.00000000000E+00 -0.13263131417E+04  0.13263131417E+04  0.25500000920E-02 0. -1.
    10030    2    1    2    0    0  0.00000000000E+00  0.00000000000E+00 -0.10078427217E+04  0.16447835616E+04  0.12998330711E+04 0.  0.
        3    1    3    3  502    0 -0.64749458336E+03  0.55647283180E+02 -0.51246969653E+03  0.82762978177E+03  0.10100000352E+00 0. -1.
       -3    1    3    3    0  502  0.64749458336E+03 -0.55647283180E+02 -0.49537302519E+03  0.81715377983E+03  0.10100000352E+00 0.  1.
</event>
<event>
 5   0  0.3718559E-05  0.1300442E+04  0.7818609E-02  0.9029214E-01
       -1   -1    0    0    0  501  0.00000000000E+00  0.00000000000E+00  0.43559794282E+03  0.43559794285E+03  0.50400001928E-02 0.  1.
        1   -1    0    0  501    0  0.00000000000E+00  0.00000000000E+00 -0.97059143971E+03  0.97059143972E+03  0.50400001928E-02 0. -1.
    10030    2    1    2    0    0  0.00000000000E+00  0.00000000000E+00 -0.53499349689E+03  0.14061893826E+04  0.13004424393E+04 0.  0.
        2    1    3    3  502    0 -0.12908693553E+03  0.55290995417E+03  0.75153855206E+02  0.57273113789E+03  0.25500000920E-02 0.  1.
       -2    1    3    3    0  502  0.12908693553E+03 -0.55290995417E+03 -0.61014735209E+03  0.83345824468E+03  0.25500000920E-02 0. -1.
</event>
<event>
 5   0  0.3551277E-05  0.1300213E+04  0.7818609E-02  0.9029397E-01
        1   -1    0    0  501    0  0.00000000000E+00  0.00000000000E+00  0.19692668178E+04  0.19692668178E+04  0.50400001928E-02 0.  1.
       -1   -1    0    0    0  501  0.00000000000E+00  0.00000000000E+00 -0.21461705322E+03  0.21461705327E+03  0.50400001928E-02 0. -1.
    10030    2    1    2    0    0  0.00000000000E+00  0.00000000000E+00  0.17546497646E+04  0.21838838711E+04  0.13002126618E+04 0.  0.
        4    1    3    3  502    0  0.10956451797E+03  0.49981657846E+03  0.15508895254E+04  0.16331199982E+04  0.12699999809E+01 0.  1.
       -4    1    3    3    0  502 -0.10956451797E+03 -0.49981657846E+03  0.20376023923E+03  0.55076387290E+03  0.12699999809E+01 0. -1.
</event>
<event>
 5   0  0.3552698E-05  0.1299731E+04  0.7818609E-02  0.9029778E-01
        1   -1    0    0  501    0  0.00000000000E+00  0.00000000000E+00  0.71375862312E+03  0.71375862314E+03  0.50400001928E-02 0. -1.
       -1   -1    0    0    0  501  0.00000000000E+00  0.00000000000E+00 -0.59169203653E+03  0.59169203655E+03  0.50400001928E-02 0.  1.
    10030    2    1    2    0    0  0.00000000000E+00  0.00000000000E+00  0.12206658659E+03  0.13054506597E+04  0.12997311927E+04 0.  0.
        5    1    3    3  502    0 -0.17864371474E+03  0.41484261509E+03  0.53031005030E+03  0.69660520494E+03  0.46999998093E+01 0. -1.
       -5    1    3    3    0  502  0.17864371474E+03 -0.41484261509E+03 -0.40824346370E+03  0.60884545475E+03  0.46999998093E+01 0.  1.
</event>
<event>
 5   0  0.6671239E-05  0.1298208E+04  0.7818609E-02  0.9030988E-01
       -2   -1    0    0    0  501  0.00000000000E+00  0.00000000000E+00  0.53204461056E+03  0.53204461057E+03  0.25500000920E-02 0.  1.
        2   -1    0    0  501    0  0.00000000000E+00  0.00000000000E+00 -0.79191809240E+03  0.79191809240E+03  0.25500000920E-02 0. -1.
    10030    2    1    2    0    0  0.00000000000E+00  0.00000000000E+00 -0.25987348184E+03  0.13239627030E+04  0.12982076152E+04 0.  0.
        1    1    3    3  502    0  0.57831944814E+02 -0.64619648988E+03 -0.15086993045E+03  0.66609021410E+03  0.50400001928E-02 0. -1.
       -1    1    3    3    0  502 -0.57831944814E+02  0.64619648988E+03 -0.10900355139E+03  0.65787248887E+03  0.50400001928E-02 0.  1.
</event>
<event>
 5   0  0.6688086E-05  0.1299908E+04  0.7818609E-02  0.9029638E-01
        2   -1    0    0  501    0  0.00000000000E+00  0.00000000000E+00  0.13654391414E+04  0.13654391414E+04  0.25500000920E-02 0.  1.
       -2   -1    0    0    0  501  0.00000000000E+00  0.00000000000E+00 -0.30938047836E+03  0.30938047837E+03  0.25500000920E-02 0. -1.
    10030    2    1    2    0    0  0.00000000000E+00  0.00000000000E+00  0.10560586630E+04  0.16748196197E+04  0.12999080194E+04 0.  0.
        5    1    3    3  502    0 -0.15951761204E+03 -0.52968077821E+03  0.96762312174E+03  0.11145959766E+04  0.46999998093E+01 0.  1.
       -5    1    3    3    0  502  0.15951761204E+03  0.52968077821E+03  0.88435541271E+02  0.56022364312E+03  0.46999998093E+01 0. -1.
</event>
<event>
 5   0  0.6742824E-05  0.1300606E+04  0.7818609E-02  0.9029085E-01
       -2   -1    0    0    0  501  0.00000000000E+00  0.00000000000E+00  0.42238308050E+03  0.42238308051E+03  0.25500000920E-02 0.  1.
        2   -1    0    0  501    0  0.00000000000E+00  0.00000000000E+00 -0.10012092945E+04  0.10012092945E+04  0.25500000920E-02 0. -1.
    10030    2    1    2    0    0  0.00000000000E+00  0.00000000000E+00 -0.57882621400E+03  0.14235923750E+04  0.13006058066E+04 0.  0.
        4    1    3    3  502    0  0.27900846738E+03 -0.55215717246E+03 -0.70038985550E+02  0.62259966300E+03  0.12699999809E+01 0.  1.
       -4    1    3    3    0  502 -0.27900846738E+03  0.55215717246E+03 -0.50878722845E+03  0.80099271202E+03  0.12699999809E+01 0. -1.
</event>
<event>
 5   0  0.3552698E-05  0.1301073E+04  0.7818609E-02  0.9028715E-01
        1   -1    0    0  501    0  0.00000000000E+00  0.00000000000E+00  0.81509632062E+03  0.81509632063E+03  0.50400001928E-02 0. -1.
       -1   -1    0    0    0  501  0.00000000000E+00  0.00000000000E+00 -0.51919960396E+03  0.51919960399E+03  0.50400001928E-02 0.  1.
    10030    2    1    2    0    0  0.00000000000E+00  0.00000000000E+00  0.29589671666E+03  0.13342959246E+04  0.13010729217E+04 0.  0.
        5    1    3    3  502    0  0.38748555627E+03  0.37069593304E+03  0.52561140362E+03  0.75089943981E+03  0.46999998093E+01 0. -1.
       -5    1    3    3    0  502 -0.38748555627E+03 -0.37069593304E+03 -0.22971468696E+03  0.58339648481E+03  0.46999998093E+01 0.  1.
</event>
<event>
 5   0  0.3689707E-05  0.1300557E+04  0.7818609E-02  0.9029124E-01
       -1   -1    0    0    0  501  0.00000000000E+00  0.00000000000E+00  0.24466481439E+03  0.24466481444E+03  0.50400001928E-02 0.  1.
        1   -1    0    0  501    0  0.00000000000E+00  0.00000000000E+00 -0.17283314200E+04  0.17283314200E+04  0.50400001928E-02 0. -1.
    10030    2    1    2    0    0  0.00000000000E+00  0.00000000000E+00 -0.14836666056E+04  0.19729962345E+04  0.13005566287E+04 0.  0.
        1    1    3    3  502    0 -0.25907404669E+03 -0.51168370807E+03 -0.12067566609E+04  0.13361142232E+04  0.50400001928E-02 0. -1.
       -1    1    3    3    0  502  0.25907404669E+03  0.51168370807E+03 -0.27690994477E+03  0.63688201130E+03  0.50400001928E-02 0.  1.
</event>
<event>
 5   0  0.3718559E-05  0.1299154E+04  0.7818609E-02  0.9030236E-01
        1   -1    0    0  501    0  0.00000000000E+00  0.00000000000E+00  0.74534710168E+03  0.74534710169E+03  0.50400001928E-02 0. -1.
       -1   -1    0    0    0  501  0.00000000000E+00  0.00000000000E+00 -0.56611268455E+03  0.56611268458E+03  0.50400001928E-02 0.  1.
    10030    2    1    2    0    0  0.00000000000E+00  0.00000000000E+00  0.17923441712E+03  0.13114597863E+04  0.12991542613E+04 0.  0.
        2    1    3    3  502    0  0.20051482421E+03 -0.61723882227E+03  0.11745540366E+03  0.65953448000E+03  0.25500000920E-02 0. -1.
       -2    1    3    3    0  502 -0.20051482421E+03  0.61723882227E+03  0.61779013460E+02  0.65192530627E+03  0.25500000920E-02 0.  1.
</event>
<event>
 5   0  0.3718559E-05  0.1299704E+04  0.7818609E-02  0.9029800E-01
        1   -1    0    0  501    0  0.00000000000E+00  0.00000000000E+00  0.10906127694E+04  0.10906127694E+04  0.50400001928E-02 0.  1.
       -1   -1    0    0    0  501  0.00000000000E+00  0.00000000000E+00 -0.38722028253E+03  0.38722028256E+03  0.50400001928E-02 0. -1.
    10030    2    1    2    0    0  0.00000000000E+00  0.00000000000E+00  0.70339248690E+03  0.14778330520E+04  0.12997036350E+04 0.  0.
        2    1    3    3  502    0 -0.51602642547E+03 -0.15525348810E+03  0.76468395789E+03  0.93548301578E+03  0.25500000920E-02 0.  1.
       -2    1    3    3    0  502  0.51602642547E+03  0.15525348810E+03 -0.61291470997E+02  0.54235003621E+03  0.25500000920E-02 0. -1.
</event>
<event>
 5   0  0.3631841E-05  0.1299924E+04  0.7818609E-02  0.9029625E-01
       -1   -1    0    0    0  501  0.00000000000E+00  0.00000000000E+00  0.12150072842E+04  0.12150072843E+04  0.50400001928E-02 0. -1.
        1   -1    0    0  501    0  0.00000000000E+00  0.00000000000E+00 -0.34769399497E+03  0.34769399500E+03  0.50400001928E-02 0.  1.
    10030    2    1    2    0    0  0.00000000000E+00  0.00000000000E+00  0.86731328928E+03  0.15627012793E+04  0.12999242080E+04 0.  0.
        3    1    3    3  502    0 -0.14350824730E+03  0.11299156121E+03  0.11835205024E+04  0.11975318367E+04  0.10100000352E+00 0. -1.
       -3    1    3    3    0  502  0.14350824730E+03 -0.11299156121E+03 -0.31620721316E+03  0.36516944259E+03  0.10100000352E+00 0.  1.
</event>
<event>
 5   0  0.6671239E-05  0.1301569E+04  0.7818609E-02  0.9028322E-01
        2   -1    0    0  501    0  0.00000000000E+00  0.00000000000E+00  0.48330259931E+03  0.48330259931E+03  0.25500000920E-02 0. -1.
       -2   -1    0    0    0  501  0.00000000000E+00  0.00000000000E+00 -0.87630515377E+03  0.87630515378E+03  0.25500000920E-02 0.  1.
    10030    2    1    2    0    0  0.00000000000E+00  0.00000000000E+00 -0.39300255446E+03  0.13596077531E+04  0.13015691432E+04 0.  0.
        1    1    3    3  502    0  0.63807705343E+03  0.10790671977E+03 -0.26837623323E+03  0.70057975197E+03  0.50400001928E-02 0.  1.
       -1    1    3    3    0  502 -0.63807705343E+03 -0.10790671977E+03 -0.12462632123E+03  0.65902800112E+03  0.50400001928E-02 0. -1.
</event>
<event>
 5   0  0.3718559E-05  0.1299129E+04  0.7818609E-02  0.9030256E-01
       -1   -1    0    0    0  501  0.00000000000E+00  0.00000000000E+00  0.80512775783E+03  0.80512775784E+03  0.50400001928E-02 0. -1.
        1   -1    0    0  501    0  0.00000000000E+00  0.00000000000E+00 -0.52405879502E+03  0.52405879504E+03  0.50400001928E-02 0.  1.
    10030    2    1    2    0    0  0.00000000000E+00  0.00000000000E+00  0.28106896281E+03  0.13291865529E+04  0.12991293740E+04 0.  0.
        2    1    3    3  502    0  0.62062189812E+03  0.52007151460E+02 -0.48283389708E+02  0.62466596671E+03  0.25500000920E-02 0.  1.
       -2    1    3    3    0  502 -0.62062189812E+03 -0.52007151460E+02  0.32935235251E+03  0.70452058618E+03  0.25500000920E-02 0. -1.
</event>
<event>
 5   0  0.3689707E-05  0.1299457E+04  0.7818609E-02  0.9029996E-01
        1   -1    0    0  501    0  0.00000000000E+00  0.00000000000E+00  0.89519858633E+03  0.89519858635E+03  0.50400001928E-02 0.  1.
       -1   -1    0    0    0  501  0.00000000000E+00  0.00000000000E+00 -0.47156788961E+03  0.47156788964E+03  0.50400001928E-02 0. -1.
    10030    2    1    2    0    0  0.00000000000E+00  0.00000000000E+00  0.42363069672E+03  0.13667664760E+04  0.12994566683E+04 0.  0.
        1    1    3    3  502    0  0.58504212197E+03  0.16013084691E+03  0.45675283844E+03  0.75930186886E+03  0.50400001928E-02 0.  1.
       -1    1    3    3    0  502 -0.58504212197E+03 -0.16013084691E+03 -0.33122141720E+02  0.60746460712E+03  0.50400001928E-02 0. -1.
</event>
<event>
 5   0  0.6742824E-05  0.1300100E+04  0.7818609E-02  0.9029485E-01
        2   -1    0    0  501    0  0.00000000000E+00  0.00000000000E+00  0.16647180568E+04  0.16647180568E+04  0.25500000920E-02 0.  1.
       -2   -1    0    0    0  501  0.00000000000E+00  0.00000000000E+00 -0.25383596917E+03  0.25383596918E+03  0.25500000920E-02 0. -1.
    10030    2    1    2    0    0  0.00000000000E+00  0.00000000000E+00  0.14108820876E+04  0.19185540260E+04  0.13001004905E+04 0.  0.
        4    1    3    3  502    0  0.29066068484E+03 -0.56273210636E+03  0.48950142388E+03  0.80047755379E+03  0.12699999809E+01 0.  1.
       -4    1    3    3    0  502 -0.29066068484E+03  0.56273210636E+03  0.92138066374E+03  0.11180764722E+04  0.12699999809E+01 0. -1.
</event>
<event>
 5   0  0.3552698E-05  0.1300224E+04  0.7818609E-02  0.9029388E-01
        1   -1    0    0  501    0  0.00000000000E+00  0.00000000000E+00  0.16046919653E+04  0.16046919653E+04  0.50400001928E-02 0. -1.
       -1   -1    0    0    0  501  0.00000000000E+00  0.00000000000E+00 -0.26338100469E+03  0.26338100473E+03  0.50400001928E-02 0.  1.
    10030    2    1    2    0    0  0.00000000000E+00  0.00000000000E+00  0.13413109606E+04  0.18680729700E+04  0.13002236455E+04 0.  0.
        5    1    3    3  502    0  0.54071973624E+03  0.20909228077E+03  0.24803671019E+03  0.63058838764E+03  0.46999998093E+01 0.  1.
       -5    1    3    3    0  502 -0.54071973624E+03 -0.20909228077E+03  0.10932742504E+04  0.12374845824E+04  0.46999998093E+01 0. -1.
</event>
<event>
 5   0  0.3552698E-05  0.1296914E+04  0.7818609E-02  0.9032016E-01
       -1   -1    0    0    0  501  0.00000000000E+00  0.00000000000E+00  0.52594368047E+03  0.52594368049E+03  0.50400001928E-02 0. -1.
        1   -1    0    0  501    0  0.00000000000E+00  0.00000000000E+00 -0.79950854307E+03  0.79950854309E+03  0.50400001928E-02 0.  1.
    10030    2    1    2    0    0  0.00000000000E+00  0.00000000000E+00 -0.27356486261E+03  0.13254522236E+04  0.12969139767E+04 0.  0.
        5    1    3    3  502    0  0.32139139487E+03  0.23844853912E+03 -0.65822947913E+03  0.77034944778E+03  0.46999998093E+01 0.  1.
       -5    1    3    3    0  502 -0.32139139487E+03 -0.23844853912E+03  0.38466461652E+03  0.55510277580E+03  0.46999998093E+01 0. -1.
</event>
<event>
 5   0  0.3718559E-05  0.1299829E+04  0.7818609E-02  0.9029701E-01
        1   -1    0    0  501    0  0.00000000000E+00  0.00000000000E+00  0.71904996119E+03  0.71904996120E+03  0.50400001928E-02 0. -1.
       -1   -1    0    0    0  501  0.00000000000E+00  0.00000000000E+00 -0.58742629167E+03  0.58742629169E+03  0.50400001928E-02 0.  1.
    10030    2    1    2    0    0  0.00000000000E+00  0.00000000000E+00  0.13162366951E+03  0.13064762529E+04  0.12998289922E+04 0.  0.
        2    1    3    3  502    0 -0.65986538713E+02 -0.28127763504E+03  0.65095523524E+03  0.71218961630E+03  0.25500000920E-02 0. -1.
       -2    1    3    3    0  502  0.65986538713E+02  0.28127763504E+03 -0.51933156573E+03  0.59428663660E+03  0.25500000920E-02 0.  1.
</event>
<event>
 5   0  0.6671239E-05  0.1300494E+04  0.7818609E-02  0.9029173E-01
        2   -1    0    0  501    0  0.00000000000E+00  0.00000000000E+00  0.11953596609E+04  0.11953596609E+04  0.25500000920E-02 0. -1.
       -2   -1    0    0    0  501  0.00000000000E+00  0.00000000000E+00 -0.35371896361E+03  0.35371896362E+03  0.25500000920E-02 0.  1.
    10030    2    1    2    0    0  0.00000000000E+00  0.00000000000E+00  0.84164069729E+03  0.15490786245E+04  0.13004943374E+04 0.  0.
        1    1    3    3  502    0 -0.41175261228E+03 -0.33355000351E+03  0.86971895144E+03  0.10184335389E+04  0.50400001928E-02 0. -1.
       -1    1    3    3    0  502  0.41175261228E+03  0.33355000351E+03 -0.28078254148E+02  0.53064508567E+03  0.50400001928E-02 0.  1.
</event>
<event>
 5   0  0.3718559E-05  0.1299608E+04  0.7818609E-02  0.9029876E-01
       -1   -1    0    0    0  501  0.00000000000E+00  0.00000000000E+00  0.26239736201E+03  0.26239736206E+03  0.50400001928E-02 0.  1.
        1   -1    0    0  501    0  0.00000000000E+00  0.00000000000E+00 -0.16091834701E+04  0.16091834701E+04  0.50400001928E-02 0. -1.
    10030    2    1    2    0    0  0.00000000000E+00  0.00000000000E+00 -0.13467861081E+04  0.18715808322E+04  0.12996083989E+04 0.  0.
        2    1    3    3  502    0  0.45874808665E+03  0.20192782116E+03 -0.12689463111E+04  0.13643494392E+04  0.25500000920E-02 0.  1.
       -2    1    3    3    0  502 -0.45874808665E+03 -0.20192782116E+03 -0.77839797012E+02  0.50723139292E+03  0.25500000920E-02 0. -1.
</event>
<event>
 5   0  0.6671239E-05  0.1299531E+04  0.7818609E-02  0.9029937E-01
        2   -1    0    0  501    0  0.00000000000E+00  0.00000000000E+00  0.17939967233E+04  0.17939967233E+04  0.25500000920E-02 0. -1.
       -2   -1    0    0    0  501  0.00000000000E+00  0.00000000000E+00 -0.23533774856E+03  0.23533774857E+03  0.25500000920E-02 0.  1.
    10030    2    1    2    0    0  0.00000000000E+00  0.00000000000E+00  0.15586589747E+04  0.20293344718E+04  0.12995309150E+04 0.  0.
        1    1    3    3  502    0  0.25550262420E+03  0.52568033442E+03  0.33606412963E+03  0.67421102351E+03  0.50400001928E-02 0.  1.
       -1    1    3    3    0  502 -0.25550262420E+03 -0.52568033442E+03  0.12225948451E+04  0.13551234483E+04  0.50400001928E-02 0. -1.
</event>
<event>
 5   0  0.6458698E-05  0.1300108E+04  0.7818609E-02  0.9029480E-01
        2   -1    0    0  501    0  0.00000000000E+00  0.00000000000E+00  0.12423320885E+04  0.12423320886E+04  0.25500000920E-02 0. -1.
       -2   -1    0    0    0  501  0.00000000000E+00  0.00000000000E+00 -0.34014246879E+03  0.34014246880E+03  0.25500000920E-02 0.  1.
    10030    2    1    2    0    0  0.00000000000E+00  0.00000000000E+00  0.90218961976E+03  0.15824745573E+04  0.13001075396E+04 0.  0.
        3    1    3    3  502    0  0.30839789706E+03 -0.97542611174E+01 -0.24532946983E+03  0.39419661019E+03  0.10100000352E+00 0.  1.
       -3    1    3    3    0  502 -0.30839789706E+03  0.97542611174E+01  0.11475190896E+04  0.11882779472E+04  0.10100000352E+00 0. -1.
</event>
<event>
 5   0  0.6458698E-05  0.1299898E+04  0.7818609E-02  0.9029646E-01
       -2   -1    0    0    0  501  0.00000000000E+00  0.00000000000E+00  0.78139648213E+03  0.78139648214E+03  0.25500000920E-02 0.  1.
        2   -1    0    0  501    0  0.00000000000E+00  0.00000000000E+00 -0.54061393839E+03  0.54061393840E+03  0.25500000920E-02 0. -1.
    10030    2    1    2    0    0  0.00000000000E+00  0.00000000000E+00  0.24078254374E+03  0.13220104205E+04  0.12998981955E+04 0.  0.
        3    1    3    3  502    0  0.59393797326E+03 -0.15558759685E+02  0.38836815556E+03  0.70981281021E+03  0.10100000352E+00 0.  1.
       -3    1    3    3    0  502 -0.59393797326E+03  0.15558759685E+02 -0.14758561182E+03  0.61219761033E+03  0.10100000352E+00 0. -1.
</event>
<event>
 5   0  0.3689707E-05  0.1300749E+04  0.7818609E-02  0.9028971E-01
        1   -1    0    0  501    0  0.00000000000E+00  0.00000000000E+00  0.12939093540E+04  0.12939093540E+04  0.50400001928E-02 0.  1.
       -1   -1    0    0    0  501  0.00000000000E+00  0.00000000000E+00 -0.32690620856E+03  0.32690620860E+03  0.50400001928E-02 0. -1.
    10030    2    1    2    0    0  0.00000000000E+00  0.00000000000E+00  0.96700314546E+03  0.16208155626E+04  0.13007490168E+04 0.  0.
        1    1    3    3  502    0  0.47939927992E+03 -0.41166477975E+03  0.67531212097E+03  0.92484486333E+03  0.50400001928E-02 0.  1.
       -1    1    3    3    0  502 -0.47939927992E+03  0.41166477975E+03  0.29169102448E+03  0.69597069929E+03  0.50400001928E-02 0. -1.
</event>
<event>
 5   0  0.3552698E-05  0.1299884E+04  0.7818609E-02  0.9029657E-01
        1   -1    0    0  501    0  0.00000000000E+00  0.00000000000E+00  0.86091758952E+03  0.86091758953E+03  0.50400001928E-02 0. -1.
       -1   -1    0    0    0  501  0.00000000000E+00  0.00000000000E+00 -0.49066817740E+03  0.49066817742E+03  0.50400001928E-02 0.  1.
    10030    2    1    2    0    0  0.00000000000E+00  0.00000000000E+00  0.37024941212E+03  0.13515857670E+04  0.12998844019E+04 0.  0.
        5    1    3    3  502    0 -0.16945375752E+03  0.51384817563E+03 -0.18926354256E+03  0.57323407268E+03  0.46999998093E+01 0.  1.
       -5    1    3    3    0  502  0.16945375752E+03 -0.51384817563E+03  0.55951295468E+03  0.77835169428E+03  0.46999998093E+01 0. -1.
</event>
<event>
 5   0  0.6458698E-05  0.1299746E+04  0.7818609E-02  0.9029766E-01
       -2   -1    0    0    0  501  0.00000000000E+00  0.00000000000E+00  0.56079216789E+03  0.56079216789E+03  0.25500000920E-02 0. -1.
        2   -1    0    0  501    0  0.00000000000E+00  0.00000000000E+00 -0.75310459569E+03  0.75310459569E+03  0.25500000920E-02 0.  1.
    10030    2    1    2    0    0  0.00000000000E+00  0.00000000000E+00 -0.19231242780E+03  0.13138967636E+04  0.12997463735E+04 0.  0.
        3    1    3    3  502    0  0.27358277602E+02 -0.62454193516E+03 -0.27566779282E+03  0.68322313070E+03  0.10100000352E+00 0. -1.
       -3    1    3    3    0  502 -0.27358277602E+02  0.62454193516E+03  0.83355365016E+02  0.63067363288E+03  0.10100000352E+00 0.  1.
</event>
<event>
 5   0  0.3552698E-05  0.1300009E+04  0.7818609E-02  0.9029558E-01
       -1   -1    0    0    0  501  0.00000000000E+00  0.00000000000E+00  0.12596969661E+04  0.12596969662E+04  0.50400001928E-02 0. -1.
        1   -1    0    0  501    0  0.00000000000E+00  0.00000000000E+00 -0.33540265041E+03  0.33540265045E+03  0.50400001928E-02 0.  1.
    10030    2    1    2    0    0  0.00000000000E+00  0.00000000000E+00  0.92429431574E+03  0.15950996166E+04  0.13000087710E+04 0.  0.
        5    1    3    3  502    0  0.23652543657E+02  0.60057698271E+03  0.15852824410E+03  0.62161519379E+03  0.46999998093E+01 0.  1.
       -5    1    3    3    0  502 -0.23652543657E+02 -0.60057698271E+03  0.76576607164E+03  0.97348442281E+03  0.46999998093E+01 0. -1.
</event>
<event>
 5   0  0.6618060E-05  0.1300335E+04  0.7818609E-02  0.9029300E-01
       -2   -1    0    0    0  501  0.00000000000E+00  0.00000000000E+00  0.82587441230E+03  0.82587441231E+03  0.25500000920E-02 0. -1.
        2   -1    0    0  501    0  0.00000000000E+00  0.00000000000E+00 -0.51184251990E+03  0.51184251991E+03  0.25500000920E-02 0.  1.
    10030    2    1    2    0    0  0.00000000000E+00  0.00000000000E+00  0.31403189240E+03  0.13377169322E+04  0.13003347882E+04 0.  0.
        2    1    3    3  502    0  0.24749917975E+03  0.10364588532E+03 -0.45222473093E+03  0.52583792255E+03  0.25500000920E-02 0.  1.
       -2    1    3    3    0  502 -0.24749917975E+03 -0.10364588532E+03  0.76625662334E+03  0.81187900966E+03  0.25500000920E-02 0. -1.
</event>
<event>
 5   0  0.3689707E-05  0.1299997E+04  0.7818609E-02  0.9029568E-01
        1   -1    0    0  501    0  0.00000000000E+00  0.00000000000E+00  0.50750831963E+03  0.50750831965E+03  0.50400001928E-02 0.  1.
       -1   -1    0    0    0  501  0.00000000000E+00  0.00000000000E+00 -0.83249434897E+03  0.83249434898E+03  0.50400001928E-02 0. -1.
    10030    2    1    2    0    0  0.00000000000E+00  0.00000000000E+00 -0.32498602934E+03  0.13400026686E+04  0.12999966280E+04 0.  0.
        1    1    3    3  502    0 -0.20151888092E+02 -0.15120946742E+03 -0.81378181675E+03  0.82795606583E+03  0.50400001928E-02 0. -1.
       -1    1    3    3    0  502  0.20151888092E+02  0.15120946742E+03  0.48879578742E+03  0.51204660281E+03  0.50400001928E-02 0.  1.
</event>
<event>
 5   0  0.3689707E-05  0.1298556E+04  0.7818609E-02  0.9030711E-01
        1   -1    0    0  501    0  0.00000000000E+00  0.00000000000E+00  0.12203859352E+04  0.12203859352E+04  0.50400001928E-02 0. -1.
       -1   -1    0    0    0  501  0.00000000000E+00  0.00000000000E+00 -0.34543347847E+03  0.34543347851E+03  0.50400001928E-02 0.  1.
    10030    2    1    2    0    0  0.00000000000E+00  0.00000000000E+00  0.87495245672E+03  0.15658194137E+04  0.12985563657E+04 0.  0.
        1    1    3    3  502    0  0.47677929825E+03 -0.16014597779E+03 -0.57638325736E+02  0.50624836796E+03  0.50400001928E-02 0.  1.
       -1    1    3    3    0  502 -0.47677929825E+03  0.16014597779E+03  0.93259078245E+03  0.10595710457E+04  0.50400001928E-02 0. -1.
</event>
<event>
 5   0  0.3551277E-05  0.1300213E+04  0.7818609E-02  0.9029396E-01
        1   -1    0    0  501    0  0.00000000000E+00  0.00000000000E+00  0.98837147637E+03  0.98837147638E+03  0.50400001928E-02 0.  1.
       -1   -1    0    0    0  501  0.00000000000E+00  0.00000000000E+00 -0.42761078752E+03  0.42761078755E+03  0.50400001928E-02 0. -1.
    10030    2    1    2    0    0  0.00000000000E+00  0.00000000000E+00  0.56076068885E+03  0.14159822639E+04  0.13002127601E+04 0.  0.
        4    1    3    3  502    0 -0.28744539815E+03 -0.49001169576E+03  0.62459308881E+03  0.84430708773E+03  0.12699999809E+01 0.  1.
       -4    1    3    3    0  502  0.28744539815E+03  0.49001169576E+03 -0.63832399965E+02  0.57167517620E+03  0.12699999809E+01 0. -1.
</event>
<event>
 5   0  0.6742824E-05  0.1300051E+04  0.7818609E-02  0.9029525E-01
        2   -1    0    0  501    0  0.00000000000E+00  0.00000000000E+00  0.11775585694E+04  0.11775585694E+04  0.25500000920E-02 0. -1.
       -2   -1    0    0    0  501  0.00000000000E+00  0.00000000000E+00 -0.35882137624E+03  0.35882137625E+03  0.25500000920E-02 0.  1.
    10030    2    1    2    0    0  0.00000000000E+00  0.00000000000E+00  0.81873719314E+03  0.15363799456E+04  0.13000510551E+04 0.  0.
        4    1    3    3  502    0  0.16742428664E+03  0.43550067006E+03  0.94423515375E+03  0.10532204726E+04  0.12699999809E+01 0.  1.
       -4    1    3    3    0  502 -0.16742428664E+03 -0.43550067006E+03 -0.12549796061E+03  0.48315947305E+03  0.12699999809E+01 0. -1.
</event>
<event>
 5   0  0.3631841E-05  0.1299342E+04  0.7818609E-02  0.9030087E-01
       -1   -1    0    0    0  501  0.00000000000E+00  0.00000000000E+00  0.74498823656E+03  0.74498823658E+03  0.50400001928E-02 0. -1.
        1   -1    0    0  501    0  0.00000000000E+00  0.00000000000E+00 -0.56654916263E+03  0.56654916265E+03  0.50400001928E-02 0.  1.
    10030    2    1    2    0    0  0.00000000000E+00  0.00000000000E+00  0.17843907393E+03  0.13115373992E+04  0.12993420822E+04 0.  0.
        3    1    3    3  502    0 -0.24871526957E+03 -0.16057544565E+03 -0.49450633195E+03  0.57635083205E+03  0.10100000352E+00 0.  1.
       -3    1    3    3    0  502  0.24871526957E+03  0.16057544565E+03  0.67294540588E+03  0.73518656718E+03  0.10100000352E+00 0. -1.
</event>
<event>
 5   0  0.3552698E-05  0.1299636E+04  0.7818609E-02  0.9029854E-01
       -1   -1    0    0    0  501  0.00000000000E+00  0.00000000000E+00  0.10672358840E+04  0.10672358840E+04  0.50400001928E-02 0.  1.
        1   -1    0    0  501    0  0.00000000000E+00  0.00000000000E+00 -0.39566052883E+03  0.39566052886E+03  0.50400001928E-02 0. -1.
    10030    2    1    2    0    0  0.00000000000E+00  0.00000000000E+00  0.67157535513E+03  0.14628964128E+04  0.12996355093E+04 0.  0.
        5    1    3    3  502    0 -0.32493927255E+03 -0.27132984099E+03 -0.21912795914E+03  0.47670175785E+03  0.46999998093E+01 0. -1.
       -5    1    3    3    0  502  0.32493927255E+03  0.27132984099E+03  0.89070331427E+03  0.98619465498E+03  0.46999998093E+01 0.  1.
</event>
<event>
 5   0  0.3551277E-05  0.1298678E+04  0.7818609E-02  0.9030614E-01
        1   -1    0    0  501    0  0.00000000000E+00  0.00000000000E+00  0.66629120975E+03  0.66629120977E+03  0.50400001928E-02 0. -1.
       -1   -1    0    0    0  501  0.00000000000E+00  0.00000000000E+00 -0.63281791988E+03  0.63281791990E+03  0.50400001928E-02 0.  1.
    10030    2    1    2    0    0  0.00000000000E+00  0.00000000000E+00  0.33473289876E+02  0.12991091297E+04  0.12986778160E+04 0.  0.
        4    1    3    3  502    0 -0.48054103682E+03  0.36969888168E+03 -0.21581089040E+03  0.64356266555E+03  0.12699999809E+01 0.  1.
       -4    1    3    3    0  502  0.48054103682E+03 -0.36969888168E+03  0.24928418028E+03  0.65554646412E+03  0.12699999809E+01 0. -1.
</event>
<event>
 5   0  0.6618060E-05  0.1299029E+04  0.7818609E-02  0.9030335E-01
        2   -1    0    0  501    0  0.00000000000E+00  0.00000000000E+00  0.12075848042E+04  0.12075848042E+04  0.25500000920E-02 0. -1.
       -2   -1    0    0    0  501  0.00000000000E+00  0.00000000000E+00 -0.34934949653E+03  0.34934949654E+03  0.25500000920E-02 0.  1.
    10030    2    1    2    0    0  0.00000000000E+00  0.00000000000E+00  0.85823530767E+03  0.15569343008E+04  0.12990290888E+04 0.  0.
        2    1    3    3  502    0 -0.29532629781E+03  0.46000303136E+03  0.84954405710E+03  0.10102205284E+04  0.25500000920E-02 0. -1.
       -2    1    3    3    0  502  0.29532629781E+03 -0.46000303136E+03  0.86912505763E+01  0.54671377236E+03  0.25500000920E-02 0.  1.
</event>
<event>
 5   0  0.2512000E-05  0.1300410E+04  0.7818609E-02  0.9029240E-01
       -3   -1    0    0    0  501  0.00000000000E+00  0.00000000000E+00  0.14014755541E+04  0.14014755578E+04  0.10100000352E+00 0.  1.
        3   -1    0    0  501    0  0.00000000000E+00  0.00000000000E+00 -0.30165795849E+03  0.30165797540E+03  0.10100000352E+00 0. -1.
    10030    2    1    2    0    0  0.00000000000E+00  0.00000000000E+00  0.10998175956E+04  0.17031335332E+04  0.13004095848E+04 0.  0.
        3    1    3    3  502    0  0.42533261890E+03  0.48899431549E+03  0.61850186426E+03  0.89586150915E+03  0.10100000352E+00 0.  1.
       -3    1    3    3    0  502 -0.42533261890E+03 -0.48899431549E+03  0.48131573136E+03  0.80727202400E+03  0.10100000352E+00 0. -1.
</event>
<event>
 5   0  0.6742824E-05  0.1300117E+04  0.7818609E-02  0.9029472E-01
        2   -1    0    0  501    0  0.00000000000E+00  0.00000000000E+00  0.10163229119E+04  0.10163229119E+04  0.25500000920E-02 0. -1.
       -2   -1    0    0    0  501  0.00000000000E+00  0.00000000000E+00 -0.41578946745E+03  0.41578946746E+03  0.25500000920E-02 0.  1.
    10030    2    1    2    0    0  0.00000000000E+00  0.00000000000E+00  0.60053344446E+03  0.14321123794E+04  0.13001174752E+04 0.  0.
        4    1    3    3  502    0  0.57044723264E+03 -0.28268825105E+02  0.64221110021E+03  0.85944510111E+03  0.12699999809E+01 0. -1.
       -4    1    3    3    0  502 -0.57044723264E+03  0.28268825105E+02 -0.41677655751E+02  0.57266727825E+03  0.12699999809E+01 0.  1.
</event>
<event>
 5   0  0.6742824E-05  0.1300090E+04  0.7818609E-02  0.9029494E-01
       -2   -1    0    0    0  501  0.00000000000E+00  0.00000000000E+00  0.36137702274E+03  0.36137702275E+03  0.25500000920E-02 0.  1.
        2   -1    0    0  501    0  0.00000000000E+00  0.00000000000E+00 -0.11693013436E+04  0.11693013436E+04  0.25500000920E-02 0. -1.
    10030    2    1    2    0    0  0.00000000000E+00  0.00000000000E+00 -0.80792432081E+03  0.15306783663E+04  0.13000902095E+04 0.  0.
        4    1    3    3  502    0  0.26308495668E+03 -0.45391937434E+03  0.47906909071E+02  0.52683315923E+03  0.12699999809E+01 0.  1.
       -4    1    3    3    0  502 -0.26308495668E+03  0.45391937434E+03 -0.85583122988E+03  0.10038452071E+04  0.12699999809E+01 0. -1.
</event>
<event>
 5   0  0.3551277E-05  0.1300507E+04  0.7818609E-02  0.9029163E-01
       -1   -1    0    0    0  501  0.00000000000E+00  0.00000000000E+00  0.53485091093E+03  0.53485091095E+03  0.50400001928E-02 0.  1.
        1   -1    0    0  501    0  0.00000000000E+00  0.00000000000E+00 -0.79055594668E+03  0.79055594670E+03  0.50400001928E-02 0. -1.
    10030    2    1    2    0    0  0.00000000000E+00  0.00000000000E+00 -0.25570503575E+03  0.13254068576E+04  0.13005069292E+04 0.  0.
        4    1    3    3  502    0 -0.26554320046E+03  0.15235308911E+03 -0.71251154763E+03  0.77549917697E+03  0.12699999809E+01 0. -1.
       -4    1    3    3    0  502  0.26554320046E+03 -0.15235308911E+03  0.45680651188E+03  0.54990768068E+03  0.12699999809E+01 0.  1.
</event>
<event>
 5   0  0.6618060E-05  0.1299680E+04  0.7818609E-02  0.9029819E-01
       -2   -1    0    0    0  501  0.00000000000E+00  0.00000000000E+00  0.47721209506E+03  0.47721209507E+03  0.25500000920E-02 0. -1.
        2   -1    0    0  501    0  0.00000000000E+00  0.00000000000E+00 -0.88491497021E+03  0.88491497021E+03  0.25500000920E-02 0.  1.
    10030    2    1    2    0    0  0.00000000000E+00  0.00000000000E+00 -0.40770287515E+03  0.13621270653E+04  0.12996801559E+04 0.  0.
        2    1    3    3  502    0  0.56435433972E+03  0.31234416698E+03 -0.28662352141E+03  0.70583832599E+03  0.25500000920E-02 0. -1.
       -2    1    3    3    0  502 -0.56435433972E+03 -0.31234416698E+03 -0.12107935374E+03  0.65628873929E+03  0.25500000920E-02 0.  1.
</event>
<event>
 5   0  0.6742824E-05  0.1299633E+04  0.7818609E-02  0.9029856E-01
        2   -1    0    0  501    0  0.00000000000E+00  0.00000000000E+00  0.97325309239E+03  0.97325309239E+03  0.25500000920E-02 0.  1.
       -2   -1    0    0    0  501  0.00000000000E+00  0.00000000000E+00 -0.43386602358E+03  0.43386602358E+03  0.25500000920E-02 0. -1.
    10030    2    1    2    0    0  0.00000000000E+00  0.00000000000E+00  0.53938706881E+03  0.14071191160E+04  0.12996329469E+04 0.  0.
        4    1    3    3  502    0 -0.28969433205E+03  0.32073199728E+03 -0.25568958273E+03  0.50216590458E+03  0.12699999809E+01 0. -1.
       -4    1    3    3    0  502  0.28969433205E+03 -0.32073199728E+03  0.79507665154E+03  0.90495321140E+03  0.12699999809E+01 0.  1.
</event>
<event>
 5   0  0.6688086E-05  0.1300090E+04  0.7818609E-02  0.9029494E-01
        2   -1    0    0  501    0  0.00000000000E+00  0.00000000000E+00  0.58966717066E+03  0.58966717067E+03  0.25500000920E-02 0.  1.
       -2   -1    0    0    0  501  0.00000000000E+00  0.00000000000E+00 -0.71660494975E+03  0.71660494975E+03  0.25500000920E-02 0. -1.
    10030    2    1    2    0    0  0.00000000000E+00  0.00000000000E+00 -0.12693777908E+03  0.13062721204E+04  0.13000898634E+04 0.  0.
        5    1    3    3  502    0 -0.19260091458E+03 -0.95203973620E+02  0.55294449875E+03  0.59323571840E+03  0.46999998093E+01 0.  1.
       -5    1    3    3    0  502  0.19260091458E+03  0.95203973620E+02 -0.67988227784E+03  0.71303640202E+03  0.46999998093E+01 0. -1.
</event>
<event>
 5   0  0.2512000E-05  0.1299429E+04  0.7818609E-02  0.9030018E-01
        4   -1    0    0  501    0  0.00000000000E+00  0.00000000000E+00  0.29457960139E+03  0.29458233900E+03  0.12699999809E+01 0. -1.
       -4   -1    0    0    0  501  0.00000000000E+00  0.00000000000E+00 -0.14329786614E+04  0.14329792241E+04  0.12699999809E+01 0.  1.
    10030    2    1    2    0    0  0.00000000000E+00  0.00000000000E+00 -0.11383990600E+04  0.17275615631E+04  0.12994293112E+04 0.  0.
        1    1    3    3  502    0  0.64251146545E+03 -0.40120587222E+02 -0.45254983225E+03  0.78691295290E+03  0.50400001928E-02 0. -1.
       -1    1    3    3    0  502 -0.64251146545E+03  0.40120587222E+02 -0.68584922771E+03  0.94064861023E+03  0.50400001928E-02 0.  1.
</event>
<event>
 5   0  0.6688086E-05  0.1300233E+04  0.7818609E-02  0.9029381E-01
       -2   -1    0    0    0  501  0.00000000000E+00  0.00000000000E+00  0.10301821871E+04  0.10301821872E+04  0.25500000920E-02 0. -1.
        2   -1    0    0  501    0  0.00000000000E+00  0.00000000000E+00 -0.41026850796E+03  0.41026850797E+03  0.25500000920E-02 0.  1.
    10030    2    1    2    0    0  0.00000000000E+00  0.00000000000E+00  0.61991367919E+03  0.14404506951E+04  0.13002327620E+04 0.  0.
        5    1    3    3  502    0  0.33974570080E+03  0.26686562158E+03  0.84812664092E+03  0.95183259569E+03  0.46999998093E+01 0. -1.
       -5    1    3    3    0  502 -0.33974570080E+03 -0.26686562158E+03 -0.22821296173E+03  0.48861809943E+03  0.46999998093E+01 0.  1.
</event>
<event>
 5   0  0.3552698E-05  0.1300318E+04  0.7818609E-02  0.9029313E-01
       -1   -1    0    0    0  501  0.00000000000E+00  0.00000000000E+00  0.60242452716E+03  0.60242452718E+03  0.50400001928E-02 0.  1.
        1   -1    0    0  501    0  0.00000000000E+00  0.00000000000E+00 -0.70167559940E+03  0.70167559942E+03  0.50400001928E-02 0. -1.
    10030    2    1    2    0    0  0.00000000000E+00  0.00000000000E+00 -0.99251072242E+02  0.13041001266E+04  0.13003177938E+04 0.  0.
        5    1    3    3  502    0  0.63960134005E+03 -0.42858650149E+02  0.59123091473E+02  0.64377353785E+03  0.46999998093E+01 0.  1.
       -5    1    3    3    0  502 -0.63960134005E+03  0.42858650149E+02 -0.15837416371E+03  0.66032658876E+03  0.46999998093E+01 0. -1.
</event>
<event>
 5   0  0.3718559E-05  0.1293076E+04  0.7818609E-02  0.9035074E-01
       -1   -1    0    0    0  501  0.00000000000E+00  0.00000000000E+00  0.10007490289E+04  0.10007490289E+04  0.50400001928E-02 0. -1.
        1   -1    0    0  501    0  0.00000000000E+00  0.00000000000E+00 -0.41769870997E+03  0.41769871000E+03  0.50400001928E-02 0.  1.
    10030    2    1    2    0    0  0.00000000000E+00  0.00000000000E+00  0.58305031889E+03  0.14184477389E+04  0.12930762984E+04 0.  0.
        2    1    3    3  502    0 -0.46924418911E+03 -0.42802177919E+03  0.15889404005E+03  0.65470609318E+03  0.25500000920E-02 0.  1.
       -2    1    3    3    0  502  0.46924418911E+03  0.42802177919E+03  0.42415627884E+03  0.76374164569E+03  0.25500000920E-02 0. -1.
</event>
<event>
 5   0  0.6671239E-05  0.1298573E+04  0.7818609E-02  0.9030697E-01
       -2   -1    0    0    0  501  0.00000000000E+00  0.00000000000E+00  0.69714602875E+03  0.69714602875E+03  0.25500000920E-02 0.  1.
        2   -1    0    0  501    0  0.00000000000E+00  0.00000000000E+00 -0.60471280162E+03  0.60471280163E+03  0.25500000920E-02 0. -1.
    10030    2    1    2    0    0  0.00000000000E+00  0.00000000000E+00  0.92433227125E+02  0.13018588304E+04  0.12985732604E+04 0.  0.
        1    1    3    3  502    0  0.20564532944E+03  0.44499082949E+02  0.66202066594E+03  0.69465209426E+03  0.50400001928E-02 0.  1.
       -1    1    3    3    0  502 -0.20564532944E+03 -0.44499082949E+02 -0.56958743882E+03  0.60720673612E+03  0.50400001928E-02 0. -1.
</event>
<event>
 5   0  0.3551277E-05  0.1299784E+04  0.7818609E-02  0.9029737E-01
       -1   -1    0    0    0  501  0.00000000000E+00  0.00000000000E+00  0.82398869933E+03  0.82398869934E+03  0.50400001928E-02 0. -1.
        1   -1    0    0  501    0  0.00000000000E+00  0.00000000000E+00 -0.51257914394E+03  0.51257914397E+03  0.50400001928E-02 0.  1.
    10030    2    1    2    0    0  0.00000000000E+00  0.00000000000E+00  0.31140955539E+03  0.13365678433E+04  0.12997837084E+04 0.  0.
        4    1    3    3  502    0 -0.36181595835E+03 -0.53631479249E+03  0.92203890252E+02  0.65348872572E+03  0.12699999809E+01 0. -1.
       -4    1    3    3    0  502  0.36181595835E+03  0.53631479249E+03  0.21920566513E+03  0.68307911759E+03  0.12699999809E+01 0.  1.
</event>
<event>
 5   0  0.6458698E-05  0.1301400E+04  0.7818609E-02  0.9028456E-01
       -2   -1    0    0    0  501  0.00000000000E+00  0.00000000000E+00  0.56425174935E+03  0.56425174936E+03  0.25500000920E-02 0.  1.
        2   -1    0    0  501    0  0.00000000000E+00  0.00000000000E+00 -0.75039295854E+03  0.75039295854E+03  0.25500000920E-02 0. -1.
    10030    2    1    2    0    0  0.00000000000E+00  0.00000000000E+00 -0.18614120919E+03  0.13146447079E+04  0.13014000762E+04 0.  0.
        3    1    3    3  502    0  0.61514116262E+03  0.18081056970E+03  0.19051864502E+02  0.64144687684E+03  0.10100000352E+00 0. -1.
       -3    1    3    3    0  502 -0.61514116262E+03 -0.18081056970E+03 -0.20519307369E+03  0.67319783107E+03  0.10100000352E+00 0.  1.
</event>
<event>
 5   0  0.3552698E-05  0.1300345E+04  0.7818609E-02  0.9029291E-01
        1   -1    0    0  501    0  0.00000000000E+00  0.00000000000E+00  0.11575190403E+04  0.11575190403E+04  0.50400001928E-02 0. -1.
       -1   -1    0    0    0  501  0.00000000000E+00  0.00000000000E+00 -0.36519882418E+03  0.36519882421E+03  0.50400001928E-02 0.  1.
    10030    2    1    2    0    0  0.00000000000E+00  0.00000000000E+00  0.79232021611E+03  0.15227178645E+04  0.13003454810E+04 0.  0.
        5    1    3    3  502    0 -0.47912519887E+03 -0.36864837209E+03  0.11599747224E+03  0.61558109295E+03  0.46999998093E+01 0.  1.
       -5    1    3    3    0  502  0.47912519887E+03  0.36864837209E+03  0.67632274387E+03  0.90713677156E+03  0.46999998093E+01 0. -1.
</event>
<event>
 5   0  0.3631841E-05  0.1299663E+04  0.7818609E-02  0.9029833E-01
        1   -1    0    0  501    0  0.00000000000E+00  0.00000000000E+00  0.80510420709E+03  0.80510420710E+03  0.50400001928E-02 0.  1.
       -1   -1    0    0    0  501  0.00000000000E+00  0.00000000000E+00 -0.52450436902E+03  0.52450436904E+03  0.50400001928E-02 0. -1.
    10030    2    1    2    0    0  0.00000000000E+00  0.00000000000E+00  0.28059983807E+03  0.13296085761E+04  0.12996625318E+04 0.  0.
        3    1    3    3  502    0 -0.25445235807E+03  0.18577467678E+03  0.72174613632E+03  0.78751236723E+03  0.10100000352E+00 0.  1.
       -3    1    3    3    0  502  0.25445235807E+03 -0.18577467678E+03 -0.44114629825E+03  0.54209620891E+03  0.10100000352E+00 0. -1.
</event>
<event>
 5   0  0.3552698E-05  0.1301608E+04  0.7818609E-02  0.9028291E-01
        1   -1    0    0  501    0  0.00000000000E+00  0.00000000000E+00  0.32114157742E+03  0.32114157746E+03  0.50400001928E-02 0.  1.
       -1   -1    0    0    0  501  0.00000000000E+00  0.00000000000E+00 -0.13188755979E+04  0.13188755979E+04  0.50400001928E-02 0. -1.
    10030    2    1    2    0    0  0.00000000000E+00  0.00000000000E+00 -0.99773402048E+03  0.16400171754E+04  0.13016079133E+04 0.  0.
        5    1    3    3  502    0 -0.41707029109E+03 -0.19860916045E+03  0.78713773537E+02  0.46862690326E+03  0.46999998093E+01 0.  1.
       -5    1    3    3    0  502  0.41707029109E+03  0.19860916045E+03 -0.10764477940E+04  0.11713902721E+04  0.46999998093E+01 0. -1.
</event>
<event>
 5   0  0.6618060E-05  0.1300411E+04  0.7818609E-02  0.9029239E-01
       -2   -1    0    0    0  501  0.00000000000E+00  0.00000000000E+00  0.61543992301E+03  0.61543992301E+03  0.25500000920E-02 0.  1.
        2   -1    0    0  501    0  0.00000000000E+00  0.00000000000E+00 -0.68693476585E+03  0.68693476585E+03  0.25500000920E-02 0. -1.
    10030    2    1    2    0    0  0.00000000000E+00  0.00000000000E+00 -0.71494842841E+02  0.13023746889E+04  0.13004108265E+04 0.  0.
        2    1    3    3  502    0  0.45256968407E+02 -0.63812071651E+03  0.80707317299E+02  0.64479447354E+03  0.25500000920E-02 0. -1.
       -2    1    3    3    0  502 -0.45256968407E+02  0.63812071651E+03 -0.15220216014E+03  0.65758021533E+03  0.25500000920E-02 0.  1.
</event>
<event>
 5   0  0.6688086E-05  0.1300482E+04  0.7818609E-02  0.9029183E-01
       -2   -1    0    0    0  501  0.00000000000E+00  0.00000000000E+00  0.28172832217E+03  0.28172832218E+03  0.25500000920E-02 0. -1.
        2   -1    0    0  501    0  0.00000000000E+00  0.00000000000E+00 -0.15007829493E+04  0.15007829493E+04  0.25500000920E-02 0.  1.
    10030    2    1    2    0    0  0.00000000000E+00  0.00000000000E+00 -0.12190546272E+04  0.17825112715E+04  0.13004815451E+04 0.  0.
        5    1    3    3  502    0  0.46641358387E+03 -0.35802267067E+02 -0.12285529265E+04  0.13146055746E+04  0.46999998093E+01 0.  1.
       -5    1    3    3    0  502 -0.46641358387E+03  0.35802267067E+02  0.94982993134E+01  0.46790569694E+03  0.46999998093E+01 0. -1.
</event>
<event>
 5   0  0.3551277E-05  0.1294654E+04  0.7818609E-02  0.9033815E-01
        1   -1    0    0  501    0  0.00000000000E+00  0.00000000000E+00  0.40778247328E+03  0.40778247331E+03  0.50400001928E-02 0.  1.
       -1   -1    0    0    0  501  0.00000000000E+00  0.00000000000E+00 -0.10275880531E+04  0.10275880531E+04  0.50400001928E-02 0. -1.
    10030    2    1    2    0    0  0.00000000000E+00  0.00000000000E+00 -0.61980557982E+03  0.14353705264E+04  0.12946542362E+04 0.  0.
        4    1    3    3  502    0 -0.45533374158E+03  0.45877961134E+03 -0.27112656547E+03  0.70094134948E+03  0.12699999809E+01 0.  1.
       -4    1    3    3    0  502  0.45533374158E+03 -0.45877961134E+03 -0.34867901435E+03  0.73442917695E+03  0.12699999809E+01 0. -1.
</event>
<event>
 5   0  0.6742824E-05  0.1300011E+04  0.7818609E-02  0.9029557E-01
       -2   -1    0    0    0  501  0.00000000000E+00  0.00000000000E+00  0.42602630638E+03  0.42602630639E+03  0.25500000920E-02 0. -1.
        2   -1    0    0  501    0  0.00000000000E+00  0.00000000000E+00 -0.99173905915E+03  0.99173905916E+03  0.25500000920E-02 0.  1.
    10030    2    1    2    0    0  0.00000000000E+00  0.00000000000E+00 -0.56571275277E+03  0.14177653655E+04  0.13000106588E+04 0.  0.
        4    1    3    3  502    0 -0.54318754654E+03 -0.26893187421E+03 -0.53891803811E+03  0.81105568760E+03  0.12699999809E+01 0.  1.
       -4    1    3    3    0  502  0.54318754654E+03  0.26893187421E+03 -0.26794714663E+02  0.60670967795E+03  0.12699999809E+01 0. -1.
</event>
<event>
 5   0  0.3552698E-05  0.1298953E+04  0.7818609E-02  0.9030396E-01
        1   -1    0    0  501    0  0.00000000000E+00  0.00000000000E+00  0.13336923368E+04  0.13336923368E+04  0.50400001928E-02 0. -1.
       -1   -1    0    0    0  501  0.00000000000E+00  0.00000000000E+00 -0.31627978995E+03  0.31627978999E+03  0.50400001928E-02 0.  1.
    10030    2    1    2    0    0  0.00000000000E+00  0.00000000000E+00  0.10174125468E+04  0.16499721268E+04  0.12989533204E+04 0.  0.
        5    1    3    3  502    0 -0.35006706138E+03  0.48703927661E+03  0.82510278748E+03  0.10200837732E+04  0.46999998093E+01 0. -1.
       -5    1    3    3    0  502  0.35006706138E+03 -0.48703927661E+03  0.19230975932E+03  0.62988835357E+03  0.46999998093E+01 0.  1.
</event>
<event>
 5   0  0.6618060E-05  0.1299860E+04  0.7818609E-02  0.9029677E-01
        2   -1    0    0  501    0  0.00000000000E+00  0.00000000000E+00  0.22719259398E+04  0.22719259398E+04  0.25500000920E-02 0.  1.
       -2   -1    0    0    0  501  0.00000000000E+00  0.00000000000E+00 -0.18592540055E+03  0.18592540057E+03  0.25500000920E-02 0. -1.
    10030    2    1    2    0    0  0.00000000000E+00  0.00000000000E+00  0.20860005392E+04  0.24578513403E+04  0.12998595930E+04 0.  0.
        2    1    3    3  502    0  0.29687478418E+03  0.11857111978E+03  0.21129909596E+04  0.21370363926E+04  0.25500000920E-02 0.  1.
       -2    1    3    3    0  502 -0.29687478418E+03 -0.11857111978E+03 -0.26990420331E+02  0.32081494779E+03  0.25500000920E-02 0. -1.
</event>
<event>
 5   0  0.6458698E-05  0.1299692E+04  0.7818609E-02  0.9029809E-01
        2   -1    0    0  501    0  0.00000000000E+00  0.00000000000E+00  0.14690997328E+04  0.14690997328E+04  0.25500000920E-02 0. -1.
       -2   -1    0    0    0  501  0.00000000000E+00  0.00000000000E+00 -0.28745487839E+03  0.28745487840E+03  0.25500000920E-02 0.  1.
    10030    2    1    2    0    0  0.00000000000E+00  0.00000000000E+00  0.11816448544E+04  0.17565546112E+04  0.12996920944E+04 0.  0.
        3    1    3    3  502    0 -0.12070687126E+03 -0.12743777627E+02 -0.27199887184E+03  0.29785222699E+03  0.10100000352E+00 0.  1.
       -3    1    3    3    0  502  0.12070687126E+03  0.12743777627E+02  0.14536437263E+04  0.14587023843E+04  0.10100000352E+00 0. -1.
</event>
<event>
 5   0  0.3718559E-05  0.1300358E+04  0.7818609E-02  0.9029281E-01
       -1   -1    0    0    0  501  0.00000000000E+00  0.00000000000E+00  0.12190732700E+04  0.12190732700E+04  0.50400001928E-02 0. -1.
        1   -1    0    0  501    0  0.00000000000E+00  0.00000000000E+00 -0.34676561002E+03  0.34676561005E+03  0.50400001928E-02 0.  1.
    10030    2    1    2    0    0  0.00000000000E+00  0.00000000000E+00  0.87230765999E+03  0.15658388801E+04  0.13003579294E+04 0.  0.
        2    1    3    3  502    0  0.29844519313E+03  0.33646065516E+03  0.10015416957E+04  0.10978893724E+04  0.25500000920E-02 0. -1.
       -2    1    3    3    0  502 -0.29844519313E+03 -0.33646065516E+03 -0.12923403569E+03  0.46794950770E+03  0.25500000920E-02 0.  1.
</event>
<event>
 5   0  0.3552698E-05  0.1299352E+04  0.7818609E-02  0.9030079E-01
       -1   -1    0    0    0  501  0.00000000000E+00  0.00000000000E+00  0.15836502597E+04  0.15836502597E+04  0.50400001928E-02 0.  1.
        1   -1    0    0  501    0  0.00000000000E+00  0.00000000000E+00 -0.26652292863E+03  0.26652292868E+03  0.50400001928E-02 0. -1.
    10030    2    1    2    0    0  0.00000000000E+00  0.00000000000E+00  0.13171273311E+04  0.18501731884E+04  0.12993523082E+04 0.  0.
        5    1    3    3  502    0  0.43970801757E+03 -0.35510951159E+03  0.20243995131E+03  0.60037482443E+03  0.46999998093E+01 0. -1.
       -5    1    3    3    0  502 -0.43970801757E+03  0.35510951159E+03  0.11146873798E+04  0.12497983640E+04  0.46999998093E+01 0.  1.
</event>
<event>
 5   0  0.6458698E-05  0.1299917E+04  0.7818609E-02  0.9029631E-01
        2   -1    0    0  501    0  0.00000000000E+00  0.00000000000E+00  0.79631333297E+03  0.79631333297E+03  0.25500000920E-02 0. -1.
       -2   -1    0    0    0  501  0.00000000000E+00  0.00000000000E+00 -0.53050211776E+03  0.53050211777E+03  0.25500000920E-02 0.  1.
    10030    2    1    2    0    0  0.00000000000E+00  0.00000000000E+00  0.26581121521E+03  0.13268154507E+04  0.12999167813E+04 0.  0.
        3    1    3    3  502    0  0.22668119245E+02  0.64784943382E+03  0.84779471399E+02  0.65376624377E+03  0.10100000352E+00 0. -1.
       -3    1    3    3    0  502 -0.22668119245E+02 -0.64784943382E+03  0.18103174381E+03  0.67304920696E+03  0.10100000352E+00 0.  1.
</event>
<event>
 5   0  0.6458698E-05  0.1300335E+04  0.7818609E-02  0.9029299E-01
        2   -1    0    0  501    0  0.00000000000E+00  0.00000000000E+00  0.48299334025E+03  0.48299334026E+03  0.25500000920E-02 0. -1.
       -2   -1    0    0    0  501  0.00000000000E+00  0.00000000000E+00 -0.87520473138E+03  0.87520473139E+03  0.25500000920E-02 0.  1.
    10030    2    1    2    0    0  0.00000000000E+00  0.00000000000E+00 -0.39221139113E+03  0.13581980716E+04  0.13003354285E+04 0.  0.
        3    1    3    3  502    0 -0.32688328801E+03 -0.26713203202E+03  0.32037290558E+03  0.52995378604E+03  0.10100000352E+00 0. -1.
       -3    1    3    3    0  502  0.32688328801E+03  0.26713203202E+03 -0.71258429671E+03  0.82824428560E+03  0.10100000352E+00 0.  1.
</event>
<event>
 5   0  0.6618060E-05  0.1299684E+04  0.7818609E-02  0.9029816E-01
        2   -1    0    0  501    0  0.00000000000E+00  0.00000000000E+00  0.17487114265E+04  0.17487114265E+04  0.25500000920E-02 0. -1.
       -2   -1    0    0    0  501  0.00000000000E+00  0.00000000000E+00 -0.24148910872E+03  0.24148910873E+03  0.25500000920E-02 0.  1.
    10030    2    1    2    0    0  0.00000000000E+00  0.00000000000E+00  0.15072223177E+04  0.19902005352E+04  0.12996842136E+04 0.  0.
        2    1    3    3  502    0 -0.34047674324E+03  0.15365387553E+02  0.16008677565E+04  0.16367461873E+04  0.25500000920E-02 0. -1.
       -2    1    3    3    0  502  0.34047674324E+03 -0.15365387553E+02 -0.93645438780E+02  0.35345434788E+03  0.25500000920E-02 0.  1.
</event>
<event>
 5   0  0.3689707E-05  0.1300169E+04  0.7818609E-02  0.9029431E-01
        1   -1    0    0  501    0  0.00000000000E+00  0.00000000000E+00  0.23297050425E+04  0.23297050425E+04  0.50400001928E-02 0.  1.
       -1   -1    0    0    0  501  0.00000000000E+00  0.00000000000E+00 -0.18140071804E+03  0.18140071811E+03  0.50400001928E-02 0. -1.
    10030    2    1    2    0    0  0.00000000000E+00  0.00000000000E+00  0.21483043245E+04  0.25111057606E+04  0.13001694776E+04 0.  0.
        1    1    3    3  502    0  0.11781778056E+03 -0.26297777842E+03 -0.51309907587E+02  0.29269617012E+03  0.50400001928E-02 0. -1.
       -1    1    3    3    0  502 -0.11781778056E+03  0.26297777842E+03  0.21996142321E+04  0.22184095905E+04  0.50400001928E-02 0.  1.
</event>
<event>
 5   0  0.6742824E-05  0.1300154E+04  0.7818609E-02  0.9029443E-01
       -2   -1    0    0    0  501  0.00000000000E+00  0.00000000000E+00  0.30261079281E+03  0.30261079282E+03  0.25500000920E-02 0. -1.
        2   -1    0    0  501    0  0.00000000000E+00  0.00000000000E+00 -0.13965132406E+04  0.13965132406E+04  0.25500000920E-02 0.  1.
    10030    2    1    2    0    0  0.00000000000E+00  0.00000000000E+00 -0.10939024478E+04  0.16991240335E+04  0.13001538046E+04 0.  0.
        4    1    3    3  502    0 -0.37003435729E+03 -0.52645587536E+03 -0.66755962068E+03  0.92721015651E+03  0.12699999809E+01 0. -1.
       -4    1    3    3    0  502  0.37003435729E+03  0.52645587536E+03 -0.42634282716E+03  0.77191387696E+03  0.12699999809E+01 0.  1.
</event>
<event>
 5   0  0.6458698E-05  0.1297549E+04  0.7818609E-02  0.9031511E-01
        2   -1    0    0  501    0  0.00000000000E+00  0.00000000000E+00  0.10889617666E+04  0.10889617666E+04  0.25500000920E-02 0. -1.
       -2   -1    0    0    0  501  0.00000000000E+00  0.00000000000E+00 -0.38652246076E+03  0.38652246077E+03  0.25500000920E-02 0.  1.
    10030    2    1    2    0    0  0.00000000000E+00  0.00000000000E+00  0.70243930581E+03  0.14754842274E+04  0.12975487377E+04 0.  0.
        3    1    3    3  502    0 -0.64253266876E+02  0.50251526652E+03 -0.10964593806E+03  0.51833610459E+03  0.10100000352E+00 0.  1.
       -3    1    3    3    0  502  0.64253266876E+02 -0.50251526652E+03  0.81208524388E+03  0.95714812276E+03  0.10100000352E+00 0. -1.
</event>
<event>
 5   0  0.3718559E-05  0.1299999E+04  0.7818609E-02  0.9029566E-01
       -1   -1    0    0    0  501  0.00000000000E+00  0.00000000000E+00  0.63351871448E+03  0.63351871450E+03  0.50400001928E-02 0. -1.
        1   -1    0    0  501    0  0.00000000000E+00  0.00000000000E+00 -0.66690927661E+03  0.66690927662E+03  0.50400001928E-02 0.  1.
    10030    2    1    2    0    0  0.00000000000E+00  0.00000000000E+00 -0.33390562130E+02  0.13004279911E+04  0.12999992425E+04 0.  0.
        2    1    3    3  502    0  0.48232812594E+03 -0.74849271843E+02  0.41269758253E+03  0.63918864914E+03  0.25500000920E-02 0. -1.
       -2    1    3    3    0  502 -0.48232812594E+03  0.74849271843E+02 -0.44608814466E+03  0.66123934197E+03  0.25500000920E-02 0.  1.
</event>
<event>
 5   0  0.3689707E-05  0.1299676E+04  0.7818609E-02  0.9029822E-01
        1   -1    0    0  501    0  0.00000000000E+00  0.00000000000E+00  0.18438430168E+04  0.18438430168E+04  0.50400001928E-02 0.  1.
       -1   -1    0    0    0  501  0.00000000000E+00  0.00000000000E+00 -0.22902679996E+03  0.22902680001E+03  0.50400001928E-02 0. -1.
    10030    2    1    2    0    0  0.00000000000E+00  0.00000000000E+00  0.16148162169E+04  0.20728698169E+04  0.12996760609E+04 0.  0.
        1    1    3    3  502    0 -0.46716542324E+03 -0.19434741842E+03  0.14577629906E+04  0.15430772465E+04  0.50400001928E-02 0.  1.
       -1    1    3    3    0  502  0.46716542324E+03  0.19434741842E+03  0.15705322623E+03  0.52979257036E+03  0.50400001928E-02 0. -1.
</event>
<event>
 5   0  0.6671239E-05  0.1300917E+04  0.7818609E-02  0.9028838E-01
        2   -1    0    0  501    0  0.00000000000E+00  0.00000000000E+00  0.90937596796E+03  0.90937596797E+03  0.25500000920E-02 0. -1.
       -2   -1    0    0    0  501  0.00000000000E+00  0.00000000000E+00 -0.46526024905E+03  0.46526024905E+03  0.25500000920E-02 0.  1.
    10030    2    1    2    0    0  0.00000000000E+00  0.00000000000E+00  0.44411571892E+03  0.13746362170E+04  0.13009173522E+04 0.  0.
        1    1    3    3  502    0  0.36028632777E+03  0.33160672159E+03 -0.23037232089E+03  0.54114754184E+03  0.50400001928E-02 0.  1.
       -1    1    3    3    0  502 -0.36028632777E+03 -0.33160672159E+03  0.67448803980E+03  0.83348867518E+03  0.50400001928E-02 0. -1.
</event>
<event>
 5   0  0.3552698E-05  0.1299351E+04  0.7818609E-02  0.9030080E-01
        1   -1    0    0  501    0  0.00000000000E+00  0.00000000000E+00  0.89729947296E+03  0.89729947298E+03  0.50400001928E-02 0. -1.
       -1   -1    0    0    0  501  0.00000000000E+00  0.00000000000E+00 -0.47038695125E+03  0.47038695128E+03  0.50400001928E-02 0.  1.
    10030    2    1    2    0    0  0.00000000000E+00  0.00000000000E+00  0.42691252171E+03  0.13676864243E+04  0.12993505508E+04 0.  0.
        5    1    3    3  502    0 -0.54992320531E+03 -0.13995379641E+03  0.54640383818E+03  0.78777017032E+03  0.46999998093E+01 0. -1.
       -5    1    3    3    0  502  0.54992320531E+03  0.13995379641E+03 -0.11949131647E+03  0.57991625394E+03  0.46999998093E+01 0.  1.
</event>
<event>
 5   0  0.3551277E-05  0.1301837E+04  0.7818609E-02  0.9028110E-01
        1   -1    0    0  501    0  0.00000000000E+00  0.00000000000E+00  0.17836844246E+04  0.17836844246E+04  0.50400001928E-02 0. -1.
       -1   -1    0    0    0  501  0.00000000000E+00  0.00000000000E+00 -0.23753900640E+03  0.23753900645E+03  0.50400001928E-02 0.  1.
    10030    2    1    2    0    0  0.00000000000E+00  0.00000000000E+00  0.15461454182E+04  0.20212234311E+04  0.13018365888E+04 0.  0.
        4    1    3    3  502    0  0.27953786684E+03  0.36643939592E+03  0.59430326125E+02  0.46470724810E+03  0.12699999809E+01 0.  1.
       -4    1    3    3    0  502 -0.27953786684E+03 -0.36643939592E+03  0.14867150921E+04  0.15565161830E+04  0.12699999809E+01 0. -1.
</event>
<event>
 5   0  0.6458698E-05  0.1299722E+04  0.7818609E-02  0.9029785E-01
       -2   -1    0    0    0  501  0.00000000000E+00  0.00000000000E+00  0.40968308886E+03  0.40968308886E+03  0.25500000920E-02 0.  1.
        2   -1    0    0  501    0  0.00000000000E+00  0.00000000000E+00 -0.10308444918E+04  0.10308444918E+04  0.25500000920E-02 0. -1.
    10030    2    1    2    0    0  0.00000000000E+00  0.00000000000E+00 -0.62116140293E+03  0.14405275807E+04  0.12997223635E+04 0.  0.
        3    1    3    3  502    0 -0.53203566434E+03  0.37185185534E+03 -0.34534418314E+03  0.73525394625E+03  0.10100000352E+00 0.  1.
       -3    1    3    3    0  502  0.53203566434E+03 -0.37185185534E+03 -0.27581721979E+03  0.70527363441E+03  0.10100000352E+00 0. -1.
</event>
<event>
 5   0  0.3551277E-05  0.1300190E+04  0.7818609E-02  0.9029415E-01
       -1   -1    0    0    0  501  0.00000000000E+00  0.00000000000E+00  0.84008696524E+03  0.84008696526E+03  0.50400001928E-02 0.  1.
        1   -1    0    0  501    0  0.00000000000E+00  0.00000000000E+00 -0.50307084685E+03  0.50307084687E+03  0.50400001928E-02 0. -1.
    10030    2    1    2    0    0  0.00000000000E+00  0.00000000000E+00  0.33701611840E+03  0.13431578121E+04  0.13001896186E+04 0.  0.
        4    1    3    3  502    0  0.36748606503E+03 -0.19587076621E+02 -0.38510523080E+03  0.53266998531E+03  0.12699999809E+01 0. -1.
       -4    1    3    3    0  502 -0.36748606503E+03  0.19587076621E+02  0.72212134919E+03  0.81048782682E+03  0.12699999809E+01 0.  1.
</event>
<event>
 5   0  0.3689707E-05  0.1300225E+04  0.7818609E-02  0.9029387E-01
        1   -1    0    0  501    0  0.00000000000E+00  0.00000000000E+00  0.45907007915E+03  0.45907007918E+03  0.50400001928E-02 0. -1.
       -1   -1    0    0    0  501  0.00000000000E+00  0.00000000000E+00 -0.92065699993E+03  0.92065699994E+03  0.50400001928E-02 0.  1.
    10030    2    1    2    0    0  0.00000000000E+00  0.00000000000E+00 -0.46158692077E+03  0.13797270791E+04  0.13002247219E+04 0.  0.
        1    1    3    3  502    0 -0.34981200403E+03  0.12338574955E+02 -0.81212802677E+03  0.88434869282E+03  0.50400001928E-02 0.  1.
       -1    1    3    3    0  502  0.34981200403E+03 -0.12338574955E+02  0.35054110600E+03  0.49537838630E+03  0.50400001928E-02 0. -1.
</event>
<event>
 5   0  0.3718559E-05  0.1299749E+04  0.7818609E-02  0.9029764E-01
       -1   -1    0    0    0  501  0.00000000000E+00  0.00000000000E+00  0.47235592938E+03  0.47235592940E+03  0.50400001928E-02 0. -1.
        1   -1    0    0  501    0  0.00000000000E+00  0.00000000000E+00 -0.89410710974E+03  0.89410710975E+03  0.50400001928E-02 0.  1.
    10030    2    1    2    0    0  0.00000000000E+00  0.00000000000E+00 -0.42175118036E+03  0.13664630392E+04  0.12997488908E+04 0.  0.
        2    1    3    3  502    0  0.55879876547E+03  0.14666840838E+03 -0.52375687050E+03  0.77980057817E+03  0.25500000920E-02 0.  1.
       -2    1    3    3    0  502 -0.55879876547E+03 -0.14666840838E+03  0.10200569014E+03  0.58666246099E+03  0.25500000920E-02 0. -1.
</event>
<event>
 5   0  0.6671239E-05  0.1299849E+04  0.7818609E-02  0.9029685E-01
        2   -1    0    0  501    0  0.00000000000E+00  0.00000000000E+00  0.51580487847E+03  0.51580487848E+03  0.25500000920E-02 0.  1.
       -2   -1    0    0    0  501  0.00000000000E+00  0.00000000000E+00 -0.81891821992E+03  0.81891821992E+03  0.25500000920E-02 0. -1.
    10030    2    1    2    0    0  0.00000000000E+00  0.00000000000E+00 -0.30311334145E+03  0.13347230984E+04  0.12998492419E+04 0.  0.
        1    1    3    3  502    0  0.63814835238E+03 -0.59456771020E+02 -0.40803801480E+02  0.64220976130E+03  0.50400001928E-02 0.  1.
       -1    1    3    3    0  502 -0.63814835238E+03  0.59456771020E+02 -0.26230953997E+03  0.69251333710E+03  0.50400001928E-02 0. -1.
</event>
<event>
 5   0  0.3552698E-05  0.1300792E+04  0.7818609E-02  0.9028937E-01
       -1   -1    0    0    0  501  0.00000000000E+00  0.00000000000E+00  0.22776869208E+03  0.22776869214E+03  0.50400001928E-02 0. -1.
        1   -1    0    0  501    0  0.00000000000E+00  0.00000000000E+00 -0.18572131928E+04  0.18572131928E+04  0.50400001928E-02 0.  1.
    10030    2    1    2    0    0  0.00000000000E+00  0.00000000000E+00 -0.16294445007E+04  0.20849818849E+04  0.13007920970E+04 0.  0.
        5    1    3    3  502    0 -0.57438823146E+03  0.20026316015E+03 -0.11836080903E+04  0.13307807390E+04  0.46999998093E+01 0.  1.
       -5    1    3    3    0  502  0.57438823146E+03 -0.20026316015E+03 -0.44583641040E+03  0.75420114598E+03  0.46999998093E+01 0. -1.
</event>
<event>
 5   0  0.6458698E-05  0.1299951E+04  0.7818609E-02  0.9029604E-01
        2   -1    0    0  501    0  0.00000000000E+00  0.00000000000E+00  0.83604742337E+03  0.83604742338E+03  0.25500000920E-02 0.  1.
       -2   -1    0    0    0  501  0.00000000000E+00  0.00000000000E+00 -0.50531603270E+03  0.50531603270E+03  0.25500000920E-02 0. -1.
    10030    2    1    2    0    0  0.00000000000E+00  0.00000000000E+00  0.33073139068E+03  0.13413634561E+04  0.12999510254E+04 0.  0.
        3    1    3    3  502    0  0.42671678633E+03  0.44694145052E+03  0.37334126529E+03  0.72196093142E+03  0.10100000352E+00 0.  1.
       -3    1    3    3    0  502 -0.42671678633E+03 -0.44694145052E+03 -0.42609874616E+02  0.61940252465E+03  0.10100000352E+00 0. -1.
</event>
<event>
 5   0  0.6618060E-05  0.1299671E+04  0.7818609E-02  0.9029826E-01
        2   -1    0    0  501    0  0.00000000000E+00  0.00000000000E+00  0.10791854786E+04  0.10791854786E+04  0.25500000920E-02 0. -1.
       -2   -1    0    0    0  501  0.00000000000E+00  0.00000000000E+00 -0.39130097257E+03  0.39130097257E+03  0.25500000920E-02 0.  1.
    10030    2    1    2    0    0  0.00000000000E+00  0.00000000000E+00  0.68788450607E+03  0.14704864512E+04  0.12996712313E+04 0.  0.
        2    1    3    3  502    0  0.18930840825E+03 -0.33418320579E+03 -0.24913650201E+03  0.45780463640E+03  0.25500000920E-02 0. -1.
       -2    1    3    3    0  502 -0.18930840825E+03  0.33418320579E+03  0.93702100808E+03  0.10126818148E+04  0.25500000920E-02 0.  1.
</event>
<event>
 5   0  0.6671239E-05  0.1299805E+04  0.7818609E-02  0.9029720E-01
        2   -1    0    0  501    0  0.00000000000E+00  0.00000000000E+00  0.13926210266E+04  0.13926210266E+04  0.25500000920E-02 0.  1.
       -2   -1    0    0    0  501  0.00000000000E+00  0.00000000000E+00 -0.30329372455E+03  0.30329372456E+03  0.25500000920E-02 0. -1.
    10030    2    1    2    0    0  0.00000000000E+00  0.00000000000E+00  0.10893273020E+04  0.16959147511E+04  0.12998049362E+04 0.  0.
        1    1    3    3  502    0 -0.79690468044E+01 -0.52430244671E+03  0.43708190899E+02  0.52618149654E+03  0.50400001928E-02 0. -1.
       -1    1    3    3    0  502  0.79690468044E+01  0.52430244671E+03  0.10456191111E+04  0.11697332546E+04  0.50400001928E-02 0.  1.
</event>
<event>
 5   0  0.6458698E-05  0.1292910E+04  0.7818609E-02  0.9035207E-01
       -2   -1    0    0    0  501  0.00000000000E+00  0.00000000000E+00  0.43106204048E+03  0.43106204049E+03  0.25500000920E-02 0.  1.
        2   -1    0    0  501    0  0.00000000000E+00  0.00000000000E+00 -0.96947537641E+03  0.96947537641E+03  0.25500000920E-02 0. -1.
    10030    2    1    2    0    0  0.00000000000E+00  0.00000000000E+00 -0.53841333593E+03  0.14005374169E+04  0.12929099489E+04 0.  0.
        3    1    3    3  502    0  0.61302103267E+03  0.17042072363E+03 -0.14538461455E+03  0.65266737768E+03  0.10100000352E+00 0. -1.
       -3    1    3    3    0  502 -0.61302103267E+03 -0.17042072363E+03 -0.39302872138E+03  0.74787003922E+03  0.10100000352E+00 0.  1.
</event>
<event>
 5   0  0.3689707E-05  0.1300189E+04  0.7818609E-02  0.9029416E-01
        1   -1    0    0  501    0  0.00000000000E+00  0.00000000000E+00  0.45416229732E+03  0.45416229735E+03  0.50400001928E-02 0. -1.
       -1   -1    0    0    0  501  0.00000000000E+00  0.00000000000E+00 -0.93055402846E+03  0.93055402847E+03  0.50400001928E-02 0.  1.
    10030    2    1    2    0    0  0.00000000000E+00  0.00000000000E+00 -0.47639173114E+03  0.13847163258E+04  0.13001885331E+04 0.  0.
        1    1    3    3  502    0 -0.44053197898E+03  0.14959421556E+03  0.24538958010E+03  0.52598754727E+03  0.50400001928E-02 0. -1.
       -1    1    3    3    0  502  0.44053197898E+03 -0.14959421556E+03 -0.72178131124E+03  0.85872877855E+03  0.50400001928E-02 0.  1.
</event>
<event>
 5   0  0.3552698E-05  0.1301389E+04  0.7818609E-02  0.9028464E-01
       -1   -1    0    0    0  501  0.00000000000E+00  0.00000000000E+00  0.67300095594E+03  0.67300095596E+03  0.50400001928E-02 0. -1.
        1   -1    0    0  501    0  0.00000000000E+00  0.00000000000E+00 -0.62912754837E+03  0.62912754839E+03  0.50400001928E-02 0.  1.
    10030    2    1    2    0    0  0.00000000000E+00  0.00000000000E+00  0.43873407572E+02  0.13021285044E+04  0.13013891678E+04 0.  0.
        5    1    3    3  502    0  0.14046737037E+03  0.57885244767E+03  0.28396353040E+03  0.65989288139E+03  0.46999998093E+01 0. -1.
       -5    1    3    3    0  502 -0.14046737037E+03 -0.57885244767E+03 -0.24009012283E+03  0.64223562296E+03  0.46999998093E+01 0.  1.
</event>
<event>
 5   0  0.2512000E-05  0.1299572E+04  0.7818609E-02  0.9029904E-01
       -3   -1    0    0    0  501  0.00000000000E+00  0.00000000000E+00  0.85579446935E+03  0.85579447531E+03  0.10100000352E+00 0. -1.
        3   -1    0    0  501    0  0.00000000000E+00  0.00000000000E+00 -0.49336840994E+03  0.49336842027E+03  0.10100000352E+00 0.  1.
    10030    2    1    2    0    0  0.00000000000E+00  0.00000000000E+00  0.36242605941E+03  0.13491628956E+04  0.12995721874E+04 0.  0.
        4    1    3    3  502    0 -0.22656013002E+03  0.11612299334E+03 -0.43943458398E+03  0.50785668116E+03  0.12699999809E+01 0.  1.
       -4    1    3    3    0  502  0.22656013002E+03 -0.11612299334E+03  0.80186064339E+03  0.84130621442E+03  0.12699999809E+01 0. -1.
</event>
<event>
 5   0  0.6742824E-05  0.1300262E+04  0.7818609E-02  0.9029358E-01
       -2   -1    0    0    0  501  0.00000000000E+00  0.00000000000E+00  0.51728466553E+03  0.51728466554E+03  0.25500000920E-02 0.  1.
        2   -1    0    0  501    0  0.00000000000E+00  0.00000000000E+00 -0.81709378732E+03  0.81709378732E+03  0.25500000920E-02 0. -1.
    10030    2    1    2    0    0  0.00000000000E+00  0.00000000000E+00 -0.29980912178E+03  0.13343784529E+04  0.13002616452E+04 0.  0.
        4    1    3    3  502    0 -0.48401196930E+03  0.34585551062E+03  0.11924561937E+03  0.60671636808E+03  0.12699999809E+01 0. -1.
       -4    1    3    3    0  502  0.48401196930E+03 -0.34585551062E+03 -0.41905474115E+03  0.72766208478E+03  0.12699999809E+01 0.  1.
</event>
<event>
 5   0  0.6618060E-05  0.1300453E+04  0.7818609E-02  0.9029206E-01
       -2   -1    0    0    0  501  0.00000000000E+00  0.00000000000E+00  0.25806549903E+03  0.25806549904E+03  0.25500000920E-02 0.  1.
        2   -1    0    0  501    0  0.00000000000E+00  0.00000000000E+00 -0.16383221610E+04  0.16383221610E+04  0.25500000920E-02 0. -1.
    10030    2    1    2    0    0  0.00000000000E+00  0.00000000000E+00 -0.13802566620E+04  0.18963876600E+04  0.13004528843E+04 0.  0.
        2    1    3    3  502    0  0.43154497257E+03 -0.38858140048E+02 -0.13971224061E+04  0.14627686202E+04  0.25500000920E-02 0.  1.
       -2    1    3    3    0  502 -0.43154497257E+03  0.38858140048E+02  0.16865744183E+02  0.43361903986E+03  0.25500000920E-02 0. -1.
</event>
<event>
 5   0  0.3718559E-05  0.1300371E+04  0.7818609E-02  0.9029271E-01
        1   -1    0    0  501    0  0.00000000000E+00  0.00000000000E+00  0.18041417330E+04  0.18041417330E+04  0.50400001928E-02 0. -1.
       -1   -1    0    0    0  501  0.00000000000E+00  0.00000000000E+00 -0.23431703317E+03  0.23431703322E+03  0.50400001928E-02 0.  1.
    10030    2    1    2    0    0  0.00000000000E+00  0.00000000000E+00  0.15698246999E+04  0.20384587663E+04  0.13003709292E+04 0.  0.
        2    1    3    3  502    0  0.39876011298E+03 -0.46415107448E+03  0.44041405924E+03  0.75392996440E+03  0.25500000920E-02 0.  1.
       -2    1    3    3    0  502 -0.39876011298E+03  0.46415107448E+03  0.11294106406E+04  0.12845288019E+04  0.25500000920E-02 0. -1.
</event>
<event>
 5   0  0.2512000E-05  0.1300014E+04  0.7818609E-02  0.9029554E-01
        4   -1    0    0  501    0  0.00000000000E+00  0.00000000000E+00  0.65387383650E+03  0.65387506984E+03  0.12699999809E+01 0. -1.
       -4   -1    0    0    0  501  0.00000000000E+00  0.00000000000E+00 -0.64616021608E+03  0.64616146414E+03  0.12699999809E+01 0.  1.
    10030    2    1    2    0    0  0.00000000000E+00  0.00000000000E+00  0.77136204217E+01  0.13000365340E+04  0.13000136498E+04 0.  0.
        3    1    3    3  502    0 -0.14030666912E+03  0.32276155857E+03  0.55035327996E+03  0.65326084227E+03  0.10100000352E+00 0. -1.
       -3    1    3    3    0  502  0.14030666912E+03 -0.32276155857E+03 -0.54263965954E+03  0.64677569171E+03  0.10100000352E+00 0.  1.
</event>
<event>
 5   0  0.6671239E-05  0.1299942E+04  0.7818609E-02  0.9029611E-01
       -2   -1    0    0    0  501  0.00000000000E+00  0.00000000000E+00  0.30630990382E+03  0.30630990383E+03  0.25500000920E-02 0.  1.
        2   -1    0    0  501    0  0.00000000000E+00  0.00000000000E+00 -0.13791992198E+04  0.13791992199E+04  0.25500000920E-02 0. -1.
    10030    2    1    2    0    0  0.00000000000E+00  0.00000000000E+00 -0.10728893160E+04  0.16855091237E+04  0.12999421224E+04 0.  0.
        1    1    3    3  502    0 -0.46300839465E+03 -0.45296588284E+03 -0.60635929951E+03  0.88725783438E+03  0.50400001928E-02 0. -1.
       -1    1    3    3    0  502  0.46300839465E+03  0.45296588284E+03 -0.46653001652E+03  0.79825128930E+03  0.50400001928E-02 0.  1.
</event>
<event>
 5   0  0.3551277E-05  0.1300054E+04  0.7818609E-02  0.9029523E-01
        1   -1    0    0  501    0  0.00000000000E+00  0.00000000000E+00  0.14772143252E+04  0.14772143252E+04  0.50400001928E-02 0.  1.
       -1   -1    0    0    0  501  0.00000000000E+00  0.00000000000E+00 -0.28603494706E+03  0.28603494711E+03  0.50400001928E-02 0. -1.
    10030    2    1    2    0    0  0.00000000000E+00  0.00000000000E+00  0.11911793782E+04  0.17632492724E+04  0.13000537241E+04 0.  0.
        4    1    3    3  502    0 -0.62627733159E+03 -0.64595554784E+02  0.81486201714E+03  0.10297560884E+04  0.12699999809E+01 0. -1.
       -4    1    3    3    0  502  0.62627733159E+03  0.64595554784E+02  0.37631736103E+03  0.73349318393E+03  0.12699999809E+01 0.  1.
</event>
<event>
 5   0  0.3552698E-05  0.1300621E+04  0.7818609E-02  0.9029073E-01
        1   -1    0    0  501    0  0.00000000000E+00  0.00000000000E+00  0.13154754451E+04  0.13154754451E+04  0.50400001928E-02 0. -1.
       -1   -1    0    0    0  501  0.00000000000E+00  0.00000000000E+00 -0.32148345506E+03  0.32148345510E+03  0.50400001928E-02 0.  1.
    10030    2    1    2    0    0  0.00000000000E+00  0.00000000000E+00  0.99399199003E+03  0.16369589002E+04  0.13006207613E+04 0.  0.
        5    1    3    3  502    0 -0.32150311136E+03  0.31628739868E+03 -0.92640160764E+02  0.46044137364E+03  0.46999998093E+01 0.  1.
       -5    1    3    3    0  502  0.32150311136E+03 -0.31628739868E+03  0.10866321508E+04  0.11765175266E+04  0.46999998093E+01 0. -1.
</event>
<event>
 5   0  0.3689707E-05  0.1300802E+04  0.7818609E-02  0.9028929E-01
        1   -1    0    0  501    0  0.00000000000E+00  0.00000000000E+00  0.10652195475E+04  0.10652195475E+04  0.50400001928E-02 0.  1.
       -1   -1    0    0    0  501  0.00000000000E+00  0.00000000000E+00 -0.39712149868E+03  0.39712149871E+03  0.50400001928E-02 0. -1.
    10030    2    1    2    0    0  0.00000000000E+00  0.00000000000E+00  0.66809804879E+03  0.14623410462E+04  0.13008021881E+04 0.  0.
        1    1    3    3  502    0  0.11398717964E+03 -0.52037000803E+03 -0.85444220518E+02  0.53951713339E+03  0.50400001928E-02 0. -1.
       -1    1    3    3    0  502 -0.11398717964E+03  0.52037000803E+03  0.75354226931E+03  0.92282391280E+03  0.50400001928E-02 0.  1.
</event>
<event>
 5   0  0.3631841E-05  0.1300143E+04  0.7818609E-02  0.9029452E-01
       -1   -1    0    0    0  501  0.00000000000E+00  0.00000000000E+00  0.35360521450E+03  0.35360521454E+03  0.50400001928E-02 0.  1.
        1   -1    0    0  501    0  0.00000000000E+00  0.00000000000E+00 -0.11950987230E+04  0.11950987231E+04  0.50400001928E-02 0. -1.
    10030    2    1    2    0    0  0.00000000000E+00  0.00000000000E+00 -0.84149350854E+03  0.15487039376E+04  0.13001432849E+04 0.  0.
        3    1    3    3  502    0  0.16183396309E+03  0.31238302410E+02  0.32830251043E+03  0.36735352415E+03  0.10100000352E+00 0.  1.
       -3    1    3    3    0  502 -0.16183396309E+03 -0.31238302410E+02 -0.11697960190E+04  0.11813504134E+04  0.10100000352E+00 0. -1.
</event>
<event>
 5   0  0.6458698E-05  0.1300459E+04  0.7818609E-02  0.9029201E-01
       -2   -1    0    0    0  501  0.00000000000E+00  0.00000000000E+00  0.18581718890E+03  0.18581718892E+03  0.25500000920E-02 0. -1.
        2   -1    0    0  501    0  0.00000000000E+00  0.00000000000E+00 -0.22753476516E+04  0.22753476516E+04  0.25500000920E-02 0.  1.
    10030    2    1    2    0    0  0.00000000000E+00  0.00000000000E+00 -0.20895304627E+04  0.24611648405E+04  0.13004594641E+04 0.  0.
        3    1    3    3  502    0 -0.30305525148E+03  0.28216114657E+03 -0.95962758649E+02  0.42504853762E+03  0.10100000352E+00 0. -1.
       -3    1    3    3    0  502  0.30305525148E+03 -0.28216114657E+03 -0.19935677040E+04  0.20361163029E+04  0.10100000352E+00 0.  1.
</event>
<event>
 5   0  0.6671239E-05  0.1298962E+04  0.7818609E-02  0.9030389E-01
       -2   -1    0    0    0  501  0.00000000000E+00  0.00000000000E+00  0.52226652648E+03  0.52226652649E+03  0.25500000920E-02 0.  1.
        2   -1    0    0  501    0  0.00000000000E+00  0.00000000000E+00 -0.80768231212E+03  0.80768231212E+03  0.25500000920E-02 0. -1.
    10030    2    1    2    0    0  0.00000000000E+00  0.00000000000E+00 -0.28541578564E+03  0.13299488386E+04  0.12989617941E+04 0.  0.
        1    1    3    3  502    0 -0.81363387464E+02  0.45724209408E+03  0.32214392488E+03  0.56521415568E+03  0.50400001928E-02 0.  1.
       -1    1    3    3    0  502  0.81363387464E+02 -0.45724209408E+03 -0.60755971052E+03  0.76473468293E+03  0.50400001928E-02 0. -1.
</event>
<event>
 5   0  0.3552698E-05  0.1301855E+04  0.7818609E-02  0.9028096E-01
       -1   -1    0    0    0  501  0.00000000000E+00  0.00000000000E+00  0.73199553762E+03  0.73199553763E+03  0.50400001928E-02 0. -1.
        1   -1    0    0  501    0  0.00000000000E+00  0.00000000000E+00 -0.57883738495E+03  0.57883738497E+03  0.50400001928E-02 0.  1.
    10030    2    1    2    0    0  0.00000000000E+00  0.00000000000E+00  0.15315815267E+03  0.13108329226E+04  0.13018546506E+04 0.  0.
        5    1    3    3  502    0  0.38248770366E+03  0.23769253535E+01  0.60688175688E+03  0.71737720207E+03  0.46999998093E+01 0. -1.
       -5    1    3    3    0  502 -0.38248770366E+03 -0.23769253535E+01 -0.45372360421E+03  0.59345572053E+03  0.46999998093E+01 0.  1.
</event>
<event>
 5   0  0.6742824E-05  0.1301061E+04  0.7818609E-02  0.9028725E-01
        2   -1    0    0  501    0  0.00000000000E+00  0.00000000000E+00  0.22045591255E+04  0.22045591255E+04  0.25500000920E-02 0. -1.
       -2   -1    0    0    0  501  0.00000000000E+00  0.00000000000E+00 -0.19196111080E+03  0.19196111082E+03  0.25500000920E-02 0.  1.
    10030    2    1    2    0    0  0.00000000000E+00  0.00000000000E+00  0.20125980147E+04  0.23965202364E+04  0.13010605191E+04 0.  0.
        4    1    3    3  502    0 -0.29952994856E+03  0.37382660666E+03  0.19557181944E+03  0.51741131742E+03  0.12699999809E+01 0.  1.
       -4    1    3    3    0  502  0.29952994856E+03 -0.37382660666E+03  0.18170261953E+04  0.18791089189E+04  0.12699999809E+01 0. -1.
</event>
<event>
 5   0  0.3718559E-05  0.1306994E+04  0.7818609E-02  0.9024037E-01
       -1   -1    0    0    0  501  0.00000000000E+00  0.00000000000E+00  0.81735586462E+03  0.81735586464E+03  0.50400001928E-02 0. -1.
        1   -1    0    0  501    0  0.00000000000E+00  0.00000000000E+00 -0.52248783985E+03  0.52248783988E+03  0.50400001928E-02 0.  1.
    10030    2    1    2    0    0  0.00000000000E+00  0.00000000000E+00  0.29486802477E+03  0.13398437045E+04  0.13069942618E+04 0.  0.
        2    1    3    3  502    0 -0.57016527858E+03  0.29689359980E+03  0.26796568403E+03  0.69644803275E+03  0.25500000920E-02 0.  1.
       -2    1    3    3    0  502  0.57016527858E+03 -0.29689359980E+03  0.26902340738E+02  0.64339567176E+03  0.25500000920E-02 0. -1.
</event>
<event>
 5   0  0.6688086E-05  0.1300055E+04  0.7818609E-02  0.9029521E-01
       -2   -1    0    0    0  501  0.00000000000E+00  0.00000000000E+00  0.56042915605E+03  0.56042915606E+03  0.25500000920E-02 0.  1.
        2   -1    0    0  501    0  0.00000000000E+00  0.00000000000E+00 -0.75395046398E+03  0.75395046398E+03  0.25500000920E-02 0. -1.
    10030    2    1    2    0    0  0.00000000000E+00  0.00000000000E+00 -0.19352130793E+03  0.13143796200E+04  0.13000551100E+04 0.  0.
        5    1    3    3  502    0 -0.17202583209E+03  0.14170344207E+03  0.52057430925E+03  0.56629714272E+03  0.46999998093E+01 0.  1.
       -5    1    3    3    0  502  0.17202583209E+03 -0.14170344207E+03 -0.71409561718E+03  0.74808247732E+03  0.46999998093E+01 0. -1.
</event>
<event>
 5   0  0.6688086E-05  0.1299898E+04  0.7818609E-02  0.9029646E-01
        2   -1    0    0  501    0  0.00000000000E+00  0.00000000000E+00  0.57596928620E+03  0.57596928621E+03  0.25500000920E-02 0.  1.
       -2   -1    0    0    0  501  0.00000000000E+00  0.00000000000E+00 -0.73343113059E+03  0.73343113059E+03  0.25500000920E-02 0. -1.
    10030    2    1    2    0    0  0.00000000000E+00  0.00000000000E+00 -0.15746184439E+03  0.13094004168E+04  0.12998981572E+04 0.  0.
        5    1    3    3  502    0  0.16481046851E+03  0.33809361614E+03 -0.61264506905E+03  0.71890601224E+03  0.46999998093E+01 0. -1.
       -5    1    3    3    0  502 -0.16481046851E+03 -0.33809361614E+03  0.45518322467E+03  0.59049440456E+03  0.46999998093E+01 0.  1.
</event>
<event>
 5   0  0.6458698E-05  0.1299901E+04  0.7818609E-02  0.9029643E-01
       -2   -1    0    0    0  501  0.00000000000E+00  0.00000000000E+00  0.48494422246E+03  0.48494422247E+03  0.25500000920E-02 0.  1.
        2   -1    0    0  501    0  0.00000000000E+00  0.00000000000E+00 -0.87110218551E+03  0.87110218551E+03  0.25500000920E-02 0. -1.
    10030    2    1    2    0    0  0.00000000000E+00  0.00000000000E+00 -0.38615796305E+03  0.13560464080E+04  0.12999014917E+04 0.  0.
        3    1    3    3  502    0  0.40305230442E+03  0.17706854260E+03 -0.69188556247E+03  0.82006711349E+03  0.10100000352E+00 0. -1.
       -3    1    3    3    0  502 -0.40305230442E+03 -0.17706854260E+03  0.30572759942E+03  0.53597929449E+03  0.10100000352E+00 0.  1.
</event>
<event>
 5   0  0.6688086E-05  0.1299711E+04  0.7818609E-02  0.9029794E-01
       -2   -1    0    0    0  501  0.00000000000E+00  0.00000000000E+00  0.32440437013E+03  0.32440437014E+03  0.25500000920E-02 0. -1.
        2   -1    0    0  501    0  0.00000000000E+00  0.00000000000E+00 -0.13018085966E+04  0.13018085966E+04  0.25500000920E-02 0.  1.
    10030    2    1    2    0    0  0.00000000000E+00  0.00000000000E+00 -0.97740422647E+03  0.16262129667E+04  0.12997113492E+04 0.  0.
        5    1    3    3  502    0  0.20315311354E+03  0.52810341270E+03 -0.88850853070E+02  0.57278352468E+03  0.46999998093E+01 0. -1.
       -5    1    3    3    0  502 -0.20315311354E+03 -0.52810341270E+03 -0.88855337340E+03  0.10534294421E+04  0.46999998093E+01 0.  1.
</event>
<event>
 5   0  0.6618060E-05  0.1299448E+04  0.7818609E-02  0.9030003E-01
        2   -1    0    0  501    0  0.00000000000E+00  0.00000000000E+00  0.96681132183E+03  0.96681132184E+03  0.25500000920E-02 0. -1.
       -2   -1    0    0    0  501  0.00000000000E+00  0.00000000000E+00 -0.43663220037E+03  0.43663220038E+03  0.25500000920E-02 0.  1.
    10030    2    1    2    0    0  0.00000000000E+00  0.00000000000E+00  0.53017912146E+03  0.14034435222E+04  0.12994475054E+04 0.  0.
        2    1    3    3  502    0 -0.28958375272E+03 -0.56463719813E+03  0.41578015832E+03  0.75864817630E+03  0.25500000920E-02 0. -1.
       -2    1    3    3    0  502  0.28958375272E+03  0.56463719813E+03  0.11439896314E+03  0.64479534592E+03  0.25500000920E-02 0.  1.
</event>
<event>
 5   0  0.6688086E-05  0.1301338E+04  0.7818609E-02  0.9028505E-01
       -2   -1    0    0    0  501  0.00000000000E+00  0.00000000000E+00  0.48980264896E+03  0.48980264896E+03  0.25500000920E-02 0.  1.
        2   -1    0    0  501    0  0.00000000000E+00  0.00000000000E+00 -0.86436924444E+03  0.86436924444E+03  0.25500000920E-02 0. -1.
    10030    2    1    2    0    0  0.00000000000E+00  0.00000000000E+00 -0.37456659548E+03  0.13541718934E+04  0.13013383044E+04 0.  0.
        5    1    3    3  502    0 -0.34629804388E+03 -0.19975942914E+03  0.34690220327E+03  0.52932919186E+03  0.46999998093E+01 0.  1.
       -5    1    3    3    0  502  0.34629804388E+03  0.19975942914E+03 -0.72146879875E+03  0.82484270155E+03  0.46999998093E+01 0. -1.
</event>
<event>
 5   0  0.6618060E-05  0.1299317E+04  0.7818609E-02  0.9030107E-01
        2   -1    0    0  501    0  0.00000000000E+00  0.00000000000E+00  0.66961739417E+03  0.66961739418E+03  0.25500000920E-02 0. -1.
       -2   -1    0    0    0  501  0.00000000000E+00  0.00000000000E+00 -0.63029406467E+03  0.63029406467E+03  0.25500000920E-02 0.  1.
    10030    2    1    2    0    0  0.00000000000E+00  0.00000000000E+00  0.39323329504E+02  0.12999114589E+04  0.12993165421E+04 0.  0.
        2    1    3    3  502    0  0.62913575835E+03 -0.90845674776E+02 -0.11453076802E+03  0.64589630429E+03  0.25500000920E-02 0.  1.
       -2    1    3    3    0  502 -0.62913575835E+03  0.90845674776E+02  0.15385409753E+03  0.65401515456E+03  0.25500000920E-02 0. -1.
</event>
<event>
 5   0  0.6742824E-05  0.1299546E+04  0.7818609E-02  0.9029926E-01
       -2   -1    0    0    0  501  0.00000000000E+00  0.00000000000E+00  0.29543329915E+03  0.29543329916E+03  0.25500000920E-02 0. -1.
        2   -1    0    0  501    0  0.00000000000E+00  0.00000000000E+00 -0.14291032568E+04  0.14291032568E+04  0.25500000920E-02 0.  1.
    10030    2    1    2    0    0  0.00000000000E+00  0.00000000000E+00 -0.11336699577E+04  0.17245365560E+04  0.12995455975E+04 0.  0.
        4    1    3    3  502    0  0.50363193083E+02  0.64654487549E+03 -0.51299040451E+03  0.82687211542E+03  0.12699999809E+01 0. -1.
       -4    1    3    3    0  502 -0.50363193083E+02 -0.64654487549E+03 -0.62067955315E+03  0.89766444056E+03  0.12699999809E+01 0.  1.
</event>
<event>
 5   0  0.6671239E-05  0.1300180E+04  0.7818609E-02  0.9029422E-01
       -2   -1    0    0    0  501  0.00000000000E+00  0.00000000000E+00  0.49987114678E+03  0.49987114679E+03  0.25500000920E-02 0. -1.
        2   -1    0    0  501    0  0.00000000000E+00  0.00000000000E+00 -0.84545234300E+03  0.84545234300E+03  0.25500000920E-02 0.  1.
    10030    2    1    2    0    0  0.00000000000E+00  0.00000000000E+00 -0.34558119622E+03  0.13453234898E+04  0.13001803448E+04 0.  0.
        1    1    3    3  502    0 -0.51860940193E+03 -0.31404832923E+03  0.69950478919E+02  0.61030740975E+03  0.50400001928E-02 0. -1.
       -1    1    3    3    0  502  0.51860940193E+03  0.31404832923E+03 -0.41553167514E+03  0.73501608005E+03  0.50400001928E-02 0.  1.
</event>
<event>
 5   0  0.3689707E-05  0.1300242E+04  0.7818609E-02  0.9029373E-01
       -1   -1    0    0    0  501  0.00000000000E+00  0.00000000000E+00  0.54457341924E+03  0.54457341926E+03  0.50400001928E-02 0.  1.
        1   -1    0    0  501    0  0.00000000000E+00  0.00000000000E+00 -0.77612542001E+03  0.77612542003E+03  0.50400001928E-02 0. -1.
    10030    2    1    2    0    0  0.00000000000E+00  0.00000000000E+00 -0.23155200078E+03  0.13206988393E+04  0.13002419371E+04 0.  0.
        1    1    3    3  502    0 -0.17963383866E+03  0.32664757923E+03 -0.65678175276E+03  0.75520144848E+03  0.50400001928E-02 0. -1.
       -1    1    3    3    0  502  0.17963383866E+03 -0.32664757923E+03  0.42522975198E+03  0.56549739080E+03  0.50400001928E-02 0.  1.
</event>
<event>
 5   0  0.3552698E-05  0.1299840E+04  0.7818609E-02  0.9029692E-01
       -1   -1    0    0    0  501  0.00000000000E+00  0.00000000000E+00  0.49395287833E+03  0.49395287835E+03  0.50400001928E-02 0.  1.
        1   -1    0    0  501    0  0.00000000000E+00  0.00000000000E+00 -0.85513368174E+03  0.85513368176E+03  0.50400001928E-02 0. -1.
    10030    2    1    2    0    0  0.00000000000E+00  0.00000000000E+00 -0.36118080342E+03  0.13490865601E+04  0.12998395955E+04 0.  0.
        5    1    3    3  502    0 -0.48530675932E+03 -0.17127372462E+03 -0.59251034962E+03  0.78482351123E+03  0.46999998093E+01 0. -1.
       -5    1    3    3    0  502  0.48530675932E+03  0.17127372462E+03  0.23132954620E+03  0.56426304888E+03  0.46999998093E+01 0.  1.
</event>
<event>
 5   0  0.3718559E-05  0.1301044E+04  0.7818609E-02  0.9028738E-01
       -1   -1    0    0    0  501  0.00000000000E+00  0.00000000000E+00  0.53558330302E+03  0.53558330304E+03  0.50400001928E-02 0.  1.
        1   -1    0    0  501    0  0.00000000000E+00  0.00000000000E+00 -0.79012659581E+03  0.79012659582E+03  0.50400001928E-02 0. -1.
    10030    2    1    2    0    0  0.00000000000E+00  0.00000000000E+00 -0.25454329279E+03  0.13257098989E+04  0.13010435996E+04 0.  0.
        2    1    3    3  502    0  0.26055879665E+03  0.58213596315E+03 -0.25778371343E+03  0.68791395467E+03  0.25500000920E-02 0. -1.
       -2    1    3    3    0  502 -0.26055879665E+03 -0.58213596315E+03  0.32404206440E+01  0.63779594420E+03  0.25500000920E-02 0.  1.
</event>
<event>
 5   0  0.3552698E-05  0.1300450E+04  0.7818609E-02  0.9029208E-01
        1   -1    0    0  501    0  0.00000000000E+00  0.00000000000E+00  0.88176396575E+03  0.88176396576E+03  0.50400001928E-02 0. -1.
       -1   -1    0    0    0  501  0.00000000000E+00  0.00000000000E+00 -0.47948524455E+03  0.47948524458E+03  0.50400001928E-02 0.  1.
    10030    2    1    2    0    0  0.00000000000E+00  0.00000000000E+00  0.40227872119E+03  0.13612492103E+04  0.13004504001E+04 0.  0.
        5    1    3    3  502    0  0.84725705813E+02 -0.75754912754E+02 -0.46898924314E+03  0.48258704107E+03  0.46999998093E+01 0.  1.
       -5    1    3    3    0  502 -0.84725705813E+02  0.75754912754E+02  0.87126796433E+03  0.87866216927E+03  0.46999998093E+01 0. -1.
</event>
<event>
 5   0  0.6671239E-05  0.1302605E+04  0.7818609E-02  0.9027502E-01
       -2   -1    0    0    0  501  0.00000000000E+00  0.00000000000E+00  0.49588446188E+03  0.49588446188E+03  0.25500000920E-02 0.  1.
        2   -1    0    0  501    0  0.00000000000E+00  0.00000000000E+00 -0.85543154152E+03  0.85543154152E+03  0.25500000920E-02 0. -1.
    10030    2    1    2    0    0  0.00000000000E+00  0.00000000000E+00 -0.35954707964E+03  0.13513160034E+04  0.13026054040E+04 0.  0.
        1    1    3    3  502    0 -0.57079431463E+02 -0.80486348222E+02 -0.84763269250E+03  0.85335648774E+03  0.50400001928E-02 0. -1.
       -1    1    3    3    0  502  0.57079431463E+02  0.80486348222E+02  0.48808561285E+03  0.49795951567E+03  0.50400001928E-02 0.  1.
</event>
<event>
 5   0  0.6742824E-05  0.1309269E+04  0.7818609E-02  0.9022247E-01
       -2   -1    0    0    0  501  0.00000000000E+00  0.00000000000E+00  0.68997965684E+03  0.68997965684E+03  0.25500000920E-02 0. -1.
        2   -1    0    0  501    0  0.00000000000E+00  0.00000000000E+00 -0.62110039475E+03  0.62110039476E+03  0.25500000920E-02 0.  1.
    10030    2    1    2    0    0  0.00000000000E+00  0.00000000000E+00  0.68879262085E+02  0.13110800516E+04  0.13092694715E+04 0.  0.
        4    1    3    3  502    0  0.61525322072E+02 -0.33876880568E+03 -0.52310259093E+03  0.62624883433E+03  0.12699999809E+01 0.  1.
       -4    1    3    3    0  502 -0.61525322072E+02  0.33876880568E+03  0.59198185301E+03  0.68483121728E+03  0.12699999809E+01 0. -1.
</event>
<event>
 5   0  0.3551277E-05  0.1300115E+04  0.7818609E-02  0.9029474E-01
       -1   -1    0    0    0  501  0.00000000000E+00  0.00000000000E+00  0.96538078634E+03  0.96538078635E+03  0.50400001928E-02 0.  1.
        1   -1    0    0  501    0  0.00000000000E+00  0.00000000000E+00 -0.43772852598E+03  0.43772852601E+03  0.50400001928E-02 0. -1.
    10030    2    1    2    0    0  0.00000000000E+00  0.00000000000E+00  0.52765226035E+03  0.14031093124E+04  0.13001149313E+04 0.  0.
        4    1    3    3  502    0  0.16351007615E+03 -0.60350072420E+03  0.71905751801E+02  0.62938121925E+03  0.12699999809E+01 0. -1.
       -4    1    3    3    0  502 -0.16351007615E+03  0.60350072420E+03  0.45574650855E+03  0.77372809311E+03  0.12699999809E+01 0.  1.
</event>
<event>
 5   0  0.3718559E-05  0.1297149E+04  0.7818609E-02  0.9031829E-01
        1   -1    0    0  501    0  0.00000000000E+00  0.00000000000E+00  0.10153862409E+04  0.10153862410E+04  0.50400001928E-02 0.  1.
       -1   -1    0    0    0  501  0.00000000000E+00  0.00000000000E+00 -0.41427488344E+03  0.41427488347E+03  0.50400001928E-02 0. -1.
    10030    2    1    2    0    0  0.00000000000E+00  0.00000000000E+00  0.60111135751E+03  0.14296611244E+04  0.12971492075E+04 0.  0.
        2    1    3    3  502    0  0.53291394806E+03 -0.33411315779E+03  0.47489206002E+03  0.78813155433E+03  0.25500000920E-02 0.  1.
       -2    1    3    3    0  502 -0.53291394806E+03  0.33411315779E+03  0.12621929749E+03  0.64152957010E+03  0.25500000920E-02 0. -1.
</event>
<event>
 5   0  0.3718559E-05  0.1300413E+04  0.7818609E-02  0.9029238E-01
       -1   -1    0    0    0  501  0.00000000000E+00  0.00000000000E+00  0.60935696648E+03  0.60935696650E+03  0.50400001928E-02 0. -1.
        1   -1    0    0  501    0  0.00000000000E+00  0.00000000000E+00 -0.69379420721E+03  0.69379420723E+03  0.50400001928E-02 0.  1.
    10030    2    1    2    0    0  0.00000000000E+00  0.00000000000E+00 -0.84437240733E+02  0.13031511737E+04  0.13004127552E+04 0.  0.
        2    1    3    3  502    0  0.52228270041E+02 -0.14701541738E+03 -0.67475857644E+03  0.69256079995E+03  0.25500000920E-02 0.  1.
       -2    1    3    3    0  502 -0.52228270041E+02  0.14701541738E+03  0.59032133571E+03  0.61059037377E+03  0.25500000920E-02 0. -1.
</event>
<event>
 5   0  0.6618060E-05  0.1301506E+04  0.7818609E-02  0.9028371E-01
       -2   -1    0    0    0  501  0.00000000000E+00  0.00000000000E+00  0.50821566789E+03  0.50821566790E+03  0.25500000920E-02 0. -1.
        2   -1    0    0  501    0  0.00000000000E+00  0.00000000000E+00 -0.83326780068E+03  0.83326780069E+03  0.25500000920E-02 0.  1.
    10030    2    1    2    0    0  0.00000000000E+00  0.00000000000E+00 -0.32505213279E+03  0.13414834686E+04  0.13015064377E+04 0.  0.
        2    1    3    3  502    0  0.53885933726E+03 -0.28903334255E+03 -0.39200819684E+03  0.72634708291E+03  0.25500000920E-02 0.  1.
       -2    1    3    3    0  502 -0.53885933726E+03  0.28903334255E+03  0.66956064046E+02  0.61513638567E+03  0.25500000920E-02 0. -1.
</event>
<event>
 5   0  0.3689707E-05  0.1294929E+04  0.7818609E-02  0.9033596E-01
        1   -1    0    0  501    0  0.00000000000E+00  0.00000000000E+00  0.37256046627E+03  0.37256046630E+03  0.50400001928E-02 0.  1.
       -1   -1    0    0    0  501  0.00000000000E+00  0.00000000000E+00 -0.11252147443E+04  0.11252147443E+04  0.50400001928E-02 0. -1.
    10030    2    1    2    0    0  0.00000000000E+00  0.00000000000E+00 -0.75265427805E+03  0.14977752106E+04  0.12949293878E+04 0.  0.
        1    1    3    3  502    0  0.14275485625E+03 -0.17210797716E+03 -0.10791364863E+04  0.11020597357E+04  0.50400001928E-02 0. -1.
       -1    1    3    3    0  502 -0.14275485625E+03  0.17210797716E+03  0.32648220828E+03  0.39571547497E+03  0.50400001928E-02 0.  1.
</event>
<event>
 5   0  0.3718559E-05  0.1300041E+04  0.7818609E-02  0.9029532E-01
        1   -1    0    0  501    0  0.00000000000E+00  0.00000000000E+00  0.11560723350E+04  0.11560723350E+04  0.50400001928E-02 0.  1.
       -1   -1    0    0    0  501  0.00000000000E+00  0.00000000000E+00 -0.36548484505E+03  0.36548484508E+03  0.50400001928E-02 0. -1.
    10030    2    1    2    0    0  0.00000000000E+00  0.00000000000E+00  0.79058748993E+03  0.15215571801E+04  0.13000414120E+04 0.  0.
        2    1    3    3  502    0 -0.36274918045E+03 -0.33615746209E+03  0.88899653205E+03  0.10173021386E+04  0.25500000920E-02 0.  1.
       -2    1    3    3    0  502  0.36274918045E+03  0.33615746209E+03 -0.98409042125E+02  0.50425504144E+03  0.25500000920E-02 0. -1.
</event>
<event>
 5   0  0.3631841E-05  0.1299632E+04  0.7818609E-02  0.9029857E-01
        1   -1    0    0  501    0  0.00000000000E+00  0.00000000000E+00  0.13153643984E+04  0.13153643984E+04  0.50400001928E-02 0. -1.
       -1   -1    0    0    0  501  0.00000000000E+00  0.00000000000E+00 -0.32102174544E+03  0.32102174548E+03  0.50400001928E-02 0.  1.
    10030    2    1    2    0    0  0.00000000000E+00  0.00000000000E+00  0.99434265298E+03  0.16363861439E+04  0.12996316018E+04 0.  0.
        3    1    3    3  502    0  0.13151339300E+03 -0.18401386673E+03  0.12642027675E+04  0.12842762644E+04  0.10100000352E+00 0. -1.
       -3    1    3    3    0  502 -0.13151339300E+03  0.18401386673E+03 -0.26986011450E+03  0.35210987956E+03  0.10100000352E+00 0.  1.
</event>
<event>
 5   0  0.3551277E-05  0.1300630E+04  0.7818609E-02  0.9029066E-01
       -1   -1    0    0    0  501  0.00000000000E+00  0.00000000000E+00  0.30438544093E+03  0.30438544097E+03  0.50400001928E-02 0. -1.
        1   -1    0    0  501    0  0.00000000000E+00  0.00000000000E+00 -0.13893875606E+04  0.13893875606E+04  0.50400001928E-02 0.  1.
    10030    2    1    2    0    0  0.00000000000E+00  0.00000000000E+00 -0.10850021197E+04  0.16937730016E+04  0.13006296095E+04 0.  0.
        4    1    3    3  502    0  0.28312451602E+03 -0.33479679583E+03 -0.11679431404E+04  0.12475340388E+04  0.12699999809E+01 0.  1.
       -4    1    3    3    0  502 -0.28312451602E+03  0.33479679583E+03  0.82941020669E+02  0.44623896275E+03  0.12699999809E+01 0. -1.
</event>
<event>
 5   0  0.6742824E-05  0.1300077E+04  0.7818609E-02  0.9029504E-01
       -2   -1    0    0    0  501  0.00000000000E+00  0.00000000000E+00  0.49984837550E+03  0.49984837550E+03  0.25500000920E-02 0.  1.
        2   -1    0    0  501    0  0.00000000000E+00  0.00000000000E+00 -0.84535619530E+03  0.84535619530E+03  0.25500000920E-02 0. -1.
    10030    2    1    2    0    0  0.00000000000E+00  0.00000000000E+00 -0.34550781980E+03  0.13452045708E+04  0.13000767992E+04 0.  0.
        4    1    3    3  502    0 -0.54634809064E+03 -0.29159852044E+03  0.31643869871E+02  0.62010392731E+03  0.12699999809E+01 0.  1.
       -4    1    3    3    0  502  0.54634809064E+03  0.29159852044E+03 -0.37715168967E+03  0.72510064349E+03  0.12699999809E+01 0. -1.
</event>
<event>
 5   0  0.6618060E-05  0.1299642E+04  0.7818609E-02  0.9029849E-01
       -2   -1    0    0    0  501  0.00000000000E+00  0.00000000000E+00  0.71591381618E+03  0.71591381619E+03  0.25500000920E-02 0.  1.
        2   -1    0    0  501    0  0.00000000000E+00  0.00000000000E+00 -0.58982956893E+03  0.58982956893E+03  0.25500000920E-02 0. -1.
    10030    2    1    2    0    0  0.00000000000E+00  0.00000000000E+00  0.12608424726E+03  0.13057433851E+04  0.12996417008E+04 0.  0.
        2    1    3    3  502    0  0.35323322171E+03  0.32499381722E+03  0.50313111416E+03  0.69536724699E+03  0.25500000920E-02 0.  1.
       -2    1    3    3    0  502 -0.35323322171E+03 -0.32499381722E+03 -0.37704686690E+03  0.61037613813E+03  0.25500000920E-02 0. -1.
</event>
<event>
 5   0  0.6688086E-05  0.1294522E+04  0.7818609E-02  0.9033920E-01
        2   -1    0    0  501    0  0.00000000000E+00  0.00000000000E+00  0.12873681054E+04  0.12873681054E+04  0.25500000920E-02 0.  1.
       -2   -1    0    0    0  501  0.00000000000E+00  0.00000000000E+00 -0.32542902795E+03  0.32542902796E+03  0.25500000920E-02 0. -1.
    10030    2    1    2    0    0  0.00000000000E+00  0.00000000000E+00  0.96193907748E+03  0.16127971334E+04  0.12945222303E+04 0.  0.
        5    1    3    3  502    0  0.38109562047E+03  0.37845371710E+03  0.30966757944E+02  0.53799825095E+03  0.46999998093E+01 0. -1.
       -5    1    3    3    0  502 -0.38109562047E+03 -0.37845371710E+03  0.93097231954E+03  0.10747988824E+04  0.46999998093E+01 0.  1.
</event>
<event>
 5   0  0.6458698E-05  0.1300143E+04  0.7818609E-02  0.9029452E-01
       -2   -1    0    0    0  501  0.00000000000E+00  0.00000000000E+00  0.25576343790E+03  0.25576343791E+03  0.25500000920E-02 0.  1.
        2   -1    0    0  501    0  0.00000000000E+00  0.00000000000E+00 -0.16522801379E+04  0.16522801379E+04  0.25500000920E-02 0. -1.
    10030    2    1    2    0    0  0.00000000000E+00  0.00000000000E+00 -0.13965167000E+04  0.19080435758E+04  0.13001428359E+04 0.  0.
        3    1    3    3  502    0  0.44558772778E+03  0.12608711938E+03 -0.13678063688E+04  0.14440708631E+04  0.10100000352E+00 0. -1.
       -3    1    3    3    0  502 -0.44558772778E+03 -0.12608711938E+03 -0.28710331156E+02  0.46397271271E+03  0.10100000352E+00 0.  1.
</event>
<event>
 5   0  0.6671239E-05  0.1300628E+04  0.7818609E-02  0.9029067E-01
        2   -1    0    0  501    0  0.00000000000E+00  0.00000000000E+00  0.69828169549E+03  0.69828169550E+03  0.25500000920E-02 0. -1.
       -2   -1    0    0    0  501  0.00000000000E+00  0.00000000000E+00 -0.60564147517E+03  0.60564147518E+03  0.25500000920E-02 0.  1.
    10030    2    1    2    0    0  0.00000000000E+00  0.00000000000E+00  0.92640220320E+02  0.13039231707E+04  0.13006280885E+04 0.  0.
        1    1    3    3  502    0  0.14967244232E+03 -0.13918381918E+03  0.66524498457E+03  0.69593452639E+03  0.50400001928E-02 0. -1.
       -1    1    3    3    0  502 -0.14967244232E+03  0.13918381918E+03 -0.57260476425E+03  0.60798864428E+03  0.50400001928E-02 0.  1.
</event>
<event>
 5   0  0.3631841E-05  0.1299846E+04  0.7818609E-02  0.9029688E-01
       -1   -1    0    0    0  501  0.00000000000E+00  0.00000000000E+00  0.35180311621E+03  0.35180311625E+03  0.50400001928E-02 0.  1.
        1   -1    0    0  501    0  0.00000000000E+00  0.00000000000E+00 -0.12006707447E+04  0.12006707447E+04  0.50400001928E-02 0. -1.
    10030    2    1    2    0    0  0.00000000000E+00  0.00000000000E+00 -0.84886762849E+03  0.15524738610E+04  0.12998456979E+04 0.  0.
        3    1    3    3  502    0 -0.37102486710E+03 -0.63514576619E+02  0.20835450853E+03  0.43023849766E+03  0.10100000352E+00 0.  1.
       -3    1    3    3    0  502  0.37102486710E+03  0.63514576619E+02 -0.10572221370E+04  0.11222353633E+04  0.10100000352E+00 0. -1.
</event>
<event>
 5   0  0.3631841E-05  0.1299197E+04  0.7818609E-02  0.9030202E-01
        1   -1    0    0  501    0  0.00000000000E+00  0.00000000000E+00  0.37665794206E+03  0.37665794210E+03  0.50400001928E-02 0.  1.
       -1   -1    0    0    0  501  0.00000000000E+00  0.00000000000E+00 -0.11203215832E+04  0.11203215832E+04  0.50400001928E-02 0. -1.
    10030    2    1    2    0    0  0.00000000000E+00  0.00000000000E+00 -0.74366364114E+03  0.14969795253E+04  0.12991967088E+04 0.  0.
        3    1    3    3  502    0  0.48355423001E+03 -0.25495044566E+03 -0.77618837254E+03  0.94936443106E+03  0.10100000352E+00 0. -1.
       -3    1    3    3    0  502 -0.48355423001E+03  0.25495044566E+03  0.32524731398E+02  0.54761509425E+03  0.10100000352E+00 0.  1.
</event>
<event>
 5   0  0.6688086E-05  0.1299810E+04  0.7818609E-02  0.9029716E-01
       -2   -1    0    0    0  501  0.00000000000E+00  0.00000000000E+00  0.39910445180E+03  0.39910445180E+03  0.25500000920E-02 0.  1.
        2   -1    0    0  501    0  0.00000000000E+00  0.00000000000E+00 -0.10583104066E+04  0.10583104066E+04  0.25500000920E-02 0. -1.
    10030    2    1    2    0    0  0.00000000000E+00  0.00000000000E+00 -0.65920595485E+03  0.14574148585E+04  0.12998098241E+04 0.  0.
        5    1    3    3  502    0  0.44697100465E+03 -0.43870860681E+03 -0.13505362434E+03  0.64071045889E+03  0.46999998093E+01 0.  1.
       -5    1    3    3    0  502 -0.44697100465E+03  0.43870860681E+03 -0.52415233051E+03  0.81670439956E+03  0.46999998093E+01 0. -1.
</event>
<event>
 5   0  0.3551277E-05  0.1300332E+04  0.7818609E-02  0.9029302E-01
        1   -1    0    0  501    0  0.00000000000E+00  0.00000000000E+00  0.15415909709E+04  0.15415909709E+04  0.50400001928E-02 0. -1.
       -1   -1    0    0    0  501  0.00000000000E+00  0.00000000000E+00 -0.27420736076E+03  0.27420736081E+03  0.50400001928E-02 0.  1.
    10030    2    1    2    0    0  0.00000000000E+00  0.00000000000E+00  0.12673836101E+04  0.18157983317E+04  0.13003316370E+04 0.  0.
        4    1    3    3  502    0  0.45635114302E+03  0.46299328307E+03  0.64729035679E+03  0.91739062825E+03  0.12699999809E+01 0.  1.
       -4    1    3    3    0  502 -0.45635114302E+03 -0.46299328307E+03  0.62009325333E+03  0.89840770345E+03  0.12699999809E+01 0. -1.
</event>
<event>
 5   0  0.6671239E-05  0.1300144E+04  0.7818609E-02  0.9029451E-01
       -2   -1    0    0    0  501  0.00000000000E+00  0.00000000000E+00  0.22166618158E+03  0.22166618160E+03  0.25500000920E-02 0.  1.
        2   -1    0    0  501    0  0.00000000000E+00  0.00000000000E+00 -0.19064428428E+04  0.19064428428E+04  0.25500000920E-02 0. -1.
    10030    2    1    2    0    0  0.00000000000E+00  0.00000000000E+00 -0.16847766612E+04  0.21281090244E+04  0.13001444618E+04 0.  0.
        1    1    3    3  502    0  0.21043608128E+03  0.57489486584E+03 -0.48450165460E+03  0.78072357746E+03  0.50400001928E-02 0.  1.
       -1    1    3    3    0  502 -0.21043608128E+03 -0.57489486584E+03 -0.12002750066E+04  0.13473854469E+04  0.50400001928E-02 0. -1.
</event>
<event>
 5   0  0.6458698E-05  0.1299978E+04  0.7818609E-02  0.9029583E-01
        2   -1    0    0  501    0  0.00000000000E+00  0.00000000000E+00  0.70152038732E+03  0.70152038733E+03  0.25500000920E-02 0.  1.
       -2   -1    0    0    0  501  0.00000000000E+00  0.00000000000E+00 -0.60224255001E+03  0.60224255002E+03  0.25500000920E-02 0. -1.
    10030    2    1    2    0    0  0.00000000000E+00  0.00000000000E+00  0.99277837310E+02  0.13037629373E+04  0.12999775797E+04 0.  0.
        3    1    3    3  502    0 -0.70622233950E+01  0.55543401386E+03  0.38815487560E+03  0.67765849542E+03  0.10100000352E+00 0.  1.
       -3    1    3    3    0  502  0.70622233950E+01 -0.55543401386E+03 -0.28887703829E+03  0.62610444193E+03  0.10100000352E+00 0. -1.
</event>
<event>
 5   0  0.3689707E-05  0.1299963E+04  0.7818609E-02  0.9029594E-01
       -1   -1    0    0    0  501  0.00000000000E+00  0.00000000000E+00  0.40868620991E+03  0.40868620994E+03  0.50400001928E-02 0. -1.
        1   -1    0    0  501    0  0.00000000000E+00  0.00000000000E+00 -0.10337419665E+04  0.10337419665E+04  0.50400001928E-02 0.  1.
    10030    2    1    2    0    0  0.00000000000E+00  0.00000000000E+00 -0.62505575657E+03  0.14424281764E+04  0.12999632092E+04 0.  0.
        1    1    3    3  502    0 -0.22283476352E+00 -0.30716340714E+03 -0.94812790502E+03  0.99664232934E+03  0.50400001928E-02 0.  1.
       -1    1    3    3    0  502  0.22283476352E+00  0.30716340714E+03  0.32307214845E+03  0.44578584709E+03  0.50400001928E-02 0. -1.
</event>
<event>
 5   0  0.6458698E-05  0.1300091E+04  0.7818609E-02  0.9029493E-01
       -2   -1    0    0    0  501  0.00000000000E+00  0.00000000000E+00  0.89105362776E+03  0.89105362777E+03  0.25500000920E-02 0. -1.
        2   -1    0    0  501    0  0.00000000000E+00  0.00000000000E+00 -0.47422439106E+03  0.47422439107E+03  0.25500000920E-02 0.  1.
    10030    2    1    2    0    0  0.00000000000E+00  0.00000000000E+00  0.41682923670E+03  0.13652780188E+04  0.13000913261E+04 0.  0.
        3    1    3    3  502    0 -0.56642783771E+03 -0.31448307428E+03  0.26417354154E+03  0.69966261125E+03  0.10100000352E+00 0. -1.
       -3    1    3    3    0  502  0.56642783771E+03  0.31448307428E+03  0.15265569517E+03  0.66561540758E+03  0.10100000352E+00 0.  1.
</event>
<event>
 5   0  0.6671239E-05  0.1299910E+04  0.7818609E-02  0.9029637E-01
       -2   -1    0    0    0  501  0.00000000000E+00  0.00000000000E+00  0.42168221898E+03  0.42168221898E+03  0.25500000920E-02 0. -1.
        2   -1    0    0  501    0  0.00000000000E+00  0.00000000000E+00 -0.10018006010E+04  0.10018006010E+04  0.25500000920E-02 0.  1.
    10030    2    1    2    0    0  0.00000000000E+00  0.00000000000E+00 -0.58011838199E+03  0.14234828200E+04  0.12999099975E+04 0.  0.
        1    1    3    3  502    0  0.49627343168E+03 -0.17358205459E+03  0.12839724434E+03  0.54120596916E+03  0.50400001928E-02 0. -1.
       -1    1    3    3    0  502 -0.49627343168E+03  0.17358205459E+03 -0.70851562633E+03  0.88227685080E+03  0.50400001928E-02 0.  1.
</event>
<event>
 5   0  0.3718559E-05  0.1300363E+04  0.7818609E-02  0.9029278E-01
        1   -1    0    0  501    0  0.00000000000E+00  0.00000000000E+00  0.12291971401E+04  0.12291971401E+04  0.50400001928E-02 0. -1.
       -1   -1    0    0    0  501  0.00000000000E+00  0.00000000000E+00 -0.34391216325E+03  0.34391216329E+03  0.50400001928E-02 0.  1.
    10030    2    1    2    0    0  0.00000000000E+00  0.00000000000E+00  0.88528497682E+03  0.15731093034E+04  0.13003627917E+04 0.  0.
        2    1    3    3  502    0  0.24105339754E+03 -0.23727971308E+03  0.11143813241E+04  0.11645832466E+04  0.25500000920E-02 0. -1.
       -2    1    3    3    0  502 -0.24105339754E+03  0.23727971308E+03 -0.22909634730E+03  0.40852605677E+03  0.25500000920E-02 0.  1.
</event>
<event>
 5   0  0.6742824E-05  0.1299995E+04  0.7818609E-02  0.9029569E-01
       -2   -1    0    0    0  501  0.00000000000E+00  0.00000000000E+00  0.67022905908E+03  0.67022905908E+03  0.25500000920E-02 0.  1.
        2   -1    0    0  501    0  0.00000000000E+00  0.00000000000E+00 -0.63037670162E+03  0.63037670162E+03  0.25500000920E-02 0. -1.
    10030    2    1    2    0    0  0.00000000000E+00  0.00000000000E+00  0.39852357462E+02  0.13006057607E+04  0.12999950517E+04 0.  0.
        4    1    3    3  502    0  0.33274060817E+03 -0.23882079651E+03 -0.48503212400E+03  0.63483026029E+03  0.12699999809E+01 0. -1.
       -4    1    3    3    0  502 -0.33274060817E+03  0.23882079651E+03  0.52488448146E+03  0.66577550041E+03  0.12699999809E+01 0.  1.
</event>
<event>
 5   0  0.6618060E-05  0.1299378E+04  0.7818609E-02  0.9030059E-01
       -2   -1    0    0    0  501  0.00000000000E+00  0.00000000000E+00  0.74237633347E+03  0.74237633348E+03  0.25500000920E-02 0.  1.
        2   -1    0    0  501    0  0.00000000000E+00  0.00000000000E+00 -0.56857361715E+03  0.56857361716E+03  0.25500000920E-02 0. -1.
    10030    2    1    2    0    0  0.00000000000E+00  0.00000000000E+00  0.17380271632E+03  0.13109499506E+04  0.12993776929E+04 0.  0.
        2    1    3    3  502    0  0.11775991452E+03  0.40581051682E+03  0.58480032709E+03  0.72148527053E+03  0.25500000920E-02 0.  1.
       -2    1    3    3    0  502 -0.11775991452E+03 -0.40581051682E+03 -0.41099761076E+03  0.58946468010E+03  0.25500000920E-02 0. -1.
</event>
<event>
 5   0  0.3631841E-05  0.1300600E+04  0.7818609E-02  0.9029089E-01
        1   -1    0    0  501    0  0.00000000000E+00  0.00000000000E+00  0.13317132872E+04  0.13317132872E+04  0.50400001928E-02 0. -1.
       -1   -1    0    0    0  501  0.00000000000E+00  0.00000000000E+00 -0.31755348483E+03  0.31755348487E+03  0.50400001928E-02 0.  1.
    10030    2    1    2    0    0  0.00000000000E+00  0.00000000000E+00  0.10141598023E+04  0.16492667720E+04  0.13006001617E+04 0.  0.
        3    1    3    3  502    0  0.16661223068E+03 -0.60928710949E+03  0.31104023870E+03  0.70408554700E+03  0.10100000352E+00 0.  1.
       -3    1    3    3    0  502 -0.16661223068E+03  0.60928710949E+03  0.70311956364E+03  0.94518122504E+03  0.10100000352E+00 0. -1.
</event>
<event>
 5   0  0.3551277E-05  0.1300038E+04  0.7818609E-02  0.9029535E-01
        1   -1    0    0  501    0  0.00000000000E+00  0.00000000000E+00  0.51267075133E+03  0.51267075135E+03  0.50400001928E-02 0. -1.
       -1   -1    0    0    0  501  0.00000000000E+00  0.00000000000E+00 -0.82416422774E+03  0.82416422776E+03  0.50400001928E-02 0.  1.
    10030    2    1    2    0    0  0.00000000000E+00  0.00000000000E+00 -0.31149347641E+03  0.13368349791E+04  0.13000382977E+04 0.  0.
        4    1    3    3  502    0 -0.56816970527E+03 -0.20368478606E+03  0.92368782120E+02  0.61060454541E+03  0.12699999809E+01 0. -1.
       -4    1    3    3    0  502  0.56816970527E+03  0.20368478606E+03 -0.40386225853E+03  0.72623043370E+03  0.12699999809E+01 0.  1.
</event>
<event>
 5   0  0.3552698E-05  0.1299948E+04  0.7818609E-02  0.9029607E-01
       -1   -1    0    0    0  501  0.00000000000E+00  0.00000000000E+00  0.82966581533E+03  0.82966581535E+03  0.50400001928E-02 0.  1.
        1   -1    0    0  501    0  0.00000000000E+00  0.00000000000E+00 -0.50920033807E+03  0.50920033809E+03  0.50400001928E-02 0. -1.
    10030    2    1    2    0    0  0.00000000000E+00  0.00000000000E+00  0.32046547726E+03  0.13388661534E+04  0.12999478662E+04 0.  0.
        5    1    3    3  502    0 -0.32076307972E+02 -0.58406203301E+03 -0.13159929764E+03  0.59958136485E+03  0.46999998093E+01 0. -1.
       -5    1    3    3    0  502  0.32076307972E+02  0.58406203301E+03  0.45206477491E+03  0.73928478859E+03  0.46999998093E+01 0.  1.
</event>
<event>
 5   0  0.3551277E-05  0.1300043E+04  0.7818609E-02  0.9029531E-01
       -1   -1    0    0    0  501  0.00000000000E+00  0.00000000000E+00  0.24019894588E+03  0.24019894593E+03  0.50400001928E-02 0.  1.
        1   -1    0    0  501    0  0.00000000000E+00  0.00000000000E+00 -0.17590748535E+04  0.17590748535E+04  0.50400001928E-02 0. -1.
    10030    2    1    2    0    0  0.00000000000E+00  0.00000000000E+00 -0.15188759076E+04  0.19992737995E+04  0.13000429618E+04 0.  0.
        4    1    3    3  502    0  0.28741094981E+03 -0.31315988042E+03 -0.15157300201E+04  0.15742024239E+04  0.12699999809E+01 0. -1.
       -4    1    3    3    0  502 -0.28741094981E+03  0.31315988042E+03 -0.31458875234E+01  0.42507137552E+03  0.12699999809E+01 0.  1.
</event>
<event>
 5   0  0.3689707E-05  0.1299697E+04  0.7818609E-02  0.9029806E-01
       -1   -1    0    0    0  501  0.00000000000E+00  0.00000000000E+00  0.32119316013E+03  0.32119316017E+03  0.50400001928E-02 0.  1.
        1   -1    0    0  501    0  0.00000000000E+00  0.00000000000E+00 -0.13147941125E+04  0.13147941125E+04  0.50400001928E-02 0. -1.
    10030    2    1    2    0    0  0.00000000000E+00  0.00000000000E+00 -0.99360095234E+03  0.16359872726E+04  0.12996966968E+04 0.  0.
        1    1    3    3  502    0 -0.11636028786E+03  0.62508433564E+03 -0.66583237793E+03  0.92065351722E+03  0.50400001928E-02 0.  1.
       -1    1    3    3    0  502  0.11636028786E+03 -0.62508433564E+03 -0.32776857441E+03  0.71533375542E+03  0.50400001928E-02 0. -1.
</event>
<event>
 5   0  0.6688086E-05  0.1299813E+04  0.7818609E-02  0.9029714E-01
       -2   -1    0    0    0  501  0.00000000000E+00  0.00000000000E+00  0.11883341744E+04  0.11883341744E+04  0.25500000920E-02 0.  1.
        2   -1    0    0  501    0  0.00000000000E+00  0.00000000000E+00 -0.35543717593E+03  0.35543717594E+03  0.25500000920E-02 0. -1.
    10030    2    1    2    0    0  0.00000000000E+00  0.00000000000E+00  0.83289699842E+03  0.15437713503E+04  0.12998125142E+04 0.  0.
        5    1    3    3  502    0  0.67370423038E+02  0.59718037835E+03  0.71024910798E+03  0.93039726116E+03  0.46999998093E+01 0.  1.
       -5    1    3    3    0  502 -0.67370423038E+02 -0.59718037835E+03  0.12264789044E+03  0.61337408913E+03  0.46999998093E+01 0. -1.
</event>
<event>
 5   0  0.3551277E-05  0.1299448E+04  0.7818609E-02  0.9030003E-01
       -1   -1    0    0    0  501  0.00000000000E+00  0.00000000000E+00  0.88726456303E+03  0.88726456304E+03  0.50400001928E-02 0.  1.
        1   -1    0    0  501    0  0.00000000000E+00  0.00000000000E+00 -0.47577829178E+03  0.47577829180E+03  0.50400001928E-02 0. -1.
    10030    2    1    2    0    0  0.00000000000E+00  0.00000000000E+00  0.41148627125E+03  0.13630428548E+04  0.12994479107E+04 0.  0.
        4    1    3    3  502    0 -0.38926280548E+03 -0.21495130855E+03  0.70264628169E+03  0.83153052070E+03  0.12699999809E+01 0.  1.
       -4    1    3    3    0  502  0.38926280548E+03  0.21495130855E+03 -0.29116001044E+03  0.53151233415E+03  0.12699999809E+01 0. -1.
</event>
<event>
 5   0  0.2512000E-05  0.1300409E+04  0.7818609E-02  0.9029241E-01
       -4   -1    0    0    0  501  0.00000000000E+00  0.00000000000E+00  0.41464965739E+03  0.41465160228E+03  0.12699999809E+01 0.  1.
        4   -1    0    0  501    0  0.00000000000E+00  0.00000000000E+00 -0.10195684493E+04  0.10195692402E+04  0.12699999809E+01 0. -1.
    10030    2    1    2    0    0  0.00000000000E+00  0.00000000000E+00 -0.60491879186E+03  0.14342208425E+04  0.13004086590E+04 0.  0.
        4    1    3    3  502    0 -0.96471439172E+02 -0.63841900113E+03 -0.21789854406E+03  0.68144475050E+03  0.12699999809E+01 0.  1.
       -4    1    3    3    0  502  0.96471439172E+02  0.63841900113E+03 -0.38702024780E+03  0.75277609200E+03  0.12699999809E+01 0. -1.
</event>
<event>
 5   0  0.6458698E-05  0.1300300E+04  0.7818609E-02  0.9029327E-01
       -2   -1    0    0    0  501  0.00000000000E+00  0.00000000000E+00  0.44439528757E+03  0.44439528758E+03  0.25500000920E-02 0.  1.
        2   -1    0    0  501    0  0.00000000000E+00  0.00000000000E+00 -0.95116927131E+03  0.95116927132E+03  0.25500000920E-02 0. -1.
    10030    2    1    2    0    0  0.00000000000E+00  0.00000000000E+00 -0.50677398375E+03  0.13955645589E+04  0.13003001836E+04 0.  0.
        3    1    3    3  502    0  0.55471301956E+03 -0.84104972317E+01  0.11044432221E+03  0.56566352989E+03  0.10100000352E+00 0.  1.
       -3    1    3    3    0  502 -0.55471301956E+03  0.84104972317E+01 -0.61721830596E+03  0.82990102901E+03  0.10100000352E+00 0. -1.
</event>
<event>
 5   0  0.6458698E-05  0.1300004E+04  0.7818609E-02  0.9029562E-01
        2   -1    0    0  501    0  0.00000000000E+00  0.00000000000E+00  0.82296255862E+03  0.82296255863E+03  0.25500000920E-02 0.  1.
       -2   -1    0    0    0  501  0.00000000000E+00  0.00000000000E+00 -0.51339226597E+03  0.51339226598E+03  0.25500000920E-02 0. -1.
    10030    2    1    2    0    0  0.00000000000E+00  0.00000000000E+00  0.30957029265E+03  0.13363548246E+04  0.13000040197E+04 0.  0.
        3    1    3    3  502    0 -0.42644036382E+03  0.48499877297E+03  0.23051608892E+03  0.68572069469E+03  0.10100000352E+00 0. -1.
       -3    1    3    3    0  502  0.42644036382E+03 -0.48499877297E+03  0.79054203726E+02  0.65063412991E+03  0.10100000352E+00 0.  1.
</event>
<event>
 5   0  0.3552698E-05  0.1300099E+04  0.7818609E-02  0.9029487E-01
       -1   -1    0    0    0  501  0.00000000000E+00  0.00000000000E+00  0.88780217782E+03  0.88780217783E+03  0.50400001928E-02 0.  1.
        1   -1    0    0  501    0  0.00000000000E+00  0.00000000000E+00 -0.47596666592E+03  0.47596666595E+03  0.50400001928E-02 0. -1.
    10030    2    1    2    0    0  0.00000000000E+00  0.00000000000E+00  0.41183551190E+03  0.13637688438E+04  0.13000988310E+04 0.  0.
        5    1    3    3  502    0 -0.75426812796E+02  0.81822039326E+02  0.87771782518E+03  0.88475687104E+03  0.46999998093E+01 0.  1.
       -5    1    3    3    0  502  0.75426812796E+02 -0.81822039326E+02 -0.46588231328E+03  0.47901197274E+03  0.46999998093E+01 0. -1.
</event>
<event>
 5   0  0.6688086E-05  0.1299390E+04  0.7818609E-02  0.9030049E-01
       -2   -1    0    0    0  501  0.00000000000E+00  0.00000000000E+00  0.18593920783E+03  0.18593920784E+03  0.25500000920E-02 0.  1.
        2   -1    0    0  501    0  0.00000000000E+00  0.00000000000E+00 -0.22701153614E+04  0.22701153614E+04  0.25500000920E-02 0. -1.
    10030    2    1    2    0    0  0.00000000000E+00  0.00000000000E+00 -0.20841761536E+04  0.24560545693E+04  0.12993897829E+04 0.  0.
        5    1    3    3  502    0 -0.37017858771E+03 -0.97511152930E+02 -0.49905759997E+02  0.38607419834E+03  0.46999998093E+01 0.  1.
       -5    1    3    3    0  502  0.37017858771E+03  0.97511152930E+02 -0.20342703936E+04  0.20699803709E+04  0.46999998093E+01 0. -1.
</event>
<event>
 5   0  0.6458698E-05  0.1300133E+04  0.7818609E-02  0.9029460E-01
       -2   -1    0    0    0  501  0.00000000000E+00  0.00000000000E+00  0.41682213901E+03  0.41682213901E+03  0.25500000920E-02 0. -1.
        2   -1    0    0  501    0  0.00000000000E+00  0.00000000000E+00 -0.10138284199E+04  0.10138284199E+04  0.25500000920E-02 0.  1.
    10030    2    1    2    0    0  0.00000000000E+00  0.00000000000E+00 -0.59700628085E+03  0.14306505589E+04  0.13001325018E+04 0.  0.
        3    1    3    3  502    0 -0.58838871836E+03  0.20375770844E+03 -0.50397728679E+03  0.80106903788E+03  0.10100000352E+00 0. -1.
       -3    1    3    3    0  502  0.58838871836E+03 -0.20375770844E+03 -0.93028994064E+02  0.62958152100E+03  0.10100000352E+00 0.  1.
</event>
<event>
 5   0  0.3631841E-05  0.1299998E+04  0.7818609E-02  0.9029567E-01
        1   -1    0    0  501    0  0.00000000000E+00  0.00000000000E+00  0.26350323281E+03  0.26350323286E+03  0.50400001928E-02 0.  1.
       -1   -1    0    0    0  501  0.00000000000E+00  0.00000000000E+00 -0.16033900652E+04  0.16033900652E+04  0.50400001928E-02 0. -1.
    10030    2    1    2    0    0  0.00000000000E+00  0.00000000000E+00 -0.13398868324E+04  0.18668932981E+04  0.12999976395E+04 0.  0.
        3    1    3    3  502    0  0.26231467042E+02  0.63898910776E+03 -0.50306634746E+03  0.81367741142E+03  0.10100000352E+00 0.  1.
       -3    1    3    3    0  502 -0.26231467042E+02 -0.63898910776E+03 -0.83682048492E+03  0.10532158866E+04  0.10100000352E+00 0. -1.
</event>
<event>
 5   0  0.3631841E-05  0.1299865E+04  0.7818609E-02  0.9029672E-01
       -1   -1    0    0    0  501  0.00000000000E+00  0.00000000000E+00  0.42506929053E+03  0.42506929056E+03  0.50400001928E-02 0.  1.
        1   -1    0    0  501    0  0.00000000000E+00  0.00000000000E+00 -0.99374958381E+03  0.99374958382E+03  0.50400001928E-02 0. -1.
    10030    2    1    2    0    0  0.00000000000E+00  0.00000000000E+00 -0.56868029328E+03  0.14188188744E+04  0.12998652708E+04 0.  0.
        3    1    3    3  502    0  0.31663073945E+03  0.13255587933E+03  0.31805827252E+03  0.46796064068E+03  0.10100000352E+00 0.  1.
       -3    1    3    3    0  502 -0.31663073945E+03 -0.13255587933E+03 -0.88673856580E+03  0.95085823369E+03  0.10100000352E+00 0. -1.
</event>
<event>
 5   0  0.3551277E-05  0.1298876E+04  0.7818609E-02  0.9030457E-01
       -1   -1    0    0    0  501  0.00000000000E+00  0.00000000000E+00  0.40167215513E+03  0.40167215517E+03  0.50400001928E-02 0. -1.
        1   -1    0    0  501    0  0.00000000000E+00  0.00000000000E+00 -0.10500353982E+04  0.10500353982E+04  0.50400001928E-02 0.  1.
    10030    2    1    2    0    0  0.00000000000E+00  0.00000000000E+00 -0.64836324307E+03  0.14517075534E+04  0.12988764089E+04 0.  0.
        4    1    3    3  502    0 -0.36740517777E+03 -0.14600499764E+03 -0.90003829804E+03  0.98304352641E+03  0.12699999809E+01 0.  1.
       -4    1    3    3    0  502  0.36740517777E+03  0.14600499764E+03  0.25167505496E+03  0.46866402697E+03  0.12699999809E+01 0. -1.
</event>
<event>
 5   0  0.6671239E-05  0.1299765E+04  0.7818609E-02  0.9029752E-01
        2   -1    0    0  501    0  0.00000000000E+00  0.00000000000E+00  0.89660023979E+03  0.89660023979E+03  0.25500000920E-02 0.  1.
       -2   -1    0    0    0  501  0.00000000000E+00  0.00000000000E+00 -0.47105393632E+03  0.47105393633E+03  0.25500000920E-02 0. -1.
    10030    2    1    2    0    0  0.00000000000E+00  0.00000000000E+00  0.42554630346E+03  0.13676541761E+04  0.12997647053E+04 0.  0.
        1    1    3    3  502    0 -0.49841813483E+03 -0.47123082292E+02  0.64879083444E+03  0.81949421529E+03  0.50400001928E-02 0.  1.
       -1    1    3    3    0  502  0.49841813483E+03  0.47123082292E+02 -0.22324453098E+03  0.54815996083E+03  0.50400001928E-02 0. -1.
</event>
<event>
 5   0  0.2512000E-05  0.1299667E+04  0.7818609E-02  0.9029829E-01
        4   -1    0    0  501    0  0.00000000000E+00  0.00000000000E+00  0.86891521750E+03  0.86891614561E+03  0.12699999809E+01 0. -1.
       -4   -1    0    0    0  501  0.00000000000E+00  0.00000000000E+00 -0.48598748493E+03  0.48598914434E+03  0.12699999809E+01 0.  1.
    10030    2    1    2    0    0  0.00000000000E+00  0.00000000000E+00  0.38292773257E+03  0.13549052899E+04  0.12996671483E+04 0.  0.
        2    1    3    3  502    0  0.13609687887E+03  0.35074724154E+03  0.74383014183E+03  0.83356419536E+03  0.25500000920E-02 0. -1.
       -2    1    3    3    0  502 -0.13609687887E+03 -0.35074724154E+03 -0.36090240927E+03  0.52134109459E+03  0.25500000920E-02 0.  1.
</event>
<event>
 5   0  0.6618060E-05  0.1300017E+04  0.7818609E-02  0.9029552E-01
       -2   -1    0    0    0  501  0.00000000000E+00  0.00000000000E+00  0.53568288729E+03  0.53568288730E+03  0.25500000920E-02 0. -1.
        2   -1    0    0  501    0  0.00000000000E+00  0.00000000000E+00 -0.78873307862E+03  0.78873307863E+03  0.25500000920E-02 0.  1.
    10030    2    1    2    0    0  0.00000000000E+00  0.00000000000E+00 -0.25305019133E+03  0.13244159659E+04  0.13000166351E+04 0.  0.
        2    1    3    3  502    0  0.10669856884E+03 -0.61339257629E+03 -0.31678068983E+03  0.69855926213E+03  0.25500000920E-02 0.  1.
       -2    1    3    3    0  502 -0.10669856884E+03  0.61339257629E+03  0.63730498498E+02  0.62585670380E+03  0.25500000920E-02 0. -1.
</event>
<event>
 5   0  0.6458698E-05  0.1302372E+04  0.7818609E-02  0.9027686E-01
       -2   -1    0    0    0  501  0.00000000000E+00  0.00000000000E+00  0.56148413917E+03  0.56148413918E+03  0.25500000920E-02 0. -1.
        2   -1    0    0  501    0  0.00000000000E+00  0.00000000000E+00 -0.75521835308E+03  0.75521835309E+03  0.25500000920E-02 0.  1.
    10030    2    1    2    0    0  0.00000000000E+00  0.00000000000E+00 -0.19373421391E+03  0.13167024923E+04  0.13023718776E+04 0.  0.
        3    1    3    3  502    0 -0.24997380395E+03  0.97159313247E+02 -0.69679036816E+03  0.74662149860E+03  0.10100000352E+00 0.  1.
       -3    1    3    3    0  502  0.24997380395E+03 -0.97159313247E+02  0.50305615425E+03  0.57008099367E+03  0.10100000352E+00 0. -1.
</event>
<event>
 5   0  0.3718559E-05  0.1299785E+04  0.7818609E-02  0.9029735E-01
       -1   -1    0    0    0  501  0.00000000000E+00  0.00000000000E+00  0.46909155714E+03  0.46909155717E+03  0.50400001928E-02 0. -1.
        1   -1    0    0  501    0  0.00000000000E+00  0.00000000000E+00 -0.90037973580E+03  0.90037973581E+03  0.50400001928E-02 0.  1.
    10030    2    1    2    0    0  0.00000000000E+00  0.00000000000E+00 -0.43128817865E+03  0.13694712930E+04  0.12997854166E+04 0.  0.
        2    1    3    3  502    0 -0.37855983637E+03  0.51715359115E+03 -0.32914688868E+03  0.72048113152E+03  0.25500000920E-02 0. -1.
       -2    1    3    3    0  502  0.37855983637E+03 -0.51715359115E+03 -0.10214128997E+03  0.64899016146E+03  0.25500000920E-02 0.  1.
</event>
<event>
 5   0  0.3689707E-05  0.1299866E+04  0.7818609E-02  0.9029672E-01
        1   -1    0    0  501    0  0.00000000000E+00  0.00000000000E+00  0.88248031064E+03  0.88248031066E+03  0.50400001928E-02 0.  1.
       -1   -1    0    0    0  501  0.00000000000E+00  0.00000000000E+00 -0.47866528740E+03  0.47866528743E+03  0.50400001928E-02 0. -1.
    10030    2    1    2    0    0  0.00000000000E+00  0.00000000000E+00  0.40381502324E+03  0.13611455981E+04  0.12998656724E+04 0.  0.
        1    1    3    3  502    0  0.32799789969E+03 -0.84855502790E+01 -0.38557445691E+03  0.50628281485E+03  0.50400001928E-02 0. -1.
       -1    1    3    3    0  502 -0.32799789969E+03  0.84855502790E+01  0.78938948015E+03  0.85486278323E+03  0.50400001928E-02 0.  1.
</event>
<event>
 5   0  0.6458698E-05  0.1300187E+04  0.7818609E-02  0.9029417E-01
       -2   -1    0    0    0  501  0.00000000000E+00  0.00000000000E+00  0.36896305870E+03  0.36896305870E+03  0.25500000920E-02 0. -1.
        2   -1    0    0  501    0  0.00000000000E+00  0.00000000000E+00 -0.11454307405E+04  0.11454307405E+04  0.25500000920E-02 0.  1.
    10030    2    1    2    0    0  0.00000000000E+00  0.00000000000E+00 -0.77646768176E+03  0.15143937992E+04  0.13001871089E+04 0.  0.
        3    1    3    3  502    0  0.29029298107E+02  0.12949873767E+03 -0.11294848573E+04  0.11372548862E+04  0.10100000352E+00 0.  1.
       -3    1    3    3    0  502 -0.29029298107E+02 -0.12949873767E+03  0.35301717554E+03  0.37713891292E+03  0.10100000352E+00 0. -1.
</event>
<event>
 5   0  0.6688086E-05  0.1300033E+04  0.7818609E-02  0.9029539E-01
       -2   -1    0    0    0  501  0.00000000000E+00  0.00000000000E+00  0.24945134813E+03  0.24945134814E+03  0.25500000920E-02 0. -1.
        2   -1    0    0  501    0  0.00000000000E+00  0.00000000000E+00 -0.16938028530E+04  0.16938028530E+04  0.25500000920E-02 0.  1.
    10030    2    1    2    0    0  0.00000000000E+00  0.00000000000E+00 -0.14443515049E+04  0.19432542011E+04  0.13000329306E+04 0.  0.
        5    1    3    3  502    0 -0.58457111649E+02 -0.48436678887E+03 -0.13641819041E+04  0.14488073638E+04  0.46999998093E+01 0.  1.
       -5    1    3    3    0  502  0.58457111649E+02  0.48436678887E+03 -0.80169600819E+02  0.49444683734E+03  0.46999998093E+01 0. -1.
</event>
<event>
 5   0  0.3631841E-05  0.1300045E+04  0.7818609E-02  0.9029529E-01
        1   -1    0    0  501    0  0.00000000000E+00  0.00000000000E+00  0.11786783639E+04  0.11786783639E+04  0.50400001928E-02 0.  1.
       -1   -1    0    0    0  501  0.00000000000E+00  0.00000000000E+00 -0.35847715149E+03  0.35847715153E+03  0.50400001928E-02 0. -1.
    10030    2    1    2    0    0  0.00000000000E+00  0.00000000000E+00  0.82020121240E+03  0.15371555154E+04  0.13000450184E+04 0.  0.
        3    1    3    3  502    0  0.50856184877E+03 -0.40458504471E+03  0.39316976589E+03  0.75954373636E+03  0.10100000352E+00 0.  1.
       -3    1    3    3    0  502 -0.50856184877E+03  0.40458504471E+03  0.42703144651E+03  0.77761177906E+03  0.10100000352E+00 0. -1.
</event>
<event>
 5   0  0.3718559E-05  0.1299996E+04  0.7818609E-02  0.9029569E-01
       -1   -1    0    0    0  501  0.00000000000E+00  0.00000000000E+00  0.30763071050E+03  0.30763071054E+03  0.50400001928E-02 0. -1.
        1   -1    0    0  501    0  0.00000000000E+00  0.00000000000E+00 -0.13733904769E+04  0.13733904769E+04  0.50400001928E-02 0.  1.
    10030    2    1    2    0    0  0.00000000000E+00  0.00000000000E+00 -0.10657597664E+04  0.16810211874E+04  0.12999955204E+04 0.  0.
        2    1    3    3  502    0 -0.50676202620E+01 -0.12713686118E+03 -0.13571296223E+04  0.13630811692E+04  0.25500000920E-02 0.  1.
       -2    1    3    3    0  502  0.50676202620E+01  0.12713686118E+03  0.29136985589E+03  0.31794001820E+03  0.25500000920E-02 0. -1.
</event>
<event>
 5   0  0.3718559E-05  0.1300087E+04  0.7818609E-02  0.9029496E-01
       -1   -1    0    0    0  501  0.00000000000E+00  0.00000000000E+00  0.41688725805E+03  0.41688725808E+03  0.50400001928E-02 0.  1.
        1   -1    0    0  501    0  0.00000000000E+00  0.00000000000E+00 -0.10135995075E+04  0.10135995076E+04  0.50400001928E-02 0. -1.
    10030    2    1    2    0    0  0.00000000000E+00  0.00000000000E+00 -0.59671224950E+03  0.14304867656E+04  0.13000872578E+04 0.  0.
        2    1    3    3  502    0  0.29101235437E+03 -0.54045746616E+03 -0.62947705426E+02  0.61704527933E+03  0.25500000920E-02 0. -1.
       -2    1    3    3    0  502 -0.29101235437E+03  0.54045746616E+03 -0.53376454407E+03  0.81344148630E+03  0.25500000920E-02 0.  1.
</event>
<event>
 5   0  0.6742824E-05  0.1301294E+04  0.7818609E-02  0.9028540E-01
        2   -1    0    0  501    0  0.00000000000E+00  0.00000000000E+00  0.10395288781E+04  0.10395288781E+04  0.25500000920E-02 0.  1.
       -2   -1    0    0    0  501  0.00000000000E+00  0.00000000000E+00 -0.40724354035E+03  0.40724354036E+03  0.25500000920E-02 0. -1.
    10030    2    1    2    0    0  0.00000000000E+00  0.00000000000E+00  0.63228533771E+03  0.14467724184E+04  0.13012938494E+04 0.  0.
        4    1    3    3  502    0  0.43720493488E+03 -0.53351328744E+02  0.84858154102E+03  0.95607884822E+03  0.12699999809E+01 0.  1.
       -4    1    3    3    0  502 -0.43720493488E+03  0.53351328744E+02 -0.21629620331E+03  0.49069357020E+03  0.12699999809E+01 0. -1.
</event>
<event>
 5   0  0.3552698E-05  0.1301257E+04  0.7818609E-02  0.9028569E-01
       -1   -1    0    0    0  501  0.00000000000E+00  0.00000000000E+00  0.83970075644E+03  0.83970075645E+03  0.50400001928E-02 0. -1.
        1   -1    0    0  501    0  0.00000000000E+00  0.00000000000E+00 -0.50412896710E+03  0.50412896713E+03  0.50400001928E-02 0.  1.
    10030    2    1    2    0    0  0.00000000000E+00  0.00000000000E+00  0.33557178934E+03  0.13438297236E+04  0.13012570462E+04 0.  0.
        5    1    3    3  502    0 -0.58565134789E+03  0.15914667502E+03 -0.74364055331E+02  0.61144686456E+03  0.46999998093E+01 0.  1.
       -5    1    3    3    0  502  0.58565134789E+03 -0.15914667502E+03  0.40993584467E+03  0.73238285902E+03  0.46999998093E+01 0. -1.
</event>
<event>
 5   0  0.6688086E-05  0.1300018E+04  0.7818609E-02  0.9029551E-01
       -2   -1    0    0    0  501  0.00000000000E+00  0.00000000000E+00  0.26547231512E+03  0.26547231513E+03  0.25500000920E-02 0. -1.
        2   -1    0    0  501    0  0.00000000000E+00  0.00000000000E+00 -0.15915468707E+04  0.15915468707E+04  0.25500000920E-02 0.  1.
    10030    2    1    2    0    0  0.00000000000E+00  0.00000000000E+00 -0.13260745555E+04  0.18570191858E+04  0.13000178959E+04 0.  0.
        5    1    3    3  502    0 -0.16891070125E+03 -0.29903457044E+03 -0.14513292851E+04  0.14914192178E+04  0.46999998093E+01 0.  1.
       -5    1    3    3    0  502  0.16891070125E+03  0.29903457044E+03  0.12525472960E+03  0.36559996800E+03  0.46999998093E+01 0. -1.
</event>
<event>
 5   0  0.3718559E-05  0.1298609E+04  0.7818609E-02  0.9030669E-01
        1   -1    0    0  501    0  0.00000000000E+00  0.00000000000E+00  0.27377677495E+04  0.27377677495E+04  0.50400001928E-02 0. -1.
       -1   -1    0    0    0  501  0.00000000000E+00  0.00000000000E+00 -0.15399271454E+03  0.15399271462E+03  0.50400001928E-02 0.  1.
    10030    2    1    2    0    0  0.00000000000E+00  0.00000000000E+00  0.25837750350E+04  0.28917604641E+04  0.12986089291E+04 0.  0.
        2    1    3    3  502    0 -0.82234375350E+02 -0.63527622018E+03  0.10556151161E+04  0.12347718987E+04  0.25500000920E-02 0.  1.
       -2    1    3    3    0  502  0.82234375350E+02  0.63527622018E+03  0.15281599189E+04  0.16569885655E+04  0.25500000920E-02 0. -1.
</event>
<event>
 5   0  0.6671239E-05  0.1301305E+04  0.7818609E-02  0.9028531E-01
       -2   -1    0    0    0  501  0.00000000000E+00  0.00000000000E+00  0.78081556853E+03  0.78081556854E+03  0.25500000920E-02 0.  1.
        2   -1    0    0  501    0  0.00000000000E+00  0.00000000000E+00 -0.54218768246E+03  0.54218768247E+03  0.25500000920E-02 0. -1.
    10030    2    1    2    0    0  0.00000000000E+00  0.00000000000E+00  0.23862788607E+03  0.13230032510E+04  0.13013048583E+04 0.  0.
        1    1    3    3  502    0  0.35040496177E+03 -0.43824013144E+03 -0.21558810972E+03  0.60109590176E+03  0.50400001928E-02 0. -1.
       -1    1    3    3    0  502 -0.35040496177E+03  0.43824013144E+03  0.45421599579E+03  0.72190734924E+03  0.50400001928E-02 0.  1.
</event>
<event>
 5   0  0.3552698E-05  0.1300429E+04  0.7818609E-02  0.9029225E-01
        1   -1    0    0  501    0  0.00000000000E+00  0.00000000000E+00  0.43155692885E+03  0.43155692888E+03  0.50400001928E-02 0.  1.
       -1   -1    0    0    0  501  0.00000000000E+00  0.00000000000E+00 -0.97965920119E+03  0.97965920120E+03  0.50400001928E-02 0. -1.
    10030    2    1    2    0    0  0.00000000000E+00  0.00000000000E+00 -0.54810227235E+03  0.14112161301E+04  0.13004287235E+04 0.  0.
        5    1    3    3  502    0  0.21424865518E+02 -0.41320092747E+03  0.27023843259E+03  0.49421142416E+03  0.46999998093E+01 0.  1.
       -5    1    3    3    0  502 -0.21424865518E+02  0.41320092747E+03 -0.81834070493E+03  0.91700470592E+03  0.46999998093E+01 0. -1.
</event>
<event>
 5   0  0.2512000E-05  0.1301121E+04  0.7818609E-02  0.9028677E-01
        4   -1    0    0  501    0  0.00000000000E+00  0.00000000000E+00  0.14325570300E+04  0.14325575930E+04  0.12699999809E+01 0.  1.
       -4   -1    0    0    0  501  0.00000000000E+00  0.00000000000E+00 -0.29543414258E+03  0.29543687228E+03  0.12699999809E+01 0. -1.
    10030    2    1    2    0    0  0.00000000000E+00  0.00000000000E+00  0.11371228874E+04  0.17279944652E+04  0.13011212129E+04 0.  0.
        5    1    3    3  502    0 -0.52447028843E+03 -0.12897860803E+03  0.10501670217E+04  0.11809222786E+04  0.46999998093E+01 0.  1.
       -5    1    3    3    0  502  0.52447028843E+03  0.12897860803E+03  0.86955865770E+02  0.54707218661E+03  0.46999998093E+01 0. -1.
</event>
<event>
 5   0  0.6618060E-05  0.1297272E+04  0.7818609E-02  0.9031731E-01
        2   -1    0    0  501    0  0.00000000000E+00  0.00000000000E+00  0.12209656342E+04  0.12209656342E+04  0.25500000920E-02 0.  1.
       -2   -1    0    0    0  501  0.00000000000E+00  0.00000000000E+00 -0.34458685699E+03  0.34458685700E+03  0.25500000920E-02 0. -1.
    10030    2    1    2    0    0  0.00000000000E+00  0.00000000000E+00  0.87637877717E+03  0.15655524912E+04  0.12972720769E+04 0.  0.
        2    1    3    3  502    0 -0.50992880008E+03 -0.13949567503E+02  0.92167460454E+03  0.10534258627E+04  0.25500000920E-02 0. -1.
       -2    1    3    3    0  502  0.50992880008E+03  0.13949567503E+02 -0.45295827368E+02  0.51212662845E+03  0.25500000920E-02 0.  1.
</event>
<event>
 5   0  0.6618060E-05  0.1300043E+04  0.7818609E-02  0.9029531E-01
        2   -1    0    0  501    0  0.00000000000E+00  0.00000000000E+00  0.87361991031E+03  0.87361991031E+03  0.25500000920E-02 0.  1.
       -2   -1    0    0    0  501  0.00000000000E+00  0.00000000000E+00 -0.48365204974E+03  0.48365204974E+03  0.25500000920E-02 0. -1.
    10030    2    1    2    0    0  0.00000000000E+00  0.00000000000E+00  0.38996786057E+03  0.13572719601E+04  0.13000431690E+04 0.  0.
        2    1    3    3  502    0  0.36895422774E+03 -0.30227471571E+03  0.65604743036E+03  0.81110754947E+03  0.25500000920E-02 0.  1.
       -2    1    3    3    0  502 -0.36895422774E+03  0.30227471571E+03 -0.26607956979E+03  0.54616441058E+03  0.25500000920E-02 0. -1.
</event>
<event>
 5   0  0.6742824E-05  0.1298875E+04  0.7818609E-02  0.9030458E-01
       -2   -1    0    0    0  501  0.00000000000E+00  0.00000000000E+00  0.75406027382E+03  0.75406027382E+03  0.25500000920E-02 0. -1.
        2   -1    0    0  501    0  0.00000000000E+00  0.00000000000E+00 -0.55933096143E+03  0.55933096144E+03  0.25500000920E-02 0.  1.
    10030    2    1    2    0    0  0.00000000000E+00  0.00000000000E+00  0.19472931238E+03  0.13133912353E+04  0.12988752949E+04 0.  0.
        4    1    3    3  502    0 -0.51413289851E+03  0.39223533714E+03  0.15792089972E+03  0.66567395961E+03  0.12699999809E+01 0.  1.
       -4    1    3    3    0  502  0.51413289851E+03 -0.39223533714E+03  0.36808412666E+02  0.64771727565E+03  0.12699999809E+01 0. -1.
</event>
<event>
 5   0  0.6618060E-05  0.1299663E+04  0.7818609E-02  0.9029832E-01
       -2   -1    0    0    0  501  0.00000000000E+00  0.00000000000E+00  0.18688971992E+03  0.18688971994E+03  0.25500000920E-02 0. -1.
        2   -1    0    0  501    0  0.00000000000E+00  0.00000000000E+00 -0.22595204265E+04  0.22595204265E+04  0.25500000920E-02 0.  1.
    10030    2    1    2    0    0  0.00000000000E+00  0.00000000000E+00 -0.20726307066E+04  0.24464101465E+04  0.12996632482E+04 0.  0.
        2    1    3    3  502    0  0.91766929925E+02  0.10172890257E+03 -0.22320263636E+04  0.22362270964E+04  0.25500000920E-02 0.  1.
       -2    1    3    3    0  502 -0.91766929925E+02 -0.10172890257E+03  0.15939565699E+03  0.21018305003E+03  0.25500000920E-02 0. -1.
</event>
<event>
 5   0  0.6618060E-05  0.1299999E+04  0.7818609E-02  0.9029566E-01
       -2   -1    0    0    0  501  0.00000000000E+00  0.00000000000E+00  0.38456349061E+03  0.38456349062E+03  0.25500000920E-02 0.  1.
        2   -1    0    0  501    0  0.00000000000E+00  0.00000000000E+00 -0.10986460300E+04  0.10986460300E+04  0.25500000920E-02 0. -1.
    10030    2    1    2    0    0  0.00000000000E+00  0.00000000000E+00 -0.71408253942E+03  0.14832095206E+04  0.12999986958E+04 0.  0.
        2    1    3    3  502    0 -0.41660684754E+03 -0.39766606854E+03 -0.13244715803E+02  0.57608592240E+03  0.25500000920E-02 0.  1.
       -2    1    3    3    0  502  0.41660684754E+03  0.39766606854E+03 -0.70083782362E+03  0.90712359825E+03  0.25500000920E-02 0. -1.
</event>
<event>
 5   0  0.6458698E-05  0.1300107E+04  0.7818609E-02  0.9029480E-01
        2   -1    0    0  501    0  0.00000000000E+00  0.00000000000E+00  0.94172890209E+03  0.94172890209E+03  0.25500000920E-02 0. -1.
       -2   -1    0    0    0  501  0.00000000000E+00  0.00000000000E+00 -0.44871679570E+03  0.44871679570E+03  0.25500000920E-02 0.  1.
    10030    2    1    2    0    0  0.00000000000E+00  0.00000000000E+00  0.49301210639E+03  0.13904456978E+04  0.13001070346E+04 0.  0.
        3    1    3    3  502    0 -0.15833524783E+03  0.60057800758E+03  0.45168448492E+03  0.76797322741E+03  0.10100000352E+00 0.  1.
       -3    1    3    3    0  502  0.15833524783E+03 -0.60057800758E+03  0.41327621476E+02  0.62247247039E+03  0.10100000352E+00 0. -1.
</event>
<event>
 5   0  0.3551277E-05  0.1300015E+04  0.7818609E-02  0.9029553E-01
        1   -1    0    0  501    0  0.00000000000E+00  0.00000000000E+00  0.55375602809E+03  0.55375602811E+03  0.50400001928E-02 0.  1.
       -1   -1    0    0    0  501  0.00000000000E+00  0.00000000000E+00 -0.76298937643E+03  0.76298937645E+03  0.50400001928E-02 0. -1.
    10030    2    1    2    0    0  0.00000000000E+00  0.00000000000E+00 -0.20923334835E+03  0.13167454046E+04  0.13000153331E+04 0.  0.
        4    1    3    3  502    0  0.81943736036E+02  0.46152187130E+03  0.35150197047E+03  0.58589458242E+03  0.12699999809E+01 0.  1.
       -4    1    3    3    0  502 -0.81943736036E+02 -0.46152187130E+03 -0.56073531881E+03  0.73085082214E+03  0.12699999809E+01 0. -1.
</event>
<event>
 5   0  0.3689707E-05  0.1299830E+04  0.7818609E-02  0.9029700E-01
       -1   -1    0    0    0  501  0.00000000000E+00  0.00000000000E+00  0.31089064796E+03  0.31089064800E+03  0.50400001928E-02 0. -1.
        1   -1    0    0  501    0  0.00000000000E+00  0.00000000000E+00 -0.13586438614E+04  0.13586438614E+04  0.50400001928E-02 0.  1.
    10030    2    1    2    0    0  0.00000000000E+00  0.00000000000E+00 -0.10477532134E+04  0.16695345094E+04  0.12998302511E+04 0.  0.
        1    1    3    3  502    0  0.59675497271E+02 -0.25592612592E+02 -0.13544672346E+04  0.13560227271E+04  0.50400001928E-02 0.  1.
       -1    1    3    3    0  502 -0.59675497271E+02  0.25592612592E+02  0.30671402120E+03  0.31351178227E+03  0.50400001928E-02 0. -1.
</event>
<event>
 5   0  0.3631841E-05  0.1299953E+04  0.7818609E-02  0.9029602E-01
        1   -1    0    0  501    0  0.00000000000E+00  0.00000000000E+00  0.77756430968E+03  0.77756430970E+03  0.50400001928E-02 0.  1.
       -1   -1    0    0    0  501  0.00000000000E+00  0.00000000000E+00 -0.54332445681E+03  0.54332445683E+03  0.50400001928E-02 0. -1.
    10030    2    1    2    0    0  0.00000000000E+00  0.00000000000E+00  0.23423985287E+03  0.13208887665E+04  0.12999533934E+04 0.  0.
        3    1    3    3  502    0 -0.15633154336E+03 -0.73487282325E+01  0.75813314133E+03  0.77411848282E+03  0.10100000352E+00 0.  1.
       -3    1    3    3    0  502  0.15633154336E+03  0.73487282325E+01 -0.52389328846E+03  0.54677028371E+03  0.10100000352E+00 0. -1.
</event>
<event>
 5   0  0.3718559E-05  0.1300006E+04  0.7818609E-02  0.9029561E-01
        1   -1    0    0  501    0  0.00000000000E+00  0.00000000000E+00  0.10350106163E+04  0.10350106163E+04  0.50400001928E-02 0.  1.
       -1   -1    0    0    0  501  0.00000000000E+00  0.00000000000E+00 -0.40821183625E+03  0.40821183628E+03  0.50400001928E-02 0. -1.
    10030    2    1    2    0    0  0.00000000000E+00  0.00000000000E+00  0.62679878005E+03  0.14432224526E+04  0.13000055142E+04 0.  0.
        2    1    3    3  502    0  0.40431787144E+03 -0.38855580822E+03 -0.51531452922E+02  0.56311992321E+03  0.25500000920E-02 0. -1.
       -2    1    3    3    0  502 -0.40431787144E+03  0.38855580822E+03  0.67833023297E+03  0.88010252938E+03  0.25500000920E-02 0.  1.
</event>
<event>
 5   0  0.3689707E-05  0.1300121E+04  0.7818609E-02  0.9029469E-01
        1   -1    0    0  501    0  0.00000000000E+00  0.00000000000E+00  0.54872221137E+03  0.54872221140E+03  0.50400001928E-02 0.  1.
       -1   -1    0    0    0  501  0.00000000000E+00  0.00000000000E+00 -0.77011369158E+03  0.77011369160E+03  0.50400001928E-02 0. -1.
    10030    2    1    2    0    0  0.00000000000E+00  0.00000000000E+00 -0.22139148021E+03  0.13188359030E+04  0.13001207450E+04 0.  0.
        1    1    3    3  502    0  0.47446944952E+02  0.47574750117E+03  0.33608919944E+03  0.58441667281E+03  0.50400001928E-02 0.  1.
       -1    1    3    3    0  502 -0.47446944952E+02 -0.47574750117E+03 -0.55748067965E+03  0.73441923018E+03  0.50400001928E-02 0. -1.
</event>
<event>
 5   0  0.6742824E-05  0.1299902E+04  0.7818609E-02  0.9029643E-01
       -2   -1    0    0    0  501  0.00000000000E+00  0.00000000000E+00  0.53070855827E+03  0.53070855828E+03  0.25500000920E-02 0.  1.
        2   -1    0    0  501    0  0.00000000000E+00  0.00000000000E+00 -0.79598589423E+03  0.79598589423E+03  0.25500000920E-02 0. -1.
    10030    2    1    2    0    0  0.00000000000E+00  0.00000000000E+00 -0.26527733596E+03  0.13266944525E+04  0.12999023445E+04 0.  0.
        4    1    3    3  502    0 -0.13863147857E+03  0.66778177894E+02  0.51184852626E+03  0.53447968963E+03  0.12699999809E+01 0.  1.
       -4    1    3    3    0  502  0.13863147857E+03 -0.66778177894E+02 -0.77712586222E+03  0.79221476288E+03  0.12699999809E+01 0. -1.
</event>
<event>
 5   0  0.6742824E-05  0.1300781E+04  0.7818609E-02  0.9028946E-01
        2   -1    0    0  501    0  0.00000000000E+00  0.00000000000E+00  0.92432122678E+03  0.92432122679E+03  0.25500000920E-02 0.  1.
       -2   -1    0    0    0  501  0.00000000000E+00  0.00000000000E+00 -0.45764156847E+03  0.45764156848E+03  0.25500000920E-02 0. -1.
    10030    2    1    2    0    0  0.00000000000E+00  0.00000000000E+00  0.46667965831E+03  0.13819627953E+04  0.13007810208E+04 0.  0.
        4    1    3    3  502    0 -0.30796663865E+03  0.32550857502E+03  0.73414747381E+03  0.86010081336E+03  0.12699999809E+01 0. -1.
       -4    1    3    3    0  502  0.30796663865E+03 -0.32550857502E+03 -0.26746781550E+03  0.52186198191E+03  0.12699999809E+01 0.  1.
</event>
<event>
 5   0  0.6618060E-05  0.1299397E+04  0.7818609E-02  0.9030043E-01
       -2   -1    0    0    0  501  0.00000000000E+00  0.00000000000E+00  0.86920140326E+03  0.86920140326E+03  0.25500000920E-02 0. -1.
        2   -1    0    0  501    0  0.00000000000E+00  0.00000000000E+00 -0.48562767337E+03  0.48562767337E+03  0.25500000920E-02 0.  1.
    10030    2    1    2    0    0  0.00000000000E+00  0.00000000000E+00  0.38357372989E+03  0.13548290766E+04  0.12993971759E+04 0.  0.
        2    1    3    3  502    0 -0.57040083801E+03  0.14271544746E+03 -0.96378776257E+02  0.59583024719E+03  0.25500000920E-02 0.  1.
       -2    1    3    3    0  502  0.57040083801E+03 -0.14271544746E+03  0.47995250615E+03  0.75899882945E+03  0.25500000920E-02 0. -1.
</event>
<event>
 5   0  0.3552698E-05  0.1299944E+04  0.7818609E-02  0.9029610E-01
       -1   -1    0    0    0  501  0.00000000000E+00  0.00000000000E+00  0.31151083197E+03  0.31151083201E+03  0.50400001928E-02 0. -1.
        1   -1    0    0  501    0  0.00000000000E+00  0.00000000000E+00 -0.13561760457E+04  0.13561760457E+04  0.50400001928E-02 0.  1.
    10030    2    1    2    0    0  0.00000000000E+00  0.00000000000E+00 -0.10446652137E+04  0.16676868777E+04  0.12999438885E+04 0.  0.
        5    1    3    3  502    0 -0.20630042364E+03  0.34742173450E+03 -0.11754487318E+04  0.12429656220E+04  0.46999998093E+01 0.  1.
       -5    1    3    3    0  502  0.20630042364E+03 -0.34742173450E+03  0.13078351813E+03  0.42472125566E+03  0.46999998093E+01 0. -1.
</event>
<event>
 5   0  0.3551277E-05  0.1300111E+04  0.7818609E-02  0.9029477E-01
        1   -1    0    0  501    0  0.00000000000E+00  0.00000000000E+00  0.10378055966E+04  0.10378055966E+04  0.50400001928E-02 0. -1.
       -1   -1    0    0    0  501  0.00000000000E+00  0.00000000000E+00 -0.40717842380E+03  0.40717842383E+03  0.50400001928E-02 0.  1.
    10030    2    1    2    0    0  0.00000000000E+00  0.00000000000E+00  0.63062717280E+03  0.14449840204E+04  0.13001108369E+04 0.  0.
        4    1    3    3  502    0 -0.89107560967E+02 -0.60539030261E+03  0.71474404776E+02  0.61607449172E+03  0.12699999809E+01 0.  1.
       -4    1    3    3    0  502  0.89107560967E+02  0.60539030261E+03  0.55915276803E+03  0.82890952872E+03  0.12699999809E+01 0. -1.
</event>
<event>
 5   0  0.3631841E-05  0.1298834E+04  0.7818609E-02  0.9030491E-01
        1   -1    0    0  501    0  0.00000000000E+00  0.00000000000E+00  0.10310056000E+04  0.10310056000E+04  0.50400001928E-02 0. -1.
       -1   -1    0    0    0  501  0.00000000000E+00  0.00000000000E+00 -0.40905902244E+03  0.40905902247E+03  0.50400001928E-02 0.  1.
    10030    2    1    2    0    0  0.00000000000E+00  0.00000000000E+00  0.62194657755E+03  0.14400646225E+04  0.12988335427E+04 0.  0.
        3    1    3    3  502    0  0.43039473631E+03  0.48488268707E+03  0.26961750170E+03  0.70217124456E+03  0.10100000352E+00 0.  1.
       -3    1    3    3    0  502 -0.43039473631E+03 -0.48488268707E+03  0.35232907585E+03  0.73789337790E+03  0.10100000352E+00 0. -1.
</event>
<event>
 5   0  0.2512000E-05  0.1300358E+04  0.7818609E-02  0.9029282E-01
       -3   -1    0    0    0  501  0.00000000000E+00  0.00000000000E+00  0.32484799132E+03  0.32484800702E+03  0.10100000352E+00 0.  1.
        3   -1    0    0  501    0  0.00000000000E+00  0.00000000000E+00 -0.13013237515E+04  0.13013237554E+04  0.10100000352E+00 0. -1.
    10030    2    1    2    0    0  0.00000000000E+00  0.00000000000E+00 -0.97647576017E+03  0.16261717624E+04  0.13003575242E+04 0.  0.
        3    1    3    3  502    0  0.36633053587E+02 -0.75833245377E+02  0.31799810521E+03  0.32896119352E+03  0.10100000352E+00 0.  1.
       -3    1    3    3    0  502 -0.36633053587E+02  0.75833245377E+02 -0.12944738654E+04  0.12972105689E+04  0.10100000352E+00 0. -1.
</event>
<event>
 5   0  0.3551277E-05  0.1300926E+04  0.7818609E-02  0.9028831E-01
       -1   -1    0    0    0  501  0.00000000000E+00  0.00000000000E+00  0.17439227191E+03  0.17439227198E+03  0.50400001928E-02 0.  1.
        1   -1    0    0  501    0  0.00000000000E+00  0.00000000000E+00 -0.24261535589E+04  0.24261535589E+04  0.50400001928E-02 0. -1.
    10030    2    1    2    0    0  0.00000000000E+00  0.00000000000E+00 -0.22517612870E+04  0.26005458309E+04  0.13009264871E+04 0.  0.
        4    1    3    3  502    0  0.36507062677E+03  0.30320825916E+03 -0.20151280166E+04  0.20702546576E+04  0.12699999809E+01 0. -1.
       -4    1    3    3    0  502 -0.36507062677E+03 -0.30320825916E+03 -0.23663327038E+03  0.53029117332E+03  0.12699999809E+01 0.  1.
</event>
<event>
 5   0  0.3551277E-05  0.1300387E+04  0.7818609E-02  0.9029258E-01
       -1   -1    0    0    0  501  0.00000000000E+00  0.00000000000E+00  0.46226408465E+03  0.46226408468E+03  0.50400001928E-02 0.  1.
        1   -1    0    0  501    0  0.00000000000E+00  0.00000000000E+00 -0.91452405919E+03  0.91452405920E+03  0.50400001928E-02 0. -1.
    10030    2    1    2    0    0  0.00000000000E+00  0.00000000000E+00 -0.45225997454E+03  0.13767881439E+04  0.13003870611E+04 0.  0.
        4    1    3    3  502    0  0.25305505551E+03  0.10556643081E+02 -0.86014662718E+03  0.89666166249E+03  0.12699999809E+01 0. -1.
       -4    1    3    3    0  502 -0.25305505551E+03 -0.10556643081E+02  0.40788665264E+03  0.48012648139E+03  0.12699999809E+01 0.  1.
</event>
<event>
 5   0  0.6671239E-05  0.1300797E+04  0.7818609E-02  0.9028934E-01
        2   -1    0    0  501    0  0.00000000000E+00  0.00000000000E+00  0.11181536934E+04  0.11181536934E+04  0.25500000920E-02 0. -1.
       -2   -1    0    0    0  501  0.00000000000E+00  0.00000000000E+00 -0.37831828190E+03  0.37831828191E+03  0.25500000920E-02 0.  1.
    10030    2    1    2    0    0  0.00000000000E+00  0.00000000000E+00  0.73983541149E+03  0.14964719753E+04  0.13007966547E+04 0.  0.
        1    1    3    3  502    0  0.22502895842E+02 -0.77997486140E+02  0.11123026168E+04  0.11152610006E+04  0.50400001928E-02 0. -1.
       -1    1    3    3    0  502 -0.22502895842E+02  0.77997486140E+02 -0.37246720530E+03  0.38121097468E+03  0.50400001928E-02 0.  1.
</event>
<event>
 5   0  0.6618060E-05  0.1300033E+04  0.7818609E-02  0.9029539E-01
        2   -1    0    0  501    0  0.00000000000E+00  0.00000000000E+00  0.13801334334E+04  0.13801334334E+04  0.25500000920E-02 0. -1.
       -2   -1    0    0    0  501  0.00000000000E+00  0.00000000000E+00 -0.30614554262E+03  0.30614554263E+03  0.25500000920E-02 0.  1.
    10030    2    1    2    0    0  0.00000000000E+00  0.00000000000E+00  0.10739878908E+04  0.16862789760E+04  0.13000333824E+04 0.  0.
        2    1    3    3  502    0  0.84412107137E+01 -0.48798016839E+03  0.10938821060E+04  0.11978205043E+04  0.25500000920E-02 0. -1.
       -2    1    3    3    0  502 -0.84412107137E+01  0.48798016839E+03 -0.19894215192E+02  0.48845847171E+03  0.25500000920E-02 0.  1.
</event>
<event>
 5   0  0.6458698E-05  0.1300546E+04  0.7818609E-02  0.9029132E-01
       -2   -1    0    0    0  501  0.00000000000E+00  0.00000000000E+00  0.46508932426E+03  0.46508932427E+03  0.25500000920E-02 0.  1.
        2   -1    0    0  501    0  0.00000000000E+00  0.00000000000E+00 -0.90919122529E+03  0.90919122530E+03  0.25500000920E-02 0. -1.
    10030    2    1    2    0    0  0.00000000000E+00  0.00000000000E+00 -0.44410190103E+03  0.13742805496E+04  0.13005462431E+04 0.  0.
        3    1    3    3  502    0 -0.50095863426E+03 -0.24682692723E+02 -0.65938265018E+03  0.82846501322E+03  0.10100000352E+00 0. -1.
       -3    1    3    3    0  502  0.50095863426E+03  0.24682692723E+02  0.21528074915E+03  0.54581553635E+03  0.10100000352E+00 0.  1.
</event>
<event>
 5   0  0.6688086E-05  0.1300152E+04  0.7818609E-02  0.9029444E-01
       -2   -1    0    0    0  501  0.00000000000E+00  0.00000000000E+00  0.42645228303E+03  0.42645228304E+03  0.25500000920E-02 0. -1.
        2   -1    0    0  501    0  0.00000000000E+00  0.00000000000E+00 -0.99096429841E+03  0.99096429841E+03  0.25500000920E-02 0.  1.
    10030    2    1    2    0    0  0.00000000000E+00  0.00000000000E+00 -0.56451201538E+03  0.14174165815E+04  0.13001522795E+04 0.  0.
        5    1    3    3  502    0  0.45409254597E+03 -0.45423332096E+03 -0.17297024904E+03  0.66518324335E+03  0.46999998093E+01 0. -1.
       -5    1    3    3    0  502 -0.45409254597E+03  0.45423332096E+03 -0.39154176633E+03  0.75223333811E+03  0.46999998093E+01 0.  1.
</event>
<event>
 5   0  0.3552698E-05  0.1300288E+04  0.7818609E-02  0.9029337E-01
        1   -1    0    0  501    0  0.00000000000E+00  0.00000000000E+00  0.82737270595E+03  0.82737270597E+03  0.50400001928E-02 0.  1.
       -1   -1    0    0    0  501  0.00000000000E+00  0.00000000000E+00 -0.51087899486E+03  0.51087899488E+03  0.50400001928E-02 0. -1.
    10030    2    1    2    0    0  0.00000000000E+00  0.00000000000E+00  0.31649371109E+03  0.13382517008E+04  0.13002881779E+04 0.  0.
        5    1    3    3  502    0  0.43954123634E+03  0.40898279360E+03 -0.98437703815E+02  0.60842049229E+03  0.46999998093E+01 0. -1.
       -5    1    3    3    0  502 -0.43954123634E+03 -0.40898279360E+03  0.41493141491E+03  0.72983120856E+03  0.46999998093E+01 0.  1.
</event>
<event>
 5   0  0.3718559E-05  0.1300360E+04  0.7818609E-02  0.9029280E-01
       -1   -1    0    0    0  501  0.00000000000E+00  0.00000000000E+00  0.11591694200E+04  0.11591694200E+04  0.50400001928E-02 0.  1.
        1   -1    0    0  501    0  0.00000000000E+00  0.00000000000E+00 -0.36468716898E+03  0.36468716902E+03  0.50400001928E-02 0. -1.
    10030    2    1    2    0    0  0.00000000000E+00  0.00000000000E+00  0.79448225105E+03  0.15238565891E+04  0.13003602796E+04 0.  0.
        2    1    3    3  502    0 -0.42236360811E+03 -0.19270812638E+03  0.93067719417E+03  0.10400420564E+04  0.25500000920E-02 0.  1.
       -2    1    3    3    0  502  0.42236360811E+03  0.19270812638E+03 -0.13619494312E+03  0.48381453261E+03  0.25500000920E-02 0. -1.
</event>
<event>
 5   0  0.3552698E-05  0.1299480E+04  0.7818609E-02  0.9029978E-01
        1   -1    0    0  501    0  0.00000000000E+00  0.00000000000E+00  0.80186780639E+03  0.80186780641E+03  0.50400001928E-02 0. -1.
       -1   -1    0    0    0  501  0.00000000000E+00  0.00000000000E+00 -0.52647303250E+03  0.52647303252E+03  0.50400001928E-02 0.  1.
    10030    2    1    2    0    0  0.00000000000E+00  0.00000000000E+00  0.27539477389E+03  0.13283408389E+04  0.12994795508E+04 0.  0.
        5    1    3    3  502    0 -0.56646018209E+03 -0.19318022205E+03 -0.12079026664E+03  0.61058014592E+03  0.46999998093E+01 0.  1.
       -5    1    3    3    0  502  0.56646018209E+03  0.19318022205E+03  0.39618504053E+03  0.71776069300E+03  0.46999998093E+01 0. -1.
</event>
<event>
 5   0  0.6618060E-05  0.1300104E+04  0.7818609E-02  0.9029483E-01
       -2   -1    0    0    0  501  0.00000000000E+00  0.00000000000E+00  0.39656231170E+03  0.39656231171E+03  0.25500000920E-02 0. -1.
        2   -1    0    0  501    0  0.00000000000E+00  0.00000000000E+00 -0.10655769633E+04  0.10655769633E+04  0.25500000920E-02 0.  1.
    10030    2    1    2    0    0  0.00000000000E+00  0.00000000000E+00 -0.66901465156E+03  0.14621392750E+04  0.13001040941E+04 0.  0.
        2    1    3    3  502    0 -0.14465245686E+03 -0.11614009847E+03 -0.10351766467E+04  0.10516670317E+04  0.25500000920E-02 0.  1.
       -2    1    3    3    0  502  0.14465245686E+03  0.11614009847E+03  0.36616199516E+03  0.41047224322E+03  0.25500000920E-02 0. -1.
</event>
<event>
 5   0  0.6671239E-05  0.1300077E+04  0.7818609E-02  0.9029504E-01
       -2   -1    0    0    0  501  0.00000000000E+00  0.00000000000E+00  0.87424870065E+03  0.87424870066E+03  0.25500000920E-02 0.  1.
        2   -1    0    0  501    0  0.00000000000E+00  0.00000000000E+00 -0.48332922037E+03  0.48332922038E+03  0.25500000920E-02 0. -1.
    10030    2    1    2    0    0  0.00000000000E+00  0.00000000000E+00  0.39091948028E+03  0.13575779210E+04  0.13000768330E+04 0.  0.
        1    1    3    3  502    0 -0.46967750422E+03 -0.44514656312E+03  0.25980934888E+03  0.69731866347E+03  0.50400001928E-02 0.  1.
       -1    1    3    3    0  502  0.46967750422E+03  0.44514656312E+03  0.13111013140E+03  0.66025925757E+03  0.50400001928E-02 0. -1.
</event>
<event>
 5   0  0.6671239E-05  0.1299322E+04  0.7818609E-02  0.9030103E-01
        2   -1    0    0  501    0  0.00000000000E+00  0.00000000000E+00  0.77098883120E+03  0.77098883120E+03  0.25500000920E-02 0.  1.
       -2   -1    0    0    0  501  0.00000000000E+00  0.00000000000E+00 -0.54742630934E+03  0.54742630935E+03  0.25500000920E-02 0. -1.
    10030    2    1    2    0    0  0.00000000000E+00  0.00000000000E+00  0.22356252186E+03  0.13184151406E+04  0.12993222393E+04 0.  0.
        1    1    3    3  502    0 -0.24482195562E+03 -0.20295144535E+03 -0.46305234975E+03  0.56173352914E+03  0.50400001928E-02 0. -1.
       -1    1    3    3    0  502  0.24482195562E+03  0.20295144535E+03  0.68661487160E+03  0.75668161142E+03  0.50400001928E-02 0.  1.
</event>
<event>
 5   0  0.6458698E-05  0.1299828E+04  0.7818609E-02  0.9029702E-01
        2   -1    0    0  501    0  0.00000000000E+00  0.00000000000E+00  0.24931446039E+04  0.24931446039E+04  0.25500000920E-02 0. -1.
       -2   -1    0    0    0  501  0.00000000000E+00  0.00000000000E+00 -0.16941985315E+03  0.16941985317E+03  0.25500000920E-02 0.  1.
    10030    2    1    2    0    0  0.00000000000E+00  0.00000000000E+00  0.23237247508E+04  0.26625644571E+04  0.12998279774E+04 0.  0.
        3    1    3    3  502    0  0.32391842397E+02  0.52504480782E+03  0.38006413248E+03  0.64897614492E+03  0.10100000352E+00 0.  1.
       -3    1    3    3    0  502 -0.32391842397E+02 -0.52504480782E+03  0.19436606183E+04  0.20135883122E+04  0.10100000352E+00 0. -1.
</event>
<event>
 5   0  0.3551277E-05  0.1299300E+04  0.7818609E-02  0.9030121E-01
        1   -1    0    0  501    0  0.00000000000E+00  0.00000000000E+00  0.16455809440E+04  0.16455809440E+04  0.50400001928E-02 0. -1.
       -1   -1    0    0    0  501  0.00000000000E+00  0.00000000000E+00 -0.25647173616E+03  0.25647173621E+03  0.50400001928E-02 0.  1.
    10030    2    1    2    0    0  0.00000000000E+00  0.00000000000E+00  0.13891092078E+04  0.19020526802E+04  0.12992998141E+04 0.  0.
        4    1    3    3  502    0 -0.44698336539E+02 -0.62171875866E+03  0.42657091157E+03  0.75531219483E+03  0.12699999809E+01 0.  1.
       -4    1    3    3    0  502  0.44698336539E+02  0.62171875866E+03  0.96253829623E+03  0.11467404854E+04  0.12699999809E+01 0. -1.
</event>
<event>
 5   0  0.6458698E-05  0.1300449E+04  0.7818609E-02  0.9029210E-01
       -2   -1    0    0    0  501  0.00000000000E+00  0.00000000000E+00  0.84376116444E+03  0.84376116445E+03  0.25500000920E-02 0.  1.
        2   -1    0    0  501    0  0.00000000000E+00  0.00000000000E+00 -0.50107972601E+03  0.50107972601E+03  0.25500000920E-02 0. -1.
    10030    2    1    2    0    0  0.00000000000E+00  0.00000000000E+00  0.34268143844E+03  0.13448408905E+04  0.13004485582E+04 0.  0.
        3    1    3    3  502    0  0.54899720291E+03 -0.10666774743E+03  0.51434930716E+03  0.75982310910E+03  0.10100000352E+00 0.  1.
       -3    1    3    3    0  502 -0.54899720291E+03  0.10666774743E+03 -0.17166786873E+03  0.58501778136E+03  0.10100000352E+00 0. -1.
</event>
<event>
 5   0  0.3718559E-05  0.1299232E+04  0.7818609E-02  0.9030174E-01
        1   -1    0    0  501    0  0.00000000000E+00  0.00000000000E+00  0.54131676728E+03  0.54131676730E+03  0.50400001928E-02 0. -1.
       -1   -1    0    0    0  501  0.00000000000E+00  0.00000000000E+00 -0.77958259141E+03  0.77958259143E+03  0.50400001928E-02 0.  1.
    10030    2    1    2    0    0  0.00000000000E+00  0.00000000000E+00 -0.23826582413E+03  0.13208993587E+04  0.12992322783E+04 0.  0.
        2    1    3    3  502    0  0.34106303965E+03  0.33859466704E+03 -0.56349255095E+03  0.74060394310E+03  0.25500000920E-02 0.  1.
       -2    1    3    3    0  502 -0.34106303965E+03 -0.33859466704E+03  0.32522672681E+03  0.58029541563E+03  0.25500000920E-02 0. -1.
</event>
<event>
 5   0  0.6688086E-05  0.1299532E+04  0.7818609E-02  0.9029936E-01
       -2   -1    0    0    0  501  0.00000000000E+00  0.00000000000E+00  0.19101655789E+03  0.19101655791E+03  0.25500000920E-02 0. -1.
        2   -1    0    0  501    0  0.00000000000E+00  0.00000000000E+00 -0.22102584744E+04  0.22102584744E+04  0.25500000920E-02 0.  1.
    10030    2    1    2    0    0  0.00000000000E+00  0.00000000000E+00 -0.20192419165E+04  0.24012750323E+04  0.12995321710E+04 0.  0.
        5    1    3    3  502    0 -0.15367347154E+03  0.16560383315E+03 -0.21353142336E+04  0.21472375583E+04  0.46999998093E+01 0.  1.
       -5    1    3    3    0  502  0.15367347154E+03 -0.16560383315E+03  0.11607231712E+03  0.25403747402E+03  0.46999998093E+01 0. -1.
</event>
<event>
 5   0  0.6458698E-05  0.1300832E+04  0.7818609E-02  0.9028905E-01
       -2   -1    0    0    0  501  0.00000000000E+00  0.00000000000E+00  0.13537096782E+03  0.13537096784E+03  0.25500000920E-02 0.  1.
        2   -1    0    0  501    0  0.00000000000E+00  0.00000000000E+00 -0.31250517790E+04  0.31250517790E+04  0.25500000920E-02 0. -1.
    10030    2    1    2    0    0  0.00000000000E+00  0.00000000000E+00 -0.29896808112E+04  0.32604227469E+04  0.13008324778E+04 0.  0.
        3    1    3    3  502    0 -0.44372655293E+03 -0.35685740343E+03 -0.22826709295E+04  0.23526213131E+04  0.10100000352E+00 0.  1.
       -3    1    3    3    0  502  0.44372655293E+03  0.35685740343E+03 -0.70700988168E+03  0.90780143377E+03  0.10100000352E+00 0. -1.
</event>
<event>
 5   0  0.3718559E-05  0.1300294E+04  0.7818609E-02  0.9029332E-01
       -1   -1    0    0    0  501  0.00000000000E+00  0.00000000000E+00  0.11866918553E+04  0.11866918553E+04  0.50400001928E-02 0. -1.
        1   -1    0    0  501    0  0.00000000000E+00  0.00000000000E+00 -0.35619281059E+03  0.35619281063E+03  0.50400001928E-02 0.  1.
    10030    2    1    2    0    0  0.00000000000E+00  0.00000000000E+00  0.83049904470E+03  0.15428846659E+04  0.13002939780E+04 0.  0.
        2    1    3    3  502    0 -0.37561783188E+03  0.26834530822E+03 -0.12797635633E+03  0.47903643688E+03  0.25500000920E-02 0.  1.
       -2    1    3    3    0  502  0.37561783188E+03 -0.26834530822E+03  0.95847540103E+03  0.10638482290E+04  0.25500000920E-02 0. -1.
</event>
<event>
 5   0  0.3718559E-05  0.1300151E+04  0.7818609E-02  0.9029445E-01
        1   -1    0    0  501    0  0.00000000000E+00  0.00000000000E+00  0.80790482959E+03  0.80790482960E+03  0.50400001928E-02 0.  1.
       -1   -1    0    0    0  501  0.00000000000E+00  0.00000000000E+00 -0.52307930482E+03  0.52307930485E+03  0.50400001928E-02 0. -1.
    10030    2    1    2    0    0  0.00000000000E+00  0.00000000000E+00  0.28482552476E+03  0.13309841344E+04  0.13001512168E+04 0.  0.
        2    1    3    3  502    0  0.32729267262E+03 -0.26366378962E+03 -0.36529120346E+03  0.55684535630E+03  0.25500000920E-02 0. -1.
       -2    1    3    3    0  502 -0.32729267262E+03  0.26366378962E+03  0.65011672822E+03  0.77413877815E+03  0.25500000920E-02 0.  1.
</event>
<event>
 5   0  0.3552698E-05  0.1297860E+04  0.7818609E-02  0.9031264E-01
        1   -1    0    0  501    0  0.00000000000E+00  0.00000000000E+00  0.76694524027E+03  0.76694524029E+03  0.50400001928E-02 0.  1.
       -1   -1    0    0    0  501  0.00000000000E+00  0.00000000000E+00 -0.54907443562E+03  0.54907443564E+03  0.50400001928E-02 0. -1.
    10030    2    1    2    0    0  0.00000000000E+00  0.00000000000E+00  0.21787080465E+03  0.13160196759E+04  0.12978598152E+04 0.  0.
        5    1    3    3  502    0  0.12708055183E+03  0.10974622508E+03 -0.52664782003E+03  0.55278722571E+03  0.46999998093E+01 0. -1.
       -5    1    3    3    0  502 -0.12708055183E+03 -0.10974622508E+03  0.74451862468E+03  0.76323245022E+03  0.46999998093E+01 0.  1.
</event>
<event>
 5   0  0.6618060E-05  0.1300395E+04  0.7818609E-02  0.9029252E-01
        2   -1    0    0  501    0  0.00000000000E+00  0.00000000000E+00  0.21590807304E+04  0.21590807304E+04  0.25500000920E-02 0. -1.
       -2   -1    0    0    0  501  0.00000000000E+00  0.00000000000E+00 -0.19580393393E+03  0.19580393394E+03  0.25500000920E-02 0.  1.
    10030    2    1    2    0    0  0.00000000000E+00  0.00000000000E+00  0.19632767965E+04  0.23548846644E+04  0.13003945566E+04 0.  0.
        2    1    3    3  502    0  0.16327722381E+03  0.10186903031E+03 -0.14304539408E+03  0.23978894037E+03  0.25500000920E-02 0.  1.
       -2    1    3    3    0  502 -0.16327722381E+03 -0.10186903031E+03  0.21063221906E+04  0.21150957240E+04  0.25500000920E-02 0. -1.
</event>
<event>
 5   0  0.6618060E-05  0.1299734E+04  0.7818609E-02  0.9029776E-01
        2   -1    0    0  501    0  0.00000000000E+00  0.00000000000E+00  0.17700717868E+04  0.17700717868E+04  0.25500000920E-02 0. -1.
       -2   -1    0    0    0  501  0.00000000000E+00  0.00000000000E+00 -0.23859322514E+03  0.23859322516E+03  0.25500000920E-02 0.  1.
    10030    2    1    2    0    0  0.00000000000E+00  0.00000000000E+00  0.15314785617E+04  0.20086650120E+04  0.12997340287E+04 0.  0.
        2    1    3    3  502    0  0.24148164659E+03  0.28950471133E+03 -0.52325488455E+02  0.38061045738E+03  0.25500000920E-02 0.  1.
       -2    1    3    3    0  502 -0.24148164659E+03 -0.28950471133E+03  0.15838040501E+04  0.16280545546E+04  0.25500000920E-02 0. -1.
</event>
<event>
 5   0  0.3631841E-05  0.1301881E+04  0.7818609E-02  0.9028075E-01
       -1   -1    0    0    0  501  0.00000000000E+00  0.00000000000E+00  0.63579585099E+03  0.63579585101E+03  0.50400001928E-02 0.  1.
        1   -1    0    0  501    0  0.00000000000E+00  0.00000000000E+00 -0.66644603212E+03  0.66644603214E+03  0.50400001928E-02 0. -1.
    10030    2    1    2    0    0  0.00000000000E+00  0.00000000000E+00 -0.30650181125E+02  0.13022418832E+04  0.13018811346E+04 0.  0.
        3    1    3    3  502    0  0.16990684948E+03  0.62490366863E+03 -0.81303047899E+02  0.65267383000E+03  0.10100000352E+00 0.  1.
       -3    1    3    3    0  502 -0.16990684948E+03 -0.62490366863E+03  0.50652866774E+02  0.64956805315E+03  0.10100000352E+00 0. -1.
</event>
<event>
 5   0  0.6742824E-05  0.1299927E+04  0.7818609E-02  0.9029623E-01
       -2   -1    0    0    0  501  0.00000000000E+00  0.00000000000E+00  0.22547133546E+03  0.22547133548E+03  0.25500000920E-02 0.  1.
        2   -1    0    0  501    0  0.00000000000E+00  0.00000000000E+00 -0.18736430835E+04  0.18736430835E+04  0.25500000920E-02 0. -1.
    10030    2    1    2    0    0  0.00000000000E+00  0.00000000000E+00 -0.16481717481E+04  0.20991144190E+04  0.12999273953E+04 0.  0.
        4    1    3    3  502    0 -0.36821733090E+03  0.36889986402E+03 -0.14511168621E+04  0.15418861414E+04  0.12699999809E+01 0. -1.
       -4    1    3    3    0  502  0.36821733090E+03 -0.36889986402E+03 -0.19705488594E+03  0.55722827766E+03  0.12699999809E+01 0.  1.
</event>
<event>
 5   0  0.3689707E-05  0.1300012E+04  0.7818609E-02  0.9029556E-01
       -1   -1    0    0    0  501  0.00000000000E+00  0.00000000000E+00  0.63208231953E+03  0.63208231955E+03  0.50400001928E-02 0. -1.
        1   -1    0    0  501    0  0.00000000000E+00  0.00000000000E+00 -0.66843743637E+03  0.66843743639E+03  0.50400001928E-02 0.  1.
    10030    2    1    2    0    0  0.00000000000E+00  0.00000000000E+00 -0.36355116837E+02  0.13005197559E+04  0.13000115157E+04 0.  0.
        1    1    3    3  502    0  0.49910646567E+03 -0.23242139680E+02  0.39774937022E+03  0.63863293265E+03  0.50400001928E-02 0. -1.
       -1    1    3    3    0  502 -0.49910646567E+03  0.23242139680E+02 -0.43410448705E+03  0.66188682328E+03  0.50400001928E-02 0.  1.
</event>
<event>
 5   0  0.6618060E-05  0.1300184E+04  0.7818609E-02  0.9029420E-01
       -2   -1    0    0    0  501  0.00000000000E+00  0.00000000000E+00  0.36826569992E+03  0.36826569993E+03  0.25500000920E-02 0. -1.
        2   -1    0    0  501    0  0.00000000000E+00  0.00000000000E+00 -0.11475937241E+04  0.11475937241E+04  0.25500000920E-02 0.  1.
    10030    2    1    2    0    0  0.00000000000E+00  0.00000000000E+00 -0.77932802415E+03  0.15158594240E+04  0.13001836886E+04 0.  0.
        2    1    3    3  502    0 -0.28397175491E+03  0.53804777760E+03 -0.65676028821E+03  0.89524825872E+03  0.25500000920E-02 0.  1.
       -2    1    3    3    0  502  0.28397175491E+03 -0.53804777760E+03 -0.12256773594E+03  0.62061116528E+03  0.25500000920E-02 0. -1.
</event>
<event>
 5   0  0.3631841E-05  0.1299233E+04  0.7818609E-02  0.9030174E-01
        1   -1    0    0  501    0  0.00000000000E+00  0.00000000000E+00  0.10440918411E+04  0.10440918411E+04  0.50400001928E-02 0. -1.
       -1   -1    0    0    0  501  0.00000000000E+00  0.00000000000E+00 -0.40418053505E+03  0.40418053508E+03  0.50400001928E-02 0.  1.
    10030    2    1    2    0    0  0.00000000000E+00  0.00000000000E+00  0.63991130601E+03  0.14482723762E+04  0.12992330030E+04 0.  0.
        3    1    3    3  502    0  0.18157133754E+03 -0.47345005414E+03  0.77258759288E+03  0.92412915940E+03  0.10100000352E+00 0. -1.
       -3    1    3    3    0  502 -0.18157133754E+03  0.47345005414E+03 -0.13267628687E+03  0.52414321676E+03  0.10100000352E+00 0.  1.
</event>
<event>
 5   0  0.6671239E-05  0.1300466E+04  0.7818609E-02  0.9029196E-01
        2   -1    0    0  501    0  0.00000000000E+00  0.00000000000E+00  0.11031881984E+04  0.11031881984E+04  0.25500000920E-02 0.  1.
       -2   -1    0    0    0  501  0.00000000000E+00  0.00000000000E+00 -0.38325541222E+03  0.38325541223E+03  0.25500000920E-02 0. -1.
    10030    2    1    2    0    0  0.00000000000E+00  0.00000000000E+00  0.71993278617E+03  0.14864436106E+04  0.13004658361E+04 0.  0.
        1    1    3    3  502    0  0.49780534125E+03  0.11918721451E+03  0.81829302049E+03  0.96520423605E+03  0.50400001928E-02 0.  1.
       -1    1    3    3    0  502 -0.49780534125E+03 -0.11918721451E+03 -0.98360234319E+02  0.52123937457E+03  0.50400001928E-02 0. -1.
</event>
<event>
 5   0  0.2512000E-05  0.1301587E+04  0.7818609E-02  0.9028308E-01
        4   -1    0    0  501    0  0.00000000000E+00  0.00000000000E+00  0.28169857301E+03  0.28170143580E+03  0.12699999809E+01 0.  1.
       -4   -1    0    0    0  501  0.00000000000E+00  0.00000000000E+00 -0.15034832311E+04  0.15034837675E+04  0.12699999809E+01 0. -1.
    10030    2    1    2    0    0  0.00000000000E+00  0.00000000000E+00 -0.12217846581E+04  0.17851852033E+04  0.13015869004E+04 0.  0.
        2    1    3    3  502    0  0.32581601944E+03 -0.40963009945E+03 -0.11413438983E+04  0.12556348160E+04  0.25500000920E-02 0. -1.
       -2    1    3    3    0  502 -0.32581601944E+03  0.40963009945E+03 -0.80440759845E+02  0.52955038736E+03  0.25500000920E-02 0.  1.
</event>
<event>
 5   0  0.3689707E-05  0.1299643E+04  0.7818609E-02  0.9029848E-01
       -1   -1    0    0    0  501  0.00000000000E+00  0.00000000000E+00  0.33739991738E+03  0.33739991742E+03  0.50400001928E-02 0.  1.
        1   -1    0    0  501    0  0.00000000000E+00  0.00000000000E+00 -0.12515356660E+04  0.12515356660E+04  0.50400001928E-02 0. -1.
    10030    2    1    2    0    0  0.00000000000E+00  0.00000000000E+00 -0.91413574860E+03  0.15889355834E+04  0.12996430746E+04 0.  0.
        1    1    3    3  502    0  0.32459785693E+03 -0.25274731335E+03  0.15791389762E+03  0.44066060888E+03  0.50400001928E-02 0.  1.
       -1    1    3    3    0  502 -0.32459785693E+03  0.25274731335E+03 -0.10720496462E+04  0.11482749745E+04  0.50400001928E-02 0. -1.
</event>
<event>
 5   0  0.3551277E-05  0.1300891E+04  0.7818609E-02  0.9028859E-01
       -1   -1    0    0    0  501  0.00000000000E+00  0.00000000000E+00  0.38595976510E+03  0.38595976514E+03  0.50400001928E-02 0. -1.
        1   -1    0    0  501    0  0.00000000000E+00  0.00000000000E+00 -0.10961754870E+04  0.10961754870E+04  0.50400001928E-02 0.  1.
    10030    2    1    2    0    0  0.00000000000E+00  0.00000000000E+00 -0.71021572188E+03  0.14821352521E+04  0.13008914382E+04 0.  0.
        4    1    3    3  502    0 -0.69088543308E+02 -0.22532599287E+03  0.33560087014E+03  0.41009094945E+03  0.12699999809E+01 0. -1.
       -4    1    3    3    0  502  0.69088543308E+02  0.22532599287E+03 -0.10458165920E+04  0.10720443027E+04  0.12699999809E+01 0.  1.
</event>
<event>
 5   0  0.3551277E-05  0.1300992E+04  0.7818609E-02  0.9028779E-01
       -1   -1    0    0    0  501  0.00000000000E+00  0.00000000000E+00  0.54894525265E+03  0.54894525268E+03  0.50400001928E-02 0.  1.
        1   -1    0    0  501    0  0.00000000000E+00  0.00000000000E+00 -0.77083269647E+03  0.77083269648E+03  0.50400001928E-02 0. -1.
    10030    2    1    2    0    0  0.00000000000E+00  0.00000000000E+00 -0.22188744381E+03  0.13197779492E+04  0.13009918514E+04 0.  0.
        4    1    3    3  502    0 -0.62597796659E+03  0.94042647222E+02  0.41056139280E+02  0.63433402370E+03  0.12699999809E+01 0.  1.
       -4    1    3    3    0  502  0.62597796659E+03 -0.94042647222E+02 -0.26294358309E+03  0.68544392546E+03  0.12699999809E+01 0. -1.
</event>
<event>
 5   0  0.6618060E-05  0.1299175E+04  0.7818609E-02  0.9030219E-01
       -2   -1    0    0    0  501  0.00000000000E+00  0.00000000000E+00  0.54809122763E+03  0.54809122764E+03  0.25500000920E-02 0. -1.
        2   -1    0    0  501    0  0.00000000000E+00  0.00000000000E+00 -0.76987928989E+03  0.76987928989E+03  0.25500000920E-02 0.  1.
    10030    2    1    2    0    0  0.00000000000E+00  0.00000000000E+00 -0.22178806225E+03  0.13179705175E+04  0.12991752540E+04 0.  0.
        2    1    3    3  502    0 -0.25268787048E+03 -0.50819434450E+03  0.20967023385E+03  0.60504070825E+03  0.25500000920E-02 0. -1.
       -2    1    3    3    0  502  0.25268787048E+03  0.50819434450E+03 -0.43145829611E+03  0.71292980928E+03  0.25500000920E-02 0.  1.
</event>
<event>
 5   0  0.6618060E-05  0.1300310E+04  0.7818609E-02  0.9029319E-01
        2   -1    0    0  501    0  0.00000000000E+00  0.00000000000E+00  0.68198378309E+03  0.68198378309E+03  0.25500000920E-02 0.  1.
       -2   -1    0    0    0  501  0.00000000000E+00  0.00000000000E+00 -0.61981173187E+03  0.61981173188E+03  0.25500000920E-02 0. -1.
    10030    2    1    2    0    0  0.00000000000E+00  0.00000000000E+00  0.62172051214E+02  0.13017955150E+04  0.13003100395E+04 0.  0.
        2    1    3    3  502    0  0.39199393146E+03 -0.57360331068E+02  0.54718643984E+03  0.67554603828E+03  0.25500000920E-02 0.  1.
       -2    1    3    3    0  502 -0.39199393146E+03  0.57360331068E+02 -0.48501438863E+03  0.62624947670E+03  0.25500000920E-02 0. -1.
</event>
<event>
 5   0  0.6742824E-05  0.1299993E+04  0.7818609E-02  0.9029570E-01
        2   -1    0    0  501    0  0.00000000000E+00  0.00000000000E+00  0.55466095896E+03  0.55466095897E+03  0.25500000920E-02 0. -1.
       -2   -1    0    0    0  501  0.00000000000E+00  0.00000000000E+00 -0.76171877141E+03  0.76171877141E+03  0.25500000920E-02 0.  1.
    10030    2    1    2    0    0  0.00000000000E+00  0.00000000000E+00 -0.20705781245E+03  0.13163797304E+04  0.12999933295E+04 0.  0.
        4    1    3    3  502    0  0.25291564002E+03 -0.54471114773E+03  0.14823633252E+03  0.61858886072E+03  0.12699999809E+01 0. -1.
       -4    1    3    3    0  502 -0.25291564002E+03  0.54471114773E+03 -0.35529414497E+03  0.69779086966E+03  0.12699999809E+01 0.  1.
</event>
<event>
 5   0  0.6688086E-05  0.1299907E+04  0.7818609E-02  0.9029639E-01
        2   -1    0    0  501    0  0.00000000000E+00  0.00000000000E+00  0.22148698412E+04  0.22148698412E+04  0.25500000920E-02 0.  1.
       -2   -1    0    0    0  501  0.00000000000E+00  0.00000000000E+00 -0.19072880015E+03  0.19072880016E+03  0.25500000920E-02 0. -1.
    10030    2    1    2    0    0  0.00000000000E+00  0.00000000000E+00  0.20241410410E+04  0.24055986413E+04  0.12999068694E+04 0.  0.
        5    1    3    3  502    0  0.42878055994E+03 -0.38322626574E+03  0.15724740971E+04  0.16743392772E+04  0.46999998093E+01 0.  1.
       -5    1    3    3    0  502 -0.42878055994E+03  0.38322626574E+03  0.45166694397E+03  0.73125936412E+03  0.46999998093E+01 0. -1.
</event>
<event>
 5   0  0.6618060E-05  0.1301975E+04  0.7818609E-02  0.9028000E-01
        2   -1    0    0  501    0  0.00000000000E+00  0.00000000000E+00  0.12490482265E+04  0.12490482265E+04  0.25500000920E-02 0. -1.
       -2   -1    0    0    0  501  0.00000000000E+00  0.00000000000E+00 -0.33928616673E+03  0.33928616674E+03  0.25500000920E-02 0.  1.
    10030    2    1    2    0    0  0.00000000000E+00  0.00000000000E+00  0.90976205975E+03  0.15883343932E+04  0.13019750917E+04 0.  0.
        2    1    3    3  502    0 -0.50456666610E+03  0.15847599069E+03  0.91794934920E+03  0.10594022691E+04  0.25500000920E-02 0. -1.
       -2    1    3    3    0  502  0.50456666610E+03 -0.15847599069E+03 -0.81872894499E+01  0.52893212408E+03  0.25500000920E-02 0.  1.
</event>
<event>
 5   0  0.6671239E-05  0.1299728E+04  0.7818609E-02  0.9029781E-01
        2   -1    0    0  501    0  0.00000000000E+00  0.00000000000E+00  0.16999187162E+04  0.16999187162E+04  0.25500000920E-02 0.  1.
       -2   -1    0    0    0  501  0.00000000000E+00  0.00000000000E+00 -0.24843723545E+03  0.24843723546E+03  0.25500000920E-02 0. -1.
    10030    2    1    2    0    0  0.00000000000E+00  0.00000000000E+00  0.14514814807E+04  0.19483559517E+04  0.12997278274E+04 0.  0.
        1    1    3    3  502    0  0.44524870530E+03  0.20634960153E+03  0.13643718326E+04  0.14499438145E+04  0.50400001928E-02 0.  1.
       -1    1    3    3    0  502 -0.44524870530E+03 -0.20634960153E+03  0.87109648138E+02  0.49841213714E+03  0.50400001928E-02 0. -1.
</event>
<event>
 5   0  0.6742824E-05  0.1300101E+04  0.7818609E-02  0.9029485E-01
       -2   -1    0    0    0  501  0.00000000000E+00  0.00000000000E+00  0.32590644388E+03  0.32590644389E+03  0.25500000920E-02 0. -1.
        2   -1    0    0  501    0  0.00000000000E+00  0.00000000000E+00 -0.12965854983E+04  0.12965854983E+04  0.25500000920E-02 0.  1.
    10030    2    1    2    0    0  0.00000000000E+00  0.00000000000E+00 -0.97067905440E+03  0.16224919422E+04  0.13001008714E+04 0.  0.
        4    1    3    3  502    0  0.74968223325E+02  0.22021966614E+03  0.27217858895E+03  0.35804990301E+03  0.12699999809E+01 0. -1.
       -4    1    3    3    0  502 -0.74968223325E+02 -0.22021966614E+03 -0.12428576434E+04  0.12644420392E+04  0.12699999809E+01 0.  1.
</event>
<event>
 5   0  0.6742824E-05  0.1299161E+04  0.7818609E-02  0.9030231E-01
        2   -1    0    0  501    0  0.00000000000E+00  0.00000000000E+00  0.12040901284E+04  0.12040901284E+04  0.25500000920E-02 0.  1.
       -2   -1    0    0    0  501  0.00000000000E+00  0.00000000000E+00 -0.35043460950E+03  0.35043460951E+03  0.25500000920E-02 0. -1.
    10030    2    1    2    0    0  0.00000000000E+00  0.00000000000E+00  0.85365551890E+03  0.15545247379E+04  0.12991610431E+04 0.  0.
        4    1    3    3  502    0  0.36803063525E+03  0.21990258412E+03  0.10107560643E+04  0.10979221873E+04  0.12699999809E+01 0.  1.
       -4    1    3    3    0  502 -0.36803063525E+03 -0.21990258412E+03 -0.15710054537E+03  0.45660255063E+03  0.12699999809E+01 0. -1.
</event>
<event>
 5   0  0.6688086E-05  0.1300420E+04  0.7818609E-02  0.9029232E-01
        2   -1    0    0  501    0  0.00000000000E+00  0.00000000000E+00  0.84415580320E+03  0.84415580320E+03  0.25500000920E-02 0.  1.
       -2   -1    0    0    0  501  0.00000000000E+00  0.00000000000E+00 -0.50082371586E+03  0.50082371586E+03  0.25500000920E-02 0. -1.
    10030    2    1    2    0    0  0.00000000000E+00  0.00000000000E+00  0.34333208734E+03  0.13449795191E+04  0.13004203107E+04 0.  0.
        5    1    3    3  502    0  0.64939661938E+03  0.20402142593E+02  0.19739700461E+03  0.67905808597E+03  0.46999998093E+01 0.  1.
       -5    1    3    3    0  502 -0.64939661938E+03 -0.20402142593E+02  0.14593508273E+03  0.66592143310E+03  0.46999998093E+01 0. -1.
</event>
<event>
 5   0  0.3551277E-05  0.1300390E+04  0.7818609E-02  0.9029256E-01
        1   -1    0    0  501    0  0.00000000000E+00  0.00000000000E+00  0.62946507917E+03  0.62946507919E+03  0.50400001928E-02 0. -1.
       -1   -1    0    0    0  501  0.00000000000E+00  0.00000000000E+00 -0.67160808446E+03  0.67160808448E+03  0.50400001928E-02 0.  1.
    10030    2    1    2    0    0  0.00000000000E+00  0.00000000000E+00 -0.42143005287E+02  0.13010731637E+04  0.13003904584E+04 0.  0.
        4    1    3    3  502    0  0.34321018395E+03  0.11192819581E+03  0.51998136459E+03  0.63301136152E+03  0.12699999809E+01 0. -1.
       -4    1    3    3    0  502 -0.34321018395E+03 -0.11192819581E+03 -0.56212436988E+03  0.66806180216E+03  0.12699999809E+01 0.  1.
</event>
<event>
 5   0  0.6688086E-05  0.1301157E+04  0.7818609E-02  0.9028648E-01
        2   -1    0    0  501    0  0.00000000000E+00  0.00000000000E+00  0.41209273198E+03  0.41209273199E+03  0.25500000920E-02 0. -1.
       -2   -1    0    0    0  501  0.00000000000E+00  0.00000000000E+00 -0.10270809371E+04  0.10270809371E+04  0.25500000920E-02 0.  1.
    10030    2    1    2    0    0  0.00000000000E+00  0.00000000000E+00 -0.61498820516E+03  0.14391736691E+04  0.13011573146E+04 0.  0.
        5    1    3    3  502    0  0.17892794169E+03 -0.22530400551E+03  0.33788103779E+03  0.44380489960E+03  0.46999998093E+01 0. -1.
       -5    1    3    3    0  502 -0.17892794169E+03  0.22530400551E+03 -0.95286924295E+03  0.99536876954E+03  0.46999998093E+01 0.  1.
</event>
<event>
 5   0  0.6458698E-05  0.1299697E+04  0.7818609E-02  0.9029806E-01
       -2   -1    0    0    0  501  0.00000000000E+00  0.00000000000E+00  0.38245674276E+03  0.38245674277E+03  0.25500000920E-02 0.  1.
        2   -1    0    0  501    0  0.00000000000E+00  0.00000000000E+00 -0.11041844803E+04  0.11041844803E+04  0.25500000920E-02 0. -1.
    10030    2    1    2    0    0  0.00000000000E+00  0.00000000000E+00 -0.72172773751E+03  0.14866412230E+04  0.12996965796E+04 0.  0.
        3    1    3    3  502    0 -0.46060242523E+03  0.25146068550E+03  0.77564176988E+02  0.53047458209E+03  0.10100000352E+00 0.  1.
       -3    1    3    3    0  502  0.46060242523E+03 -0.25146068550E+03 -0.79929191450E+03  0.95616664095E+03  0.10100000352E+00 0. -1.
</event>
<event>
 5   0  0.2512000E-05  0.1299861E+04  0.7818609E-02  0.9029675E-01
       -4   -1    0    0    0  501  0.00000000000E+00  0.00000000000E+00  0.34507914265E+03  0.34508147964E+03  0.12699999809E+01 0. -1.
        4   -1    0    0  501    0  0.00000000000E+00  0.00000000000E+00 -0.12240884320E+04  0.12240890908E+04  0.12699999809E+01 0.  1.
    10030    2    1    2    0    0  0.00000000000E+00  0.00000000000E+00 -0.87900928936E+03  0.15691705705E+04  0.12998611266E+04 0.  0.
        4    1    3    3  502    0 -0.50547992168E+03  0.23714985396E+03 -0.37931333410E+02  0.55963416927E+03  0.12699999809E+01 0. -1.
       -4    1    3    3    0  502  0.50547992168E+03 -0.23714985396E+03 -0.84107795595E+03  0.10095364012E+04  0.12699999809E+01 0.  1.
</event>
<event>
 5   0  0.3689707E-05  0.1299682E+04  0.7818609E-02  0.9029818E-01
        1   -1    0    0  501    0  0.00000000000E+00  0.00000000000E+00  0.54318011077E+03  0.54318011080E+03  0.50400001928E-02 0.  1.
       -1   -1    0    0    0  501  0.00000000000E+00  0.00000000000E+00 -0.77744590983E+03  0.77744590985E+03  0.50400001928E-02 0. -1.
    10030    2    1    2    0    0  0.00000000000E+00  0.00000000000E+00 -0.23426579906E+03  0.13206260206E+04  0.12996817387E+04 0.  0.
        1    1    3    3  502    0  0.50869062451E+03 -0.38994948788E+03 -0.22593978861E+03  0.67961426020E+03  0.50400001928E-02 0. -1.
       -1    1    3    3    0  502 -0.50869062451E+03  0.38994948788E+03 -0.83260104511E+01  0.64101176045E+03  0.50400001928E-02 0.  1.
</event>
<event>
 5   0  0.3552698E-05  0.1299393E+04  0.7818609E-02  0.9030046E-01
       -1   -1    0    0    0  501  0.00000000000E+00  0.00000000000E+00  0.23472516178E+03  0.23472516183E+03  0.50400001928E-02 0. -1.
        1   -1    0    0  501    0  0.00000000000E+00  0.00000000000E+00 -0.17982979494E+04  0.17982979494E+04  0.50400001928E-02 0.  1.
    10030    2    1    2    0    0  0.00000000000E+00  0.00000000000E+00 -0.15635727876E+04  0.20330231112E+04  0.12993933618E+04 0.  0.
        5    1    3    3  502    0 -0.39771770120E+03 -0.87717634403E+02  0.10167054542E+02  0.40743000900E+03  0.46999998093E+01 0. -1.
       -5    1    3    3    0  502  0.39771770120E+03  0.87717634403E+02 -0.15737398421E+04  0.16255931022E+04  0.46999998093E+01 0.  1.
</event>
<event>
 5   0  0.3552698E-05  0.1299509E+04  0.7818609E-02  0.9029955E-01
       -1   -1    0    0    0  501  0.00000000000E+00  0.00000000000E+00  0.35840626687E+03  0.35840626691E+03  0.50400001928E-02 0.  1.
        1   -1    0    0  501    0  0.00000000000E+00  0.00000000000E+00 -0.11779392333E+04  0.11779392333E+04  0.50400001928E-02 0. -1.
    10030    2    1    2    0    0  0.00000000000E+00  0.00000000000E+00 -0.81953296642E+03  0.15363455002E+04  0.12995088353E+04 0.  0.
        5    1    3    3  502    0 -0.26787040429E+03  0.67056194172E+02  0.28556152743E+03  0.39726384509E+03  0.46999998093E+01 0.  1.
       -5    1    3    3    0  502  0.26787040429E+03 -0.67056194172E+02 -0.11050944939E+04  0.11390816551E+04  0.46999998093E+01 0. -1.
</event>
<event>
 5   0  0.2512000E-05  0.1298436E+04  0.7818609E-02  0.9030806E-01
       -3   -1    0    0    0  501  0.00000000000E+00  0.00000000000E+00  0.11592183551E+04  0.11592183595E+04  0.10100000352E+00 0.  1.
        3   -1    0    0  501    0  0.00000000000E+00  0.00000000000E+00 -0.36359353323E+03  0.36359354726E+03  0.10100000352E+00 0. -1.
    10030    2    1    2    0    0  0.00000000000E+00  0.00000000000E+00  0.79562482183E+03  0.15228119067E+04  0.12984364621E+04 0.  0.
        5    1    3    3  502    0 -0.81692605681E+02 -0.29830165174E+02  0.11523356021E+04  0.11556223217E+04  0.46999998093E+01 0.  1.
       -5    1    3    3    0  502  0.81692605681E+02  0.29830165174E+02 -0.35671078027E+03  0.36718958501E+03  0.46999998093E+01 0. -1.
</event>
<event>
 5   0  0.6671239E-05  0.1300408E+04  0.7818609E-02  0.9029241E-01
        2   -1    0    0  501    0  0.00000000000E+00  0.00000000000E+00  0.19697571551E+04  0.19697571551E+04  0.25500000920E-02 0.  1.
       -2   -1    0    0    0  501  0.00000000000E+00  0.00000000000E+00 -0.21462818839E+03  0.21462818841E+03  0.25500000920E-02 0. -1.
    10030    2    1    2    0    0  0.00000000000E+00  0.00000000000E+00  0.17551289667E+04  0.21843853435E+04  0.13004082587E+04 0.  0.
        1    1    3    3  502    0  0.42021119752E+03  0.19339751508E+03  0.11002706552E+03  0.47548502030E+03  0.50400001928E-02 0. -1.
       -1    1    3    3    0  502 -0.42021119752E+03 -0.19339751508E+03  0.16451019012E+04  0.17089003232E+04  0.50400001928E-02 0.  1.
</event>
<event>
 5   0  0.6671239E-05  0.1299977E+04  0.7818609E-02  0.9029583E-01
        2   -1    0    0  501    0  0.00000000000E+00  0.00000000000E+00  0.64304147760E+03  0.64304147761E+03  0.25500000920E-02 0. -1.
       -2   -1    0    0    0  501  0.00000000000E+00  0.00000000000E+00 -0.65701087324E+03  0.65701087325E+03  0.25500000920E-02 0.  1.
    10030    2    1    2    0    0  0.00000000000E+00  0.00000000000E+00 -0.13969395642E+02  0.13000523509E+04  0.12999772963E+04 0.  0.
        1    1    3    3  502    0 -0.29831290518E+03  0.36509045346E+03  0.44048232040E+03  0.64521802766E+03  0.50400001928E-02 0. -1.
       -1    1    3    3    0  502  0.29831290518E+03 -0.36509045346E+03 -0.45445171604E+03  0.65483432320E+03  0.50400001928E-02 0.  1.
</event>
<event>
 5   0  0.3551277E-05  0.1300121E+04  0.7818609E-02  0.9029470E-01
       -1   -1    0    0    0  501  0.00000000000E+00  0.00000000000E+00  0.25509802151E+03  0.25509802156E+03  0.50400001928E-02 0.  1.
        1   -1    0    0  501    0  0.00000000000E+00  0.00000000000E+00 -0.16565333489E+04  0.16565333489E+04  0.50400001928E-02 0. -1.
    10030    2    1    2    0    0  0.00000000000E+00  0.00000000000E+00 -0.14014353274E+04  0.19116313705E+04  0.13001205789E+04 0.  0.
        4    1    3    3  502    0 -0.20868403801E+03 -0.34163276239E+03  0.52346375422E+02  0.40373720163E+03  0.12699999809E+01 0.  1.
       -4    1    3    3    0  502  0.20868403801E+03  0.34163276239E+03 -0.14537817028E+04  0.15078941688E+04  0.12699999809E+01 0. -1.
</event>
<event>
 5   0  0.6618060E-05  0.1300092E+04  0.7818609E-02  0.9029492E-01
       -2   -1    0    0    0  501  0.00000000000E+00  0.00000000000E+00  0.65844653858E+03  0.65844653859E+03  0.25500000920E-02 0.  1.
        2   -1    0    0  501    0  0.00000000000E+00  0.00000000000E+00 -0.64175291728E+03  0.64175291729E+03  0.25500000920E-02 0. -1.
    10030    2    1    2    0    0  0.00000000000E+00  0.00000000000E+00  0.16693621301E+02  0.13001994559E+04  0.13000922844E+04 0.  0.
        2    1    3    3  502    0  0.38878072834E+03 -0.47000270330E+03  0.23310294178E+03  0.65298543422E+03  0.25500000920E-02 0.  1.
       -2    1    3    3    0  502 -0.38878072834E+03  0.47000270330E+03 -0.21640932048E+03  0.64721402166E+03  0.25500000920E-02 0. -1.
</event>
<event>
 5   0  0.2512000E-05  0.1299926E+04  0.7818609E-02  0.9029624E-01
        3   -1    0    0  501    0  0.00000000000E+00  0.00000000000E+00  0.64413299303E+03  0.64413300095E+03  0.10100000352E+00 0.  1.
       -3   -1    0    0    0  501  0.00000000000E+00  0.00000000000E+00 -0.65584586085E+03  0.65584586863E+03  0.10100000352E+00 0. -1.
    10030    2    1    2    0    0  0.00000000000E+00  0.00000000000E+00 -0.11712867816E+02  0.12999788696E+04  0.12999261018E+04 0.  0.
        2    1    3    3  502    0 -0.20533895959E+03 -0.50470066974E+03  0.34850963030E+03  0.64679658069E+03  0.25500000920E-02 0.  1.
       -2    1    3    3    0  502  0.20533895959E+03  0.50470066974E+03 -0.36022249812E+03  0.65318228889E+03  0.25500000920E-02 0. -1.
</event>
<event>
 5   0  0.6688086E-05  0.1300276E+04  0.7818609E-02  0.9029346E-01
        2   -1    0    0  501    0  0.00000000000E+00  0.00000000000E+00  0.19531578390E+04  0.19531578390E+04  0.25500000920E-02 0. -1.
       -2   -1    0    0    0  501  0.00000000000E+00  0.00000000000E+00 -0.21640822198E+03  0.21640822199E+03  0.25500000920E-02 0.  1.
    10030    2    1    2    0    0  0.00000000000E+00  0.00000000000E+00  0.17367496170E+04  0.21695660610E+04  0.13002759941E+04 0.  0.
        5    1    3    3  502    0  0.63207867828E+03 -0.80651627993E+02  0.10835403946E+04  0.12570242708E+04  0.46999998093E+01 0.  1.
       -5    1    3    3    0  502 -0.63207867828E+03  0.80651627993E+02  0.65320922246E+03  0.91254179024E+03  0.46999998093E+01 0. -1.
</event>
<event>
 5   0  0.6688086E-05  0.1300121E+04  0.7818609E-02  0.9029469E-01
        2   -1    0    0  501    0  0.00000000000E+00  0.00000000000E+00  0.19956816446E+04  0.19956816446E+04  0.25500000920E-02 0.  1.
       -2   -1    0    0    0  501  0.00000000000E+00  0.00000000000E+00 -0.21174654948E+03  0.21174654950E+03  0.25500000920E-02 0. -1.
    10030    2    1    2    0    0  0.00000000000E+00  0.00000000000E+00  0.17839350951E+04  0.22074281941E+04  0.13001210746E+04 0.  0.
        5    1    3    3  502    0  0.14800570232E+03 -0.62445113672E+03  0.71624316367E+03  0.96170227699E+03  0.46999998093E+01 0.  1.
       -5    1    3    3    0  502 -0.14800570232E+03  0.62445113672E+03  0.10676919314E+04  0.12457259171E+04  0.46999998093E+01 0. -1.
</event>
<event>
 5   0  0.3689707E-05  0.1298839E+04  0.7818609E-02  0.9030487E-01
       -1   -1    0    0    0  501  0.00000000000E+00  0.00000000000E+00  0.84553366753E+03  0.84553366754E+03  0.50400001928E-02 0.  1.
        1   -1    0    0  501    0  0.00000000000E+00  0.00000000000E+00 -0.49879193975E+03  0.49879193978E+03  0.50400001928E-02 0. -1.
    10030    2    1    2    0    0  0.00000000000E+00  0.00000000000E+00  0.34674172778E+03  0.13443256073E+04  0.12988385245E+04 0.  0.
        1    1    3    3  502    0  0.17574742873E+03 -0.44535553216E+03 -0.28076257331E+03  0.55502822570E+03  0.50400001928E-02 0. -1.
       -1    1    3    3    0  502 -0.17574742873E+03  0.44535553216E+03  0.62750430108E+03  0.78929738162E+03  0.50400001928E-02 0.  1.
</event>
<event>
 5   0  0.3551277E-05  0.1299626E+04  0.7818609E-02  0.9029862E-01
       -1   -1    0    0    0  501  0.00000000000E+00  0.00000000000E+00  0.34886648913E+03  0.34886648917E+03  0.50400001928E-02 0.  1.
        1   -1    0    0  501    0  0.00000000000E+00  0.00000000000E+00 -0.12103685390E+04  0.12103685390E+04  0.50400001928E-02 0. -1.
    10030    2    1    2    0    0  0.00000000000E+00  0.00000000000E+00 -0.86150204985E+03  0.15592350282E+04  0.12996261352E+04 0.  0.
        4    1    3    3  502    0 -0.78774112792E+02 -0.63305694699E+03 -0.28240292456E+03  0.69765283894E+03  0.12699999809E+01 0. -1.
       -4    1    3    3    0  502  0.78774112792E+02  0.63305694699E+03 -0.57909912530E+03  0.86158218923E+03  0.12699999809E+01 0.  1.
</event>
<event>
 5   0  0.6458698E-05  0.1299632E+04  0.7818609E-02  0.9029857E-01
       -2   -1    0    0    0  501  0.00000000000E+00  0.00000000000E+00  0.65482753079E+03  0.65482753079E+03  0.25500000920E-02 0. -1.
        2   -1    0    0  501    0  0.00000000000E+00  0.00000000000E+00 -0.64484318356E+03  0.64484318357E+03  0.25500000920E-02 0.  1.
    10030    2    1    2    0    0  0.00000000000E+00  0.00000000000E+00  0.99843472233E+01  0.12996707144E+04  0.12996323629E+04 0.  0.
        3    1    3    3  502    0 -0.37887630045E+03 -0.47615102257E+03 -0.22303651051E+03  0.64808359226E+03  0.10100000352E+00 0.  1.
       -3    1    3    3    0  502  0.37887630045E+03  0.47615102257E+03  0.23302085773E+03  0.65158712209E+03  0.10100000352E+00 0. -1.
</event>
<event>
 5   0  0.6671239E-05  0.1300256E+04  0.7818609E-02  0.9029362E-01
       -2   -1    0    0    0  501  0.00000000000E+00  0.00000000000E+00  0.71083251121E+03  0.71083251121E+03  0.25500000920E-02 0.  1.
        2   -1    0    0  501    0  0.00000000000E+00  0.00000000000E+00 -0.59460772770E+03  0.59460772771E+03  0.25500000920E-02 0. -1.
    10030    2    1    2    0    0  0.00000000000E+00  0.00000000000E+00  0.11622478351E+03  0.13054402389E+04  0.13002561352E+04 0.  0.
        1    1    3    3  502    0  0.25417909887E+03  0.13792507862E+03  0.64270200612E+03  0.70476677724E+03  0.50400001928E-02 0.  1.
       -1    1    3    3    0  502 -0.25417909887E+03 -0.13792507862E+03 -0.52647722261E+03  0.60067346168E+03  0.50400001928E-02 0. -1.
</event>
<event>
 5   0  0.6688086E-05  0.1300152E+04  0.7818609E-02  0.9029445E-01
        2   -1    0    0  501    0  0.00000000000E+00  0.00000000000E+00  0.13147076400E+04  0.13147076400E+04  0.25500000920E-02 0.  1.
       -2   -1    0    0    0  501  0.00000000000E+00  0.00000000000E+00 -0.32143935795E+03  0.32143935796E+03  0.25500000920E-02 0. -1.
    10030    2    1    2    0    0  0.00000000000E+00  0.00000000000E+00  0.99326828204E+03  0.16361469980E+04  0.13001519599E+04 0.  0.
        5    1    3    3  502    0  0.25933934231E+03 -0.58290547851E+03  0.33975411157E+03  0.72283513865E+03  0.46999998093E+01 0. -1.
       -5    1    3    3    0  502 -0.25933934231E+03  0.58290547851E+03  0.65351417048E+03  0.91331185931E+03  0.46999998093E+01 0.  1.
</event>
<event>
 5   0  0.2512000E-05  0.1299883E+04  0.7818609E-02  0.9029658E-01
        4   -1    0    0  501    0  0.00000000000E+00  0.00000000000E+00  0.25349281229E+03  0.25349599362E+03  0.12699999809E+01 0. -1.
       -4   -1    0    0    0  501  0.00000000000E+00  0.00000000000E+00 -0.16663999116E+04  0.16664003956E+04  0.12699999809E+01 0.  1.
    10030    2    1    2    0    0  0.00000000000E+00  0.00000000000E+00 -0.14129070993E+04  0.19198963892E+04  0.12998829462E+04 0.  0.
        4    1    3    3  502    0 -0.47517338143E+03  0.61357791681E+02 -0.57814050547E+02  0.48259568829E+03  0.12699999809E+01 0. -1.
       -4    1    3    3    0  502  0.47517338143E+03 -0.61357791681E+02 -0.13550930488E+04  0.14373007009E+04  0.12699999809E+01 0.  1.
</event>
<event>
 5   0  0.6458698E-05  0.1300366E+04  0.7818609E-02  0.9029275E-01
        2   -1    0    0  501    0  0.00000000000E+00  0.00000000000E+00  0.22093306772E+03  0.22093306773E+03  0.25500000920E-02 0.  1.
       -2   -1    0    0    0  501  0.00000000000E+00  0.00000000000E+00 -0.19134222223E+04  0.19134222223E+04  0.25500000920E-02 0. -1.
    10030    2    1    2    0    0  0.00000000000E+00  0.00000000000E+00 -0.16924891546E+04  0.21343552901E+04  0.13003664736E+04 0.  0.
        3    1    3    3  502    0  0.62733909570E+03 -0.15549021417E+01 -0.56585972173E+03  0.84483962596E+03  0.10100000352E+00 0. -1.
       -3    1    3    3    0  502 -0.62733909570E+03  0.15549021417E+01 -0.11266294329E+04  0.12895156641E+04  0.10100000352E+00 0.  1.
</event>
<event>
 5   0  0.6742824E-05  0.1300177E+04  0.7818609E-02  0.9029425E-01
       -2   -1    0    0    0  501  0.00000000000E+00  0.00000000000E+00  0.59327917899E+03  0.59327917899E+03  0.25500000920E-02 0.  1.
        2   -1    0    0  501    0  0.00000000000E+00  0.00000000000E+00 -0.71233784032E+03  0.71233784033E+03  0.25500000920E-02 0. -1.
    10030    2    1    2    0    0  0.00000000000E+00  0.00000000000E+00 -0.11905866133E+03  0.13056170193E+04  0.13001772326E+04 0.  0.
        4    1    3    3  502    0 -0.64156476208E+03  0.63393621265E+02  0.24423691007E+02  0.64515286928E+03  0.12699999809E+01 0. -1.
       -4    1    3    3    0  502  0.64156476208E+03 -0.63393621265E+02 -0.14348235234E+03  0.66046415004E+03  0.12699999809E+01 0.  1.
</event>
<event>
 5   0  0.3552698E-05  0.1299475E+04  0.7818609E-02  0.9029982E-01
       -1   -1    0    0    0  501  0.00000000000E+00  0.00000000000E+00  0.65561882588E+03  0.65561882590E+03  0.50400001928E-02 0. -1.
        1   -1    0    0  501    0  0.00000000000E+00  0.00000000000E+00 -0.64390898970E+03  0.64390898972E+03  0.50400001928E-02 0.  1.
    10030    2    1    2    0    0  0.00000000000E+00  0.00000000000E+00  0.11709836179E+02  0.12995278156E+04  0.12994750568E+04 0.  0.
        5    1    3    3  502    0 -0.39254502569E+03  0.40275211029E+03 -0.31948259951E+03  0.64683234375E+03  0.46999998093E+01 0.  1.
       -5    1    3    3    0  502  0.39254502569E+03 -0.40275211029E+03  0.33119243569E+03  0.65269547186E+03  0.46999998093E+01 0. -1.
</event>
<event>
 5   0  0.6458698E-05  0.1299995E+04  0.7818609E-02  0.9029569E-01
       -2   -1    0    0    0  501  0.00000000000E+00  0.00000000000E+00  0.64461733452E+03  0.64461733452E+03  0.25500000920E-02 0. -1.
        2   -1    0    0  501    0  0.00000000000E+00  0.00000000000E+00 -0.65542282502E+03  0.65542282503E+03  0.25500000920E-02 0.  1.
    10030    2    1    2    0    0  0.00000000000E+00  0.00000000000E+00 -0.10805490506E+02  0.13000401595E+04  0.12999952530E+04 0.  0.
        3    1    3    3  502    0  0.23543029714E+03  0.34810878004E+02  0.59947985390E+03  0.64499250187E+03  0.10100000352E+00 0. -1.
       -3    1    3    3    0  502 -0.23543029714E+03 -0.34810878004E+02 -0.61028534440E+03  0.65504765768E+03  0.10100000352E+00 0.  1.
</event>
<event>
 5   0  0.6742824E-05  0.1299869E+04  0.7818609E-02  0.9029669E-01
       -2   -1    0    0    0  501  0.00000000000E+00  0.00000000000E+00  0.73311194089E+03  0.73311194090E+03  0.25500000920E-02 0. -1.
        2   -1    0    0  501    0  0.00000000000E+00  0.00000000000E+00 -0.57619451718E+03  0.57619451718E+03  0.25500000920E-02 0.  1.
    10030    2    1    2    0    0  0.00000000000E+00  0.00000000000E+00  0.15691742372E+03  0.13093064581E+04  0.12998693486E+04 0.  0.
        4    1    3    3  502    0  0.40231129369E+03 -0.36978802548E+03 -0.27597076104E+03  0.61217565671E+03  0.12699999809E+01 0.  1.
       -4    1    3    3    0  502 -0.40231129369E+03  0.36978802548E+03  0.43288818476E+03  0.69713080137E+03  0.12699999809E+01 0. -1.
</event>
<event>
 5   0  0.6671239E-05  0.1300306E+04  0.7818609E-02  0.9029322E-01
       -2   -1    0    0    0  501  0.00000000000E+00  0.00000000000E+00  0.26169875191E+03  0.26169875192E+03  0.25500000920E-02 0.  1.
        2   -1    0    0  501    0  0.00000000000E+00  0.00000000000E+00 -0.16152124832E+04  0.16152124832E+04  0.25500000920E-02 0. -1.
    10030    2    1    2    0    0  0.00000000000E+00  0.00000000000E+00 -0.13535137313E+04  0.18769112351E+04  0.13003062577E+04 0.  0.
        1    1    3    3  502    0  0.15777841011E+03  0.27428884225E+03 -0.14965618161E+04  0.15296488699E+04  0.50400001928E-02 0. -1.
       -1    1    3    3    0  502 -0.15777841011E+03 -0.27428884225E+03  0.14304808486E+03  0.34726236520E+03  0.50400001928E-02 0.  1.
</event>
<event>
 5   0  0.3551277E-05  0.1299479E+04  0.7818609E-02  0.9029979E-01
        1   -1    0    0  501    0  0.00000000000E+00  0.00000000000E+00  0.30653407211E+03  0.30653407215E+03  0.50400001928E-02 0.  1.
       -1   -1    0    0    0  501  0.00000000000E+00  0.00000000000E+00 -0.13772085151E+04  0.13772085151E+04  0.50400001928E-02 0. -1.
    10030    2    1    2    0    0  0.00000000000E+00  0.00000000000E+00 -0.10706744430E+04  0.16837425873E+04  0.12994788714E+04 0.  0.
        4    1    3    3  502    0  0.40826868369E+03  0.50220170580E+02 -0.11870069385E+04  0.12562613058E+04  0.12699999809E+01 0. -1.
       -4    1    3    3    0  502 -0.40826868369E+03 -0.50220170580E+02  0.11633249545E+03  0.42748128147E+03  0.12699999809E+01 0.  1.
</event>
<event>
 5   0  0.6458698E-05  0.1298177E+04  0.7818609E-02  0.9031012E-01
        2   -1    0    0  501    0  0.00000000000E+00  0.00000000000E+00  0.22933135542E+04  0.22933135542E+04  0.25500000920E-02 0. -1.
       -2   -1    0    0    0  501  0.00000000000E+00  0.00000000000E+00 -0.18371503203E+03  0.18371503205E+03  0.25500000920E-02 0.  1.
    10030    2    1    2    0    0  0.00000000000E+00  0.00000000000E+00  0.21095985222E+04  0.24770285863E+04  0.12981774503E+04 0.  0.
        3    1    3    3  502    0 -0.16282429323E+03 -0.62439923290E+03  0.11887733692E+04  0.13526153503E+04  0.10100000352E+00 0.  1.
       -3    1    3    3    0  502  0.16282429323E+03  0.62439923290E+03  0.92082515303E+03  0.11244132359E+04  0.10100000352E+00 0. -1.
</event>
<event>
 5   0  0.6688086E-05  0.1302253E+04  0.7818609E-02  0.9027781E-01
        2   -1    0    0  501    0  0.00000000000E+00  0.00000000000E+00  0.15153416183E+04  0.15153416183E+04  0.25500000920E-02 0.  1.
       -2   -1    0    0    0  501  0.00000000000E+00  0.00000000000E+00 -0.27978218049E+03  0.27978218050E+03  0.25500000920E-02 0. -1.
    10030    2    1    2    0    0  0.00000000000E+00  0.00000000000E+00  0.12355594378E+04  0.17951237988E+04  0.13022527898E+04 0.  0.
        5    1    3    3  502    0  0.19091702833E+03 -0.27974687857E+03  0.13843359820E+04  0.14251722102E+04  0.46999998093E+01 0.  1.
       -5    1    3    3    0  502 -0.19091702833E+03  0.27974687857E+03 -0.14877654420E+03  0.36995158856E+03  0.46999998093E+01 0. -1.
</event>
<event>
 5   0  0.3631841E-05  0.1300343E+04  0.7818609E-02  0.9029293E-01
        1   -1    0    0  501    0  0.00000000000E+00  0.00000000000E+00  0.82159503206E+03  0.82159503208E+03  0.50400001928E-02 0. -1.
       -1   -1    0    0    0  501  0.00000000000E+00  0.00000000000E+00 -0.51451499955E+03  0.51451499957E+03  0.50400001928E-02 0.  1.
    10030    2    1    2    0    0  0.00000000000E+00  0.00000000000E+00  0.30708003251E+03  0.13361100316E+04  0.13003429818E+04 0.  0.
        3    1    3    3  502    0  0.12189945821E+03 -0.62766542813E+03  0.27467938281E+03  0.69589664544E+03  0.10100000352E+00 0. -1.
       -3    1    3    3    0  502 -0.12189945821E+03  0.62766542813E+03  0.32400649701E+02  0.64021338621E+03  0.10100000352E+00 0.  1.
</event>
<event>
 5   0  0.2512000E-05  0.1300197E+04  0.7818609E-02  0.9029409E-01
       -3   -1    0    0    0  501  0.00000000000E+00  0.00000000000E+00  0.37835453376E+03  0.37835454724E+03  0.10100000352E+00 0. -1.
        3   -1    0    0  501    0  0.00000000000E+00  0.00000000000E+00 -0.11170164438E+04  0.11170164484E+04  0.10100000352E+00 0.  1.
    10030    2    1    2    0    0  0.00000000000E+00  0.00000000000E+00 -0.73866191003E+03  0.14953709956E+04  0.13001972916E+04 0.  0.
        1    1    3    3  502    0  0.63466781445E+03  0.11275196530E+03 -0.46632293858E+03  0.79559620628E+03  0.50400001928E-02 0.  1.
       -1    1    3    3    0  502 -0.63466781445E+03 -0.11275196530E+03 -0.27233897145E+03  0.69977478932E+03  0.50400001928E-02 0. -1.
</event>
<event>
 5   0  0.3551277E-05  0.1295649E+04  0.7818609E-02  0.9033023E-01
       -1   -1    0    0    0  501  0.00000000000E+00  0.00000000000E+00  0.23992757096E+03  0.23992757102E+03  0.50400001928E-02 0. -1.
        1   -1    0    0  501    0  0.00000000000E+00  0.00000000000E+00 -0.17491807534E+04  0.17491807534E+04  0.50400001928E-02 0.  1.
    10030    2    1    2    0    0  0.00000000000E+00  0.00000000000E+00 -0.15092531825E+04  0.19891083245E+04  0.12956491646E+04 0.  0.
        4    1    3    3  502    0  0.17407100215E+03 -0.28711599036E+03 -0.16051707970E+04  0.16399119508E+04  0.12699999809E+01 0.  1.
       -4    1    3    3    0  502 -0.17407100215E+03  0.28711599036E+03  0.95917614572E+02  0.34919637369E+03  0.12699999809E+01 0. -1.
</event>
<event>
 5   0  0.6742824E-05  0.1299367E+04  0.7818609E-02  0.9030068E-01
        2   -1    0    0  501    0  0.00000000000E+00  0.00000000000E+00  0.59584369528E+03  0.59584369529E+03  0.25500000920E-02 0.  1.
       -2   -1    0    0    0  501  0.00000000000E+00  0.00000000000E+00 -0.70838788021E+03  0.70838788021E+03  0.25500000920E-02 0. -1.
    10030    2    1    2    0    0  0.00000000000E+00  0.00000000000E+00 -0.11254418492E+03  0.13042315755E+04  0.12993666953E+04 0.  0.
        4    1    3    3  502    0 -0.37138285810E+02  0.14479282424E+03  0.57834711064E+03  0.59735350298E+03  0.12699999809E+01 0.  1.
       -4    1    3    3    0  502  0.37138285810E+02 -0.14479282424E+03 -0.69089129557E+03  0.70687807253E+03  0.12699999809E+01 0. -1.
</event>
<event>
 5   0  0.3631841E-05  0.1301364E+04  0.7818609E-02  0.9028484E-01
        1   -1    0    0  501    0  0.00000000000E+00  0.00000000000E+00  0.28855902947E+03  0.28855902952E+03  0.50400001928E-02 0.  1.
       -1   -1    0    0    0  501  0.00000000000E+00  0.00000000000E+00 -0.14672463571E+04  0.14672463571E+04  0.50400001928E-02 0. -1.
    10030    2    1    2    0    0  0.00000000000E+00  0.00000000000E+00 -0.11786873277E+04  0.17558053867E+04  0.13013641840E+04 0.  0.
        3    1    3    3  502    0  0.13383989981E+03  0.11465765719E+03 -0.14344317921E+04  0.14452176561E+04  0.10100000352E+00 0. -1.
       -3    1    3    3    0  502 -0.13383989981E+03 -0.11465765719E+03  0.25574446439E+03  0.31058773060E+03  0.10100000352E+00 0.  1.
</event>
<event>
 5   0  0.6688086E-05  0.1300296E+04  0.7818609E-02  0.9029331E-01
        2   -1    0    0  501    0  0.00000000000E+00  0.00000000000E+00  0.42984439353E+03  0.42984439354E+03  0.25500000920E-02 0.  1.
       -2   -1    0    0    0  501  0.00000000000E+00  0.00000000000E+00 -0.98336080421E+03  0.98336080421E+03  0.25500000920E-02 0. -1.
    10030    2    1    2    0    0  0.00000000000E+00  0.00000000000E+00 -0.55351641068E+03  0.14132051978E+04  0.13002955487E+04 0.  0.
        5    1    3    3  502    0 -0.12909433855E+03 -0.55721762350E+03 -0.61264650163E+03  0.83816147259E+03  0.46999998093E+01 0. -1.
       -5    1    3    3    0  502  0.12909433855E+03  0.55721762350E+03  0.59130090948E+02  0.57504372516E+03  0.46999998093E+01 0.  1.
</event>
<event>
 5   0  0.6618060E-05  0.1300179E+04  0.7818609E-02  0.9029424E-01
       -2   -1    0    0    0  501  0.00000000000E+00  0.00000000000E+00  0.37292733893E+03  0.37292733894E+03  0.25500000920E-02 0.  1.
        2   -1    0    0  501    0  0.00000000000E+00  0.00000000000E+00 -0.11332396968E+04  0.11332396968E+04  0.25500000920E-02 0. -1.
    10030    2    1    2    0    0  0.00000000000E+00  0.00000000000E+00 -0.76031235788E+03  0.15061670357E+04  0.13001785485E+04 0.  0.
        2    1    3    3  502    0  0.50330789492E+03  0.30503560114E+03 -0.70003944144E+03  0.91456042700E+03  0.25500000920E-02 0.  1.
       -2    1    3    3    0  502 -0.50330789492E+03 -0.30503560114E+03 -0.60272916436E+02  0.59160660875E+03  0.25500000920E-02 0. -1.
</event>
<event>
 5   0  0.6688086E-05  0.1304960E+04  0.7818609E-02  0.9025641E-01
       -2   -1    0    0    0  501  0.00000000000E+00  0.00000000000E+00  0.22278394143E+03  0.22278394144E+03  0.25500000920E-02 0. -1.
        2   -1    0    0  501    0  0.00000000000E+00  0.00000000000E+00 -0.19109560548E+04  0.19109560548E+04  0.25500000920E-02 0.  1.
    10030    2    1    2    0    0  0.00000000000E+00  0.00000000000E+00 -0.16881721134E+04  0.21337399963E+04  0.13049602627E+04 0.  0.
        5    1    3    3  502    0 -0.12975457534E+03 -0.47303378180E+03 -0.15475799819E+04  0.16234602240E+04  0.46999998093E+01 0.  1.
       -5    1    3    3    0  502  0.12975457534E+03  0.47303378180E+03 -0.14059213149E+03  0.51027977227E+03  0.46999998093E+01 0. -1.
</event>
<event>
 5   0  0.3631841E-05  0.1304914E+04  0.7818609E-02  0.9025678E-01
       -1   -1    0    0    0  501  0.00000000000E+00  0.00000000000E+00  0.85978997735E+03  0.85978997736E+03  0.50400001928E-02 0.  1.
        1   -1    0    0  501    0  0.00000000000E+00  0.00000000000E+00 -0.49512084148E+03  0.49512084150E+03  0.50400001928E-02 0. -1.
    10030    2    1    2    0    0  0.00000000000E+00  0.00000000000E+00  0.36466913587E+03  0.13549108189E+04  0.13049136939E+04 0.  0.
        3    1    3    3  502    0 -0.42505771298E+03  0.49416365925E+03  0.15245445568E+03  0.66941328993E+03  0.10100000352E+00 0.  1.
       -3    1    3    3    0  502  0.42505771298E+03 -0.49416365925E+03  0.21221468019E+03  0.68549752893E+03  0.10100000352E+00 0. -1.
</event>
<event>
 5   0  0.3551277E-05  0.1300905E+04  0.7818609E-02  0.9028848E-01
       -1   -1    0    0    0  501  0.00000000000E+00  0.00000000000E+00  0.40122104176E+03  0.40122104179E+03  0.50400001928E-02 0.  1.
        1   -1    0    0  501    0  0.00000000000E+00  0.00000000000E+00 -0.10545019449E+04  0.10545019449E+04  0.50400001928E-02 0. -1.
    10030    2    1    2    0    0  0.00000000000E+00  0.00000000000E+00 -0.65328090313E+03  0.14557229867E+04  0.13009048680E+04 0.  0.
        4    1    3    3  502    0 -0.27609728577E+02  0.50436300252E+03 -0.78521865146E+03  0.93365640303E+03  0.12699999809E+01 0. -1.
       -4    1    3    3    0  502  0.27609728577E+02 -0.50436300252E+03  0.13193774833E+03  0.52206658365E+03  0.12699999809E+01 0.  1.
</event>
<event>
 5   0  0.6458698E-05  0.1301273E+04  0.7818609E-02  0.9028556E-01
        2   -1    0    0  501    0  0.00000000000E+00  0.00000000000E+00  0.80867941412E+03  0.80867941413E+03  0.25500000920E-02 0. -1.
       -2   -1    0    0    0  501  0.00000000000E+00  0.00000000000E+00 -0.52348029289E+03  0.52348029290E+03  0.25500000920E-02 0.  1.
    10030    2    1    2    0    0  0.00000000000E+00  0.00000000000E+00  0.28519912123E+03  0.13321597070E+04  0.13012728178E+04 0.  0.
        3    1    3    3  502    0  0.44975046870E+03  0.95223397599E+02 -0.32874689119E+03  0.56517033558E+03  0.10100000352E+00 0.  1.
       -3    1    3    3    0  502 -0.44975046870E+03 -0.95223397599E+02  0.61394601242E+03  0.76698937145E+03  0.10100000352E+00 0. -1.
</event>
<event>
 5   0  0.3718559E-05  0.1300123E+04  0.7818609E-02  0.9029468E-01
       -1   -1    0    0    0  501  0.00000000000E+00  0.00000000000E+00  0.29695690984E+03  0.29695690989E+03  0.50400001928E-02 0.  1.
        1   -1    0    0  501    0  0.00000000000E+00  0.00000000000E+00 -0.14230337060E+04  0.14230337061E+04  0.50400001928E-02 0. -1.
    10030    2    1    2    0    0  0.00000000000E+00  0.00000000000E+00 -0.11260767962E+04  0.17199906159E+04  0.13001225973E+04 0.  0.
        2    1    3    3  502    0 -0.29033405405E+03  0.39254484457E+03 -0.11308182161E+04  0.12317204049E+04  0.25500000920E-02 0. -1.
       -2    1    3    3    0  502  0.29033405405E+03 -0.39254484457E+03  0.47414199007E+01  0.48827021106E+03  0.25500000920E-02 0.  1.
</event>
<event>
 5   0  0.6742824E-05  0.1300263E+04  0.7818609E-02  0.9029356E-01
        2   -1    0    0  501    0  0.00000000000E+00  0.00000000000E+00  0.45780836093E+03  0.45780836094E+03  0.25500000920E-02 0.  1.
       -2   -1    0    0    0  501  0.00000000000E+00  0.00000000000E+00 -0.92324929733E+03  0.92324929733E+03  0.25500000920E-02 0. -1.
    10030    2    1    2    0    0  0.00000000000E+00  0.00000000000E+00 -0.46544093640E+03  0.13810576583E+04  0.13002634311E+04 0.  0.
        4    1    3    3  502    0 -0.54735709875E+03  0.85107664423E+02 -0.59420063859E+03  0.81235406068E+03  0.12699999809E+01 0. -1.
       -4    1    3    3    0  502  0.54735709875E+03 -0.85107664423E+02  0.12875970220E+03  0.56870359759E+03  0.12699999809E+01 0.  1.
</event>
<event>
 5   0  0.3551277E-05  0.1300386E+04  0.7818609E-02  0.9029259E-01
        1   -1    0    0  501    0  0.00000000000E+00  0.00000000000E+00  0.81651242753E+03  0.81651242755E+03  0.50400001928E-02 0. -1.
       -1   -1    0    0    0  501  0.00000000000E+00  0.00000000000E+00 -0.51775233460E+03  0.51775233462E+03  0.50400001928E-02 0.  1.
    10030    2    1    2    0    0  0.00000000000E+00  0.00000000000E+00  0.29876009293E+03  0.13342647622E+04  0.13003864281E+04 0.  0.
        4    1    3    3  502    0 -0.19239652262E+03 -0.17180694370E+03 -0.46300704590E+03  0.53001055204E+03  0.12699999809E+01 0.  1.
       -4    1    3    3    0  502  0.19239652262E+03  0.17180694370E+03  0.76176713883E+03  0.80425421013E+03  0.12699999809E+01 0. -1.
</event>
<event>
 5   0  0.3689707E-05  0.1300682E+04  0.7818609E-02  0.9029024E-01
       -1   -1    0    0    0  501  0.00000000000E+00  0.00000000000E+00  0.28628836133E+03  0.28628836138E+03  0.50400001928E-02 0. -1.
        1   -1    0    0  501    0  0.00000000000E+00  0.00000000000E+00 -0.14773341373E+04  0.14773341374E+04  0.50400001928E-02 0.  1.
    10030    2    1    2    0    0  0.00000000000E+00  0.00000000000E+00 -0.11910457760E+04  0.17636224987E+04  0.13006822354E+04 0.  0.
        1    1    3    3  502    0 -0.59738047352E+03  0.19697460270E+03 -0.37156533200E+03  0.73056363187E+03  0.50400001928E-02 0.  1.
       -1    1    3    3    0  502  0.59738047352E+03 -0.19697460270E+03 -0.81948044401E+03  0.10330588669E+04  0.50400001928E-02 0. -1.
</event>
<event>
 5   0  0.3552698E-05  0.1300095E+04  0.7818609E-02  0.9029490E-01
       -1   -1    0    0    0  501  0.00000000000E+00  0.00000000000E+00  0.11683247167E+04  0.11683247167E+04  0.50400001928E-02 0. -1.
        1   -1    0    0  501    0  0.00000000000E+00  0.00000000000E+00 -0.36168151050E+03  0.36168151054E+03  0.50400001928E-02 0.  1.
    10030    2    1    2    0    0  0.00000000000E+00  0.00000000000E+00  0.80664320620E+03  0.15300062273E+04  0.13000945325E+04 0.  0.
        5    1    3    3  502    0  0.20715903905E+03 -0.55853245245E+03  0.70944990896E+03  0.92639874310E+03  0.46999998093E+01 0. -1.
       -5    1    3    3    0  502 -0.20715903905E+03  0.55853245245E+03  0.97193297247E+02  0.60360748416E+03  0.46999998093E+01 0.  1.
</event>
<event>
 5   0  0.3631841E-05  0.1299559E+04  0.7818609E-02  0.9029915E-01
        1   -1    0    0  501    0  0.00000000000E+00  0.00000000000E+00  0.15984152321E+04  0.15984152321E+04  0.50400001928E-02 0.  1.
       -1   -1    0    0    0  501  0.00000000000E+00  0.00000000000E+00 -0.26414512198E+03  0.26414512203E+03  0.50400001928E-02 0. -1.
    10030    2    1    2    0    0  0.00000000000E+00  0.00000000000E+00  0.13342701101E+04  0.18625603541E+04  0.12995592892E+04 0.  0.
        3    1    3    3  502    0 -0.42855355107E+03 -0.18916171855E+03  0.21748945915E+02  0.46894917502E+03  0.10100000352E+00 0. -1.
       -3    1    3    3    0  502  0.42855355107E+03  0.18916171855E+03  0.13125211642E+04  0.13936111791E+04  0.10100000352E+00 0.  1.
</event>
<event>
 5   0  0.6618060E-05  0.1299701E+04  0.7818609E-02  0.9029802E-01
       -2   -1    0    0    0  501  0.00000000000E+00  0.00000000000E+00  0.25189275891E+03  0.25189275892E+03  0.25500000920E-02 0.  1.
        2   -1    0    0  501    0  0.00000000000E+00  0.00000000000E+00 -0.16765295789E+04  0.16765295789E+04  0.25500000920E-02 0. -1.
    10030    2    1    2    0    0  0.00000000000E+00  0.00000000000E+00 -0.14246368200E+04  0.19284223379E+04  0.12997009826E+04 0.  0.
        2    1    3    3  502    0 -0.10282149314E+03 -0.57430867825E+03 -0.28769057278E+03  0.65051409134E+03  0.25500000920E-02 0.  1.
       -2    1    3    3    0  502  0.10282149314E+03  0.57430867825E+03 -0.11369462473E+04  0.12779082465E+04  0.25500000920E-02 0. -1.
</event>
<event>
 5   0  0.3551277E-05  0.1298375E+04  0.7818609E-02  0.9030855E-01
        1   -1    0    0  501    0  0.00000000000E+00  0.00000000000E+00  0.56214924773E+03  0.56214924775E+03  0.50400001928E-02 0. -1.
       -1   -1    0    0    0  501  0.00000000000E+00  0.00000000000E+00 -0.74970163363E+03  0.74970163364E+03  0.50400001928E-02 0.  1.
    10030    2    1    2    0    0  0.00000000000E+00  0.00000000000E+00 -0.18755238590E+03  0.13118508814E+04  0.12983746907E+04 0.  0.
        4    1    3    3  502    0  0.25018955428E+03 -0.26869214714E+03  0.44718007324E+03  0.57858613344E+03  0.12699999809E+01 0. -1.
       -4    1    3    3    0  502 -0.25018955428E+03  0.26869214714E+03 -0.63473245914E+03  0.73326474795E+03  0.12699999809E+01 0.  1.
</event>
<event>
 5   0  0.6688086E-05  0.1299783E+04  0.7818609E-02  0.9029737E-01
        2   -1    0    0  501    0  0.00000000000E+00  0.00000000000E+00  0.13637710061E+04  0.13637710061E+04  0.25500000920E-02 0.  1.
       -2   -1    0    0    0  501  0.00000000000E+00  0.00000000000E+00 -0.30969931014E+03  0.30969931015E+03  0.25500000920E-02 0. -1.
    10030    2    1    2    0    0  0.00000000000E+00  0.00000000000E+00  0.10540716960E+04  0.16734703162E+04  0.12997829662E+04 0.  0.
        5    1    3    3  502    0 -0.12426951001E+03 -0.27677264193E+03 -0.21290233555E+03  0.37066899104E+03  0.46999998093E+01 0. -1.
       -5    1    3    3    0  502  0.12426951001E+03  0.27677264193E+03  0.12669740315E+04  0.13028013252E+04  0.46999998093E+01 0.  1.
</event>
<event>
 5   0  0.2512000E-05  0.1299867E+04  0.7818609E-02  0.9029671E-01
       -3   -1    0    0    0  501  0.00000000000E+00  0.00000000000E+00  0.19039206724E+04  0.19039206751E+04  0.10100000352E+00 0. -1.
        3   -1    0    0  501    0  0.00000000000E+00  0.00000000000E+00 -0.22186513583E+03  0.22186515882E+03  0.10100000352E+00 0.  1.
    10030    2    1    2    0    0  0.00000000000E+00  0.00000000000E+00  0.16820555365E+04  0.21257858339E+04  0.12998671407E+04 0.  0.
        3    1    3    3  502    0 -0.39343001931E+03 -0.46531605933E+03  0.12107388975E+04  0.13554316299E+04  0.10100000352E+00 0. -1.
       -3    1    3    3    0  502  0.39343001931E+03  0.46531605933E+03  0.47131663907E+03  0.77035420400E+03  0.10100000352E+00 0.  1.
</event>
<event>
 5   0  0.6742824E-05  0.1299386E+04  0.7818609E-02  0.9030052E-01
        2   -1    0    0  501    0  0.00000000000E+00  0.00000000000E+00  0.10865728554E+04  0.10865728554E+04  0.25500000920E-02 0.  1.
       -2   -1    0    0    0  501  0.00000000000E+00  0.00000000000E+00 -0.38847004012E+03  0.38847004012E+03  0.25500000920E-02 0. -1.
    10030    2    1    2    0    0  0.00000000000E+00  0.00000000000E+00  0.69810281533E+03  0.14750428956E+04  0.12993860100E+04 0.  0.
        4    1    3    3  502    0  0.33101895642E+03  0.23947245980E+03  0.92249240822E+03  0.10089174717E+04  0.12699999809E+01 0.  1.
       -4    1    3    3    0  502 -0.33101895642E+03 -0.23947245980E+03 -0.22438959289E+03  0.46612542390E+03  0.12699999809E+01 0. -1.
</event>
<event>
 5   0  0.3689707E-05  0.1299456E+04  0.7818609E-02  0.9029997E-01
       -1   -1    0    0    0  501  0.00000000000E+00  0.00000000000E+00  0.23091774030E+03  0.23091774036E+03  0.50400001928E-02 0. -1.
        1   -1    0    0  501    0  0.00000000000E+00  0.00000000000E+00 -0.18281242279E+04  0.18281242279E+04  0.50400001928E-02 0.  1.
    10030    2    1    2    0    0  0.00000000000E+00  0.00000000000E+00 -0.15972064876E+04  0.20590419683E+04  0.12994557565E+04 0.  0.
        1    1    3    3  502    0 -0.38141199806E+03 -0.42138773422E+03 -0.29977805577E+03  0.64258043665E+03  0.50400001928E-02 0. -1.
       -1    1    3    3    0  502  0.38141199806E+03  0.42138773422E+03 -0.12974284318E+04  0.14164615316E+04  0.50400001928E-02 0.  1.
</event>
<event>
 5   0  0.6688086E-05  0.1299851E+04  0.7818609E-02  0.9029683E-01
       -2   -1    0    0    0  501  0.00000000000E+00  0.00000000000E+00  0.37164626956E+03  0.37164626956E+03  0.25500000920E-02 0. -1.
        2   -1    0    0  501    0  0.00000000000E+00  0.00000000000E+00 -0.11365739094E+04  0.11365739094E+04  0.25500000920E-02 0.  1.
    10030    2    1    2    0    0  0.00000000000E+00  0.00000000000E+00 -0.76492763982E+03  0.15082201789E+04  0.12998514584E+04 0.  0.
        5    1    3    3  502    0 -0.36974104807E+03  0.42277955946E+03 -0.76188497849E+03  0.94654202705E+03  0.46999998093E+01 0.  1.
       -5    1    3    3    0  502  0.36974104807E+03 -0.42277955946E+03 -0.30426613253E+01  0.56167815189E+03  0.46999998093E+01 0. -1.
</event>
<event>
 5   0  0.2512000E-05  0.1300277E+04  0.7818609E-02  0.9029345E-01
        3   -1    0    0  501    0  0.00000000000E+00  0.00000000000E+00  0.59751090770E+03  0.59751091623E+03  0.10100000352E+00 0.  1.
       -3   -1    0    0    0  501  0.00000000000E+00  0.00000000000E+00 -0.70740174740E+03  0.70740175461E+03  0.10100000352E+00 0. -1.
    10030    2    1    2    0    0  0.00000000000E+00  0.00000000000E+00 -0.10989083970E+03  0.13049126708E+04  0.13002773096E+04 0.  0.
        4    1    3    3  502    0 -0.25932333447E+03  0.22887489872E+03 -0.60740434036E+03  0.69898065543E+03  0.12699999809E+01 0. -1.
       -4    1    3    3    0  502  0.25932333447E+03 -0.22887489872E+03  0.49751350066E+03  0.60593201542E+03  0.12699999809E+01 0.  1.
</event>
<event>
 5   0  0.6671239E-05  0.1300076E+04  0.7818609E-02  0.9029505E-01
        2   -1    0    0  501    0  0.00000000000E+00  0.00000000000E+00  0.11002701447E+04  0.11002701447E+04  0.25500000920E-02 0.  1.
       -2   -1    0    0    0  501  0.00000000000E+00  0.00000000000E+00 -0.38404160370E+03  0.38404160370E+03  0.25500000920E-02 0. -1.
    10030    2    1    2    0    0  0.00000000000E+00  0.00000000000E+00  0.71622854097E+03  0.14843117484E+04  0.13000761683E+04 0.  0.
        1    1    3    3  502    0 -0.46374813227E+03 -0.44208181197E+03  0.48344720474E+03  0.80263307834E+03  0.50400001928E-02 0.  1.
       -1    1    3    3    0  502  0.46374813227E+03  0.44208181197E+03  0.23278133624E+03  0.68167867004E+03  0.50400001928E-02 0. -1.
</event>
<event>
 5   0  0.6458698E-05  0.1306565E+04  0.7818609E-02  0.9024375E-01
       -2   -1    0    0    0  501  0.00000000000E+00  0.00000000000E+00  0.53602738265E+03  0.53602738265E+03  0.25500000920E-02 0. -1.
        2   -1    0    0  501    0  0.00000000000E+00  0.00000000000E+00 -0.79618720720E+03  0.79618720720E+03  0.25500000920E-02 0.  1.
    10030    2    1    2    0    0  0.00000000000E+00  0.00000000000E+00 -0.26015982455E+03  0.13322145899E+04  0.13065651836E+04 0.  0.
        3    1    3    3  502    0  0.51173105133E+03 -0.40291684267E+03 -0.78414851916E+02  0.65601794961E+03  0.10100000352E+00 0.  1.
       -3    1    3    3    0  502 -0.51173105133E+03  0.40291684267E+03 -0.18174497264E+03  0.67619664025E+03  0.10100000352E+00 0. -1.
</event>
<event>
 5   0  0.3689707E-05  0.1299912E+04  0.7818609E-02  0.9029635E-01
       -1   -1    0    0    0  501  0.00000000000E+00  0.00000000000E+00  0.63353497854E+03  0.63353497856E+03  0.50400001928E-02 0. -1.
        1   -1    0    0  501    0  0.00000000000E+00  0.00000000000E+00 -0.66680229581E+03  0.66680229583E+03  0.50400001928E-02 0.  1.
    10030    2    1    2    0    0  0.00000000000E+00  0.00000000000E+00 -0.33267317272E+02  0.13003372744E+04  0.12999116558E+04 0.  0.
        1    1    3    3  502    0 -0.50602048447E+03  0.27912927341E+03 -0.31417464968E+03  0.65778080886E+03  0.50400001928E-02 0.  1.
       -1    1    3    3    0  502  0.50602048447E+03 -0.27912927341E+03  0.28090733241E+03  0.64255646553E+03  0.50400001928E-02 0. -1.
</event>
<event>
 5   0  0.3718559E-05  0.1300319E+04  0.7818609E-02  0.9029312E-01
        1   -1    0    0  501    0  0.00000000000E+00  0.00000000000E+00  0.53663730481E+03  0.53663730483E+03  0.50400001928E-02 0.  1.
       -1   -1    0    0    0  501  0.00000000000E+00  0.00000000000E+00 -0.78769703279E+03  0.78769703280E+03  0.50400001928E-02 0. -1.
    10030    2    1    2    0    0  0.00000000000E+00  0.00000000000E+00 -0.25105972798E+03  0.13243343376E+04  0.13003193649E+04 0.  0.
        2    1    3    3  502    0 -0.83258138211E+02  0.22830620546E+03 -0.73970266941E+03  0.77859853594E+03  0.25500000920E-02 0. -1.
       -2    1    3    3    0  502  0.83258138211E+02 -0.22830620546E+03  0.48864294143E+03  0.54573580169E+03  0.25500000920E-02 0.  1.
</event>
<event>
 5   0  0.6671239E-05  0.1300197E+04  0.7818609E-02  0.9029409E-01
       -2   -1    0    0    0  501  0.00000000000E+00  0.00000000000E+00  0.19641971449E+03  0.19641971451E+03  0.25500000920E-02 0. -1.
        2   -1    0    0  501    0  0.00000000000E+00  0.00000000000E+00 -0.21516570146E+04  0.21516570146E+04  0.25500000920E-02 0.  1.
    10030    2    1    2    0    0  0.00000000000E+00  0.00000000000E+00 -0.19552373001E+04  0.23480767291E+04  0.13001966875E+04 0.  0.
        1    1    3    3  502    0 -0.29517640869E+03  0.57700399938E+03 -0.10690842591E+04  0.12502015360E+04  0.50400001928E-02 0.  1.
       -1    1    3    3    0  502  0.29517640869E+03 -0.57700399938E+03 -0.88615304108E+03  0.10978751932E+04  0.50400001928E-02 0. -1.
</event>
<event>
 5   0  0.6458698E-05  0.1299701E+04  0.7818609E-02  0.9029802E-01
        2   -1    0    0  501    0  0.00000000000E+00  0.00000000000E+00  0.64671885743E+03  0.64671885743E+03  0.25500000920E-02 0. -1.
       -2   -1    0    0    0  501  0.00000000000E+00  0.00000000000E+00 -0.65299756861E+03  0.65299756862E+03  0.25500000920E-02 0.  1.
    10030    2    1    2    0    0  0.00000000000E+00  0.00000000000E+00 -0.62787111880E+01  0.12997164261E+04  0.12997012603E+04 0.  0.
        3    1    3    3  502    0 -0.23855546625E+03  0.21184338360E+03  0.56301166820E+03  0.64712323277E+03  0.10100000352E+00 0. -1.
       -3    1    3    3    0  502  0.23855546625E+03 -0.21184338360E+03 -0.56929037939E+03  0.65259319328E+03  0.10100000352E+00 0.  1.
</event>
<event>
 5   0  0.3552698E-05  0.1300966E+04  0.7818609E-02  0.9028799E-01
        1   -1    0    0  501    0  0.00000000000E+00  0.00000000000E+00  0.13431353285E+04  0.13431353285E+04  0.50400001928E-02 0. -1.
       -1   -1    0    0    0  501  0.00000000000E+00  0.00000000000E+00 -0.31503017101E+03  0.31503017105E+03  0.50400001928E-02 0.  1.
    10030    2    1    2    0    0  0.00000000000E+00  0.00000000000E+00  0.10281051575E+04  0.16581654995E+04  0.13009660292E+04 0.  0.
        5    1    3    3  502    0  0.10234603861E+03  0.52909495191E+03  0.49771672841E+02  0.54121667488E+03  0.46999998093E+01 0.  1.
       -5    1    3    3    0  502 -0.10234603861E+03 -0.52909495191E+03  0.97833348461E+03  0.11169488246E+04  0.46999998093E+01 0. -1.
</event>
<event>
 5   0  0.6458698E-05  0.1301370E+04  0.7818609E-02  0.9028480E-01
        2   -1    0    0  501    0  0.00000000000E+00  0.00000000000E+00  0.10001637503E+04  0.10001637503E+04  0.25500000920E-02 0.  1.
       -2   -1    0    0    0  501  0.00000000000E+00  0.00000000000E+00 -0.42332147215E+03  0.42332147216E+03  0.25500000920E-02 0. -1.
    10030    2    1    2    0    0  0.00000000000E+00  0.00000000000E+00  0.57684227817E+03  0.14234852225E+04  0.13013697264E+04 0.  0.
        3    1    3    3  502    0  0.55852708388E+03  0.23203420945E+03  0.25904107230E+02  0.60536221451E+03  0.10100000352E+00 0. -1.
       -3    1    3    3    0  502 -0.55852708388E+03 -0.23203420945E+03  0.55093817094E+03  0.81812300798E+03  0.10100000352E+00 0.  1.
</event>
<event>
 5   0  0.3718559E-05  0.1297633E+04  0.7818609E-02  0.9031444E-01
        1   -1    0    0  501    0  0.00000000000E+00  0.00000000000E+00  0.84954049831E+03  0.84954049832E+03  0.50400001928E-02 0.  1.
       -1   -1    0    0    0  501  0.00000000000E+00  0.00000000000E+00 -0.49551824385E+03  0.49551824387E+03  0.50400001928E-02 0. -1.
    10030    2    1    2    0    0  0.00000000000E+00  0.00000000000E+00  0.35402225446E+03  0.13450587422E+04  0.12976329463E+04 0.  0.
        2    1    3    3  502    0 -0.20796225746E+03 -0.30009793061E+03  0.73294855813E+03  0.81885325752E+03  0.25500000920E-02 0.  1.
       -2    1    3    3    0  502  0.20796225746E+03  0.30009793061E+03 -0.37892630367E+03  0.52620548468E+03  0.25500000920E-02 0. -1.
</event>
<event>
 5   0  0.3551277E-05  0.1300258E+04  0.7818609E-02  0.9029361E-01
       -1   -1    0    0    0  501  0.00000000000E+00  0.00000000000E+00  0.26532038412E+03  0.26532038417E+03  0.50400001928E-02 0. -1.
        1   -1    0    0  501    0  0.00000000000E+00  0.00000000000E+00 -0.15930460912E+04  0.15930460912E+04  0.50400001928E-02 0.  1.
    10030    2    1    2    0    0  0.00000000000E+00  0.00000000000E+00 -0.13277257071E+04  0.18583664754E+04  0.13002578220E+04 0.  0.
        4    1    3    3  502    0 -0.32931831899E+03 -0.17935762179E+03  0.95172618690E+02  0.38688389985E+03  0.12699999809E+01 0. -1.
       -4    1    3    3    0  502  0.32931831899E+03  0.17935762179E+03 -0.14228983258E+04  0.14714825755E+04  0.12699999809E+01 0.  1.
</event>
<event>
 5   0  0.6458698E-05  0.1297943E+04  0.7818609E-02  0.9031198E-01
        2   -1    0    0  501    0  0.00000000000E+00  0.00000000000E+00  0.57925102655E+03  0.57925102655E+03  0.25500000920E-02 0.  1.
       -2   -1    0    0    0  501  0.00000000000E+00  0.00000000000E+00 -0.72708360960E+03  0.72708360961E+03  0.25500000920E-02 0. -1.
    10030    2    1    2    0    0  0.00000000000E+00  0.00000000000E+00 -0.14783258305E+03  0.13063346362E+04  0.12979428759E+04 0.  0.
        3    1    3    3  502    0 -0.52050101759E+03  0.31976596151E+03 -0.29440421880E+03  0.67811904095E+03  0.10100000352E+00 0.  1.
       -3    1    3    3    0  502  0.52050101759E+03 -0.31976596151E+03  0.14657163575E+03  0.62821559521E+03  0.10100000352E+00 0. -1.
</event>
<event>
 5   0  0.3631841E-05  0.1300739E+04  0.7818609E-02  0.9028979E-01
        1   -1    0    0  501    0  0.00000000000E+00  0.00000000000E+00  0.87343196670E+03  0.87343196672E+03  0.50400001928E-02 0. -1.
       -1   -1    0    0    0  501  0.00000000000E+00  0.00000000000E+00 -0.48427428094E+03  0.48427428096E+03  0.50400001928E-02 0.  1.
    10030    2    1    2    0    0  0.00000000000E+00  0.00000000000E+00  0.38915768576E+03  0.13577062477E+04  0.13007392324E+04 0.  0.
        3    1    3    3  502    0  0.13129942407E+03  0.16554970765E+03  0.83660612447E+03  0.86287662047E+03  0.10100000352E+00 0. -1.
       -3    1    3    3    0  502 -0.13129942407E+03 -0.16554970765E+03 -0.44744843870E+03  0.49482962721E+03  0.10100000352E+00 0.  1.
</event>
<event>
 5   0  0.3689707E-05  0.1300548E+04  0.7818609E-02  0.9029130E-01
        1   -1    0    0  501    0  0.00000000000E+00  0.00000000000E+00  0.15953534199E+04  0.15953534199E+04  0.50400001928E-02 0. -1.
       -1   -1    0    0    0  501  0.00000000000E+00  0.00000000000E+00 -0.26505508485E+03  0.26505508490E+03  0.50400001928E-02 0.  1.
    10030    2    1    2    0    0  0.00000000000E+00  0.00000000000E+00  0.13302983351E+04  0.18604085048E+04  0.13005484015E+04 0.  0.
        1    1    3    3  502    0  0.59535770912E+03  0.26533562415E+02  0.10373536488E+04  0.11963517143E+04  0.50400001928E-02 0. -1.
       -1    1    3    3    0  502 -0.59535770912E+03 -0.26533562415E+02  0.29294468630E+03  0.66405679049E+03  0.50400001928E-02 0.  1.
</event>
<event>
 5   0  0.3551277E-05  0.1300612E+04  0.7818609E-02  0.9029080E-01
       -1   -1    0    0    0  501  0.00000000000E+00  0.00000000000E+00  0.54955455184E+03  0.54955455187E+03  0.50400001928E-02 0. -1.
        1   -1    0    0  501    0  0.00000000000E+00  0.00000000000E+00 -0.76952867697E+03  0.76952867699E+03  0.50400001928E-02 0.  1.
    10030    2    1    2    0    0  0.00000000000E+00  0.00000000000E+00 -0.21997412513E+03  0.13190832289E+04  0.13006121439E+04 0.  0.
        4    1    3    3  502    0 -0.59907876984E+03 -0.13333037659E+03  0.10806400389E+03  0.62317878945E+03  0.12699999809E+01 0. -1.
       -4    1    3    3    0  502  0.59907876984E+03  0.13333037659E+03 -0.32803812902E+03  0.69590443940E+03  0.12699999809E+01 0.  1.
</event>
<event>
 5   0  0.6618060E-05  0.1300250E+04  0.7818609E-02  0.9029367E-01
        2   -1    0    0  501    0  0.00000000000E+00  0.00000000000E+00  0.12333809611E+04  0.12333809611E+04  0.25500000920E-02 0.  1.
       -2   -1    0    0    0  501  0.00000000000E+00  0.00000000000E+00 -0.34268589938E+03  0.34268589939E+03  0.25500000920E-02 0. -1.
    10030    2    1    2    0    0  0.00000000000E+00  0.00000000000E+00  0.89069506173E+03  0.15760668605E+04  0.13002496129E+04 0.  0.
        2    1    3    3  502    0  0.32014907450E+03  0.27948077738E+03 -0.15101043217E+03  0.45100896384E+03  0.25500000920E-02 0. -1.
       -2    1    3    3    0  502 -0.32014907450E+03 -0.27948077738E+03  0.10417054939E+04  0.11250578967E+04  0.25500000920E-02 0.  1.
</event>
<event>
 5   0  0.6618060E-05  0.1300273E+04  0.7818609E-02  0.9029349E-01
       -2   -1    0    0    0  501  0.00000000000E+00  0.00000000000E+00  0.22610438625E+03  0.22610438626E+03  0.25500000920E-02 0.  1.
        2   -1    0    0  501    0  0.00000000000E+00  0.00000000000E+00 -0.18693899411E+04  0.18693899411E+04  0.25500000920E-02 0. -1.
    10030    2    1    2    0    0  0.00000000000E+00  0.00000000000E+00 -0.16432855548E+04  0.20954943274E+04  0.13002726872E+04 0.  0.
        2    1    3    3  502    0  0.25313302202E+03 -0.27784226435E+03 -0.16765473832E+04  0.17181629081E+04  0.25500000920E-02 0. -1.
       -2    1    3    3    0  502 -0.25313302202E+03  0.27784226435E+03  0.33261828378E+02  0.37733141922E+03  0.25500000920E-02 0.  1.
</event>
<event>
 5   0  0.6618060E-05  0.1301017E+04  0.7818609E-02  0.9028759E-01
       -2   -1    0    0    0  501  0.00000000000E+00  0.00000000000E+00  0.33954781389E+03  0.33954781390E+03  0.25500000920E-02 0.  1.
        2   -1    0    0  501    0  0.00000000000E+00  0.00000000000E+00 -0.12462498313E+04  0.12462498313E+04  0.25500000920E-02 0. -1.
    10030    2    1    2    0    0  0.00000000000E+00  0.00000000000E+00 -0.90670201742E+03  0.15857976452E+04  0.13010171495E+04 0.  0.
        2    1    3    3  502    0 -0.33285170855E+03 -0.55851536164E+03 -0.47867745411E+03  0.80737957253E+03  0.25500000920E-02 0.  1.
       -2    1    3    3    0  502  0.33285170855E+03  0.55851536164E+03 -0.42802456331E+03  0.77841807268E+03  0.25500000920E-02 0. -1.
</event>
<event>
 5   0  0.3718559E-05  0.1299517E+04  0.7818609E-02  0.9029948E-01
       -1   -1    0    0    0  501  0.00000000000E+00  0.00000000000E+00  0.36374620538E+03  0.36374620542E+03  0.50400001928E-02 0. -1.
        1   -1    0    0  501    0  0.00000000000E+00  0.00000000000E+00 -0.11606620481E+04  0.11606620481E+04  0.50400001928E-02 0.  1.
    10030    2    1    2    0    0  0.00000000000E+00  0.00000000000E+00 -0.79691584268E+03  0.15244082535E+04  0.12995174731E+04 0.  0.
        2    1    3    3  502    0 -0.33855122698E+03 -0.51385281685E+03 -0.64318802036E+03  0.89014183152E+03  0.25500000920E-02 0.  1.
       -2    1    3    3    0  502  0.33855122698E+03  0.51385281685E+03 -0.15372782233E+03  0.63426642197E+03  0.25500000920E-02 0. -1.
</event>
<event>
 5   0  0.3551277E-05  0.1299200E+04  0.7818609E-02  0.9030200E-01
        1   -1    0    0  501    0  0.00000000000E+00  0.00000000000E+00  0.58634215157E+03  0.58634215159E+03  0.50400001928E-02 0. -1.
       -1   -1    0    0    0  501  0.00000000000E+00  0.00000000000E+00 -0.71968287545E+03  0.71968287547E+03  0.50400001928E-02 0.  1.
    10030    2    1    2    0    0  0.00000000000E+00  0.00000000000E+00 -0.13334072388E+03  0.13060250271E+04  0.12992003782E+04 0.  0.
        4    1    3    3  502    0  0.50527064194E+03 -0.12898589241E+03  0.32271825000E+03  0.61325725746E+03  0.12699999809E+01 0. -1.
       -4    1    3    3    0  502 -0.50527064194E+03  0.12898589241E+03 -0.45605897388E+03  0.69276776960E+03  0.12699999809E+01 0.  1.
</event>
<event>
 5   0  0.3631841E-05  0.1300111E+04  0.7818609E-02  0.9029477E-01
       -1   -1    0    0    0  501  0.00000000000E+00  0.00000000000E+00  0.50625253668E+03  0.50625253671E+03  0.50400001928E-02 0.  1.
        1   -1    0    0  501    0  0.00000000000E+00  0.00000000000E+00 -0.83470597018E+03  0.83470597020E+03  0.50400001928E-02 0. -1.
    10030    2    1    2    0    0  0.00000000000E+00  0.00000000000E+00 -0.32845343350E+03  0.13409585069E+04  0.13001107873E+04 0.  0.
        3    1    3    3  502    0  0.62007480185E+03  0.27076581947E+02  0.35096379982E+02  0.62165719434E+03  0.10100000352E+00 0.  1.
       -3    1    3    3    0  502 -0.62007480185E+03 -0.27076581947E+02 -0.36354981348E+03  0.71930131257E+03  0.10100000352E+00 0. -1.
</event>
<event>
 5   0  0.6688086E-05  0.1300367E+04  0.7818609E-02  0.9029274E-01
        2   -1    0    0  501    0  0.00000000000E+00  0.00000000000E+00  0.96264748902E+03  0.96264748902E+03  0.25500000920E-02 0.  1.
       -2   -1    0    0    0  501  0.00000000000E+00  0.00000000000E+00 -0.43914176338E+03  0.43914176338E+03  0.25500000920E-02 0. -1.
    10030    2    1    2    0    0  0.00000000000E+00  0.00000000000E+00  0.52350572564E+03  0.14017892524E+04  0.13003672033E+04 0.  0.
        5    1    3    3  502    0  0.43874940457E+03 -0.11809363768E+03  0.76307205931E+03  0.88811497283E+03  0.46999998093E+01 0.  1.
       -5    1    3    3    0  502 -0.43874940457E+03  0.11809363768E+03 -0.23956633367E+03  0.51367427958E+03  0.46999998093E+01 0. -1.
</event>
<event>
 5   0  0.3551277E-05  0.1300165E+04  0.7818609E-02  0.9029434E-01
        1   -1    0    0  501    0  0.00000000000E+00  0.00000000000E+00  0.40479540463E+03  0.40479540466E+03  0.50400001928E-02 0.  1.
       -1   -1    0    0    0  501  0.00000000000E+00  0.00000000000E+00 -0.10440027055E+04  0.10440027055E+04  0.50400001928E-02 0. -1.
    10030    2    1    2    0    0  0.00000000000E+00  0.00000000000E+00 -0.63920730090E+03  0.14487981102E+04  0.13001653705E+04 0.  0.
        4    1    3    3  502    0  0.41805607398E+02 -0.26581585396E+03  0.33982439532E+03  0.43346050521E+03  0.12699999809E+01 0.  1.
       -4    1    3    3    0  502 -0.41805607398E+02  0.26581585396E+03 -0.97903169622E+03  0.10153376050E+04  0.12699999809E+01 0. -1.
</event>
<event>
 5   0  0.6688086E-05  0.1299795E+04  0.7818609E-02  0.9029728E-01
        2   -1    0    0  501    0  0.00000000000E+00  0.00000000000E+00  0.56960367383E+03  0.56960367384E+03  0.25500000920E-02 0.  1.
       -2   -1    0    0    0  501  0.00000000000E+00  0.00000000000E+00 -0.74150952675E+03  0.74150952675E+03  0.25500000920E-02 0. -1.
    10030    2    1    2    0    0  0.00000000000E+00  0.00000000000E+00 -0.17190585291E+03  0.13111132006E+04  0.12997946771E+04 0.  0.
        5    1    3    3  502    0  0.54425488056E+03 -0.26086023769E+03 -0.32905576957E+03  0.68743088969E+03  0.46999998093E+01 0.  1.
       -5    1    3    3    0  502 -0.54425488056E+03  0.26086023769E+03  0.15714991665E+03  0.62368231090E+03  0.46999998093E+01 0. -1.
</event>
<event>
 5   0  0.3551277E-05  0.1298775E+04  0.7818609E-02  0.9030537E-01
        1   -1    0    0  501    0  0.00000000000E+00  0.00000000000E+00  0.66199359153E+03  0.66199359155E+03  0.50400001928E-02 0.  1.
       -1   -1    0    0    0  501  0.00000000000E+00  0.00000000000E+00 -0.63702178412E+03  0.63702178413E+03  0.50400001928E-02 0. -1.
    10030    2    1    2    0    0  0.00000000000E+00  0.00000000000E+00  0.24971807417E+02  0.12990153757E+04  0.12987753290E+04 0.  0.
        4    1    3    3  502    0  0.23671749063E+03 -0.56372034620E+03 -0.20638535953E+03  0.64530018489E+03  0.12699999809E+01 0. -1.
       -4    1    3    3    0  502 -0.23671749063E+03  0.56372034620E+03  0.23135716694E+03  0.65371519080E+03  0.12699999809E+01 0.  1.
</event>
<event>
 5   0  0.3552698E-05  0.1299692E+04  0.7818609E-02  0.9029810E-01
       -1   -1    0    0    0  501  0.00000000000E+00  0.00000000000E+00  0.86325534430E+03  0.86325534432E+03  0.50400001928E-02 0. -1.
        1   -1    0    0  501    0  0.00000000000E+00  0.00000000000E+00 -0.48919445783E+03  0.48919445786E+03  0.50400001928E-02 0.  1.
    10030    2    1    2    0    0  0.00000000000E+00  0.00000000000E+00  0.37406088648E+03  0.13524498022E+04  0.12996918560E+04 0.  0.
        5    1    3    3  502    0  0.12913814918E+03 -0.89380511999E+02  0.84319165603E+03  0.85770612467E+03  0.46999998093E+01 0. -1.
       -5    1    3    3    0  502 -0.12913814918E+03  0.89380511999E+02 -0.46913076955E+03  0.49474367751E+03  0.46999998093E+01 0.  1.
</event>
<event>
 5   0  0.3631841E-05  0.1300399E+04  0.7818609E-02  0.9029249E-01
       -1   -1    0    0    0  501  0.00000000000E+00  0.00000000000E+00  0.73377619931E+03  0.73377619933E+03  0.50400001928E-02 0.  1.
        1   -1    0    0  501    0  0.00000000000E+00  0.00000000000E+00 -0.57614186213E+03  0.57614186216E+03  0.50400001928E-02 0. -1.
    10030    2    1    2    0    0  0.00000000000E+00  0.00000000000E+00  0.15763433718E+03  0.13099180615E+04  0.13003986864E+04 0.  0.
        3    1    3    3  502    0 -0.63228141223E+03  0.13626378919E+03  0.11911293671E+02  0.64690763917E+03  0.10100000352E+00 0. -1.
       -3    1    3    3    0  502  0.63228141223E+03 -0.13626378919E+03  0.14572304350E+03  0.66301042232E+03  0.10100000352E+00 0.  1.
</event>
<event>
 5   0  0.3689707E-05  0.1301194E+04  0.7818609E-02  0.9028619E-01
        1   -1    0    0  501    0  0.00000000000E+00  0.00000000000E+00  0.15063844217E+04  0.15063844217E+04  0.50400001928E-02 0.  1.
       -1   -1    0    0    0  501  0.00000000000E+00  0.00000000000E+00 -0.28098846667E+03  0.28098846672E+03  0.50400001928E-02 0. -1.
    10030    2    1    2    0    0  0.00000000000E+00  0.00000000000E+00  0.12253959550E+04  0.17873728884E+04  0.13011942959E+04 0.  0.
        1    1    3    3  502    0 -0.41520244362E+03  0.36955333889E+03  0.14826553002E+03  0.57527854722E+03  0.50400001928E-02 0. -1.
       -1    1    3    3    0  502  0.41520244362E+03 -0.36955333889E+03  0.10771304250E+04  0.12120943412E+04  0.50400001928E-02 0.  1.
</event>
<event>
 5   0  0.6742824E-05  0.1300008E+04  0.7818609E-02  0.9029559E-01
       -2   -1    0    0    0  501  0.00000000000E+00  0.00000000000E+00  0.38609565264E+03  0.38609565265E+03  0.25500000920E-02 0. -1.
        2   -1    0    0  501    0  0.00000000000E+00  0.00000000000E+00 -0.10943016521E+04  0.10943016521E+04  0.25500000920E-02 0.  1.
    10030    2    1    2    0    0  0.00000000000E+00  0.00000000000E+00 -0.70820599946E+03  0.14803973047E+04  0.13000078624E+04 0.  0.
        4    1    3    3  502    0  0.46557510132E+03  0.31965206476E+03 -0.72057488054E+03  0.91551482175E+03  0.12699999809E+01 0.  1.
       -4    1    3    3    0  502 -0.46557510132E+03 -0.31965206476E+03  0.12368881079E+02  0.56488248300E+03  0.12699999809E+01 0. -1.
</event>
<event>
 5   0  0.6618060E-05  0.1299940E+04  0.7818609E-02  0.9029613E-01
       -2   -1    0    0    0  501  0.00000000000E+00  0.00000000000E+00  0.38012618924E+03  0.38012618925E+03  0.25500000920E-02 0. -1.
        2   -1    0    0  501    0  0.00000000000E+00  0.00000000000E+00 -0.11113703999E+04  0.11113703999E+04  0.25500000920E-02 0.  1.
    10030    2    1    2    0    0  0.00000000000E+00  0.00000000000E+00 -0.73124421069E+03  0.14914965892E+04  0.12999399909E+04 0.  0.
        2    1    3    3  502    0  0.35408420767E+03  0.54098723789E+03 -0.28935793861E+03  0.70835784341E+03  0.25500000920E-02 0.  1.
       -2    1    3    3    0  502 -0.35408420767E+03 -0.54098723789E+03 -0.44188627208E+03  0.78313874578E+03  0.25500000920E-02 0. -1.
</event>
<event>
 5   0  0.3631841E-05  0.1299987E+04  0.7818609E-02  0.9029575E-01
       -1   -1    0    0    0  501  0.00000000000E+00  0.00000000000E+00  0.57351817799E+03  0.57351817802E+03  0.50400001928E-02 0.  1.
        1   -1    0    0  501    0  0.00000000000E+00  0.00000000000E+00 -0.73666647216E+03  0.73666647218E+03  0.50400001928E-02 0. -1.
    10030    2    1    2    0    0  0.00000000000E+00  0.00000000000E+00 -0.16314829417E+03  0.13101846502E+04  0.12999870968E+04 0.  0.
        3    1    3    3  502    0  0.62261897898E+03  0.16859277407E+03 -0.16228785926E+03  0.66514304921E+03  0.10100000352E+00 0. -1.
       -3    1    3    3    0  502 -0.62261897898E+03 -0.16859277407E+03 -0.86043490951E+00  0.64504160099E+03  0.10100000352E+00 0.  1.
</event>
<event>
 5   0  0.6458698E-05  0.1300015E+04  0.7818609E-02  0.9029553E-01
        2   -1    0    0  501    0  0.00000000000E+00  0.00000000000E+00  0.52484564013E+03  0.52484564014E+03  0.25500000920E-02 0. -1.
       -2   -1    0    0    0  501  0.00000000000E+00  0.00000000000E+00 -0.80501751199E+03  0.80501751199E+03  0.25500000920E-02 0.  1.
    10030    2    1    2    0    0  0.00000000000E+00  0.00000000000E+00 -0.28017187186E+03  0.13298631521E+04  0.13000152790E+04 0.  0.
        3    1    3    3  502    0  0.39906050108E+02  0.43366365114E+03 -0.63371379605E+03  0.76892772135E+03  0.10100000352E+00 0.  1.
       -3    1    3    3    0  502 -0.39906050108E+02 -0.43366365114E+03  0.35354192419E+03  0.56093543079E+03  0.10100000352E+00 0. -1.
</event>
<event>
 5   0  0.3689707E-05  0.1299983E+04  0.7818609E-02  0.9029579E-01
       -1   -1    0    0    0  501  0.00000000000E+00  0.00000000000E+00  0.53501170438E+03  0.53501170440E+03  0.50400001928E-02 0. -1.
        1   -1    0    0  501    0  0.00000000000E+00  0.00000000000E+00 -0.78968155374E+03  0.78968155376E+03  0.50400001928E-02 0.  1.
    10030    2    1    2    0    0  0.00000000000E+00  0.00000000000E+00 -0.25466984936E+03  0.13246932582E+04  0.12999828830E+04 0.  0.
        1    1    3    3  502    0 -0.59382830154E+03 -0.12309425606E+03  0.11100111594E+03  0.61652696239E+03  0.50400001928E-02 0. -1.
       -1    1    3    3    0  502  0.59382830154E+03  0.12309425606E+03 -0.36567096530E+03  0.70816629578E+03  0.50400001928E-02 0.  1.
</event>
<event>
 5   0  0.3551277E-05  0.1300052E+04  0.7818609E-02  0.9029524E-01
        1   -1    0    0  501    0  0.00000000000E+00  0.00000000000E+00  0.19599476088E+04  0.19599476088E+04  0.50400001928E-02 0.  1.
       -1   -1    0    0    0  501  0.00000000000E+00  0.00000000000E+00 -0.21558418494E+03  0.21558418500E+03  0.50400001928E-02 0. -1.
    10030    2    1    2    0    0  0.00000000000E+00  0.00000000000E+00  0.17443634239E+04  0.21755317938E+04  0.13000518572E+04 0.  0.
        4    1    3    3  502    0  0.46919987847E+03 -0.30547279395E+03  0.31952264697E+03  0.64463826184E+03  0.12699999809E+01 0. -1.
       -4    1    3    3    0  502 -0.46919987847E+03  0.30547279395E+03  0.14248407769E+04  0.15308935320E+04  0.12699999809E+01 0.  1.
</event>
<event>
 5   0  0.3552698E-05  0.1300869E+04  0.7818609E-02  0.9028876E-01
       -1   -1    0    0    0  501  0.00000000000E+00  0.00000000000E+00  0.35550108551E+03  0.35550108555E+03  0.50400001928E-02 0. -1.
        1   -1    0    0  501    0  0.00000000000E+00  0.00000000000E+00 -0.11900535554E+04  0.11900535554E+04  0.50400001928E-02 0.  1.
    10030    2    1    2    0    0  0.00000000000E+00  0.00000000000E+00 -0.83455246993E+03  0.15455546410E+04  0.13008694490E+04 0.  0.
        5    1    3    3  502    0  0.93487288596E+02  0.18380607963E+03  0.31561351410E+03  0.37703916020E+03  0.46999998093E+01 0. -1.
       -5    1    3    3    0  502 -0.93487288596E+02 -0.18380607963E+03 -0.11501659840E+04  0.11685154808E+04  0.46999998093E+01 0.  1.
</event>
<event>
 5   0  0.6458698E-05  0.1300218E+04  0.7818609E-02  0.9029392E-01
        2   -1    0    0  501    0  0.00000000000E+00  0.00000000000E+00  0.14546886436E+04  0.14546886436E+04  0.25500000920E-02 0.  1.
       -2   -1    0    0    0  501  0.00000000000E+00  0.00000000000E+00 -0.29053764247E+03  0.29053764248E+03  0.25500000920E-02 0. -1.
    10030    2    1    2    0    0  0.00000000000E+00  0.00000000000E+00  0.11641510011E+04  0.17452262860E+04  0.13002181495E+04 0.  0.
        3    1    3    3  502    0 -0.13491650287E+03 -0.25963777565E+03 -0.19715910416E+03  0.35282567912E+03  0.10100000352E+00 0. -1.
       -3    1    3    3    0  502  0.13491650287E+03  0.25963777565E+03  0.13613101052E+04  0.13924006069E+04  0.10100000352E+00 0.  1.
</event>
<event>
 5   0  0.3689707E-05  0.1298854E+04  0.7818609E-02  0.9030475E-01
       -1   -1    0    0    0  501  0.00000000000E+00  0.00000000000E+00  0.87004114941E+03  0.87004114942E+03  0.50400001928E-02 0. -1.
        1   -1    0    0  501    0  0.00000000000E+00  0.00000000000E+00 -0.48475321108E+03  0.48475321110E+03  0.50400001928E-02 0.  1.
    10030    2    1    2    0    0  0.00000000000E+00  0.00000000000E+00  0.38528793833E+03  0.13547943605E+04  0.12988537115E+04 0.  0.
        1    1    3    3  502    0  0.36089169970E+03  0.65015731974E+01  0.75577593940E+03  0.83754543755E+03  0.50400001928E-02 0. -1.
       -1    1    3    3    0  502 -0.36089169970E+03 -0.65015731974E+01 -0.37048800106E+03  0.51724892298E+03  0.50400001928E-02 0.  1.
</event>
<event>
 5   0  0.6671239E-05  0.1300665E+04  0.7818609E-02  0.9029038E-01
       -2   -1    0    0    0  501  0.00000000000E+00  0.00000000000E+00  0.67032880779E+03  0.67032880779E+03  0.25500000920E-02 0.  1.
        2   -1    0    0  501    0  0.00000000000E+00  0.00000000000E+00 -0.63093252510E+03  0.63093252511E+03  0.25500000920E-02 0. -1.
    10030    2    1    2    0    0  0.00000000000E+00  0.00000000000E+00  0.39396282683E+02  0.13012613329E+04  0.13006648259E+04 0.  0.
        1    1    3    3  502    0  0.29395331123E+03 -0.47322861179E+03 -0.31598275403E+03  0.64046777364E+03  0.50400001928E-02 0. -1.
       -1    1    3    3    0  502 -0.29395331123E+03  0.47322861179E+03  0.35537903672E+03  0.66079355926E+03  0.50400001928E-02 0.  1.
</event>
<event>
 5   0  0.3551277E-05  0.1299762E+04  0.7818609E-02  0.9029754E-01
        1   -1    0    0  501    0  0.00000000000E+00  0.00000000000E+00  0.49739733491E+03  0.49739733493E+03  0.50400001928E-02 0. -1.
       -1   -1    0    0    0  501  0.00000000000E+00  0.00000000000E+00 -0.84911099821E+03  0.84911099823E+03  0.50400001928E-02 0.  1.
    10030    2    1    2    0    0  0.00000000000E+00  0.00000000000E+00 -0.35171366330E+03  0.13465083332E+04  0.12997623592E+04 0.  0.
        4    1    3    3  502    0  0.38939324904E+03  0.50728450406E+03 -0.29568563020E+03  0.70455395483E+03  0.12699999809E+01 0.  1.
       -4    1    3    3    0  502 -0.38939324904E+03 -0.50728450406E+03 -0.56028033101E+02  0.64195437833E+03  0.12699999809E+01 0. -1.
</event>
<event>
 5   0  0.3552698E-05  0.1300419E+04  0.7818609E-02  0.9029233E-01
       -1   -1    0    0    0  501  0.00000000000E+00  0.00000000000E+00  0.61487368306E+03  0.61487368308E+03  0.50400001928E-02 0. -1.
        1   -1    0    0  501    0  0.00000000000E+00  0.00000000000E+00 -0.68757596389E+03  0.68757596391E+03  0.50400001928E-02 0.  1.
    10030    2    1    2    0    0  0.00000000000E+00  0.00000000000E+00 -0.72702280826E+02  0.13024496470E+04  0.13004189561E+04 0.  0.
        5    1    3    3  502    0  0.23844211187E+03 -0.55756295102E+03 -0.27127912237E+03  0.66433842075E+03  0.46999998093E+01 0.  1.
       -5    1    3    3    0  502 -0.23844211187E+03  0.55756295102E+03  0.19857684154E+03  0.63811122624E+03  0.46999998093E+01 0. -1.
</event>
<event>
 5   0  0.3718559E-05  0.1302227E+04  0.7818609E-02  0.9027801E-01
        1   -1    0    0  501    0  0.00000000000E+00  0.00000000000E+00  0.55262918787E+03  0.55262918790E+03  0.50400001928E-02 0. -1.
       -1   -1    0    0    0  501  0.00000000000E+00  0.00000000000E+00 -0.76714884810E+03  0.76714884811E+03  0.50400001928E-02 0.  1.
    10030    2    1    2    0    0  0.00000000000E+00  0.00000000000E+00 -0.21451966022E+03  0.13197780360E+04  0.13022270845E+04 0.  0.
        2    1    3    3  502    0  0.10959481820E+03 -0.44419784449E+03 -0.57678127749E+03  0.73620607937E+03  0.25500000920E-02 0.  1.
       -2    1    3    3    0  502 -0.10959481820E+03  0.44419784449E+03  0.36226161727E+03  0.58357195664E+03  0.25500000920E-02 0. -1.
</event>
<event>
 5   0  0.3718559E-05  0.1300108E+04  0.7818609E-02  0.9029480E-01
       -1   -1    0    0    0  501  0.00000000000E+00  0.00000000000E+00  0.25358701431E+03  0.25358701436E+03  0.50400001928E-02 0.  1.
        1   -1    0    0  501    0  0.00000000000E+00  0.00000000000E+00 -0.16663708397E+04  0.16663708397E+04  0.50400001928E-02 0. -1.
    10030    2    1    2    0    0  0.00000000000E+00  0.00000000000E+00 -0.14127838254E+04  0.19199578541E+04  0.13001076971E+04 0.  0.
        2    1    3    3  502    0  0.46378462143E+02  0.64707020642E+03 -0.64516045662E+03  0.91492230740E+03  0.25500000920E-02 0.  1.
       -2    1    3    3    0  502 -0.46378462143E+02 -0.64707020642E+03 -0.76762336878E+03  0.10050355467E+04  0.25500000920E-02 0. -1.
</event>
<event>
 5   0  0.3552698E-05  0.1299192E+04  0.7818609E-02  0.9030206E-01
        1   -1    0    0  501    0  0.00000000000E+00  0.00000000000E+00  0.92141899885E+03  0.92141899886E+03  0.50400001928E-02 0.  1.
       -1   -1    0    0    0  501  0.00000000000E+00  0.00000000000E+00 -0.45796191290E+03  0.45796191293E+03  0.50400001928E-02 0. -1.
    10030    2    1    2    0    0  0.00000000000E+00  0.00000000000E+00  0.46345708594E+03  0.13793809118E+04  0.12991917600E+04 0.  0.
        5    1    3    3  502    0  0.13925881819E+03 -0.78037993674E+02 -0.43679390385E+03  0.46507413531E+03  0.46999998093E+01 0. -1.
       -5    1    3    3    0  502 -0.13925881819E+03  0.78037993674E+02  0.90025098979E+03  0.91430677648E+03  0.46999998093E+01 0.  1.
</event>
<event>
 5   0  0.6618060E-05  0.1300000E+04  0.7818609E-02  0.9029565E-01
        2   -1    0    0  501    0  0.00000000000E+00  0.00000000000E+00  0.78587295282E+03  0.78587295282E+03  0.25500000920E-02 0.  1.
       -2   -1    0    0    0  501  0.00000000000E+00  0.00000000000E+00 -0.53761846166E+03  0.53761846167E+03  0.25500000920E-02 0. -1.
    10030    2    1    2    0    0  0.00000000000E+00  0.00000000000E+00  0.24825449116E+03  0.13234914145E+04  0.12999997046E+04 0.  0.
        2    1    3    3  502    0 -0.19061803097E+03  0.50936116563E+03 -0.23827695304E+03  0.59376757838E+03  0.25500000920E-02 0. -1.
       -2    1    3    3    0  502  0.19061803097E+03 -0.50936116563E+03  0.48653144419E+03  0.72972383611E+03  0.25500000920E-02 0.  1.
</event>
<event>
 5   0  0.3551277E-05  0.1299905E+04  0.7818609E-02  0.9029640E-01
       -1   -1    0    0    0  501  0.00000000000E+00  0.00000000000E+00  0.40103124763E+03  0.40103124766E+03  0.50400001928E-02 0.  1.
        1   -1    0    0  501    0  0.00000000000E+00  0.00000000000E+00 -0.10533802916E+04  0.10533802916E+04  0.50400001928E-02 0. -1.
    10030    2    1    2    0    0  0.00000000000E+00  0.00000000000E+00 -0.65234904395E+03  0.14544115392E+04  0.12999052467E+04 0.  0.
        4    1    3    3  502    0  0.52878188914E+03  0.34416764415E+02  0.94912289751E+02  0.53833517032E+03  0.12699999809E+01 0.  1.
       -4    1    3    3    0  502 -0.52878188914E+03 -0.34416764415E+02 -0.74726133370E+03  0.91607636892E+03  0.12699999809E+01 0. -1.
</event>
<event>
 5   0  0.3689707E-05  0.1300090E+04  0.7818609E-02  0.9029494E-01
       -1   -1    0    0    0  501  0.00000000000E+00  0.00000000000E+00  0.49742161527E+03  0.49742161530E+03  0.50400001928E-02 0.  1.
        1   -1    0    0  501    0  0.00000000000E+00  0.00000000000E+00 -0.84949755449E+03  0.84949755450E+03  0.50400001928E-02 0. -1.
    10030    2    1    2    0    0  0.00000000000E+00  0.00000000000E+00 -0.35207593921E+03  0.13469191698E+04  0.13000899134E+04 0.  0.
        1    1    3    3  502    0 -0.45057627668E+03  0.13589756602E+03 -0.64059945908E+03  0.79489294660E+03  0.50400001928E-02 0. -1.
       -1    1    3    3    0  502  0.45057627668E+03 -0.13589756602E+03  0.28852351986E+03  0.55202622320E+03  0.50400001928E-02 0.  1.
</event>
<event>
 5   0  0.3689707E-05  0.1300527E+04  0.7818609E-02  0.9029148E-01
        1   -1    0    0  501    0  0.00000000000E+00  0.00000000000E+00  0.20669175750E+04  0.20669175750E+04  0.50400001928E-02 0.  1.
       -1   -1    0    0    0  501  0.00000000000E+00  0.00000000000E+00 -0.20457633116E+03  0.20457633123E+03  0.50400001928E-02 0. -1.
    10030    2    1    2    0    0  0.00000000000E+00  0.00000000000E+00  0.18623412439E+04  0.22714939063E+04  0.13005266847E+04 0.  0.
        1    1    3    3  502    0  0.68019460888E+02 -0.50314686292E+03  0.16407678583E+04  0.17175280427E+04  0.50400001928E-02 0.  1.
       -1    1    3    3    0  502 -0.68019460888E+02  0.50314686292E+03  0.22157338556E+03  0.55396586352E+03  0.50400001928E-02 0. -1.
</event>
<event>
 5   0  0.2512000E-05  0.1300093E+04  0.7818609E-02  0.9029491E-01
        3   -1    0    0  501    0  0.00000000000E+00  0.00000000000E+00  0.76634698023E+03  0.76634698689E+03  0.10100000352E+00 0. -1.
       -3   -1    0    0    0  501  0.00000000000E+00  0.00000000000E+00 -0.55139575573E+03  0.55139576498E+03  0.10100000352E+00 0.  1.
    10030    2    1    2    0    0  0.00000000000E+00  0.00000000000E+00  0.21495122450E+03  0.13177427519E+04  0.13000930471E+04 0.  0.
        3    1    3    3  502    0  0.24932772825E+03  0.80586718610E+02 -0.49549711664E+03  0.56051399455E+03  0.10100000352E+00 0.  1.
       -3    1    3    3    0  502 -0.24932772825E+03 -0.80586718610E+02  0.71044834113E+03  0.75722875732E+03  0.10100000352E+00 0. -1.
</event>
<event>
 5   0  0.6742824E-05  0.1298302E+04  0.7818609E-02  0.9030913E-01
       -2   -1    0    0    0  501  0.00000000000E+00  0.00000000000E+00  0.84114308606E+03  0.84114308607E+03  0.25500000920E-02 0.  1.
        2   -1    0    0  501    0  0.00000000000E+00  0.00000000000E+00 -0.50098101942E+03  0.50098101943E+03  0.25500000920E-02 0. -1.
    10030    2    1    2    0    0  0.00000000000E+00  0.00000000000E+00  0.34016206664E+03  0.13421241055E+04  0.12983015378E+04 0.  0.
        4    1    3    3  502    0 -0.59898955082E+03 -0.24994414307E+03  0.18207218482E+03  0.67410121646E+03  0.12699999809E+01 0. -1.
       -4    1    3    3    0  502  0.59898955082E+03  0.24994414307E+03  0.15808988182E+03  0.66802288904E+03  0.12699999809E+01 0.  1.
</event>
<event>
 5   0  0.3631841E-05  0.1300064E+04  0.7818609E-02  0.9029514E-01
       -1   -1    0    0    0  501  0.00000000000E+00  0.00000000000E+00  0.10049468626E+04  0.10049468626E+04  0.50400001928E-02 0.  1.
        1   -1    0    0  501    0  0.00000000000E+00  0.00000000000E+00 -0.42046179882E+03  0.42046179885E+03  0.50400001928E-02 0. -1.
    10030    2    1    2    0    0  0.00000000000E+00  0.00000000000E+00  0.58448506374E+03  0.14254086614E+04  0.13000642531E+04 0.  0.
        3    1    3    3  502    0  0.28020437243E+03  0.22286764075E+03 -0.30261363305E+03  0.46878512853E+03  0.10100000352E+00 0. -1.
       -3    1    3    3    0  502 -0.28020437243E+03 -0.22286764075E+03  0.88709869679E+03  0.95662353289E+03  0.10100000352E+00 0.  1.
</event>
<event>
 5   0  0.6742824E-05  0.1294983E+04  0.7818609E-02  0.9033553E-01
        2   -1    0    0  501    0  0.00000000000E+00  0.00000000000E+00  0.16690083185E+04  0.16690083185E+04  0.25500000920E-02 0.  1.
       -2   -1    0    0    0  501  0.00000000000E+00  0.00000000000E+00 -0.25119432028E+03  0.25119432029E+03  0.25500000920E-02 0. -1.
    10030    2    1    2    0    0  0.00000000000E+00  0.00000000000E+00  0.14178139982E+04  0.19202026388E+04  0.12949832588E+04 0.  0.
        4    1    3    3  502    0  0.12670171346E+03 -0.33813133354E+03  0.15058456005E+04  0.15485343743E+04  0.12699999809E+01 0.  1.
       -4    1    3    3    0  502 -0.12670171346E+03  0.33813133354E+03 -0.88031602300E+02  0.37166826448E+03  0.12699999809E+01 0. -1.
</event>
<event>
 5   0  0.6458698E-05  0.1300417E+04  0.7818609E-02  0.9029235E-01
        2   -1    0    0  501    0  0.00000000000E+00  0.00000000000E+00  0.17921202885E+04  0.17921202885E+04  0.25500000920E-02 0. -1.
       -2   -1    0    0    0  501  0.00000000000E+00  0.00000000000E+00 -0.23590541074E+03  0.23590541075E+03  0.25500000920E-02 0.  1.
    10030    2    1    2    0    0  0.00000000000E+00  0.00000000000E+00  0.15562148777E+04  0.20280256992E+04  0.13004166606E+04 0.  0.
        3    1    3    3  502    0  0.22666679350E+03 -0.46337203196E+03  0.13954082696E+04  0.14877014904E+04  0.10100000352E+00 0. -1.
       -3    1    3    3    0  502 -0.22666679350E+03  0.46337203196E+03  0.16080660810E+03  0.54032420886E+03  0.10100000352E+00 0.  1.
</event>
<event>
 5   0  0.6671239E-05  0.1299922E+04  0.7818609E-02  0.9029627E-01
        2   -1    0    0  501    0  0.00000000000E+00  0.00000000000E+00  0.80792648599E+03  0.80792648599E+03  0.25500000920E-02 0. -1.
       -2   -1    0    0    0  501  0.00000000000E+00  0.00000000000E+00 -0.52288084151E+03  0.52288084151E+03  0.25500000920E-02 0.  1.
    10030    2    1    2    0    0  0.00000000000E+00  0.00000000000E+00  0.28504564448E+03  0.13308073275E+04  0.12999219682E+04 0.  0.
        1    1    3    3  502    0 -0.49451053216E+03 -0.41635734532E+03  0.73427212432E+02  0.65060407389E+03  0.50400001928E-02 0. -1.
       -1    1    3    3    0  502  0.49451053216E+03  0.41635734532E+03  0.21161843205E+03  0.68020325361E+03  0.50400001928E-02 0.  1.
</event>
<event>
 5   0  0.6742824E-05  0.1299629E+04  0.7818609E-02  0.9029860E-01
        2   -1    0    0  501    0  0.00000000000E+00  0.00000000000E+00  0.12545812512E+04  0.12545812513E+04  0.25500000920E-02 0.  1.
       -2   -1    0    0    0  501  0.00000000000E+00  0.00000000000E+00 -0.33657342949E+03  0.33657342950E+03  0.25500000920E-02 0. -1.
    10030    2    1    2    0    0  0.00000000000E+00  0.00000000000E+00  0.91800782176E+03  0.15911546807E+04  0.12996287382E+04 0.  0.
        4    1    3    3  502    0  0.39268756850E+02 -0.46375952460E+03 -0.96195738294E+02  0.47525799824E+03  0.12699999809E+01 0. -1.
       -4    1    3    3    0  502 -0.39268756850E+02  0.46375952460E+03  0.10142035601E+04  0.11158966825E+04  0.12699999809E+01 0.  1.
</event>
<event>
 5   0  0.3631841E-05  0.1298757E+04  0.7818609E-02  0.9030552E-01
       -1   -1    0    0    0  501  0.00000000000E+00  0.00000000000E+00  0.65948368308E+03  0.65948368310E+03  0.50400001928E-02 0.  1.
        1   -1    0    0  501    0  0.00000000000E+00  0.00000000000E+00 -0.63942787243E+03  0.63942787245E+03  0.50400001928E-02 0. -1.
    10030    2    1    2    0    0  0.00000000000E+00  0.00000000000E+00  0.20055810649E+02  0.12989115555E+04  0.12987567107E+04 0.  0.
        3    1    3    3  502    0 -0.59549432633E+03 -0.15107923615E+03 -0.20036307095E+03  0.64620724129E+03  0.10100000352E+00 0. -1.
       -3    1    3    3    0  502  0.59549432633E+03  0.15107923615E+03  0.22041888160E+03  0.65270431426E+03  0.10100000352E+00 0.  1.
</event>
<event>
 5   0  0.6458698E-05  0.1299777E+04  0.7818609E-02  0.9029742E-01
       -2   -1    0    0    0  501  0.00000000000E+00  0.00000000000E+00  0.75275396062E+03  0.75275396063E+03  0.25500000920E-02 0. -1.
        2   -1    0    0  501    0  0.00000000000E+00  0.00000000000E+00 -0.56107946435E+03  0.56107946436E+03  0.25500000920E-02 0.  1.
    10030    2    1    2    0    0  0.00000000000E+00  0.00000000000E+00  0.19167449627E+03  0.13138334250E+04  0.12997765793E+04 0.  0.
        3    1    3    3  502    0 -0.56838372253E+03 -0.16364823019E+03  0.36803370589E+03  0.69662731654E+03  0.10100000352E+00 0. -1.
       -3    1    3    3    0  502  0.56838372253E+03  0.16364823019E+03 -0.17635920962E+03  0.61720610845E+03  0.10100000352E+00 0.  1.
</event>
<event>
 5   0  0.3689707E-05  0.1301402E+04  0.7818609E-02  0.9028454E-01
        1   -1    0    0  501    0  0.00000000000E+00  0.00000000000E+00  0.98012171263E+03  0.98012171265E+03  0.50400001928E-02 0.  1.
       -1   -1    0    0    0  501  0.00000000000E+00  0.00000000000E+00 -0.43199894707E+03  0.43199894710E+03  0.50400001928E-02 0. -1.
    10030    2    1    2    0    0  0.00000000000E+00  0.00000000000E+00  0.54812276557E+03  0.14121206597E+04  0.13014016258E+04 0.  0.
        1    1    3    3  502    0  0.34097165560E+02  0.30066850534E+03 -0.35101006176E+03  0.46343524929E+03  0.50400001928E-02 0. -1.
       -1    1    3    3    0  502 -0.34097165560E+02 -0.30066850534E+03  0.89913282733E+03  0.94868541045E+03  0.50400001928E-02 0.  1.
</event>
<event>
 5   0  0.6742824E-05  0.1298027E+04  0.7818609E-02  0.9031132E-01
       -2   -1    0    0    0  501  0.00000000000E+00  0.00000000000E+00  0.53820747993E+03  0.53820747994E+03  0.25500000920E-02 0.  1.
        2   -1    0    0  501    0  0.00000000000E+00  0.00000000000E+00 -0.78263167467E+03  0.78263167467E+03  0.25500000920E-02 0. -1.
    10030    2    1    2    0    0  0.00000000000E+00  0.00000000000E+00 -0.24442419473E+03  0.13208391546E+04  0.12980265349E+04 0.  0.
        4    1    3    3  502    0  0.40981470470E+03  0.37170897437E+03  0.22301575514E+03  0.59653440283E+03  0.12699999809E+01 0.  1.
       -4    1    3    3    0  502 -0.40981470470E+03 -0.37170897437E+03 -0.46743994988E+03  0.72430475178E+03  0.12699999809E+01 0. -1.
</event>
<event>
 5   0  0.6618060E-05  0.1299766E+04  0.7818609E-02  0.9029751E-01
       -2   -1    0    0    0  501  0.00000000000E+00  0.00000000000E+00  0.25576622193E+03  0.25576622195E+03  0.25500000920E-02 0. -1.
        2   -1    0    0  501    0  0.00000000000E+00  0.00000000000E+00 -0.16513043253E+04  0.16513043253E+04  0.25500000920E-02 0.  1.
    10030    2    1    2    0    0  0.00000000000E+00  0.00000000000E+00 -0.13955381034E+04  0.19070705472E+04  0.12997659306E+04 0.  0.
        2    1    3    3  502    0 -0.17454224219E+03  0.20088257705E+03  0.17215678415E+03  0.31694914798E+03  0.25500000920E-02 0. -1.
       -2    1    3    3    0  502  0.17454224219E+03 -0.20088257705E+03 -0.15676948875E+04  0.15901213993E+04  0.25500000920E-02 0.  1.
</event>
<event>
 5   0  0.6671239E-05  0.1299320E+04  0.7818609E-02  0.9030105E-01
       -2   -1    0    0    0  501  0.00000000000E+00  0.00000000000E+00  0.33577649748E+03  0.33577649749E+03  0.25500000920E-02 0.  1.
        2   -1    0    0  501    0  0.00000000000E+00  0.00000000000E+00 -0.12569607087E+04  0.12569607087E+04  0.25500000920E-02 0. -1.
    10030    2    1    2    0    0  0.00000000000E+00  0.00000000000E+00 -0.92118421120E+03  0.15927372062E+04  0.12993196131E+04 0.  0.
        1    1    3    3  502    0  0.18718966929E+03  0.51720490770E+01  0.30197601101E+03  0.35532553191E+03  0.50400001928E-02 0.  1.
       -1    1    3    3    0  502 -0.18718966929E+03 -0.51720490770E+01 -0.12231602222E+04  0.12374116743E+04  0.50400001928E-02 0. -1.
</event>
<event>
 5   0  0.6458698E-05  0.1299600E+04  0.7818609E-02  0.9029883E-01
       -2   -1    0    0    0  501  0.00000000000E+00  0.00000000000E+00  0.60085783561E+03  0.60085783562E+03  0.25500000920E-02 0.  1.
        2   -1    0    0  501    0  0.00000000000E+00  0.00000000000E+00 -0.70272849611E+03  0.70272849611E+03  0.25500000920E-02 0. -1.
    10030    2    1    2    0    0  0.00000000000E+00  0.00000000000E+00 -0.10187066049E+03  0.13035863317E+04  0.12995998203E+04 0.  0.
        3    1    3    3  502    0 -0.31019867367E+02 -0.16043873934E+03  0.57991126516E+03  0.60249473600E+03  0.10100000352E+00 0.  1.
       -3    1    3    3    0  502  0.31019867367E+02  0.16043873934E+03 -0.68178192565E+03  0.70109159573E+03  0.10100000352E+00 0. -1.
</event>
<event>
 5   0  0.2512000E-05  0.1300510E+04  0.7818609E-02  0.9029161E-01
        3   -1    0    0  501    0  0.00000000000E+00  0.00000000000E+00  0.79498012138E+03  0.79498012779E+03  0.10100000352E+00 0. -1.
       -3   -1    0    0    0  501  0.00000000000E+00  0.00000000000E+00 -0.53187658536E+03  0.53187659495E+03  0.10100000352E+00 0.  1.
    10030    2    1    2    0    0  0.00000000000E+00  0.00000000000E+00  0.26310353602E+03  0.13268567227E+04  0.13005096278E+04 0.  0.
        3    1    3    3  502    0  0.35045423075E+02  0.26636109699E+03 -0.47260606670E+03  0.54362939596E+03  0.10100000352E+00 0.  1.
       -3    1    3    3    0  502 -0.35045423075E+02 -0.26636109699E+03  0.73570960272E+03  0.78322732678E+03  0.10100000352E+00 0. -1.
</event>
<event>
 5   0  0.6618060E-05  0.1300265E+04  0.7818609E-02  0.9029355E-01
       -2   -1    0    0    0  501  0.00000000000E+00  0.00000000000E+00  0.94973777645E+03  0.94973777645E+03  0.25500000920E-02 0.  1.
        2   -1    0    0  501    0  0.00000000000E+00  0.00000000000E+00 -0.44504077255E+03  0.44504077256E+03  0.25500000920E-02 0. -1.
    10030    2    1    2    0    0  0.00000000000E+00  0.00000000000E+00  0.50469700390E+03  0.13947785490E+04  0.13002646404E+04 0.  0.
        2    1    3    3  502    0 -0.44124967139E+02  0.57077711139E+03 -0.78169191348E+02  0.57779230360E+03  0.25500000920E-02 0. -1.
       -2    1    3    3    0  502  0.44124967139E+02 -0.57077711139E+03  0.58286619525E+03  0.81698624541E+03  0.25500000920E-02 0.  1.
</event>
<event>
 5   0  0.3718559E-05  0.1300405E+04  0.7818609E-02  0.9029244E-01
        1   -1    0    0  501    0  0.00000000000E+00  0.00000000000E+00  0.77093138966E+03  0.77093138968E+03  0.50400001928E-02 0. -1.
       -1   -1    0    0    0  501  0.00000000000E+00  0.00000000000E+00 -0.54837952365E+03  0.54837952368E+03  0.50400001928E-02 0.  1.
    10030    2    1    2    0    0  0.00000000000E+00  0.00000000000E+00  0.22255186601E+03  0.13193109134E+04  0.13004045344E+04 0.  0.
        2    1    3    3  502    0 -0.23217642874E+03  0.32605137770E+03  0.63111953179E+03  0.74734681265E+03  0.25500000920E-02 0. -1.
       -2    1    3    3    0  502  0.23217642874E+03 -0.32605137770E+03 -0.40856766578E+03  0.57196410070E+03  0.25500000920E-02 0.  1.
</event>
<event>
 5   0  0.3718559E-05  0.1300557E+04  0.7818609E-02  0.9029124E-01
        1   -1    0    0  501    0  0.00000000000E+00  0.00000000000E+00  0.46312232847E+03  0.46312232850E+03  0.50400001928E-02 0.  1.
       -1   -1    0    0    0  501  0.00000000000E+00  0.00000000000E+00 -0.91306721930E+03  0.91306721931E+03  0.50400001928E-02 0. -1.
    10030    2    1    2    0    0  0.00000000000E+00  0.00000000000E+00 -0.44994489082E+03  0.13761895478E+04  0.13005565219E+04 0.  0.
        2    1    3    3  502    0 -0.50706691765E+03 -0.40403611000E+03 -0.17206706073E+03  0.67079736922E+03  0.25500000920E-02 0. -1.
       -2    1    3    3    0  502  0.50706691765E+03  0.40403611000E+03 -0.27787783009E+03  0.70539217859E+03  0.25500000920E-02 0.  1.
</event>
<event>
 5   0  0.3551277E-05  0.1300518E+04  0.7818609E-02  0.9029154E-01
       -1   -1    0    0    0  501  0.00000000000E+00  0.00000000000E+00  0.44706839964E+03  0.44706839967E+03  0.50400001928E-02 0.  1.
        1   -1    0    0  501    0  0.00000000000E+00  0.00000000000E+00 -0.94579937822E+03  0.94579937824E+03  0.50400001928E-02 0. -1.
    10030    2    1    2    0    0  0.00000000000E+00  0.00000000000E+00 -0.49873097859E+03  0.13928677779E+04  0.13005183804E+04 0.  0.
        4    1    3    3  502    0  0.22825576635E+03 -0.20809617953E-02  0.40275075636E+03  0.46293679863E+03  0.12699999809E+01 0.  1.
       -4    1    3    3    0  502 -0.22825576635E+03  0.20809617953E-02 -0.90148173495E+03  0.92993097928E+03  0.12699999809E+01 0. -1.
</event>
<event>
 5   0  0.3552698E-05  0.1297519E+04  0.7818609E-02  0.9031535E-01
       -1   -1    0    0    0  501  0.00000000000E+00  0.00000000000E+00  0.26926729124E+03  0.26926729128E+03  0.50400001928E-02 0. -1.
        1   -1    0    0  501    0  0.00000000000E+00  0.00000000000E+00 -0.15630905603E+04  0.15630905603E+04  0.50400001928E-02 0.  1.
    10030    2    1    2    0    0  0.00000000000E+00  0.00000000000E+00 -0.12938232690E+04  0.18323578516E+04  0.12975194198E+04 0.  0.
        5    1    3    3  502    0  0.22064425412E+03  0.58996404509E+03 -0.42756267608E+03  0.76129717808E+03  0.46999998093E+01 0. -1.
       -5    1    3    3    0  502 -0.22064425412E+03 -0.58996404509E+03 -0.86626059295E+03  0.10710606735E+04  0.46999998093E+01 0.  1.
</event>
<event>
 5   0  0.3552698E-05  0.1300109E+04  0.7818609E-02  0.9029479E-01
       -1   -1    0    0    0  501  0.00000000000E+00  0.00000000000E+00  0.48665232688E+03  0.48665232691E+03  0.50400001928E-02 0.  1.
        1   -1    0    0  501    0  0.00000000000E+00  0.00000000000E+00 -0.86832160609E+03  0.86832160611E+03  0.50400001928E-02 0. -1.
    10030    2    1    2    0    0  0.00000000000E+00  0.00000000000E+00 -0.38166927921E+03  0.13549739330E+04  0.13001088110E+04 0.  0.
        5    1    3    3  502    0 -0.12132618740E+03  0.23473711479E+03  0.42813684557E+03  0.50313497726E+03  0.46999998093E+01 0.  1.
       -5    1    3    3    0  502  0.12132618740E+03 -0.23473711479E+03 -0.80980612478E+03  0.85183895575E+03  0.46999998093E+01 0. -1.
</event>
<event>
 5   0  0.6458698E-05  0.1300121E+04  0.7818609E-02  0.9029469E-01
       -2   -1    0    0    0  501  0.00000000000E+00  0.00000000000E+00  0.31748741936E+03  0.31748741937E+03  0.25500000920E-02 0. -1.
        2   -1    0    0  501    0  0.00000000000E+00  0.00000000000E+00 -0.13310095990E+04  0.13310095991E+04  0.25500000920E-02 0.  1.
    10030    2    1    2    0    0  0.00000000000E+00  0.00000000000E+00 -0.10135221797E+04  0.16484970184E+04  0.13001212294E+04 0.  0.
        3    1    3    3  502    0  0.98770266708E+02  0.37774321389E+03 -0.11657731633E+04  0.12294196110E+04  0.10100000352E+00 0.  1.
       -3    1    3    3    0  502 -0.98770266708E+02 -0.37774321389E+03  0.15225098365E+03  0.41907740747E+03  0.10100000352E+00 0. -1.
</event>
<event>
 5   0  0.6458698E-05  0.1299117E+04  0.7818609E-02  0.9030266E-01
       -2   -1    0    0    0  501  0.00000000000E+00  0.00000000000E+00  0.42357131441E+03  0.42357131442E+03  0.25500000920E-02 0. -1.
        2   -1    0    0  501    0  0.00000000000E+00  0.00000000000E+00 -0.99611588717E+03  0.99611588718E+03  0.25500000920E-02 0.  1.
    10030    2    1    2    0    0  0.00000000000E+00  0.00000000000E+00 -0.57254457276E+03  0.14196872016E+04  0.12991168010E+04 0.  0.
        3    1    3    3  502    0  0.60231561280E+03 -0.24147406413E+03 -0.31779911864E+03  0.72255803302E+03  0.10100000352E+00 0.  1.
       -3    1    3    3    0  502 -0.60231561280E+03  0.24147406413E+03 -0.25474545412E+03  0.69712916857E+03  0.10100000352E+00 0. -1.
</event>
<event>
 5   0  0.3552698E-05  0.1299989E+04  0.7818609E-02  0.9029574E-01
       -1   -1    0    0    0  501  0.00000000000E+00  0.00000000000E+00  0.10341491607E+04  0.10341491607E+04  0.50400001928E-02 0. -1.
        1   -1    0    0  501    0  0.00000000000E+00  0.00000000000E+00 -0.40854139898E+03  0.40854139902E+03  0.50400001928E-02 0.  1.
    10030    2    1    2    0    0  0.00000000000E+00  0.00000000000E+00  0.62560776170E+03  0.14426905597E+04  0.12999888383E+04 0.  0.
        5    1    3    3  502    0  0.37340673423E+03 -0.27478075027E+03 -0.19276202864E+03  0.50211187953E+03  0.46999998093E+01 0.  1.
       -5    1    3    3    0  502 -0.37340673423E+03  0.27478075027E+03  0.81836979034E+03  0.94057868018E+03  0.46999998093E+01 0. -1.
</event>
<event>
 5   0  0.6671239E-05  0.1301338E+04  0.7818609E-02  0.9028505E-01
        2   -1    0    0  501    0  0.00000000000E+00  0.00000000000E+00  0.82502127810E+03  0.82502127811E+03  0.25500000920E-02 0. -1.
       -2   -1    0    0    0  501  0.00000000000E+00  0.00000000000E+00 -0.51316289901E+03  0.51316289902E+03  0.25500000920E-02 0.  1.
    10030    2    1    2    0    0  0.00000000000E+00  0.00000000000E+00  0.31185837909E+03  0.13381841771E+04  0.13013382509E+04 0.  0.
        1    1    3    3  502    0  0.14396566533E+03  0.12278204731E+03  0.79610620963E+03  0.81828273902E+03  0.50400001928E-02 0. -1.
       -1    1    3    3    0  502 -0.14396566533E+03 -0.12278204731E+03 -0.48424783054E+03  0.51990143810E+03  0.50400001928E-02 0.  1.
</event>
<event>
 5   0  0.3718559E-05  0.1300238E+04  0.7818609E-02  0.9029376E-01
       -1   -1    0    0    0  501  0.00000000000E+00  0.00000000000E+00  0.12981776196E+04  0.12981776196E+04  0.50400001928E-02 0.  1.
        1   -1    0    0  501    0  0.00000000000E+00  0.00000000000E+00 -0.32557539755E+03  0.32557539759E+03  0.50400001928E-02 0. -1.
    10030    2    1    2    0    0  0.00000000000E+00  0.00000000000E+00  0.97260222205E+03  0.16237530172E+04  0.13002379700E+04 0.  0.
        2    1    3    3  502    0 -0.39844285403E+03 -0.49321651364E+03  0.66569356732E+03  0.91932973564E+03  0.25500000920E-02 0.  1.
       -2    1    3    3    0  502  0.39844285403E+03  0.49321651364E+03  0.30690865472E+03  0.70442328156E+03  0.25500000920E-02 0. -1.
</event>
<event>
 5   0  0.6458698E-05  0.1298164E+04  0.7818609E-02  0.9031022E-01
       -2   -1    0    0    0  501  0.00000000000E+00  0.00000000000E+00  0.14673125692E+04  0.14673125692E+04  0.25500000920E-02 0.  1.
        2   -1    0    0  501    0  0.00000000000E+00  0.00000000000E+00 -0.28712863347E+03  0.28712863348E+03  0.25500000920E-02 0. -1.
    10030    2    1    2    0    0  0.00000000000E+00  0.00000000000E+00  0.11801839358E+04  0.17544412027E+04  0.12981640157E+04 0.  0.
        3    1    3    3  502    0  0.75053150354E+02 -0.16213789453E+03  0.14334253468E+04  0.14445171883E+04  0.10100000352E+00 0.  1.
       -3    1    3    3    0  502 -0.75053150354E+02  0.16213789453E+03 -0.25324141106E+03  0.30992401439E+03  0.10100000352E+00 0. -1.
</event>
<event>
 5   0  0.6742824E-05  0.1300093E+04  0.7818609E-02  0.9029491E-01
        2   -1    0    0  501    0  0.00000000000E+00  0.00000000000E+00  0.73947336220E+03  0.73947336221E+03  0.25500000920E-02 0.  1.
       -2   -1    0    0    0  501  0.00000000000E+00  0.00000000000E+00 -0.57143424755E+03  0.57143424755E+03  0.25500000920E-02 0. -1.
    10030    2    1    2    0    0  0.00000000000E+00  0.00000000000E+00  0.16803911466E+03  0.13109076098E+04  0.13000929264E+04 0.  0.
        4    1    3    3  502    0 -0.11605870620E+03  0.61952980385E+03  0.24431361104E+03  0.67600114984E+03  0.12699999809E+01 0. -1.
       -4    1    3    3    0  502  0.11605870620E+03 -0.61952980385E+03 -0.76274496384E+02  0.63490645992E+03  0.12699999809E+01 0.  1.
</event>
<event>
 5   0  0.6688086E-05  0.1299931E+04  0.7818609E-02  0.9029620E-01
       -2   -1    0    0    0  501  0.00000000000E+00  0.00000000000E+00  0.26614391576E+03  0.26614391577E+03  0.25500000920E-02 0.  1.
        2   -1    0    0  501    0  0.00000000000E+00  0.00000000000E+00 -0.15873183724E+04  0.15873183724E+04  0.25500000920E-02 0. -1.
    10030    2    1    2    0    0  0.00000000000E+00  0.00000000000E+00 -0.13211744566E+04  0.18534622881E+04  0.12999309631E+04 0.  0.
        5    1    3    3  502    0  0.36373957489E+03 -0.47799835732E+03 -0.30658228475E+03  0.67439135171E+03  0.46999998093E+01 0.  1.
       -5    1    3    3    0  502 -0.36373957489E+03  0.47799835732E+03 -0.10145921719E+04  0.11790709364E+04  0.46999998093E+01 0. -1.
</event>
<event>
 5   0  0.3689707E-05  0.1300035E+04  0.7818609E-02  0.9029538E-01
       -1   -1    0    0    0  501  0.00000000000E+00  0.00000000000E+00  0.70535105011E+03  0.70535105013E+03  0.50400001928E-02 0. -1.
        1   -1    0    0  501    0  0.00000000000E+00  0.00000000000E+00 -0.59902433097E+03  0.59902433099E+03  0.50400001928E-02 0.  1.
    10030    2    1    2    0    0  0.00000000000E+00  0.00000000000E+00  0.10632671914E+03  0.13043753811E+04  0.13000345240E+04 0.  0.
        1    1    3    3  502    0  0.14942076584E+03 -0.20139082226E+03 -0.54853698536E+03  0.60313982864E+03  0.50400001928E-02 0.  1.
       -1    1    3    3    0  502 -0.14942076584E+03  0.20139082226E+03  0.65486370450E+03  0.70123555248E+03  0.50400001928E-02 0. -1.
</event>
<event>
 5   0  0.3631841E-05  0.1300110E+04  0.7818609E-02  0.9029478E-01
        1   -1    0    0  501    0  0.00000000000E+00  0.00000000000E+00  0.93429021056E+03  0.93429021058E+03  0.50400001928E-02 0. -1.
       -1   -1    0    0    0  501  0.00000000000E+00  0.00000000000E+00 -0.45229174566E+03  0.45229174569E+03  0.50400001928E-02 0.  1.
    10030    2    1    2    0    0  0.00000000000E+00  0.00000000000E+00  0.48199846490E+03  0.13865819563E+04  0.13001103804E+04 0.  0.
        3    1    3    3  502    0 -0.25107345925E+03 -0.46388765951E+03 -0.16419366544E+03  0.55243932930E+03  0.10100000352E+00 0.  1.
       -3    1    3    3    0  502  0.25107345925E+03  0.46388765951E+03  0.64619213035E+03  0.83414262696E+03  0.10100000352E+00 0. -1.
</event>
<event>
 5   0  0.3551277E-05  0.1300193E+04  0.7818609E-02  0.9029412E-01
       -1   -1    0    0    0  501  0.00000000000E+00  0.00000000000E+00  0.18539339871E+03  0.18539339878E+03  0.50400001928E-02 0. -1.
        1   -1    0    0  501    0  0.00000000000E+00  0.00000000000E+00 -0.22796128604E+04  0.22796128604E+04  0.50400001928E-02 0.  1.
    10030    2    1    2    0    0  0.00000000000E+00  0.00000000000E+00 -0.20942194617E+04  0.24650062592E+04  0.13001925642E+04 0.  0.
        4    1    3    3  502    0 -0.50630057515E+03 -0.39084465100E+03 -0.82663495615E+03  0.10451922202E+04  0.12699999809E+01 0. -1.
       -4    1    3    3    0  502  0.50630057515E+03  0.39084465100E+03 -0.12675845055E+04  0.14198140390E+04  0.12699999809E+01 0.  1.
</event>
<event>
 5   0  0.3552698E-05  0.1299472E+04  0.7818609E-02  0.9029984E-01
       -1   -1    0    0    0  501  0.00000000000E+00  0.00000000000E+00  0.10970503111E+04  0.10970503112E+04  0.50400001928E-02 0. -1.
        1   -1    0    0  501    0  0.00000000000E+00  0.00000000000E+00 -0.38481109224E+03  0.38481109227E+03  0.50400001928E-02 0.  1.
    10030    2    1    2    0    0  0.00000000000E+00  0.00000000000E+00  0.71223921890E+03  0.14818614034E+04  0.12994723983E+04 0.  0.
        5    1    3    3  502    0  0.60471993364E+03 -0.72422601678E+01  0.85308684786E+02  0.61076862245E+03  0.46999998093E+01 0.  1.
       -5    1    3    3    0  502 -0.60471993364E+03  0.72422601678E+01  0.62693053411E+03  0.87109278098E+03  0.46999998093E+01 0. -1.
</event>
<event>
 5   0  0.6458698E-05  0.1299543E+04  0.7818609E-02  0.9029928E-01
       -2   -1    0    0    0  501  0.00000000000E+00  0.00000000000E+00  0.41266338583E+03  0.41266338584E+03  0.25500000920E-02 0.  1.
        2   -1    0    0  501    0  0.00000000000E+00  0.00000000000E+00 -0.10231165109E+04  0.10231165109E+04  0.25500000920E-02 0. -1.
    10030    2    1    2    0    0  0.00000000000E+00  0.00000000000E+00 -0.61045312509E+03  0.14357798968E+04  0.12995425711E+04 0.  0.
        3    1    3    3  502    0 -0.38534315645E+03 -0.51930774598E+03 -0.23506450489E+03  0.68805901994E+03  0.10100000352E+00 0. -1.
       -3    1    3    3    0  502  0.38534315645E+03  0.51930774598E+03 -0.37538862021E+03  0.74772087682E+03  0.10100000352E+00 0.  1.
</event>
<event>
 5   0  0.3718559E-05  0.1301534E+04  0.7818609E-02  0.9028349E-01
        1   -1    0    0  501    0  0.00000000000E+00  0.00000000000E+00  0.47654092463E+03  0.47654092466E+03  0.50400001928E-02 0. -1.
       -1   -1    0    0    0  501  0.00000000000E+00  0.00000000000E+00 -0.88869125895E+03  0.88869125896E+03  0.50400001928E-02 0.  1.
    10030    2    1    2    0    0  0.00000000000E+00  0.00000000000E+00 -0.41215033432E+03  0.13652321836E+04  0.13015341014E+04 0.  0.
        2    1    3    3  502    0 -0.32519907372E+02  0.11119171780E+03 -0.87778772316E+03  0.88539958742E+03  0.25500000920E-02 0.  1.
       -2    1    3    3    0  502  0.32519907372E+02 -0.11119171780E+03  0.46563738884E+03  0.47983259620E+03  0.25500000920E-02 0. -1.
</event>
<event>
 5   0  0.3551277E-05  0.1300072E+04  0.7818609E-02  0.9029508E-01
       -1   -1    0    0    0  501  0.00000000000E+00  0.00000000000E+00  0.23478131175E+03  0.23478131180E+03  0.50400001928E-02 0. -1.
        1   -1    0    0  501    0  0.00000000000E+00  0.00000000000E+00 -0.17997466663E+04  0.17997466663E+04  0.50400001928E-02 0.  1.
    10030    2    1    2    0    0  0.00000000000E+00  0.00000000000E+00 -0.15649653545E+04  0.20345279781E+04  0.13000721260E+04 0.  0.
        4    1    3    3  502    0 -0.40833966838E+02  0.39374192958E+03 -0.15893657238E+04  0.16379209801E+04  0.12699999809E+01 0.  1.
       -4    1    3    3    0  502  0.40833966838E+02 -0.39374192958E+03  0.24400369292E+02  0.39660699802E+03  0.12699999809E+01 0. -1.
</event>
<event>
 5   0  0.3631841E-05  0.1300259E+04  0.7818609E-02  0.9029360E-01
       -1   -1    0    0    0  501  0.00000000000E+00  0.00000000000E+00  0.63899729410E+03  0.63899729412E+03  0.50400001928E-02 0.  1.
        1   -1    0    0  501    0  0.00000000000E+00  0.00000000000E+00 -0.66145595672E+03  0.66145595674E+03  0.50400001928E-02 0. -1.
    10030    2    1    2    0    0  0.00000000000E+00  0.00000000000E+00 -0.22458662620E+02  0.13004532509E+04  0.13002593073E+04 0.  0.
        3    1    3    3  502    0  0.16174167278E+03 -0.13099984934E+03  0.60477424059E+03  0.63958832191E+03  0.10100000352E+00 0.  1.
       -3    1    3    3    0  502 -0.16174167278E+03  0.13099984934E+03 -0.62723290321E+03  0.66086492895E+03  0.10100000352E+00 0. -1.
</event>
<event>
 5   0  0.3551277E-05  0.1301350E+04  0.7818609E-02  0.9028495E-01
        1   -1    0    0  501    0  0.00000000000E+00  0.00000000000E+00  0.44685877156E+03  0.44685877159E+03  0.50400001928E-02 0.  1.
       -1   -1    0    0    0  501  0.00000000000E+00  0.00000000000E+00 -0.94745343210E+03  0.94745343211E+03  0.50400001928E-02 0. -1.
    10030    2    1    2    0    0  0.00000000000E+00  0.00000000000E+00 -0.50059466054E+03  0.13943122037E+04  0.13013498789E+04 0.  0.
        4    1    3    3  502    0  0.10465260640E+03  0.59504156514E+03  0.85150291074E+01  0.60423567496E+03  0.12699999809E+01 0. -1.
       -4    1    3    3    0  502 -0.10465260640E+03 -0.59504156514E+03 -0.50910968964E+03  0.79007652874E+03  0.12699999809E+01 0.  1.
</event>
<event>
 5   0  0.6618060E-05  0.1300062E+04  0.7818609E-02  0.9029516E-01
       -2   -1    0    0    0  501  0.00000000000E+00  0.00000000000E+00  0.24549714080E+03  0.24549714081E+03  0.25500000920E-02 0.  1.
        2   -1    0    0  501    0  0.00000000000E+00  0.00000000000E+00 -0.17211609000E+04  0.17211609000E+04  0.25500000920E-02 0. -1.
    10030    2    1    2    0    0  0.00000000000E+00  0.00000000000E+00 -0.14756637592E+04  0.19666580408E+04  0.13000616598E+04 0.  0.
        2    1    3    3  502    0 -0.51783221227E+03 -0.21937145441E+03 -0.12309627148E+04  0.13533452036E+04  0.25500000920E-02 0. -1.
       -2    1    3    3    0  502  0.51783221227E+03  0.21937145441E+03 -0.24470104442E+03  0.61331283716E+03  0.25500000920E-02 0.  1.
</event>
<event>
 5   0  0.6688086E-05  0.1301133E+04  0.7818609E-02  0.9028667E-01
        2   -1    0    0  501    0  0.00000000000E+00  0.00000000000E+00  0.98096467564E+03  0.98096467565E+03  0.25500000920E-02 0.  1.
       -2   -1    0    0    0  501  0.00000000000E+00  0.00000000000E+00 -0.43144955404E+03  0.43144955404E+03  0.25500000920E-02 0. -1.
    10030    2    1    2    0    0  0.00000000000E+00  0.00000000000E+00  0.54951512161E+03  0.14124142297E+04  0.13011330014E+04 0.  0.
        5    1    3    3  502    0 -0.22166995655E+02 -0.57805807575E+03 -0.48306782643E+02  0.58051541744E+03  0.46999998093E+01 0. -1.
       -5    1    3    3    0  502  0.22166995655E+02  0.57805807575E+03  0.59782190425E+03  0.83189881226E+03  0.46999998093E+01 0.  1.
</event>
<event>
 5   0  0.6458698E-05  0.1300122E+04  0.7818609E-02  0.9029468E-01
       -2   -1    0    0    0  501  0.00000000000E+00  0.00000000000E+00  0.40531656190E+03  0.40531656191E+03  0.25500000920E-02 0.  1.
        2   -1    0    0  501    0  0.00000000000E+00  0.00000000000E+00 -0.10425914098E+04  0.10425914098E+04  0.25500000920E-02 0. -1.
    10030    2    1    2    0    0  0.00000000000E+00  0.00000000000E+00 -0.63727484787E+03  0.14479079717E+04  0.13001224030E+04 0.  0.
        3    1    3    3  502    0  0.11497269351E+03  0.63967409726E+03 -0.30378402654E+03  0.71741648708E+03  0.10100000352E+00 0. -1.
       -3    1    3    3    0  502 -0.11497269351E+03 -0.63967409726E+03 -0.33349082133E+03  0.73049148460E+03  0.10100000352E+00 0.  1.
</event>
<event>
 5   0  0.6688086E-05  0.1300217E+04  0.7818609E-02  0.9029393E-01
       -2   -1    0    0    0  501  0.00000000000E+00  0.00000000000E+00  0.41013042016E+03  0.41013042016E+03  0.25500000920E-02 0.  1.
        2   -1    0    0  501    0  0.00000000000E+00  0.00000000000E+00 -0.10305036766E+04  0.10305036766E+04  0.25500000920E-02 0. -1.
    10030    2    1    2    0    0  0.00000000000E+00  0.00000000000E+00 -0.62037325643E+03  0.14406340968E+04  0.13002167602E+04 0.  0.
        5    1    3    3  502    0  0.22333808519E+03 -0.58592016971E+03 -0.12008720642E+03  0.63845545867E+03  0.46999998093E+01 0.  1.
       -5    1    3    3    0  502 -0.22333808519E+03  0.58592016971E+03 -0.50028605001E+03  0.80217863808E+03  0.46999998093E+01 0. -1.
</event>
<event>
 5   0  0.3551277E-05  0.1299677E+04  0.7818609E-02  0.9029822E-01
        1   -1    0    0  501    0  0.00000000000E+00  0.00000000000E+00  0.99623230497E+03  0.99623230498E+03  0.50400001928E-02 0. -1.
       -1   -1    0    0    0  501  0.00000000000E+00  0.00000000000E+00 -0.42388692577E+03  0.42388692580E+03  0.50400001928E-02 0.  1.
    10030    2    1    2    0    0  0.00000000000E+00  0.00000000000E+00  0.57234537920E+03  0.14201192308E+04  0.12996766508E+04 0.  0.
        4    1    3    3  502    0  0.47242284753E+03 -0.25585662199E+03  0.68562177148E+03  0.87104809529E+03  0.12699999809E+01 0. -1.
       -4    1    3    3    0  502 -0.47242284753E+03  0.25585662199E+03 -0.11327639228E+03  0.54907113549E+03  0.12699999809E+01 0.  1.
</event>
<event>
 5   0  0.3631841E-05  0.1299440E+04  0.7818609E-02  0.9030009E-01
       -1   -1    0    0    0  501  0.00000000000E+00  0.00000000000E+00  0.47138895431E+03  0.47138895434E+03  0.50400001928E-02 0.  1.
        1   -1    0    0  501    0  0.00000000000E+00  0.00000000000E+00 -0.89551601918E+03  0.89551601919E+03  0.50400001928E-02 0. -1.
    10030    2    1    2    0    0  0.00000000000E+00  0.00000000000E+00 -0.42412706487E+03  0.13669049735E+04  0.12994404332E+04 0.  0.
        3    1    3    3  502    0  0.38996760349E+03 -0.45970273702E+03  0.42872062099E+02  0.60435036370E+03  0.10100000352E+00 0.  1.
       -3    1    3    3    0  502 -0.38996760349E+03  0.45970273702E+03 -0.46699912696E+03  0.76255460983E+03  0.10100000352E+00 0. -1.
</event>
<event>
 5   0  0.3631841E-05  0.1299927E+04  0.7818609E-02  0.9029623E-01
        1   -1    0    0  501    0  0.00000000000E+00  0.00000000000E+00  0.13165501412E+04  0.13165501412E+04  0.50400001928E-02 0.  1.
       -1   -1    0    0    0  501  0.00000000000E+00  0.00000000000E+00 -0.32087867001E+03  0.32087867005E+03  0.50400001928E-02 0. -1.
    10030    2    1    2    0    0  0.00000000000E+00  0.00000000000E+00  0.99567147117E+03  0.16374288112E+04  0.12999274723E+04 0.  0.
        3    1    3    3  502    0  0.48631407306E+03  0.14611013047E+03  0.10088847732E+04  0.11294680357E+04  0.10100000352E+00 0. -1.
       -3    1    3    3    0  502 -0.48631407306E+03 -0.14611013047E+03 -0.13213302070E+02  0.50796077549E+03  0.10100000352E+00 0.  1.
</event>
<event>
 5   0  0.3552698E-05  0.1297867E+04  0.7818609E-02  0.9031258E-01
        1   -1    0    0  501    0  0.00000000000E+00  0.00000000000E+00  0.68364252019E+03  0.68364252021E+03  0.50400001928E-02 0.  1.
       -1   -1    0    0    0  501  0.00000000000E+00  0.00000000000E+00 -0.61598658267E+03  0.61598658269E+03  0.50400001928E-02 0. -1.
    10030    2    1    2    0    0  0.00000000000E+00  0.00000000000E+00  0.67655937515E+02  0.12996291029E+04  0.12978668958E+04 0.  0.
        5    1    3    3  502    0  0.61877908685E+02  0.59648382206E+03  0.28209746739E+03  0.66273893553E+03  0.46999998093E+01 0. -1.
       -5    1    3    3    0  502 -0.61877908685E+02 -0.59648382206E+03 -0.21444152988E+03  0.63689016737E+03  0.46999998093E+01 0.  1.
</event>
<event>
 5   0  0.6618060E-05  0.1299980E+04  0.7818609E-02  0.9029581E-01
       -2   -1    0    0    0  501  0.00000000000E+00  0.00000000000E+00  0.24475855943E+03  0.24475855944E+03  0.25500000920E-02 0.  1.
        2   -1    0    0  501    0  0.00000000000E+00  0.00000000000E+00 -0.17261368910E+04  0.17261368910E+04  0.25500000920E-02 0. -1.
    10030    2    1    2    0    0  0.00000000000E+00  0.00000000000E+00 -0.14813783316E+04  0.19708954504E+04  0.12999796596E+04 0.  0.
        2    1    3    3  502    0 -0.84204846425E+02 -0.60943794988E+03 -0.10586422740E+04  0.12244298817E+04  0.25500000920E-02 0. -1.
       -2    1    3    3    0  502  0.84204846425E+02  0.60943794988E+03 -0.42273605756E+03  0.74646556872E+03  0.25500000920E-02 0.  1.
</event>
<event>
 5   0  0.6458698E-05  0.1300454E+04  0.7818609E-02  0.9029205E-01
        2   -1    0    0  501    0  0.00000000000E+00  0.00000000000E+00  0.19456755075E+04  0.19456755075E+04  0.25500000920E-02 0. -1.
       -2   -1    0    0    0  501  0.00000000000E+00  0.00000000000E+00 -0.21729994847E+03  0.21729994849E+03  0.25500000920E-02 0.  1.
    10030    2    1    2    0    0  0.00000000000E+00  0.00000000000E+00  0.17283755590E+04  0.21629754560E+04  0.13004540554E+04 0.  0.
        3    1    3    3  502    0  0.29321476709E+03  0.19380480198E+03 -0.45685469783E+02  0.35443246643E+03  0.10100000352E+00 0.  1.
       -3    1    3    3    0  502 -0.29321476709E+03 -0.19380480198E+03  0.17740610288E+04  0.18085429896E+04  0.10100000352E+00 0. -1.
</event>
<event>
 5   0  0.6458698E-05  0.1300590E+04  0.7818609E-02  0.9029097E-01
       -2   -1    0    0    0  501  0.00000000000E+00  0.00000000000E+00  0.92338249905E+03  0.92338249905E+03  0.25500000920E-02 0.  1.
        2   -1    0    0  501    0  0.00000000000E+00  0.00000000000E+00 -0.45797229646E+03  0.45797229647E+03  0.25500000920E-02 0. -1.
    10030    2    1    2    0    0  0.00000000000E+00  0.00000000000E+00  0.46541020258E+03  0.13813547955E+04  0.13005900255E+04 0.  0.
        3    1    3    3  502    0 -0.12996647731E+03 -0.27453503694E+03  0.84340976247E+03  0.89643784468E+03  0.10100000352E+00 0.  1.
       -3    1    3    3    0  502  0.12996647731E+03  0.27453503694E+03 -0.37799955989E+03  0.48491695084E+03  0.10100000352E+00 0. -1.
</event>
<event>
 5   0  0.3718559E-05  0.1299610E+04  0.7818609E-02  0.9029875E-01
        1   -1    0    0  501    0  0.00000000000E+00  0.00000000000E+00  0.99076324227E+03  0.99076324228E+03  0.50400001928E-02 0. -1.
       -1   -1    0    0    0  501  0.00000000000E+00  0.00000000000E+00 -0.42618276183E+03  0.42618276186E+03  0.50400001928E-02 0.  1.
    10030    2    1    2    0    0  0.00000000000E+00  0.00000000000E+00  0.56458048044E+03  0.14169460041E+04  0.12996095028E+04 0.  0.
        2    1    3    3  502    0 -0.39483500692E+03 -0.10317268985E+03  0.83362029788E+03  0.92814981962E+03  0.25500000920E-02 0. -1.
       -2    1    3    3    0  502  0.39483500692E+03  0.10317268985E+03 -0.26903981744E+03  0.48879618452E+03  0.25500000920E-02 0.  1.
</event>
<event>
 5   0  0.6742824E-05  0.1299594E+04  0.7818609E-02  0.9029887E-01
        2   -1    0    0  501    0  0.00000000000E+00  0.00000000000E+00  0.12259641026E+04  0.12259641026E+04  0.25500000920E-02 0. -1.
       -2   -1    0    0    0  501  0.00000000000E+00  0.00000000000E+00 -0.34441164272E+03  0.34441164273E+03  0.25500000920E-02 0.  1.
    10030    2    1    2    0    0  0.00000000000E+00  0.00000000000E+00  0.88155245990E+03  0.15703757454E+04  0.12995942605E+04 0.  0.
        4    1    3    3  502    0  0.11799351116E+03 -0.57995434323E+03  0.11661801773E+03  0.60321711171E+03  0.12699999809E+01 0.  1.
       -4    1    3    3    0  502 -0.11799351116E+03  0.57995434323E+03  0.76493444217E+03  0.96715863364E+03  0.12699999809E+01 0. -1.
</event>
<event>
 5   0  0.6458698E-05  0.1299082E+04  0.7818609E-02  0.9030294E-01
       -2   -1    0    0    0  501  0.00000000000E+00  0.00000000000E+00  0.85312119080E+03  0.85312119080E+03  0.25500000920E-02 0.  1.
        2   -1    0    0  501    0  0.00000000000E+00  0.00000000000E+00 -0.49454087610E+03  0.49454087610E+03  0.25500000920E-02 0. -1.
    10030    2    1    2    0    0  0.00000000000E+00  0.00000000000E+00  0.35858031470E+03  0.13476620669E+04  0.12990816774E+04 0.  0.
        3    1    3    3  502    0 -0.50945313290E+03  0.86756338802E+02  0.58749476409E+03  0.78244441654E+03  0.10100000352E+00 0.  1.
       -3    1    3    3    0  502  0.50945313290E+03 -0.86756338802E+02 -0.22891444939E+03  0.56521765036E+03  0.10100000352E+00 0. -1.
</event>
<event>
 5   0  0.6458698E-05  0.1299593E+04  0.7818609E-02  0.9029888E-01
        2   -1    0    0  501    0  0.00000000000E+00  0.00000000000E+00  0.13417112052E+04  0.13417112052E+04  0.25500000920E-02 0.  1.
       -2   -1    0    0    0  501  0.00000000000E+00  0.00000000000E+00 -0.31469933136E+03  0.31469933137E+03  0.25500000920E-02 0. -1.
    10030    2    1    2    0    0  0.00000000000E+00  0.00000000000E+00  0.10270118739E+04  0.16564105366E+04  0.12995931966E+04 0.  0.
        3    1    3    3  502    0  0.45765456394E+03 -0.42577386755E+03  0.28727759728E+03  0.68793859776E+03  0.10100000352E+00 0.  1.
       -3    1    3    3    0  502 -0.45765456394E+03  0.42577386755E+03  0.73973427659E+03  0.96847193886E+03  0.10100000352E+00 0. -1.
</event>
<event>
 5   0  0.2512000E-05  0.1300714E+04  0.7818609E-02  0.9028999E-01
       -3   -1    0    0    0  501  0.00000000000E+00  0.00000000000E+00  0.70726741463E+03  0.70726742184E+03  0.10100000352E+00 0. -1.
        3   -1    0    0  501    0  0.00000000000E+00  0.00000000000E+00 -0.59802611886E+03  0.59802612739E+03  0.10100000352E+00 0.  1.
    10030    2    1    2    0    0  0.00000000000E+00  0.00000000000E+00  0.10924129577E+03  0.13052935492E+04  0.13007142611E+04 0.  0.
        5    1    3    3  502    0  0.18973072248E+03 -0.35785663946E+03  0.56521759288E+03  0.69537913311E+03  0.46999998093E+01 0. -1.
       -5    1    3    3    0  502 -0.18973072248E+03  0.35785663946E+03 -0.45597629711E+03  0.60991441612E+03  0.46999998093E+01 0.  1.
</event>
<event>
 5   0  0.6458698E-05  0.1300064E+04  0.7818609E-02  0.9029514E-01
        2   -1    0    0  501    0  0.00000000000E+00  0.00000000000E+00  0.11254678747E+04  0.11254678747E+04  0.25500000920E-02 0.  1.
       -2   -1    0    0    0  501  0.00000000000E+00  0.00000000000E+00 -0.37543649146E+03  0.37543649147E+03  0.25500000920E-02 0. -1.
    10030    2    1    2    0    0  0.00000000000E+00  0.00000000000E+00  0.75003138320E+03  0.15009043661E+04  0.13000641678E+04 0.  0.
        3    1    3    3  502    0 -0.46531329631E+03  0.33907193867E+03  0.26645312819E+02  0.57636466427E+03  0.10100000352E+00 0. -1.
       -3    1    3    3    0  502  0.46531329631E+03 -0.33907193867E+03  0.72338607038E+03  0.92453970187E+03  0.10100000352E+00 0.  1.
</event>
<event>
 5   0  0.6688086E-05  0.1301001E+04  0.7818609E-02  0.9028771E-01
        2   -1    0    0  501    0  0.00000000000E+00  0.00000000000E+00  0.12423796386E+04  0.12423796386E+04  0.25500000920E-02 0.  1.
       -2   -1    0    0    0  501  0.00000000000E+00  0.00000000000E+00 -0.34059732240E+03  0.34059732241E+03  0.25500000920E-02 0. -1.
    10030    2    1    2    0    0  0.00000000000E+00  0.00000000000E+00  0.90178231618E+03  0.15829769610E+04  0.13010014271E+04 0.  0.
        5    1    3    3  502    0  0.32288536104E+03 -0.37520846080E+02  0.11364514400E+04  0.11820349977E+04  0.46999998093E+01 0.  1.
       -5    1    3    3    0  502 -0.32288536104E+03  0.37520846080E+02 -0.23466912383E+03  0.40094196330E+03  0.46999998093E+01 0. -1.
</event>
<event>
 5   0  0.3631841E-05  0.1299789E+04  0.7818609E-02  0.9029732E-01
        1   -1    0    0  501    0  0.00000000000E+00  0.00000000000E+00  0.54100962513E+03  0.54100962515E+03  0.50400001928E-02 0.  1.
       -1   -1    0    0    0  501  0.00000000000E+00  0.00000000000E+00 -0.78069391169E+03  0.78069391170E+03  0.50400001928E-02 0. -1.
    10030    2    1    2    0    0  0.00000000000E+00  0.00000000000E+00 -0.23968428656E+03  0.13217035369E+04  0.12997890914E+04 0.  0.
        3    1    3    3  502    0  0.12118297536E+03 -0.24438080763E+03 -0.71966511014E+03  0.76962664559E+03  0.10100000352E+00 0. -1.
       -3    1    3    3    0  502 -0.12118297536E+03  0.24438080763E+03  0.47998082358E+03  0.55207689126E+03  0.10100000352E+00 0.  1.
</event>
<event>
 5   0  0.2512000E-05  0.1300539E+04  0.7818609E-02  0.9029138E-01
       -3   -1    0    0    0  501  0.00000000000E+00  0.00000000000E+00  0.13704831801E+04  0.13704831838E+04  0.10100000352E+00 0.  1.
        3   -1    0    0  501    0  0.00000000000E+00  0.00000000000E+00 -0.30854105443E+03  0.30854107096E+03  0.10100000352E+00 0. -1.
    10030    2    1    2    0    0  0.00000000000E+00  0.00000000000E+00  0.10619421256E+04  0.16790242548E+04  0.13005388767E+04 0.  0.
        3    1    3    3  502    0  0.60667044384E+03  0.15635745753E+03  0.30604535588E+03  0.69725207208E+03  0.10100000352E+00 0. -1.
       -3    1    3    3    0  502 -0.60667044384E+03 -0.15635745753E+03  0.75589676976E+03  0.98177218268E+03  0.10100000352E+00 0.  1.
</event>
<event>
 5   0  0.3718559E-05  0.1301795E+04  0.7818609E-02  0.9028143E-01
        1   -1    0    0  501    0  0.00000000000E+00  0.00000000000E+00  0.23824870176E+04  0.23824870176E+04  0.50400001928E-02 0. -1.
       -1   -1    0    0    0  501  0.00000000000E+00  0.00000000000E+00 -0.17782568470E+03  0.17782568477E+03  0.50400001928E-02 0.  1.
    10030    2    1    2    0    0  0.00000000000E+00  0.00000000000E+00  0.22046613329E+04  0.25603127024E+04  0.13017947385E+04 0.  0.
        2    1    3    3  502    0  0.41188635207E+03 -0.78405932007E+02  0.20815096172E+04  0.21233181918E+04  0.25500000920E-02 0. -1.
       -2    1    3    3    0  502 -0.41188635207E+03  0.78405932007E+02  0.12315171575E+03  0.43699451060E+03  0.25500000920E-02 0.  1.
</event>
<event>
 5   0  0.3551277E-05  0.1299964E+04  0.7818609E-02  0.9029593E-01
        1   -1    0    0  501    0  0.00000000000E+00  0.00000000000E+00  0.10092265679E+04  0.10092265679E+04  0.50400001928E-02 0.  1.
       -1   -1    0    0    0  501  0.00000000000E+00  0.00000000000E+00 -0.41861449631E+03  0.41861449634E+03  0.50400001928E-02 0. -1.
    10030    2    1    2    0    0  0.00000000000E+00  0.00000000000E+00  0.59061207158E+03  0.14278410642E+04  0.12999644171E+04 0.  0.
        4    1    3    3  502    0  0.14471969423E+03  0.38048811782E+03 -0.26125437024E+03  0.48370492718E+03  0.12699999809E+01 0. -1.
       -4    1    3    3    0  502 -0.14471969423E+03 -0.38048811782E+03  0.85186644183E+03  0.94413613707E+03  0.12699999809E+01 0.  1.
</event>
<event>
 5   0  0.6458698E-05  0.1299528E+04  0.7818609E-02  0.9029940E-01
        2   -1    0    0  501    0  0.00000000000E+00  0.00000000000E+00  0.58923527713E+03  0.58923527714E+03  0.25500000920E-02 0. -1.
       -2   -1    0    0    0  501  0.00000000000E+00  0.00000000000E+00 -0.71651030912E+03  0.71651030913E+03  0.25500000920E-02 0.  1.
    10030    2    1    2    0    0  0.00000000000E+00  0.00000000000E+00 -0.12727503199E+03  0.13057455863E+04  0.12995278382E+04 0.  0.
        3    1    3    3  502    0 -0.10829728082E+03 -0.44622070556E+03 -0.52556742117E+03  0.69789851949E+03  0.10100000352E+00 0.  1.
       -3    1    3    3    0  502  0.10829728082E+03  0.44622070556E+03  0.39829238918E+03  0.60784706678E+03  0.10100000352E+00 0. -1.
</event>
<event>
 5   0  0.6458698E-05  0.1300298E+04  0.7818609E-02  0.9029329E-01
       -2   -1    0    0    0  501  0.00000000000E+00  0.00000000000E+00  0.11110331628E+04  0.11110331628E+04  0.25500000920E-02 0. -1.
        2   -1    0    0  501    0  0.00000000000E+00  0.00000000000E+00 -0.38045100242E+03  0.38045100243E+03  0.25500000920E-02 0.  1.
    10030    2    1    2    0    0  0.00000000000E+00  0.00000000000E+00  0.73058216039E+03  0.14914841652E+04  0.13002979359E+04 0.  0.
        3    1    3    3  502    0 -0.53875091937E+03  0.21350356498E+02 -0.51423332976E+02  0.54162049465E+03  0.10100000352E+00 0.  1.
       -3    1    3    3    0  502  0.53875091937E+03 -0.21350356498E+02  0.78200549337E+03  0.94986367059E+03  0.10100000352E+00 0. -1.
</event>
<event>
 5   0  0.6671239E-05  0.1299505E+04  0.7818609E-02  0.9029958E-01
        2   -1    0    0  501    0  0.00000000000E+00  0.00000000000E+00  0.11814439336E+04  0.11814439336E+04  0.25500000920E-02 0. -1.
       -2   -1    0    0    0  501  0.00000000000E+00  0.00000000000E+00 -0.35734108039E+03  0.35734108040E+03  0.25500000920E-02 0.  1.
    10030    2    1    2    0    0  0.00000000000E+00  0.00000000000E+00  0.82410285320E+03  0.15387850140E+04  0.12995052161E+04 0.  0.
        1    1    3    3  502    0 -0.91009878238E+02  0.59715740756E+03  0.69549867533E+03  0.92119388554E+03  0.50400001928E-02 0. -1.
       -1    1    3    3    0  502  0.91009878238E+02 -0.59715740756E+03  0.12860417787E+03  0.61759112845E+03  0.50400001928E-02 0.  1.
</event>
<event>
 5   0  0.3689707E-05  0.1300254E+04  0.7818609E-02  0.9029364E-01
       -1   -1    0    0    0  501  0.00000000000E+00  0.00000000000E+00  0.11600126512E+04  0.11600126512E+04  0.50400001928E-02 0.  1.
        1   -1    0    0  501    0  0.00000000000E+00  0.00000000000E+00 -0.36436249139E+03  0.36436249143E+03  0.50400001928E-02 0. -1.
    10030    2    1    2    0    0  0.00000000000E+00  0.00000000000E+00  0.79565015982E+03  0.15243751426E+04  0.13002539747E+04 0.  0.
        1    1    3    3  502    0 -0.33579524003E+03  0.51127860606E+03  0.65601442369E+03  0.89694993191E+03  0.50400001928E-02 0.  1.
       -1    1    3    3    0  502  0.33579524003E+03 -0.51127860606E+03  0.13963573612E+03  0.62742521074E+03  0.50400001928E-02 0. -1.
</event>
<event>
 5   0  0.6618060E-05  0.1300069E+04  0.7818609E-02  0.9029511E-01
       -2   -1    0    0    0  501  0.00000000000E+00  0.00000000000E+00  0.11289119611E+04  0.11289119611E+04  0.25500000920E-02 0.  1.
        2   -1    0    0  501    0  0.00000000000E+00  0.00000000000E+00 -0.37429377308E+03  0.37429377309E+03  0.25500000920E-02 0. -1.
    10030    2    1    2    0    0  0.00000000000E+00  0.00000000000E+00  0.75461818804E+03  0.15032057342E+04  0.13000687942E+04 0.  0.
        2    1    3    3  502    0  0.11419183494E+03  0.40783648739E+03 -0.19286957298E+03  0.46536979683E+03  0.25500000920E-02 0. -1.
       -2    1    3    3    0  502 -0.11419183494E+03 -0.40783648739E+03  0.94748776103E+03  0.10378359374E+04  0.25500000920E-02 0.  1.
</event>
<event>
 5   0  0.6458698E-05  0.1300248E+04  0.7818609E-02  0.9029368E-01
        2   -1    0    0  501    0  0.00000000000E+00  0.00000000000E+00  0.21068205089E+04  0.21068205089E+04  0.25500000920E-02 0. -1.
       -2   -1    0    0    0  501  0.00000000000E+00  0.00000000000E+00 -0.20061569252E+03  0.20061569254E+03  0.25500000920E-02 0.  1.
    10030    2    1    2    0    0  0.00000000000E+00  0.00000000000E+00  0.19062048164E+04  0.23074362014E+04  0.13002480616E+04 0.  0.
        3    1    3    3  502    0  0.59420358065E+03  0.34376828128E+02  0.14172291215E+04  0.15371395690E+04  0.10100000352E+00 0. -1.
       -3    1    3    3    0  502 -0.59420358065E+03 -0.34376828128E+02  0.48897569493E+03  0.77029663248E+03  0.10100000352E+00 0.  1.
</event>
<event>
 5   0  0.3689707E-05  0.1296677E+04  0.7818609E-02  0.9032205E-01
       -1   -1    0    0    0  501  0.00000000000E+00  0.00000000000E+00  0.87516000010E+03  0.87516000011E+03  0.50400001928E-02 0. -1.
        1   -1    0    0  501    0  0.00000000000E+00  0.00000000000E+00 -0.48030374646E+03  0.48030374649E+03  0.50400001928E-02 0.  1.
    10030    2    1    2    0    0  0.00000000000E+00  0.00000000000E+00  0.39485625363E+03  0.13554637466E+04  0.12966767166E+04 0.  0.
        1    1    3    3  502    0  0.59716209471E+03 -0.25210116276E+03  0.21164867057E+03  0.68187441908E+03  0.50400001928E-02 0.  1.
       -1    1    3    3    0  502 -0.59716209471E+03  0.25210116276E+03  0.18320758306E+03  0.67358932751E+03  0.50400001928E-02 0. -1.
</event>
<event>
 5   0  0.6742824E-05  0.1299788E+04  0.7818609E-02  0.9029733E-01
       -2   -1    0    0    0  501  0.00000000000E+00  0.00000000000E+00  0.22212443711E+03  0.22212443713E+03  0.25500000920E-02 0. -1.
        2   -1    0    0  501    0  0.00000000000E+00  0.00000000000E+00 -0.19014668949E+04  0.19014668949E+04  0.25500000920E-02 0.  1.
    10030    2    1    2    0    0  0.00000000000E+00  0.00000000000E+00 -0.16793424577E+04  0.21235913320E+04  0.12997880808E+04 0.  0.
        4    1    3    3  502    0 -0.28896580210E+03 -0.45279318320E+03 -0.14373773537E+04  0.15344634800E+04  0.12699999809E+01 0.  1.
       -4    1    3    3    0  502  0.28896580210E+03  0.45279318320E+03 -0.24196510402E+03  0.58912785200E+03  0.12699999809E+01 0. -1.
</event>
<event>
 5   0  0.3552698E-05  0.1299227E+04  0.7818609E-02  0.9030179E-01
       -1   -1    0    0    0  501  0.00000000000E+00  0.00000000000E+00  0.45532552384E+03  0.45532552387E+03  0.50400001928E-02 0. -1.
        1   -1    0    0  501    0  0.00000000000E+00  0.00000000000E+00 -0.92680416627E+03  0.92680416629E+03  0.50400001928E-02 0.  1.
    10030    2    1    2    0    0  0.00000000000E+00  0.00000000000E+00 -0.47147864243E+03  0.13821296902E+04  0.12992268355E+04 0.  0.
        5    1    3    3  502    0 -0.34427896718E+02  0.64868254825E+03 -0.23689200465E+03  0.69145805393E+03  0.46999998093E+01 0. -1.
       -5    1    3    3    0  502  0.34427896718E+02 -0.64868254825E+03 -0.23458663778E+03  0.69067163623E+03  0.46999998093E+01 0.  1.
</event>
<event>
 5   0  0.6688086E-05  0.1299472E+04  0.7818609E-02  0.9029984E-01
       -2   -1    0    0    0  501  0.00000000000E+00  0.00000000000E+00  0.31050453715E+03  0.31050453716E+03  0.25500000920E-02 0. -1.
        2   -1    0    0  501    0  0.00000000000E+00  0.00000000000E+00 -0.13595846178E+04  0.13595846178E+04  0.25500000920E-02 0.  1.
    10030    2    1    2    0    0  0.00000000000E+00  0.00000000000E+00 -0.10490800806E+04  0.16700891549E+04  0.12994724968E+04 0.  0.
        5    1    3    3  502    0 -0.43701025456E+03 -0.16218162036E+03 -0.11062346851E+04  0.12004407978E+04  0.46999998093E+01 0.  1.
       -5    1    3    3    0  502  0.43701025456E+03  0.16218162036E+03  0.57154604420E+02  0.46964835716E+03  0.46999998093E+01 0. -1.
</event>
<event>
 5   0  0.6742824E-05  0.1303913E+04  0.7818609E-02  0.9026468E-01
       -2   -1    0    0    0  501  0.00000000000E+00  0.00000000000E+00  0.35115642670E+03  0.35115642671E+03  0.25500000920E-02 0.  1.
        2   -1    0    0  501    0  0.00000000000E+00  0.00000000000E+00 -0.12104205783E+04  0.12104205783E+04  0.25500000920E-02 0. -1.
    10030    2    1    2    0    0  0.00000000000E+00  0.00000000000E+00 -0.85926415163E+03  0.15615770050E+04  0.13039125202E+04 0.  0.
        4    1    3    3  502    0  0.20225678412E+03 -0.47862358640E+03  0.41953648163E+02  0.52129652375E+03  0.12699999809E+01 0.  1.
       -4    1    3    3    0  502 -0.20225678412E+03  0.47862358640E+03 -0.90121779979E+03  0.10402804813E+04  0.12699999809E+01 0. -1.
</event>
<event>
 5   0  0.6458698E-05  0.1299942E+04  0.7818609E-02  0.9029611E-01
       -2   -1    0    0    0  501  0.00000000000E+00  0.00000000000E+00  0.40903646420E+03  0.40903646421E+03  0.25500000920E-02 0.  1.
        2   -1    0    0  501    0  0.00000000000E+00  0.00000000000E+00 -0.10328228954E+04  0.10328228954E+04  0.25500000920E-02 0. -1.
    10030    2    1    2    0    0  0.00000000000E+00  0.00000000000E+00 -0.62378643123E+03  0.14418593596E+04  0.12999418838E+04 0.  0.
        3    1    3    3  502    0 -0.32688547396E+02  0.41096905107E+03 -0.86924325039E+03  0.96205402167E+03  0.10100000352E+00 0. -1.
       -3    1    3    3    0  502  0.32688547396E+02 -0.41096905107E+03  0.24545681916E+03  0.47980533797E+03  0.10100000352E+00 0.  1.
</event>
<event>
 5   0  0.6458698E-05  0.1298575E+04  0.7818609E-02  0.9030696E-01
        2   -1    0    0  501    0  0.00000000000E+00  0.00000000000E+00  0.10354555336E+04  0.10354555336E+04  0.25500000920E-02 0.  1.
       -2   -1    0    0    0  501  0.00000000000E+00  0.00000000000E+00 -0.40713915929E+03  0.40713915930E+03  0.25500000920E-02 0. -1.
    10030    2    1    2    0    0  0.00000000000E+00  0.00000000000E+00  0.62831637426E+03  0.14425946929E+04  0.12985753662E+04 0.  0.
        3    1    3    3  502    0 -0.24154949016E+03 -0.30300183888E+03 -0.26459935653E+03  0.46922180282E+03  0.10100000352E+00 0. -1.
       -3    1    3    3    0  502  0.24154949016E+03  0.30300183888E+03  0.89291573079E+03  0.97337289004E+03  0.10100000352E+00 0.  1.
</event>
<event>
 5   0  0.6742824E-05  0.1300015E+04  0.7818609E-02  0.9029553E-01
        2   -1    0    0  501    0  0.00000000000E+00  0.00000000000E+00  0.77218150555E+03  0.77218150555E+03  0.25500000920E-02 0. -1.
       -2   -1    0    0    0  501  0.00000000000E+00  0.00000000000E+00 -0.54716366117E+03  0.54716366117E+03  0.25500000920E-02 0.  1.
    10030    2    1    2    0    0  0.00000000000E+00  0.00000000000E+00  0.22501784438E+03  0.13193451667E+04  0.13000148609E+04 0.  0.
        4    1    3    3  502    0  0.30395047827E+03 -0.56668680673E+03  0.16293015173E+02  0.64326270326E+03  0.12699999809E+01 0.  1.
       -4    1    3    3    0  502 -0.30395047827E+03  0.56668680673E+03  0.20872482921E+03  0.67608246346E+03  0.12699999809E+01 0. -1.
</event>
<event>
 5   0  0.6458698E-05  0.1299795E+04  0.7818609E-02  0.9029727E-01
       -2   -1    0    0    0  501  0.00000000000E+00  0.00000000000E+00  0.99935121047E+03  0.99935121048E+03  0.25500000920E-02 0.  1.
        2   -1    0    0  501    0  0.00000000000E+00  0.00000000000E+00 -0.42264123750E+03  0.42264123751E+03  0.25500000920E-02 0. -1.
    10030    2    1    2    0    0  0.00000000000E+00  0.00000000000E+00  0.57670997297E+03  0.14219924480E+04  0.12997954182E+04 0.  0.
        3    1    3    3  502    0  0.41088462722E+03 -0.70429383258E+02  0.83380613181E+03  0.93221196654E+03  0.10100000352E+00 0.  1.
       -3    1    3    3    0  502 -0.41088462722E+03  0.70429383258E+02 -0.25709615885E+03  0.48978048145E+03  0.10100000352E+00 0. -1.
</event>
<event>
 5   0  0.2512000E-05  0.1300358E+04  0.7818609E-02  0.9029281E-01
        3   -1    0    0  501    0  0.00000000000E+00  0.00000000000E+00  0.78973563711E+03  0.78973564357E+03  0.10100000352E+00 0. -1.
       -3   -1    0    0    0  501  0.00000000000E+00  0.00000000000E+00 -0.53528382672E+03  0.53528383625E+03  0.10100000352E+00 0.  1.
    10030    2    1    2    0    0  0.00000000000E+00  0.00000000000E+00  0.25445181039E+03  0.13250194798E+04  0.13003579884E+04 0.  0.
        3    1    3    3  502    0  0.36630696286E+03  0.96297953979E+02  0.66571657609E+03  0.76591948458E+03  0.10100000352E+00 0. -1.
       -3    1    3    3    0  502 -0.36630696286E+03 -0.96297953979E+02 -0.41126476569E+03  0.55909999524E+03  0.10100000352E+00 0.  1.
</event>
<event>
 5   0  0.3552698E-05  0.1302592E+04  0.7818609E-02  0.9027512E-01
       -1   -1    0    0    0  501  0.00000000000E+00  0.00000000000E+00  0.88943357776E+03  0.88943357778E+03  0.50400001928E-02 0. -1.
        1   -1    0    0  501    0  0.00000000000E+00  0.00000000000E+00 -0.47691738631E+03  0.47691738633E+03  0.50400001928E-02 0.  1.
    10030    2    1    2    0    0  0.00000000000E+00  0.00000000000E+00  0.41251619145E+03  0.13663509641E+04  0.13025917814E+04 0.  0.
        5    1    3    3  502    0 -0.40685304015E+03 -0.23348292034E+03  0.68016968293E+03  0.82625453581E+03  0.46999998093E+01 0. -1.
       -5    1    3    3    0  502  0.40685304015E+03  0.23348292034E+03 -0.26765349147E+03  0.54009642830E+03  0.46999998093E+01 0.  1.
</event>
<event>
 5   0  0.6671239E-05  0.1299277E+04  0.7818609E-02  0.9030139E-01
       -2   -1    0    0    0  501  0.00000000000E+00  0.00000000000E+00  0.31336095754E+03  0.31336095755E+03  0.25500000920E-02 0. -1.
        2   -1    0    0  501    0  0.00000000000E+00  0.00000000000E+00 -0.13467853469E+04  0.13467853469E+04  0.25500000920E-02 0.  1.
    10030    2    1    2    0    0  0.00000000000E+00  0.00000000000E+00 -0.10334243893E+04  0.16601463044E+04  0.12992766386E+04 0.  0.
        1    1    3    3  502    0 -0.16098415667E+03  0.62611682282E+03 -0.43497863522E+03  0.77919483291E+03  0.50400001928E-02 0. -1.
       -1    1    3    3    0  502  0.16098415667E+03 -0.62611682282E+03 -0.59844575409E+03  0.88095147150E+03  0.50400001928E-02 0.  1.
</event>
<event>
 5   0  0.3689707E-05  0.1300096E+04  0.7818609E-02  0.9029489E-01
        1   -1    0    0  501    0  0.00000000000E+00  0.00000000000E+00  0.99702493487E+03  0.99702493489E+03  0.50400001928E-02 0. -1.
       -1   -1    0    0    0  501  0.00000000000E+00  0.00000000000E+00 -0.42382340391E+03  0.42382340394E+03  0.50400001928E-02 0.  1.
    10030    2    1    2    0    0  0.00000000000E+00  0.00000000000E+00  0.57320153096E+03  0.14208483388E+04  0.13000961529E+04 0.  0.
        1    1    3    3  502    0 -0.58936703096E+02  0.60044531521E+03  0.55105588678E+03  0.81711119312E+03  0.50400001928E-02 0. -1.
       -1    1    3    3    0  502  0.58936703096E+02 -0.60044531521E+03  0.22145644176E+02  0.60373714571E+03  0.50400001928E-02 0.  1.
</event>
<event>
 5   0  0.6742824E-05  0.1299971E+04  0.7818609E-02  0.9029589E-01
       -2   -1    0    0    0  501  0.00000000000E+00  0.00000000000E+00  0.21590328655E+03  0.21590328657E+03  0.25500000920E-02 0.  1.
        2   -1    0    0  501    0  0.00000000000E+00  0.00000000000E+00 -0.19568060176E+04  0.19568060176E+04  0.25500000920E-02 0. -1.
    10030    2    1    2    0    0  0.00000000000E+00  0.00000000000E+00 -0.17409027310E+04  0.21727093042E+04  0.12999705387E+04 0.  0.
        4    1    3    3  502    0 -0.48601308875E+03  0.30608345605E+03 -0.13790026485E+04  0.14938359086E+04  0.12699999809E+01 0. -1.
       -4    1    3    3    0  502  0.48601308875E+03 -0.30608345605E+03 -0.36190008257E+03  0.67887339554E+03  0.12699999809E+01 0.  1.
</event>
<event>
 5   0  0.6742824E-05  0.1291897E+04  0.7818609E-02  0.9036016E-01
        2   -1    0    0  501    0  0.00000000000E+00  0.00000000000E+00  0.90760437705E+03  0.90760437705E+03  0.25500000920E-02 0.  1.
       -2   -1    0    0    0  501  0.00000000000E+00  0.00000000000E+00 -0.45972587564E+03  0.45972587565E+03  0.25500000920E-02 0. -1.
    10030    2    1    2    0    0  0.00000000000E+00  0.00000000000E+00  0.44787850140E+03  0.13673302527E+04  0.12918966166E+04 0.  0.
        4    1    3    3  502    0  0.32518883810E+03  0.39734950027E+03  0.63875948048E+03  0.81954236778E+03  0.12699999809E+01 0.  1.
       -4    1    3    3    0  502 -0.32518883810E+03 -0.39734950027E+03 -0.19088097908E+03  0.54778788492E+03  0.12699999809E+01 0. -1.
</event>
<event>
 5   0  0.2512000E-05  0.1300114E+04  0.7818609E-02  0.9029475E-01
       -3   -1    0    0    0  501  0.00000000000E+00  0.00000000000E+00  0.18444345555E+04  0.18444345583E+04  0.10100000352E+00 0. -1.
        3   -1    0    0  501    0  0.00000000000E+00  0.00000000000E+00 -0.22910751809E+03  0.22910754035E+03  0.10100000352E+00 0.  1.
    10030    2    1    2    0    0  0.00000000000E+00  0.00000000000E+00  0.16153270375E+04  0.20735420987E+04  0.13001136093E+04 0.  0.
        2    1    3    3  502    0  0.22525241625E+02  0.34955480746E+03 -0.65717567560E+02  0.35639128583E+03  0.25500000920E-02 0.  1.
       -2    1    3    3    0  502 -0.22525241625E+02 -0.34955480746E+03  0.16810446050E+04  0.17171508128E+04  0.25500000920E-02 0. -1.
</event>
<event>
 5   0  0.6742824E-05  0.1299902E+04  0.7818609E-02  0.9029643E-01
        2   -1    0    0  501    0  0.00000000000E+00  0.00000000000E+00  0.10586024373E+04  0.10586024373E+04  0.25500000920E-02 0.  1.
       -2   -1    0    0    0  501  0.00000000000E+00  0.00000000000E+00 -0.39905109818E+03  0.39905109819E+03  0.25500000920E-02 0. -1.
    10030    2    1    2    0    0  0.00000000000E+00  0.00000000000E+00  0.65955133910E+03  0.14576535355E+04  0.12999022504E+04 0.  0.
        4    1    3    3  502    0  0.16983985688E+03  0.56086241568E+03  0.64499971867E+03  0.87145767327E+03  0.12699999809E+01 0. -1.
       -4    1    3    3    0  502 -0.16983985688E+03 -0.56086241568E+03  0.14551620437E+02  0.58619586221E+03  0.12699999809E+01 0.  1.
</event>
<event>
 5   0  0.6671239E-05  0.1299410E+04  0.7818609E-02  0.9030033E-01
       -2   -1    0    0    0  501  0.00000000000E+00  0.00000000000E+00  0.30723617357E+03  0.30723617358E+03  0.25500000920E-02 0. -1.
        2   -1    0    0  501    0  0.00000000000E+00  0.00000000000E+00 -0.13739163777E+04  0.13739163777E+04  0.25500000920E-02 0.  1.
    10030    2    1    2    0    0  0.00000000000E+00  0.00000000000E+00 -0.10666802041E+04  0.16811525513E+04  0.12994103443E+04 0.  0.
        1    1    3    3  502    0  0.46789530955E+03  0.19089000791E+03 -0.10616588993E+04  0.11757910674E+04  0.50400001928E-02 0.  1.
       -1    1    3    3    0  502 -0.46789530955E+03 -0.19089000791E+03 -0.50213048413E+01  0.50536148384E+03  0.50400001928E-02 0. -1.
</event>
<event>
 5   0  0.3551277E-05  0.1299923E+04  0.7818609E-02  0.9029626E-01
       -1   -1    0    0    0  501  0.00000000000E+00  0.00000000000E+00  0.62318714893E+03  0.62318714895E+03  0.50400001928E-02 0.  1.
        1   -1    0    0  501    0  0.00000000000E+00  0.00000000000E+00 -0.67788595643E+03  0.67788595645E+03  0.50400001928E-02 0. -1.
    10030    2    1    2    0    0  0.00000000000E+00  0.00000000000E+00 -0.54698807501E+02  0.13010731054E+04  0.12999227923E+04 0.  0.
        4    1    3    3  502    0 -0.55593687734E+03 -0.30998539643E+03  0.10426390207E+03  0.64500335795E+03  0.12699999809E+01 0. -1.
       -4    1    3    3    0  502  0.55593687734E+03  0.30998539643E+03 -0.15896270957E+03  0.65606974746E+03  0.12699999809E+01 0.  1.
</event>
<event>
 5   0  0.2512000E-05  0.1299960E+04  0.7818609E-02  0.9029597E-01
       -3   -1    0    0    0  501  0.00000000000E+00  0.00000000000E+00  0.45066874480E+03  0.45066875612E+03  0.10100000352E+00 0. -1.
        3   -1    0    0  501    0  0.00000000000E+00  0.00000000000E+00 -0.93743828366E+03  0.93743828910E+03  0.10100000352E+00 0.  1.
    10030    2    1    2    0    0  0.00000000000E+00  0.00000000000E+00 -0.48676953886E+03  0.13881070452E+04  0.12999602244E+04 0.  0.
        4    1    3    3  502    0 -0.22382277791E+03 -0.24956447780E+03 -0.83800434686E+03  0.90256964426E+03  0.12699999809E+01 0.  1.
       -4    1    3    3    0  502  0.22382277791E+03  0.24956447780E+03  0.35123480799E+03  0.48553740096E+03  0.12699999809E+01 0. -1.
</event>
<event>
 5   0  0.3552698E-05  0.1300272E+04  0.7818609E-02  0.9029350E-01
        1   -1    0    0  501    0  0.00000000000E+00  0.00000000000E+00  0.13824145813E+04  0.13824145813E+04  0.50400001928E-02 0. -1.
       -1   -1    0    0    0  501  0.00000000000E+00  0.00000000000E+00 -0.30575239685E+03  0.30575239689E+03  0.50400001928E-02 0.  1.
    10030    2    1    2    0    0  0.00000000000E+00  0.00000000000E+00  0.10766621845E+04  0.16881669782E+04  0.13002716204E+04 0.  0.
        5    1    3    3  502    0  0.48955026195E+03 -0.32076511418E+03  0.90579144740E+03  0.10784386648E+04  0.46999998093E+01 0. -1.
       -5    1    3    3    0  502 -0.48955026195E+03  0.32076511418E+03  0.17087073705E+03  0.60972831346E+03  0.46999998093E+01 0.  1.
</event>
<event>
 5   0  0.6742824E-05  0.1300036E+04  0.7818609E-02  0.9029536E-01
       -2   -1    0    0    0  501  0.00000000000E+00  0.00000000000E+00  0.27770458098E+03  0.27770458099E+03  0.25500000920E-02 0.  1.
        2   -1    0    0  501    0  0.00000000000E+00  0.00000000000E+00 -0.15214856616E+04  0.15214856616E+04  0.25500000920E-02 0. -1.
    10030    2    1    2    0    0  0.00000000000E+00  0.00000000000E+00 -0.12437810807E+04  0.17991902426E+04  0.13000362120E+04 0.  0.
        4    1    3    3  502    0  0.37713673043E+03  0.89386031171E+02 -0.13440704752E+04  0.13988384579E+04  0.12699999809E+01 0. -1.
       -4    1    3    3    0  502 -0.37713673043E+03 -0.89386031171E+02  0.10028939453E+03  0.40035178477E+03  0.12699999809E+01 0.  1.
</event>
<event>
 5   0  0.6671239E-05  0.1299792E+04  0.7818609E-02  0.9029730E-01
       -2   -1    0    0    0  501  0.00000000000E+00  0.00000000000E+00  0.51737128547E+03  0.51737128547E+03  0.25500000920E-02 0. -1.
        2   -1    0    0  501    0  0.00000000000E+00  0.00000000000E+00 -0.81636649989E+03  0.81636649989E+03  0.25500000920E-02 0.  1.
    10030    2    1    2    0    0  0.00000000000E+00  0.00000000000E+00 -0.29899521442E+03  0.13337377854E+04  0.12997916533E+04 0.  0.
        1    1    3    3  502    0 -0.54983835813E+03  0.21430625155E+03  0.12985346447E+03  0.60424441395E+03  0.50400001928E-02 0.  1.
       -1    1    3    3    0  502  0.54983835813E+03 -0.21430625155E+03 -0.42884867889E+03  0.72949337142E+03  0.50400001928E-02 0. -1.
</event>
<event>
 5   0  0.6618060E-05  0.1300057E+04  0.7818609E-02  0.9029520E-01
       -2   -1    0    0    0  501  0.00000000000E+00  0.00000000000E+00  0.22968668399E+03  0.22968668400E+03  0.25500000920E-02 0. -1.
        2   -1    0    0  501    0  0.00000000000E+00  0.00000000000E+00 -0.18396244790E+04  0.18396244790E+04  0.25500000920E-02 0.  1.
    10030    2    1    2    0    0  0.00000000000E+00  0.00000000000E+00 -0.16099377950E+04  0.20693111630E+04  0.13000573008E+04 0.  0.
        2    1    3    3  502    0 -0.45170575562E+03  0.17273530332E+03 -0.11360747077E+03  0.49677181089E+03  0.25500000920E-02 0. -1.
       -2    1    3    3    0  502  0.45170575562E+03 -0.17273530332E+03 -0.14963303242E+04  0.15725393521E+04  0.25500000920E-02 0.  1.
</event>
<event>
 5   0  0.6688086E-05  0.1299958E+04  0.7818609E-02  0.9029599E-01
        2   -1    0    0  501    0  0.00000000000E+00  0.00000000000E+00  0.13420262344E+04  0.13420262344E+04  0.25500000920E-02 0.  1.
       -2   -1    0    0    0  501  0.00000000000E+00  0.00000000000E+00 -0.31480189448E+03  0.31480189449E+03  0.25500000920E-02 0. -1.
    10030    2    1    2    0    0  0.00000000000E+00  0.00000000000E+00  0.10272243400E+04  0.16568281289E+04  0.12999575394E+04 0.  0.
        5    1    3    3  502    0  0.43998254663E+03  0.11581661852E+03  0.11052061405E+04  0.11951990769E+04  0.46999998093E+01 0.  1.
       -5    1    3    3    0  502 -0.43998254663E+03 -0.11581661852E+03 -0.77981800527E+02  0.46162905203E+03  0.46999998093E+01 0. -1.
</event>
<event>
 5   0  0.6618060E-05  0.1300036E+04  0.7818609E-02  0.9029536E-01
       -2   -1    0    0    0  501  0.00000000000E+00  0.00000000000E+00  0.26936404127E+03  0.26936404128E+03  0.25500000920E-02 0.  1.
        2   -1    0    0  501    0  0.00000000000E+00  0.00000000000E+00 -0.15685968220E+04  0.15685968220E+04  0.25500000920E-02 0. -1.
    10030    2    1    2    0    0  0.00000000000E+00  0.00000000000E+00 -0.12992327807E+04  0.18379608633E+04  0.13000362750E+04 0.  0.
        2    1    3    3  502    0 -0.26917263309E+03  0.56532896179E+03 -0.89641189103E+03  0.10934372501E+04  0.25500000920E-02 0.  1.
       -2    1    3    3    0  502  0.26917263309E+03 -0.56532896179E+03 -0.40282088971E+03  0.74452361322E+03  0.25500000920E-02 0. -1.
</event>
<event>
 5   0  0.3631841E-05  0.1300052E+04  0.7818609E-02  0.9029524E-01
       -1   -1    0    0    0  501  0.00000000000E+00  0.00000000000E+00  0.57935160302E+03  0.57935160304E+03  0.50400001928E-02 0. -1.
        1   -1    0    0  501    0  0.00000000000E+00  0.00000000000E+00 -0.72932209188E+03  0.72932209190E+03  0.50400001928E-02 0.  1.
    10030    2    1    2    0    0  0.00000000000E+00  0.00000000000E+00 -0.14997048887E+03  0.13086736949E+04  0.13000521883E+04 0.  0.
        3    1    3    3  502    0  0.17013737979E+03  0.25404010870E+03  0.50244837669E+03  0.58816450613E+03  0.10100000352E+00 0. -1.
       -3    1    3    3    0  502 -0.17013737979E+03 -0.25404010870E+03 -0.65241886556E+03  0.72050918881E+03  0.10100000352E+00 0.  1.
</event>
<event>
 5   0  0.6671239E-05  0.1299637E+04  0.7818609E-02  0.9029853E-01
       -2   -1    0    0    0  501  0.00000000000E+00  0.00000000000E+00  0.22686116758E+03  0.22686116759E+03  0.25500000920E-02 0.  1.
        2   -1    0    0  501    0  0.00000000000E+00  0.00000000000E+00 -0.18613326299E+04  0.18613326299E+04  0.25500000920E-02 0. -1.
    10030    2    1    2    0    0  0.00000000000E+00  0.00000000000E+00 -0.16344714623E+04  0.20881937975E+04  0.12996370165E+04 0.  0.
        1    1    3    3  502    0 -0.41720970098E+02  0.14358087037E+03  0.19884629365E+03  0.24878897525E+03  0.50400001928E-02 0.  1.
       -1    1    3    3    0  502  0.41720970098E+02 -0.14358087037E+03 -0.18333177560E+04  0.18394048222E+04  0.50400001928E-02 0. -1.
</event>
<event>
 5   0  0.3718559E-05  0.1300171E+04  0.7818609E-02  0.9029430E-01
       -1   -1    0    0    0  501  0.00000000000E+00  0.00000000000E+00  0.10879217106E+04  0.10879217106E+04  0.50400001928E-02 0.  1.
        1   -1    0    0  501    0  0.00000000000E+00  0.00000000000E+00 -0.38845724001E+03  0.38845724004E+03  0.50400001928E-02 0. -1.
    10030    2    1    2    0    0  0.00000000000E+00  0.00000000000E+00  0.69946447055E+03  0.14763789506E+04  0.13001708581E+04 0.  0.
        2    1    3    3  502    0  0.14554708354E+02 -0.31082654622E+03  0.99786455957E+03  0.10452553088E+04  0.25500000920E-02 0.  1.
       -2    1    3    3    0  502 -0.14554708354E+02  0.31082654622E+03 -0.29840008903E+03  0.43112364179E+03  0.25500000920E-02 0. -1.
</event>
<event>
 5   0  0.3551277E-05  0.1299852E+04  0.7818609E-02  0.9029682E-01
        1   -1    0    0  501    0  0.00000000000E+00  0.00000000000E+00  0.90585752825E+03  0.90585752826E+03  0.50400001928E-02 0. -1.
       -1   -1    0    0    0  501  0.00000000000E+00  0.00000000000E+00 -0.46630292726E+03  0.46630292729E+03  0.50400001928E-02 0.  1.
    10030    2    1    2    0    0  0.00000000000E+00  0.00000000000E+00  0.43955460099E+03  0.13721604556E+04  0.12998523257E+04 0.  0.
        4    1    3    3  502    0  0.60310958781E+03 -0.17596833872E+03  0.44097295903E+02  0.62980331497E+03  0.12699999809E+01 0.  1.
       -4    1    3    3    0  502 -0.60310958781E+03  0.17596833872E+03  0.39545730508E+03  0.74235714059E+03  0.12699999809E+01 0. -1.
</event>
<event>
 5   0  0.6458698E-05  0.1297521E+04  0.7818609E-02  0.9031533E-01
        2   -1    0    0  501    0  0.00000000000E+00  0.00000000000E+00  0.17095236802E+04  0.17095236802E+04  0.25500000920E-02 0. -1.
       -2   -1    0    0    0  501  0.00000000000E+00  0.00000000000E+00 -0.24620334202E+03  0.24620334204E+03  0.25500000920E-02 0.  1.
    10030    2    1    2    0    0  0.00000000000E+00  0.00000000000E+00  0.14633203382E+04  0.19557270222E+04  0.12975213961E+04 0.  0.
        3    1    3    3  502    0 -0.19034009906E+03  0.37497343251E+03 -0.12966277980E+02  0.42071672532E+03  0.10100000352E+00 0.  1.
       -3    1    3    3    0  502  0.19034009906E+03 -0.37497343251E+03  0.14762866161E+04  0.15350102969E+04  0.10100000352E+00 0. -1.
</event>
<event>
 5   0  0.6688086E-05  0.1299312E+04  0.7818609E-02  0.9030111E-01
       -2   -1    0    0    0  501  0.00000000000E+00  0.00000000000E+00  0.13023516582E+04  0.13023516582E+04  0.25500000920E-02 0.  1.
        2   -1    0    0  501    0  0.00000000000E+00  0.00000000000E+00 -0.32407001931E+03  0.32407001932E+03  0.25500000920E-02 0. -1.
    10030    2    1    2    0    0  0.00000000000E+00  0.00000000000E+00  0.97828163893E+03  0.16264216776E+04  0.12993123213E+04 0.  0.
        5    1    3    3  502    0  0.89890237388E+02 -0.62697173114E+03  0.30836184479E+03  0.70447350819E+03  0.46999998093E+01 0. -1.
       -5    1    3    3    0  502 -0.89890237388E+02  0.62697173114E+03  0.66991979414E+03  0.92194816937E+03  0.46999998093E+01 0.  1.
</event>
<event>
 5   0  0.2512000E-05  0.1299283E+04  0.7818609E-02  0.9030134E-01
        3   -1    0    0  501    0  0.00000000000E+00  0.00000000000E+00  0.80462417016E+03  0.80462417650E+03  0.10100000352E+00 0.  1.
       -3   -1    0    0    0  501  0.00000000000E+00  0.00000000000E+00 -0.52451116712E+03  0.52451117684E+03  0.10100000352E+00 0. -1.
    10030    2    1    2    0    0  0.00000000000E+00  0.00000000000E+00  0.28011300305E+03  0.13291353533E+04  0.12992834537E+04 0.  0.
        5    1    3    3  502    0  0.10347588244E+03 -0.36642708954E+03  0.67849186159E+03  0.77804200814E+03  0.46999998093E+01 0.  1.
       -5    1    3    3    0  502 -0.10347588244E+03  0.36642708954E+03 -0.39837885854E+03  0.55109334520E+03  0.46999998093E+01 0. -1.
</event>
<event>
 5   0  0.2512000E-05  0.1299246E+04  0.7818609E-02  0.9030163E-01
        3   -1    0    0  501    0  0.00000000000E+00  0.00000000000E+00  0.15023901678E+04  0.15023901712E+04  0.10100000352E+00 0.  1.
       -3   -1    0    0    0  501  0.00000000000E+00  0.00000000000E+00 -0.28089245165E+03  0.28089246981E+03  0.10100000352E+00 0. -1.
    10030    2    1    2    0    0  0.00000000000E+00  0.00000000000E+00  0.12214977162E+04  0.17832826410E+04  0.12992460533E+04 0.  0.
        4    1    3    3  502    0  0.18473877178E+03  0.58323748529E+03  0.31093474010E+03  0.68627720605E+03  0.12699999809E+01 0. -1.
       -4    1    3    3    0  502 -0.18473877178E+03 -0.58323748529E+03  0.91056297607E+03  0.10970054350E+04  0.12699999809E+01 0.  1.
</event>
<event>
 5   0  0.6688086E-05  0.1310134E+04  0.7818609E-02  0.9021567E-01
       -2   -1    0    0    0  501  0.00000000000E+00  0.00000000000E+00  0.24233922804E+03  0.24233922806E+03  0.25500000920E-02 0.  1.
        2   -1    0    0  501    0  0.00000000000E+00  0.00000000000E+00 -0.17707116900E+04  0.17707116900E+04  0.25500000920E-02 0. -1.
    10030    2    1    2    0    0  0.00000000000E+00  0.00000000000E+00 -0.15283724620E+04  0.20130509181E+04  0.13101341978E+04 0.  0.
        5    1    3    3  502    0 -0.39403851050E+03 -0.31265160205E+03 -0.14089281451E+04  0.14960340838E+04  0.46999998093E+01 0. -1.
       -5    1    3    3    0  502  0.39403851050E+03  0.31265160205E+03 -0.11944431686E+03  0.51701683420E+03  0.46999998093E+01 0.  1.
</event>
<event>
 5   0  0.6671239E-05  0.1299893E+04  0.7818609E-02  0.9029650E-01
        2   -1    0    0  501    0  0.00000000000E+00  0.00000000000E+00  0.13449867784E+04  0.13449867784E+04  0.25500000920E-02 0.  1.
       -2   -1    0    0    0  501  0.00000000000E+00  0.00000000000E+00 -0.31407780145E+03  0.31407780146E+03  0.25500000920E-02 0. -1.
    10030    2    1    2    0    0  0.00000000000E+00  0.00000000000E+00  0.10309089769E+04  0.16590645798E+04  0.12998930577E+04 0.  0.
        1    1    3    3  502    0 -0.20371266065E+03 -0.46341926068E+03 -0.48259601347E+01  0.50624060405E+03  0.50400001928E-02 0. -1.
       -1    1    3    3    0  502  0.20371266065E+03  0.46341926068E+03  0.10357349370E+04  0.11528239758E+04  0.50400001928E-02 0.  1.
</event>
<event>
 5   0  0.3551277E-05  0.1300288E+04  0.7818609E-02  0.9029337E-01
       -1   -1    0    0    0  501  0.00000000000E+00  0.00000000000E+00  0.33567165554E+03  0.33567165558E+03  0.50400001928E-02 0.  1.
        1   -1    0    0  501    0  0.00000000000E+00  0.00000000000E+00 -0.12592284350E+04  0.12592284350E+04  0.50400001928E-02 0. -1.
    10030    2    1    2    0    0  0.00000000000E+00  0.00000000000E+00 -0.92355677950E+03  0.15949000906E+04  0.13002881120E+04 0.  0.
        4    1    3    3  502    0 -0.17194358440E+03 -0.58246467851E+03 -0.17712859948E+03  0.63261825107E+03  0.12699999809E+01 0.  1.
       -4    1    3    3    0  502  0.17194358440E+03  0.58246467851E+03 -0.74642818001E+03  0.96228183956E+03  0.12699999809E+01 0. -1.
</event>
<event>
 5   0  0.3552698E-05  0.1299907E+04  0.7818609E-02  0.9029639E-01
       -1   -1    0    0    0  501  0.00000000000E+00  0.00000000000E+00  0.50793989848E+03  0.50793989850E+03  0.50400001928E-02 0.  1.
        1   -1    0    0  501    0  0.00000000000E+00  0.00000000000E+00 -0.83167272001E+03  0.83167272002E+03  0.50400001928E-02 0. -1.
    10030    2    1    2    0    0  0.00000000000E+00  0.00000000000E+00 -0.32373282153E+03  0.13396126185E+04  0.12999073151E+04 0.  0.
        5    1    3    3  502    0  0.50287670379E+03  0.38597240584E+03 -0.14106314899E+02  0.63409837991E+03  0.46999998093E+01 0.  1.
       -5    1    3    3    0  502 -0.50287670379E+03 -0.38597240584E+03 -0.30962650663E+03  0.70551423862E+03  0.46999998093E+01 0. -1.
</event>
<event>
 5   0  0.6688086E-05  0.1300357E+04  0.7818609E-02  0.9029282E-01
        2   -1    0    0  501    0  0.00000000000E+00  0.00000000000E+00  0.12242428280E+04  0.12242428280E+04  0.25500000920E-02 0.  1.
       -2   -1    0    0    0  501  0.00000000000E+00  0.00000000000E+00 -0.34530066013E+03  0.34530066014E+03  0.25500000920E-02 0. -1.
    10030    2    1    2    0    0  0.00000000000E+00  0.00000000000E+00  0.87894216788E+03  0.15695434882E+04  0.13003566537E+04 0.  0.
        5    1    3    3  502    0 -0.98566166522E+02 -0.19684139596E+03  0.11778691998E+04  0.11982736608E+04  0.46999998093E+01 0.  1.
       -5    1    3    3    0  502  0.98566166522E+02  0.19684139596E+03 -0.29892703187E+03  0.37126982739E+03  0.46999998093E+01 0. -1.
</event>
<event>
 5   0  0.6618060E-05  0.1299871E+04  0.7818609E-02  0.9029667E-01
        2   -1    0    0  501    0  0.00000000000E+00  0.00000000000E+00  0.12066389816E+04  0.12066389816E+04  0.25500000920E-02 0. -1.
       -2   -1    0    0    0  501  0.00000000000E+00  0.00000000000E+00 -0.35007692396E+03  0.35007692397E+03  0.25500000920E-02 0.  1.
    10030    2    1    2    0    0  0.00000000000E+00  0.00000000000E+00  0.85656205765E+03  0.15567159056E+04  0.12998714752E+04 0.  0.
        2    1    3    3  502    0  0.26494686631E+03 -0.58502874738E+03  0.54780640233E+03  0.84412518720E+03  0.25500000920E-02 0. -1.
       -2    1    3    3    0  502 -0.26494686631E+03  0.58502874738E+03  0.30875565532E+03  0.71259071838E+03  0.25500000920E-02 0.  1.
</event>
<event>
 5   0  0.6458698E-05  0.1291003E+04  0.7818609E-02  0.9036730E-01
       -2   -1    0    0    0  501  0.00000000000E+00  0.00000000000E+00  0.48139920327E+03  0.48139920327E+03  0.25500000920E-02 0.  1.
        2   -1    0    0  501    0  0.00000000000E+00  0.00000000000E+00 -0.86554425127E+03  0.86554425128E+03  0.25500000920E-02 0. -1.
    10030    2    1    2    0    0  0.00000000000E+00  0.00000000000E+00 -0.38414504801E+03  0.13469434545E+04  0.12910031959E+04 0.  0.
        3    1    3    3  502    0 -0.23753577738E+02  0.58362579862E+02  0.47818279664E+03  0.48231651474E+03  0.10100000352E+00 0.  1.
       -3    1    3    3    0  502  0.23753577738E+02 -0.58362579862E+02 -0.86232784465E+03  0.86462693981E+03  0.10100000352E+00 0. -1.
</event>
<event>
 5   0  0.3689707E-05  0.1299750E+04  0.7818609E-02  0.9029763E-01
       -1   -1    0    0    0  501  0.00000000000E+00  0.00000000000E+00  0.30474435156E+03  0.30474435161E+03  0.50400001928E-02 0.  1.
        1   -1    0    0  501    0  0.00000000000E+00  0.00000000000E+00 -0.13858749641E+04  0.13858749641E+04  0.50400001928E-02 0. -1.
    10030    2    1    2    0    0  0.00000000000E+00  0.00000000000E+00 -0.10811306126E+04  0.16906193157E+04  0.12997500796E+04 0.  0.
        1    1    3    3  502    0 -0.11022499825E+03  0.18455549805E+02 -0.13732816166E+04  0.13778216707E+04  0.50400001928E-02 0. -1.
       -1    1    3    3    0  502  0.11022499825E+03 -0.18455549805E+02  0.29215100407E+03  0.31279764507E+03  0.50400001928E-02 0.  1.
</event>
<event>
 5   0  0.6458698E-05  0.1300179E+04  0.7818609E-02  0.9029423E-01
        2   -1    0    0  501    0  0.00000000000E+00  0.00000000000E+00  0.14129697084E+04  0.14129697084E+04  0.25500000920E-02 0.  1.
       -2   -1    0    0    0  501  0.00000000000E+00  0.00000000000E+00 -0.29909784985E+03  0.29909784986E+03  0.25500000920E-02 0. -1.
    10030    2    1    2    0    0  0.00000000000E+00  0.00000000000E+00  0.11138718586E+04  0.17120675583E+04  0.13001787596E+04 0.  0.
        3    1    3    3  502    0 -0.26581610554E+03  0.14452274297E+03  0.13146031707E+04  0.13489723985E+04  0.10100000352E+00 0.  1.
       -3    1    3    3    0  502  0.26581610554E+03 -0.14452274297E+03 -0.20073131215E+03  0.36309515981E+03  0.10100000352E+00 0. -1.
</event>
<event>
 5   0  0.6688086E-05  0.1300573E+04  0.7818609E-02  0.9029111E-01
        2   -1    0    0  501    0  0.00000000000E+00  0.00000000000E+00  0.15731091844E+04  0.15731091844E+04  0.25500000920E-02 0.  1.
       -2   -1    0    0    0  501  0.00000000000E+00  0.00000000000E+00 -0.26881302942E+03  0.26881302943E+03  0.25500000920E-02 0. -1.
    10030    2    1    2    0    0  0.00000000000E+00  0.00000000000E+00  0.13042961549E+04  0.18419222138E+04  0.13005725592E+04 0.  0.
        5    1    3    3  502    0  0.50686732126E+03  0.34262471188E+03  0.34011229940E+03  0.70000331482E+03  0.46999998093E+01 0. -1.
       -5    1    3    3    0  502 -0.50686732126E+03 -0.34262471188E+03  0.96418385554E+03  0.11419188990E+04  0.46999998093E+01 0.  1.
</event>
<event>
 5   0  0.3689707E-05  0.1299520E+04  0.7818609E-02  0.9029946E-01
       -1   -1    0    0    0  501  0.00000000000E+00  0.00000000000E+00  0.51744686101E+03  0.51744686104E+03  0.50400001928E-02 0.  1.
        1   -1    0    0  501    0  0.00000000000E+00  0.00000000000E+00 -0.81590553450E+03  0.81590553451E+03  0.50400001928E-02 0. -1.
    10030    2    1    2    0    0  0.00000000000E+00  0.00000000000E+00 -0.29845867349E+03  0.13333523956E+04  0.12995195385E+04 0.  0.
        1    1    3    3  502    0  0.47966309606E+03  0.41088496357E+03 -0.30579506312E+03  0.70172199599E+03  0.50400001928E-02 0. -1.
       -1    1    3    3    0  502 -0.47966309606E+03 -0.41088496357E+03  0.73363896297E+01  0.63163039956E+03  0.50400001928E-02 0.  1.
</event>
<event>
 5   0  0.3718559E-05  0.1299743E+04  0.7818609E-02  0.9029769E-01
        1   -1    0    0  501    0  0.00000000000E+00  0.00000000000E+00  0.81290680862E+03  0.81290680864E+03  0.50400001928E-02 0. -1.
       -1   -1    0    0    0  501  0.00000000000E+00  0.00000000000E+00 -0.51953462601E+03  0.51953462604E+03  0.50400001928E-02 0.  1.
    10030    2    1    2    0    0  0.00000000000E+00  0.00000000000E+00  0.29337218261E+03  0.13324414347E+04  0.12997434129E+04 0.  0.
        2    1    3    3  502    0 -0.14241698442E+03 -0.62128017271E+03  0.16763493426E+02  0.63761482509E+03  0.25500000920E-02 0.  1.
       -2    1    3    3    0  502  0.14241698442E+03  0.62128017271E+03  0.27660868919E+03  0.69482660959E+03  0.25500000920E-02 0. -1.
</event>
<event>
 5   0  0.6742824E-05  0.1299342E+04  0.7818609E-02  0.9030087E-01
        2   -1    0    0  501    0  0.00000000000E+00  0.00000000000E+00  0.19020541477E+04  0.19020541478E+04  0.25500000920E-02 0.  1.
       -2   -1    0    0    0  501  0.00000000000E+00  0.00000000000E+00 -0.22190360414E+03  0.22190360416E+03  0.25500000920E-02 0. -1.
    10030    2    1    2    0    0  0.00000000000E+00  0.00000000000E+00  0.16801505436E+04  0.21239577519E+04  0.12993424039E+04 0.  0.
        4    1    3    3  502    0 -0.45915190504E+03 -0.17095929091E+03  0.14266875629E+03  0.51029749947E+03  0.12699999809E+01 0. -1.
       -4    1    3    3    0  502  0.45915190504E+03  0.17095929091E+03  0.15374817873E+04  0.16136602524E+04  0.12699999809E+01 0.  1.
</event>
<event>
 5   0  0.6742824E-05  0.1299906E+04  0.7818609E-02  0.9029640E-01
       -2   -1    0    0    0  501  0.00000000000E+00  0.00000000000E+00  0.72584662402E+03  0.72584662403E+03  0.25500000920E-02 0. -1.
        2   -1    0    0  501    0  0.00000000000E+00  0.00000000000E+00 -0.58199447731E+03  0.58199447731E+03  0.25500000920E-02 0.  1.
    10030    2    1    2    0    0  0.00000000000E+00  0.00000000000E+00  0.14385214672E+03  0.13078411013E+04  0.12999057298E+04 0.  0.
        4    1    3    3  502    0 -0.55499640817E+02  0.50409187498E+03  0.48091505146E+03  0.69890609396E+03  0.12699999809E+01 0. -1.
       -4    1    3    3    0  502  0.55499640817E+02 -0.50409187498E+03 -0.33706290475E+03  0.60893500738E+03  0.12699999809E+01 0.  1.
</event>
<event>
 5   0  0.6618060E-05  0.1299998E+04  0.7818609E-02  0.9029566E-01
        2   -1    0    0  501    0  0.00000000000E+00  0.00000000000E+00  0.38070068459E+03  0.38070068460E+03  0.25500000920E-02 0.  1.
       -2   -1    0    0    0  501  0.00000000000E+00  0.00000000000E+00 -0.11097931557E+04  0.11097931557E+04  0.25500000920E-02 0. -1.
    10030    2    1    2    0    0  0.00000000000E+00  0.00000000000E+00 -0.72909247111E+03  0.14904938403E+04  0.12999984833E+04 0.  0.
        2    1    3    3  502    0  0.43185746976E+03  0.43247816753E+03 -0.11085148564E+03  0.62114917005E+03  0.25500000920E-02 0.  1.
       -2    1    3    3    0  502 -0.43185746976E+03 -0.43247816753E+03 -0.61824098548E+03  0.86934467026E+03  0.25500000920E-02 0. -1.
</event>
<event>
 5   0  0.6671239E-05  0.1299245E+04  0.7818609E-02  0.9030164E-01
       -2   -1    0    0    0  501  0.00000000000E+00  0.00000000000E+00  0.53620478097E+03  0.53620478097E+03  0.25500000920E-02 0. -1.
        2   -1    0    0  501    0  0.00000000000E+00  0.00000000000E+00 -0.78703075160E+03  0.78703075160E+03  0.25500000920E-02 0.  1.
    10030    2    1    2    0    0  0.00000000000E+00  0.00000000000E+00 -0.25082597063E+03  0.13232355326E+04  0.12992453991E+04 0.  0.
        1    1    3    3  502    0  0.57961736950E+03  0.14546322043E+03  0.13403338387E+03  0.61243839816E+03  0.50400001928E-02 0. -1.
       -1    1    3    3    0  502 -0.57961736950E+03 -0.14546322043E+03 -0.38485935450E+03  0.71079713442E+03  0.50400001928E-02 0.  1.
</event>
<event>
 5   0  0.6742824E-05  0.1300020E+04  0.7818609E-02  0.9029549E-01
        2   -1    0    0  501    0  0.00000000000E+00  0.00000000000E+00  0.13013167877E+04  0.13013167877E+04  0.25500000920E-02 0.  1.
       -2   -1    0    0    0  501  0.00000000000E+00  0.00000000000E+00 -0.32468103948E+03  0.32468103949E+03  0.25500000920E-02 0. -1.
    10030    2    1    2    0    0  0.00000000000E+00  0.00000000000E+00  0.97663574820E+03  0.16259978272E+04  0.13000198265E+04 0.  0.
        4    1    3    3  502    0  0.42918420038E+03  0.42403547297E+02  0.10965908697E+04  0.11783506639E+04  0.12699999809E+01 0.  1.
       -4    1    3    3    0  502 -0.42918420038E+03 -0.42403547297E+02 -0.11995512155E+03  0.44764716325E+03  0.12699999809E+01 0. -1.
</event>
<event>
 5   0  0.6458698E-05  0.1300137E+04  0.7818609E-02  0.9029457E-01
        2   -1    0    0  501    0  0.00000000000E+00  0.00000000000E+00  0.12804626171E+04  0.12804626171E+04  0.25500000920E-02 0.  1.
       -2   -1    0    0    0  501  0.00000000000E+00  0.00000000000E+00 -0.33002842857E+03  0.33002842858E+03  0.25500000920E-02 0. -1.
    10030    2    1    2    0    0  0.00000000000E+00  0.00000000000E+00  0.95043418848E+03  0.16104910456E+04  0.13001370164E+04 0.  0.
        3    1    3    3  502    0 -0.49359483260E+03  0.16621668597E+03  0.95708148471E+03  0.10896186599E+04  0.10100000352E+00 0. -1.
       -3    1    3    3    0  502  0.49359483260E+03 -0.16621668597E+03 -0.66472962247E+01  0.52087238572E+03  0.10100000352E+00 0.  1.
</event>
<event>
 5   0  0.3689707E-05  0.1304867E+04  0.7818609E-02  0.9025714E-01
       -1   -1    0    0    0  501  0.00000000000E+00  0.00000000000E+00  0.37293047099E+03  0.37293047103E+03  0.50400001928E-02 0. -1.
        1   -1    0    0  501    0  0.00000000000E+00  0.00000000000E+00 -0.11414178540E+04  0.11414178540E+04  0.50400001928E-02 0.  1.
    10030    2    1    2    0    0  0.00000000000E+00  0.00000000000E+00 -0.76848738298E+03  0.15143483250E+04  0.13048670398E+04 0.  0.
        1    1    3    3  502    0 -0.42712140335E+03 -0.32826476547E+03 -0.81140862045E+03  0.97394784194E+03  0.50400001928E-02 0. -1.
       -1    1    3    3    0  502  0.42712140335E+03  0.32826476547E+03  0.42921237476E+02  0.54040048307E+03  0.50400001928E-02 0.  1.
</event>
<event>
 5   0  0.3631841E-05  0.1300510E+04  0.7818609E-02  0.9029161E-01
        1   -1    0    0  501    0  0.00000000000E+00  0.00000000000E+00  0.80886487820E+03  0.80886487821E+03  0.50400001928E-02 0.  1.
       -1   -1    0    0    0  501  0.00000000000E+00  0.00000000000E+00 -0.52274695405E+03  0.52274695407E+03  0.50400001928E-02 0. -1.
    10030    2    1    2    0    0  0.00000000000E+00  0.00000000000E+00  0.28611792415E+03  0.13316118323E+04  0.13005101327E+04 0.  0.
        3    1    3    3  502    0 -0.45816780940E+03  0.10616746241E+03  0.60284396477E+03  0.76459801706E+03  0.10100000352E+00 0.  1.
       -3    1    3    3    0  502  0.45816780940E+03 -0.10616746241E+03 -0.31672604062E+03  0.56701381522E+03  0.10100000352E+00 0. -1.
</event>
<event>
 5   0  0.3551277E-05  0.1293748E+04  0.7818609E-02  0.9034538E-01
       -1   -1    0    0    0  501  0.00000000000E+00  0.00000000000E+00  0.44331217943E+03  0.44331217946E+03  0.50400001928E-02 0.  1.
        1   -1    0    0  501    0  0.00000000000E+00  0.00000000000E+00 -0.94390844254E+03  0.94390844256E+03  0.50400001928E-02 0. -1.
    10030    2    1    2    0    0  0.00000000000E+00  0.00000000000E+00 -0.50059626311E+03  0.13872206220E+04  0.12937482118E+04 0.  0.
        4    1    3    3  502    0 -0.17927059090E+03 -0.23544278000E+03 -0.86707290363E+03  0.91618135788E+03  0.12699999809E+01 0. -1.
       -4    1    3    3    0  502  0.17927059090E+03  0.23544278000E+03  0.36647664052E+03  0.47103926414E+03  0.12699999809E+01 0.  1.
</event>
<event>
 5   0  0.3689707E-05  0.1299473E+04  0.7818609E-02  0.9029983E-01
       -1   -1    0    0    0  501  0.00000000000E+00  0.00000000000E+00  0.25507428798E+03  0.25507428803E+03  0.50400001928E-02 0.  1.
        1   -1    0    0  501    0  0.00000000000E+00  0.00000000000E+00 -0.16550381330E+04  0.16550381330E+04  0.50400001928E-02 0. -1.
    10030    2    1    2    0    0  0.00000000000E+00  0.00000000000E+00 -0.13999638450E+04  0.19101124210E+04  0.12994732370E+04 0.  0.
        1    1    3    3  502    0  0.40279433051E+03 -0.49460485434E+03 -0.51828000874E+03  0.82188283965E+03  0.50400001928E-02 0.  1.
       -1    1    3    3    0  502 -0.40279433051E+03  0.49460485434E+03 -0.88168383624E+03  0.10882295814E+04  0.50400001928E-02 0. -1.
</event>
<event>
 5   0  0.6671239E-05  0.1300471E+04  0.7818609E-02  0.9029192E-01
       -2   -1    0    0    0  501  0.00000000000E+00  0.00000000000E+00  0.10049300525E+04  0.10049300526E+04  0.25500000920E-02 0. -1.
        2   -1    0    0  501    0  0.00000000000E+00  0.00000000000E+00 -0.42073186199E+03  0.42073186200E+03  0.25500000920E-02 0.  1.
    10030    2    1    2    0    0  0.00000000000E+00  0.00000000000E+00  0.58419819056E+03  0.14256619145E+04  0.13004708258E+04 0.  0.
        1    1    3    3  502    0  0.59859593213E+03  0.22825514566E+03  0.17008025698E+03  0.66283089497E+03  0.50400001928E-02 0. -1.
       -1    1    3    3    0  502 -0.59859593213E+03 -0.22825514566E+03  0.41411793358E+03  0.76283101958E+03  0.50400001928E-02 0.  1.
</event>
<event>
 5   0  0.6742824E-05  0.1299613E+04  0.7818609E-02  0.9029872E-01
        2   -1    0    0  501    0  0.00000000000E+00  0.00000000000E+00  0.97439417792E+03  0.97439417792E+03  0.25500000920E-02 0.  1.
       -2   -1    0    0    0  501  0.00000000000E+00  0.00000000000E+00 -0.43334458827E+03  0.43334458828E+03  0.25500000920E-02 0. -1.
    10030    2    1    2    0    0  0.00000000000E+00  0.00000000000E+00  0.54104958964E+03  0.14077387662E+04  0.12996129329E+04 0.  0.
        4    1    3    3  502    0 -0.45235550850E+03  0.73854644201E+02  0.76946301756E+03  0.89563104169E+03  0.12699999809E+01 0.  1.
       -4    1    3    3    0  502  0.45235550850E+03 -0.73854644201E+02 -0.22841342792E+03  0.51210772451E+03  0.12699999809E+01 0. -1.
</event>
<event>
 5   0  0.6618060E-05  0.1300204E+04  0.7818609E-02  0.9029403E-01
       -2   -1    0    0    0  501  0.00000000000E+00  0.00000000000E+00  0.40240802692E+03  0.40240802693E+03  0.25500000920E-02 0. -1.
        2   -1    0    0  501    0  0.00000000000E+00  0.00000000000E+00 -0.10502595247E+04  0.10502595247E+04  0.25500000920E-02 0.  1.
    10030    2    1    2    0    0  0.00000000000E+00  0.00000000000E+00 -0.64785149778E+03  0.14526675516E+04  0.13002043887E+04 0.  0.
        2    1    3    3  502    0  0.13400843339E+03 -0.30244872049E+03  0.30134059276E+03  0.44748144274E+03  0.25500000920E-02 0. -1.
       -2    1    3    3    0  502 -0.13400843339E+03  0.30244872049E+03 -0.94919209054E+03  0.10051861089E+04  0.25500000920E-02 0.  1.
</event>
<event>
 5   0  0.3552698E-05  0.1297699E+04  0.7818609E-02  0.9031392E-01
        1   -1    0    0  501    0  0.00000000000E+00  0.00000000000E+00  0.87361993197E+03  0.87361993198E+03  0.50400001928E-02 0. -1.
       -1   -1    0    0    0  501  0.00000000000E+00  0.00000000000E+00 -0.48190935721E+03  0.48190935723E+03  0.50400001928E-02 0.  1.
    10030    2    1    2    0    0  0.00000000000E+00  0.00000000000E+00  0.39171057476E+03  0.13555292892E+04  0.12976989171E+04 0.  0.
        5    1    3    3  502    0  0.56138575440E+03 -0.36080165008E+02 -0.14186009325E+03  0.58017421487E+03  0.46999998093E+01 0.  1.
       -5    1    3    3    0  502 -0.56138575440E+03  0.36080165008E+02  0.53357066801E+03  0.77535507434E+03  0.46999998093E+01 0. -1.
</event>
<event>
 5   0  0.3631841E-05  0.1300976E+04  0.7818609E-02  0.9028792E-01
        1   -1    0    0  501    0  0.00000000000E+00  0.00000000000E+00  0.36983271389E+03  0.36983271393E+03  0.50400001928E-02 0.  1.
       -1   -1    0    0    0  501  0.00000000000E+00  0.00000000000E+00 -0.11441239511E+04  0.11441239511E+04  0.50400001928E-02 0. -1.
    10030    2    1    2    0    0  0.00000000000E+00  0.00000000000E+00 -0.77429123720E+03  0.15139566650E+04  0.13009757352E+04 0.  0.
        3    1    3    3  502    0 -0.45256125094E+03 -0.31064615982E+03  0.19023251513E+02  0.54924913906E+03  0.10100000352E+00 0.  1.
       -3    1    3    3    0  502  0.45256125094E+03  0.31064615982E+03 -0.79331448871E+03  0.96470752597E+03  0.10100000352E+00 0. -1.
</event>
<event>
 5   0  0.6671239E-05  0.1299754E+04  0.7818609E-02  0.9029760E-01
        2   -1    0    0  501    0  0.00000000000E+00  0.00000000000E+00  0.77285649307E+03  0.77285649307E+03  0.25500000920E-02 0. -1.
       -2   -1    0    0    0  501  0.00000000000E+00  0.00000000000E+00 -0.54646673607E+03  0.54646673608E+03  0.25500000920E-02 0.  1.
    10030    2    1    2    0    0  0.00000000000E+00  0.00000000000E+00  0.22638975700E+03  0.13193232291E+04  0.12997543848E+04 0.  0.
        1    1    3    3  502    0 -0.27945095337E+03  0.40407908580E+03  0.54500255420E+03  0.73375781224E+03  0.50400001928E-02 0. -1.
       -1    1    3    3    0  502  0.27945095337E+03 -0.40407908580E+03 -0.31861279720E+03  0.58556541691E+03  0.50400001928E-02 0.  1.
</event>
<event>
 5   0  0.3551277E-05  0.1299847E+04  0.7818609E-02  0.9029687E-01
       -1   -1    0    0    0  501  0.00000000000E+00  0.00000000000E+00  0.36314012694E+03  0.36314012698E+03  0.50400001928E-02 0.  1.
        1   -1    0    0  501    0  0.00000000000E+00  0.00000000000E+00 -0.11631887055E+04  0.11631887055E+04  0.50400001928E-02 0. -1.
    10030    2    1    2    0    0  0.00000000000E+00  0.00000000000E+00 -0.80004857852E+03  0.15263288324E+04  0.12998469051E+04 0.  0.
        4    1    3    3  502    0  0.46189640373E+03 -0.39837412018E+03 -0.66350561230E+03  0.90127217746E+03  0.12699999809E+01 0. -1.
       -4    1    3    3    0  502 -0.46189640373E+03  0.39837412018E+03 -0.13654296621E+03  0.62505665498E+03  0.12699999809E+01 0.  1.
</event>
<event>
 5   0  0.3631841E-05  0.1299036E+04  0.7818609E-02  0.9030330E-01
       -1   -1    0    0    0  501  0.00000000000E+00  0.00000000000E+00  0.48955034695E+03  0.48955034698E+03  0.50400001928E-02 0.  1.
        1   -1    0    0  501    0  0.00000000000E+00  0.00000000000E+00 -0.86175697155E+03  0.86175697157E+03  0.50400001928E-02 0. -1.
    10030    2    1    2    0    0  0.00000000000E+00  0.00000000000E+00 -0.37220662460E+03  0.13513073185E+04  0.12990356799E+04 0.  0.
        3    1    3    3  502    0 -0.26463210546E+03 -0.59298470034E+03 -0.20126399127E+03  0.67982954515E+03  0.10100000352E+00 0.  1.
       -3    1    3    3    0  502  0.26463210546E+03  0.59298470034E+03 -0.17094263333E+03  0.67147777340E+03  0.10100000352E+00 0. -1.
</event>
<event>
 5   0  0.3689707E-05  0.1299739E+04  0.7818609E-02  0.9029773E-01
        1   -1    0    0  501    0  0.00000000000E+00  0.00000000000E+00  0.45707651173E+03  0.45707651175E+03  0.50400001928E-02 0. -1.
       -1   -1    0    0    0  501  0.00000000000E+00  0.00000000000E+00 -0.92398116690E+03  0.92398116691E+03  0.50400001928E-02 0.  1.
    10030    2    1    2    0    0  0.00000000000E+00  0.00000000000E+00 -0.46690465517E+03  0.13810576787E+04  0.12997385717E+04 0.  0.
        1    1    3    3  502    0  0.27621630241E+03 -0.42720579410E+03 -0.66314142249E+03  0.83579709408E+03  0.50400001928E-02 0.  1.
       -1    1    3    3    0  502 -0.27621630241E+03  0.42720579410E+03  0.19623676732E+03  0.54526058458E+03  0.50400001928E-02 0. -1.
</event>
<event>
 5   0  0.2512000E-05  0.1300015E+04  0.7818609E-02  0.9029553E-01
        3   -1    0    0  501    0  0.00000000000E+00  0.00000000000E+00  0.20703827712E+04  0.20703827737E+04  0.10100000352E+00 0.  1.
       -3   -1    0    0    0  501  0.00000000000E+00  0.00000000000E+00 -0.20407314830E+03  0.20407317330E+03  0.10100000352E+00 0. -1.
    10030    2    1    2    0    0  0.00000000000E+00  0.00000000000E+00  0.18663096229E+04  0.22744559469E+04  0.13000147100E+04 0.  0.
        3    1    3    3  502    0 -0.17694488046E+03  0.44035267365E+03  0.17102627419E+04  0.17748855243E+04  0.10100000352E+00 0.  1.
       -3    1    3    3    0  502  0.17694488046E+03 -0.44035267365E+03  0.15604688101E+03  0.49957042265E+03  0.10100000352E+00 0. -1.
</event>
<event>
 5   0  0.3552698E-05  0.1299727E+04  0.7818609E-02  0.9029782E-01
       -1   -1    0    0    0  501  0.00000000000E+00  0.00000000000E+00  0.39416697819E+03  0.39416697822E+03  0.50400001928E-02 0. -1.
        1   -1    0    0  501    0  0.00000000000E+00  0.00000000000E+00 -0.10714304269E+04  0.10714304270E+04  0.50400001928E-02 0.  1.
    10030    2    1    2    0    0  0.00000000000E+00  0.00000000000E+00 -0.67726344876E+03  0.14655974052E+04  0.12997268848E+04 0.  0.
        5    1    3    3  502    0  0.48495879210E+03  0.37501304108E+01 -0.82638590380E+03  0.95819353239E+03  0.46999998093E+01 0.  1.
       -5    1    3    3    0  502 -0.48495879210E+03 -0.37501304108E+01  0.14912245505E+03  0.50740387278E+03  0.46999998093E+01 0. -1.
</event>
<event>
 5   0  0.3631841E-05  0.1300056E+04  0.7818609E-02  0.9029521E-01
       -1   -1    0    0    0  501  0.00000000000E+00  0.00000000000E+00  0.13525373649E+04  0.13525373649E+04  0.50400001928E-02 0. -1.
        1   -1    0    0  501    0  0.00000000000E+00  0.00000000000E+00 -0.31240260677E+03  0.31240260681E+03  0.50400001928E-02 0.  1.
    10030    2    1    2    0    0  0.00000000000E+00  0.00000000000E+00  0.10401347581E+04  0.16649399717E+04  0.13000556889E+04 0.  0.
        3    1    3    3  502    0 -0.46540458349E+03  0.40848472893E+03  0.77322211246E+03  0.99062285735E+03  0.10100000352E+00 0.  1.
       -3    1    3    3    0  502  0.46540458349E+03 -0.40848472893E+03  0.26691264565E+03  0.67431711435E+03  0.10100000352E+00 0. -1.
</event>
<event>
 5   0  0.6742824E-05  0.1299747E+04  0.7818609E-02  0.9029766E-01
       -2   -1    0    0    0  501  0.00000000000E+00  0.00000000000E+00  0.87524945550E+03  0.87524945550E+03  0.25500000920E-02 0.  1.
        2   -1    0    0  501    0  0.00000000000E+00  0.00000000000E+00 -0.48253191377E+03  0.48253191378E+03  0.25500000920E-02 0. -1.
    10030    2    1    2    0    0  0.00000000000E+00  0.00000000000E+00  0.39271754173E+03  0.13577813693E+04  0.12997473521E+04 0.  0.
        4    1    3    3  502    0 -0.63503611383E+03 -0.13707646390E+03  0.17908696877E+03  0.67389507945E+03  0.12699999809E+01 0.  1.
       -4    1    3    3    0  502  0.63503611383E+03  0.13707646390E+03  0.21363057296E+03  0.68388628984E+03  0.12699999809E+01 0. -1.
</event>
<event>
 5   0  0.6671239E-05  0.1295777E+04  0.7818609E-02  0.9032920E-01
       -2   -1    0    0    0  501  0.00000000000E+00  0.00000000000E+00  0.65861195992E+03  0.65861195992E+03  0.25500000920E-02 0. -1.
        2   -1    0    0  501    0  0.00000000000E+00  0.00000000000E+00 -0.63734010965E+03  0.63734010965E+03  0.25500000920E-02 0.  1.
    10030    2    1    2    0    0  0.00000000000E+00  0.00000000000E+00  0.21271850272E+02  0.12959520696E+04  0.12957774790E+04 0.  0.
        1    1    3    3  502    0  0.41675490024E+03 -0.43402491404E+03  0.25087142421E+03  0.65191927751E+03  0.50400001928E-02 0. -1.
       -1    1    3    3    0  502 -0.41675490024E+03  0.43402491404E+03 -0.22959957394E+03  0.64403279206E+03  0.50400001928E-02 0.  1.
</event>
<event>
 5   0  0.3551277E-05  0.1299789E+04  0.7818609E-02  0.9029732E-01
       -1   -1    0    0    0  501  0.00000000000E+00  0.00000000000E+00  0.50180906102E+03  0.50180906104E+03  0.50400001928E-02 0.  1.
        1   -1    0    0  501    0  0.00000000000E+00  0.00000000000E+00 -0.84168073813E+03  0.84168073815E+03  0.50400001928E-02 0. -1.
    10030    2    1    2    0    0  0.00000000000E+00  0.00000000000E+00 -0.33987167711E+03  0.13434897992E+04  0.12997892459E+04 0.  0.
        4    1    3    3  502    0  0.15157148096E+03 -0.60637648506E+03 -0.35395251045E+03  0.71829683838E+03  0.12699999809E+01 0. -1.
       -4    1    3    3    0  502 -0.15157148096E+03  0.60637648506E+03  0.14080833341E+02  0.62519296081E+03  0.12699999809E+01 0.  1.
</event>
<event>
 5   0  0.6688086E-05  0.1300148E+04  0.7818609E-02  0.9029448E-01
       -2   -1    0    0    0  501  0.00000000000E+00  0.00000000000E+00  0.62606044074E+03  0.62606044074E+03  0.25500000920E-02 0. -1.
        2   -1    0    0  501    0  0.00000000000E+00  0.00000000000E+00 -0.67500854323E+03  0.67500854323E+03  0.25500000920E-02 0.  1.
    10030    2    1    2    0    0  0.00000000000E+00  0.00000000000E+00 -0.48948102488E+02  0.13010689840E+04  0.13001479086E+04 0.  0.
        5    1    3    3  502    0 -0.15814854998E+03 -0.55442641625E+03 -0.32497738335E+03  0.66183986325E+03  0.46999998093E+01 0.  1.
       -5    1    3    3    0  502  0.15814854998E+03  0.55442641625E+03  0.27602928086E+03  0.63922912073E+03  0.46999998093E+01 0. -1.
</event>
<event>
 5   0  0.3551277E-05  0.1299421E+04  0.7818609E-02  0.9030025E-01
        1   -1    0    0  501    0  0.00000000000E+00  0.00000000000E+00  0.13325896157E+04  0.13325896157E+04  0.50400001928E-02 0. -1.
       -1   -1    0    0    0  501  0.00000000000E+00  0.00000000000E+00 -0.31676926412E+03  0.31676926416E+03  0.50400001928E-02 0.  1.
    10030    2    1    2    0    0  0.00000000000E+00  0.00000000000E+00  0.10158203516E+04  0.16493588799E+04  0.12994205355E+04 0.  0.
        4    1    3    3  502    0 -0.36164105972E+03 -0.32470762156E+03 -0.39367936796E+02  0.48761741449E+03  0.12699999809E+01 0.  1.
       -4    1    3    3    0  502  0.36164105972E+03  0.32470762156E+03  0.10551882884E+04  0.11617414654E+04  0.12699999809E+01 0. -1.
</event>
<event>
 5   0  0.3689707E-05  0.1300233E+04  0.7818609E-02  0.9029380E-01
        1   -1    0    0  501    0  0.00000000000E+00  0.00000000000E+00  0.41463013684E+03  0.41463013687E+03  0.50400001928E-02 0.  1.
       -1   -1    0    0    0  501  0.00000000000E+00  0.00000000000E+00 -0.10193462011E+04  0.10193462011E+04  0.50400001928E-02 0. -1.
    10030    2    1    2    0    0  0.00000000000E+00  0.00000000000E+00 -0.60471606429E+03  0.14339763380E+04  0.13002332943E+04 0.  0.
        1    1    3    3  502    0  0.49038803742E+03 -0.15670988808E+03  0.13548359491E+03  0.53234783814E+03  0.50400001928E-02 0.  1.
       -1    1    3    3    0  502 -0.49038803742E+03  0.15670988808E+03 -0.74019965920E+03  0.90162849986E+03  0.50400001928E-02 0. -1.
</event>
<event>
 5   0  0.3689707E-05  0.1301154E+04  0.7818609E-02  0.9028651E-01
        1   -1    0    0  501    0  0.00000000000E+00  0.00000000000E+00  0.15155244533E+04  0.15155244533E+04  0.50400001928E-02 0. -1.
       -1   -1    0    0    0  501  0.00000000000E+00  0.00000000000E+00 -0.27927642943E+03  0.27927642948E+03  0.50400001928E-02 0.  1.
    10030    2    1    2    0    0  0.00000000000E+00  0.00000000000E+00  0.12362480238E+04  0.17948008827E+04  0.13011537312E+04 0.  0.
        1    1    3    3  502    0  0.10369244452E+03  0.21818209136E+02  0.15035411401E+04  0.15072704194E+04  0.50400001928E-02 0. -1.
       -1    1    3    3    0  502 -0.10369244452E+03 -0.21818209136E+02 -0.26729311627E+03  0.28753046331E+03  0.50400001928E-02 0.  1.
</event>
<event>
 5   0  0.3631841E-05  0.1300396E+04  0.7818609E-02  0.9029251E-01
        1   -1    0    0  501    0  0.00000000000E+00  0.00000000000E+00  0.34526814217E+03  0.34526814221E+03  0.50400001928E-02 0. -1.
       -1   -1    0    0    0  501  0.00000000000E+00  0.00000000000E+00 -0.12244322296E+04  0.12244322296E+04  0.50400001928E-02 0.  1.
    10030    2    1    2    0    0  0.00000000000E+00  0.00000000000E+00 -0.87916408738E+03  0.15697003718E+04  0.13003960030E+04 0.  0.
        3    1    3    3  502    0  0.41249512857E+03 -0.33590237992E+02  0.16574514443E+03  0.44581610366E+03  0.10100000352E+00 0. -1.
       -3    1    3    3    0  502 -0.41249512857E+03  0.33590237992E+02 -0.10449092318E+04  0.11238842681E+04  0.10100000352E+00 0.  1.
</event>
<event>
 5   0  0.6688086E-05  0.1299946E+04  0.7818609E-02  0.9029608E-01
        2   -1    0    0  501    0  0.00000000000E+00  0.00000000000E+00  0.16791330351E+04  0.16791330351E+04  0.25500000920E-02 0.  1.
       -2   -1    0    0    0  501  0.00000000000E+00  0.00000000000E+00 -0.25159711439E+03  0.25159711440E+03  0.25500000920E-02 0. -1.
    10030    2    1    2    0    0  0.00000000000E+00  0.00000000000E+00  0.14275359207E+04  0.19307301495E+04  0.12999461932E+04 0.  0.
        5    1    3    3  502    0  0.14721584443E+03  0.38897780091E+03  0.14555947185E+04  0.15138541240E+04  0.46999998093E+01 0.  1.
       -5    1    3    3    0  502 -0.14721584443E+03 -0.38897780091E+03 -0.28058797775E+02  0.41687602544E+03  0.46999998093E+01 0. -1.
</event>
<event>
 5   0  0.6671239E-05  0.1299183E+04  0.7818609E-02  0.9030213E-01
       -2   -1    0    0    0  501  0.00000000000E+00  0.00000000000E+00  0.10154900764E+04  0.10154900764E+04  0.25500000920E-02 0.  1.
        2   -1    0    0  501    0  0.00000000000E+00  0.00000000000E+00 -0.41553268781E+03  0.41553268782E+03  0.25500000920E-02 0. -1.
    10030    2    1    2    0    0  0.00000000000E+00  0.00000000000E+00  0.59995738859E+03  0.14310227642E+04  0.12991833141E+04 0.  0.
        1    1    3    3  502    0 -0.34917255707E+03 -0.13427436329E+02  0.90315023779E+03  0.96839151313E+03  0.50400001928E-02 0.  1.
       -1    1    3    3    0  502  0.34917255707E+03  0.13427436329E+02 -0.30319284920E+03  0.46263125109E+03  0.50400001928E-02 0. -1.
</event>
<event>
 5   0  0.3551277E-05  0.1298799E+04  0.7818609E-02  0.9030518E-01
       -1   -1    0    0    0  501  0.00000000000E+00  0.00000000000E+00  0.36271365094E+03  0.36271365097E+03  0.50400001928E-02 0.  1.
        1   -1    0    0  501    0  0.00000000000E+00  0.00000000000E+00 -0.11626792406E+04  0.11626792406E+04  0.50400001928E-02 0. -1.
    10030    2    1    2    0    0  0.00000000000E+00  0.00000000000E+00 -0.79996558968E+03  0.15253928916E+04  0.12987988794E+04 0.  0.
        4    1    3    3  502    0 -0.57124305434E+03 -0.11439046599E+03 -0.73694192586E+03  0.93940876132E+03  0.12699999809E+01 0. -1.
       -4    1    3    3    0  502  0.57124305434E+03  0.11439046599E+03 -0.63023663812E+02  0.58598413028E+03  0.12699999809E+01 0.  1.
</event>
<event>
 5   0  0.3631841E-05  0.1299739E+04  0.7818609E-02  0.9029772E-01
        1   -1    0    0  501    0  0.00000000000E+00  0.00000000000E+00  0.72113918343E+03  0.72113918345E+03  0.50400001928E-02 0. -1.
       -1   -1    0    0    0  501  0.00000000000E+00  0.00000000000E+00 -0.58564358922E+03  0.58564358924E+03  0.50400001928E-02 0.  1.
    10030    2    1    2    0    0  0.00000000000E+00  0.00000000000E+00  0.13549559421E+03  0.13067827727E+04  0.12997392658E+04 0.  0.
        3    1    3    3  502    0 -0.17552165624E+03 -0.34160943685E+03 -0.45933131924E+03  0.59874045311E+03  0.10100000352E+00 0.  1.
       -3    1    3    3    0  502  0.17552165624E+03  0.34160943685E+03  0.59482691345E+03  0.70804231958E+03  0.10100000352E+00 0. -1.
</event>
<event>
 5   0  0.6688086E-05  0.1300091E+04  0.7818609E-02  0.9029493E-01
       -2   -1    0    0    0  501  0.00000000000E+00  0.00000000000E+00  0.24917368460E+03  0.24917368461E+03  0.25500000920E-02 0.  1.
        2   -1    0    0  501    0  0.00000000000E+00  0.00000000000E+00 -0.16958414206E+04  0.16958414206E+04  0.25500000920E-02 0. -1.
    10030    2    1    2    0    0  0.00000000000E+00  0.00000000000E+00 -0.14466677360E+04  0.19450151052E+04  0.13000908511E+04 0.  0.
        5    1    3    3  502    0 -0.10559248365E+03  0.16575184550E+03 -0.16503045076E+04  0.16619718724E+04  0.46999998093E+01 0. -1.
       -5    1    3    3    0  502  0.10559248365E+03 -0.16575184550E+03  0.20363677160E+03  0.28304323280E+03  0.46999998093E+01 0.  1.
</event>
<event>
 5   0  0.3631841E-05  0.1299820E+04  0.7818609E-02  0.9029708E-01
       -1   -1    0    0    0  501  0.00000000000E+00  0.00000000000E+00  0.77828895251E+03  0.77828895253E+03  0.50400001928E-02 0.  1.
        1   -1    0    0  501    0  0.00000000000E+00  0.00000000000E+00 -0.54270735145E+03  0.54270735148E+03  0.50400001928E-02 0. -1.
    10030    2    1    2    0    0  0.00000000000E+00  0.00000000000E+00  0.23558160106E+03  0.13209963040E+04  0.12998201970E+04 0.  0.
        3    1    3    3  502    0  0.41267713224E+03 -0.21181366669E+03 -0.34483476650E+03  0.57799521733E+03  0.10100000352E+00 0. -1.
       -3    1    3    3    0  502 -0.41267713224E+03  0.21181366669E+03  0.58041636756E+03  0.74300108667E+03  0.10100000352E+00 0.  1.
</event>
<event>
 5   0  0.3689707E-05  0.1300125E+04  0.7818609E-02  0.9029466E-01
       -1   -1    0    0    0  501  0.00000000000E+00  0.00000000000E+00  0.86890338520E+03  0.86890338521E+03  0.50400001928E-02 0. -1.
        1   -1    0    0  501    0  0.00000000000E+00  0.00000000000E+00 -0.48633834007E+03  0.48633834010E+03  0.50400001928E-02 0.  1.
    10030    2    1    2    0    0  0.00000000000E+00  0.00000000000E+00  0.38256504513E+03  0.13552417253E+04  0.13001246557E+04 0.  0.
        1    1    3    3  502    0 -0.46420753487E+03  0.38294116722E+03  0.44756822579E+03  0.74996659242E+03  0.50400001928E-02 0. -1.
       -1    1    3    3    0  502  0.46420753487E+03 -0.38294116722E+03 -0.65003180664E+02  0.60527513290E+03  0.50400001928E-02 0.  1.
</event>
<event>
 5   0  0.6742824E-05  0.1299982E+04  0.7818609E-02  0.9029579E-01
       -2   -1    0    0    0  501  0.00000000000E+00  0.00000000000E+00  0.64471795655E+03  0.64471795656E+03  0.25500000920E-02 0. -1.
        2   -1    0    0  501    0  0.00000000000E+00  0.00000000000E+00 -0.65530743727E+03  0.65530743728E+03  0.25500000920E-02 0.  1.
    10030    2    1    2    0    0  0.00000000000E+00  0.00000000000E+00 -0.10589480721E+02  0.13000253938E+04  0.12999822643E+04 0.  0.
        4    1    3    3  502    0 -0.51174788916E+03  0.36006288466E+03  0.17065334881E+03  0.64857949499E+03  0.12699999809E+01 0. -1.
       -4    1    3    3    0  502  0.51174788916E+03 -0.36006288466E+03 -0.18124282953E+03  0.65144589885E+03  0.12699999809E+01 0.  1.
</event>
<event>
 5   0  0.6618060E-05  0.1300626E+04  0.7818609E-02  0.9029069E-01
       -2   -1    0    0    0  501  0.00000000000E+00  0.00000000000E+00  0.33240476974E+03  0.33240476974E+03  0.25500000920E-02 0. -1.
        2   -1    0    0  501    0  0.00000000000E+00  0.00000000000E+00 -0.12722643466E+04  0.12722643466E+04  0.25500000920E-02 0.  1.
    10030    2    1    2    0    0  0.00000000000E+00  0.00000000000E+00 -0.93985957691E+03  0.16046691164E+04  0.13006255990E+04 0.  0.
        2    1    3    3  502    0 -0.44495464356E+03  0.19821310900E+03  0.61641563157E+02  0.49099160249E+03  0.25500000920E-02 0. -1.
       -2    1    3    3    0  502  0.44495464356E+03 -0.19821310900E+03 -0.10015011401E+04  0.11136775139E+04  0.25500000920E-02 0.  1.
</event>
<event>
 5   0  0.3718559E-05  0.1298043E+04  0.7818609E-02  0.9031118E-01
        1   -1    0    0  501    0  0.00000000000E+00  0.00000000000E+00  0.45437970852E+03  0.45437970854E+03  0.50400001928E-02 0.  1.
       -1   -1    0    0    0  501  0.00000000000E+00  0.00000000000E+00 -0.92704176601E+03  0.92704176602E+03  0.50400001928E-02 0. -1.
    10030    2    1    2    0    0  0.00000000000E+00  0.00000000000E+00 -0.47266205749E+03  0.13814214746E+04  0.12980430924E+04 0.  0.
        2    1    3    3  502    0  0.64407270994E+03  0.78672084896E+02 -0.25175378728E+03  0.69598773125E+03  0.25500000920E-02 0.  1.
       -2    1    3    3    0  502 -0.64407270994E+03 -0.78672084896E+02 -0.22090827021E+03  0.68543374332E+03  0.25500000920E-02 0. -1.
</event>
<event>
 5   0  0.6618060E-05  0.1300279E+04  0.7818609E-02  0.9029344E-01
       -2   -1    0    0    0  501  0.00000000000E+00  0.00000000000E+00  0.86261426272E+03  0.86261426272E+03  0.25500000920E-02 0.  1.
        2   -1    0    0  501    0  0.00000000000E+00  0.00000000000E+00 -0.49000071441E+03  0.49000071441E+03  0.25500000920E-02 0. -1.
    10030    2    1    2    0    0  0.00000000000E+00  0.00000000000E+00  0.37261354831E+03  0.13526149771E+04  0.13002793623E+04 0.  0.
        2    1    3    3  502    0  0.10463076536E+03 -0.43529393203E+03  0.67671927761E+03  0.81140457542E+03  0.25500000920E-02 0.  1.
       -2    1    3    3    0  502 -0.10463076536E+03  0.43529393203E+03 -0.30410572930E+03  0.54121040171E+03  0.25500000920E-02 0. -1.
</event>
<event>
 5   0  0.3718559E-05  0.1300029E+04  0.7818609E-02  0.9029542E-01
        1   -1    0    0  501    0  0.00000000000E+00  0.00000000000E+00  0.10821535507E+04  0.10821535507E+04  0.50400001928E-02 0.  1.
       -1   -1    0    0    0  501  0.00000000000E+00  0.00000000000E+00 -0.39044264537E+03  0.39044264540E+03  0.50400001928E-02 0. -1.
    10030    2    1    2    0    0  0.00000000000E+00  0.00000000000E+00  0.69171090531E+03  0.14725961961E+04  0.13000290690E+04 0.  0.
        2    1    3    3  502    0 -0.23237688939E+03  0.60220511122E+03  0.25907773206E+03  0.69553668915E+03  0.25500000920E-02 0.  1.
       -2    1    3    3    0  502  0.23237688939E+03 -0.60220511122E+03  0.43263317325E+03  0.77705950693E+03  0.25500000920E-02 0. -1.
</event>
<event>
 5   0  0.2512000E-05  0.1306535E+04  0.7818609E-02  0.9024399E-01
        3   -1    0    0  501    0  0.00000000000E+00  0.00000000000E+00  0.26287254250E+04  0.26287254269E+04  0.10100000352E+00 0. -1.
       -3   -1    0    0    0  501  0.00000000000E+00  0.00000000000E+00 -0.16234427174E+03  0.16234430316E+03  0.10100000352E+00 0.  1.
    10030    2    1    2    0    0  0.00000000000E+00  0.00000000000E+00  0.24663811533E+04  0.27910697301E+04  0.13065352062E+04 0.  0.
        2    1    3    3  502    0  0.40408499958E+03  0.23732982314E+03  0.22054684275E+04  0.22547064369E+04  0.25500000920E-02 0. -1.
       -2    1    3    3    0  502 -0.40408499958E+03 -0.23732982314E+03  0.26091272575E+03  0.53636329321E+03  0.25500000920E-02 0.  1.
</event>
<event>
 5   0  0.3689707E-05  0.1299731E+04  0.7818609E-02  0.9029779E-01
        1   -1    0    0  501    0  0.00000000000E+00  0.00000000000E+00  0.93861295942E+03  0.93861295944E+03  0.50400001928E-02 0.  1.
       -1   -1    0    0    0  501  0.00000000000E+00  0.00000000000E+00 -0.44994591973E+03  0.44994591976E+03  0.50400001928E-02 0. -1.
    10030    2    1    2    0    0  0.00000000000E+00  0.00000000000E+00  0.48866703969E+03  0.13885588792E+04  0.12997308511E+04 0.  0.
        1    1    3    3  502    0 -0.40626858832E+03 -0.49730405567E+03  0.13771530162E+03  0.65675794169E+03  0.50400001928E-02 0. -1.
       -1    1    3    3    0  502  0.40626858832E+03  0.49730405567E+03  0.35095173807E+03  0.73180093750E+03  0.50400001928E-02 0.  1.
</event>
<event>
 5   0  0.6618060E-05  0.1296971E+04  0.7818609E-02  0.9031970E-01
        2   -1    0    0  501    0  0.00000000000E+00  0.00000000000E+00  0.51729854859E+03  0.51729854860E+03  0.25500000920E-02 0.  1.
       -2   -1    0    0    0  501  0.00000000000E+00  0.00000000000E+00 -0.81294187775E+03  0.81294187775E+03  0.25500000920E-02 0. -1.
    10030    2    1    2    0    0  0.00000000000E+00  0.00000000000E+00 -0.29564332916E+03  0.13302404263E+04  0.12969713234E+04 0.  0.
        2    1    3    3  502    0 -0.29203793966E+03  0.48301925723E+03 -0.47529191631E+03  0.73789983519E+03  0.25500000920E-02 0. -1.
       -2    1    3    3    0  502  0.29203793966E+03 -0.48301925723E+03  0.17964858715E+03  0.59234059116E+03  0.25500000920E-02 0.  1.
</event>
<event>
 5   0  0.6742824E-05  0.1300265E+04  0.7818609E-02  0.9029355E-01
       -2   -1    0    0    0  501  0.00000000000E+00  0.00000000000E+00  0.38843899103E+03  0.38843899104E+03  0.25500000920E-02 0. -1.
        2   -1    0    0  501    0  0.00000000000E+00  0.00000000000E+00 -0.10881309385E+04  0.10881309385E+04  0.25500000920E-02 0.  1.
    10030    2    1    2    0    0  0.00000000000E+00  0.00000000000E+00 -0.69969194748E+03  0.14765699296E+04  0.13002653327E+04 0.  0.
        4    1    3    3  502    0 -0.22622211780E+03 -0.18210065948E+03  0.31068731994E+03  0.42528263595E+03  0.12699999809E+01 0. -1.
       -4    1    3    3    0  502  0.22622211780E+03  0.18210065948E+03 -0.10103792674E+04  0.10512872936E+04  0.12699999809E+01 0.  1.
</event>
<event>
 5   0  0.6671239E-05  0.1299655E+04  0.7818609E-02  0.9029838E-01
       -2   -1    0    0    0  501  0.00000000000E+00  0.00000000000E+00  0.47935713439E+03  0.47935713440E+03  0.25500000920E-02 0. -1.
        2   -1    0    0  501    0  0.00000000000E+00  0.00000000000E+00 -0.88092163949E+03  0.88092163949E+03  0.25500000920E-02 0.  1.
    10030    2    1    2    0    0  0.00000000000E+00  0.00000000000E+00 -0.40156450509E+03  0.13602787739E+04  0.12996554509E+04 0.  0.
        1    1    3    3  502    0 -0.48544268673E+03 -0.42606392700E+03 -0.12610277556E+03  0.65809344475E+03  0.50400001928E-02 0.  1.
       -1    1    3    3    0  502  0.48544268673E+03  0.42606392700E+03 -0.27546172954E+03  0.70218532914E+03  0.50400001928E-02 0. -1.
</event>
<event>
 5   0  0.6671239E-05  0.1300886E+04  0.7818609E-02  0.9028863E-01
       -2   -1    0    0    0  501  0.00000000000E+00  0.00000000000E+00  0.22863492300E+03  0.22863492301E+03  0.25500000920E-02 0.  1.
        2   -1    0    0  501    0  0.00000000000E+00  0.00000000000E+00 -0.18504440974E+04  0.18504440974E+04  0.25500000920E-02 0. -1.
    10030    2    1    2    0    0  0.00000000000E+00  0.00000000000E+00 -0.16218091744E+04  0.20790790205E+04  0.13008860730E+04 0.  0.
        1    1    3    3  502    0 -0.34182203717E+03 -0.29538952108E+02 -0.16940632269E+04  0.17284574254E+04  0.50400001928E-02 0. -1.
       -1    1    3    3    0  502  0.34182203717E+03  0.29538952108E+02  0.72254052440E+02  0.35062159504E+03  0.50400001928E-02 0.  1.
</event>
<event>
 5   0  0.3718559E-05  0.1299806E+04  0.7818609E-02  0.9029719E-01
        1   -1    0    0  501    0  0.00000000000E+00  0.00000000000E+00  0.14380303401E+04  0.14380303402E+04  0.50400001928E-02 0.  1.
       -1   -1    0    0    0  501  0.00000000000E+00  0.00000000000E+00 -0.29371686093E+03  0.29371686097E+03  0.50400001928E-02 0. -1.
    10030    2    1    2    0    0  0.00000000000E+00  0.00000000000E+00  0.11443134792E+04  0.17317472011E+04  0.12998057662E+04 0.  0.
        2    1    3    3  502    0 -0.60937977274E+03  0.18053346379E+03  0.39124796789E+03  0.74633170330E+03  0.25500000920E-02 0. -1.
       -2    1    3    3    0  502  0.60937977274E+03 -0.18053346379E+03  0.75306551133E+03  0.98541549782E+03  0.25500000920E-02 0.  1.
</event>
<event>
 5   0  0.2512000E-05  0.1299810E+04  0.7818609E-02  0.9029716E-01
        4   -1    0    0  501    0  0.00000000000E+00  0.00000000000E+00  0.57707112718E+03  0.57707252466E+03  0.12699999809E+01 0. -1.
       -4   -1    0    0    0  501  0.00000000000E+00  0.00000000000E+00 -0.73192847165E+03  0.73192957346E+03  0.12699999809E+01 0.  1.
    10030    2    1    2    0    0  0.00000000000E+00  0.00000000000E+00 -0.15485734447E+03  0.13090020981E+04  0.12998098691E+04 0.  0.
        1    1    3    3  502    0 -0.18771245720E+03  0.34283486104E+03 -0.60033542994E+03  0.71636187573E+03  0.50400001928E-02 0.  1.
       -1    1    3    3    0  502  0.18771245720E+03 -0.34283486104E+03  0.44547808547E+03  0.59264022239E+03  0.50400001928E-02 0. -1.
</event>
<event>
 5   0  0.6671239E-05  0.1300555E+04  0.7818609E-02  0.9029125E-01
        2   -1    0    0  501    0  0.00000000000E+00  0.00000000000E+00  0.48559925569E+03  0.48559925569E+03  0.25500000920E-02 0.  1.
       -2   -1    0    0    0  501  0.00000000000E+00  0.00000000000E+00 -0.87080174718E+03  0.87080174719E+03  0.25500000920E-02 0. -1.
    10030    2    1    2    0    0  0.00000000000E+00  0.00000000000E+00 -0.38520249150E+03  0.13564010029E+04  0.13005547744E+04 0.  0.
        1    1    3    3  502    0 -0.14048729318E+03 -0.62109527904E+03 -0.55167768474E+02  0.63917095358E+03  0.50400001928E-02 0.  1.
       -1    1    3    3    0  502  0.14048729318E+03  0.62109527904E+03 -0.33003472302E+03  0.71723004930E+03  0.50400001928E-02 0. -1.
</event>
<event>
 5   0  0.6688086E-05  0.1300014E+04  0.7818609E-02  0.9029554E-01
        2   -1    0    0  501    0  0.00000000000E+00  0.00000000000E+00  0.14193209840E+04  0.14193209840E+04  0.25500000920E-02 0.  1.
       -2   -1    0    0    0  501  0.00000000000E+00  0.00000000000E+00 -0.29768391458E+03  0.29768391459E+03  0.25500000920E-02 0. -1.
    10030    2    1    2    0    0  0.00000000000E+00  0.00000000000E+00  0.11216370694E+04  0.17170048986E+04  0.13000138870E+04 0.  0.
        5    1    3    3  502    0  0.26292153420E+03 -0.51737243866E+03  0.17420607188E+03  0.60594704299E+03  0.46999998093E+01 0. -1.
       -5    1    3    3    0  502 -0.26292153420E+03  0.51737243866E+03  0.94743099756E+03  0.11110578556E+04  0.46999998093E+01 0.  1.
</event>
<event>
 5   0  0.6742824E-05  0.1300515E+04  0.7818609E-02  0.9029157E-01
       -2   -1    0    0    0  501  0.00000000000E+00  0.00000000000E+00  0.60330502010E+03  0.60330502010E+03  0.25500000920E-02 0. -1.
        2   -1    0    0  501    0  0.00000000000E+00  0.00000000000E+00 -0.70086410351E+03  0.70086410352E+03  0.25500000920E-02 0.  1.
    10030    2    1    2    0    0  0.00000000000E+00  0.00000000000E+00 -0.97559083416E+02  0.13041691236E+04  0.13005150242E+04 0.  0.
        4    1    3    3  502    0 -0.96307777000E+02  0.35555322039E+03 -0.58613954993E+03  0.69228207064E+03  0.12699999809E+01 0.  1.
       -4    1    3    3    0  502  0.96307777000E+02 -0.35555322039E+03  0.48858046651E+03  0.61188705298E+03  0.12699999809E+01 0. -1.
</event>
<event>
 5   0  0.3689707E-05  0.1301178E+04  0.7818609E-02  0.9028632E-01
       -1   -1    0    0    0  501  0.00000000000E+00  0.00000000000E+00  0.27494894382E+03  0.27494894387E+03  0.50400001928E-02 0. -1.
        1   -1    0    0  501    0  0.00000000000E+00  0.00000000000E+00 -0.15394346718E+04  0.15394346718E+04  0.50400001928E-02 0.  1.
    10030    2    1    2    0    0  0.00000000000E+00  0.00000000000E+00 -0.12644857280E+04  0.18143836157E+04  0.13011778313E+04 0.  0.
        1    1    3    3  502    0  0.50768938147E+03 -0.35053758426E+03 -0.92018504537E+03  0.11078653455E+04  0.50400001928E-02 0.  1.
       -1    1    3    3    0  502 -0.50768938147E+03  0.35053758426E+03 -0.34430068265E+03  0.70651827021E+03  0.50400001928E-02 0. -1.
</event>
<event>
 5   0  0.6458698E-05  0.1300097E+04  0.7818609E-02  0.9029488E-01
        2   -1    0    0  501    0  0.00000000000E+00  0.00000000000E+00  0.32870641330E+03  0.32870641331E+03  0.25500000920E-02 0. -1.
       -2   -1    0    0    0  501  0.00000000000E+00  0.00000000000E+00 -0.12855330325E+04  0.12855330325E+04  0.25500000920E-02 0.  1.
    10030    2    1    2    0    0  0.00000000000E+00  0.00000000000E+00 -0.95682661921E+03  0.16142394458E+04  0.13000968461E+04 0.  0.
        3    1    3    3  502    0  0.11989991570E+03 -0.12185016977E+03 -0.12571237997E+04  0.12686937029E+04  0.10100000352E+00 0.  1.
       -3    1    3    3    0  502 -0.11989991570E+03  0.12185016977E+03  0.30029718051E+03  0.34554574296E+03  0.10100000352E+00 0. -1.
</event>
<event>
 5   0  0.6671239E-05  0.1300196E+04  0.7818609E-02  0.9029410E-01
       -2   -1    0    0    0  501  0.00000000000E+00  0.00000000000E+00  0.19672067633E+03  0.19672067635E+03  0.25500000920E-02 0.  1.
        2   -1    0    0  501    0  0.00000000000E+00  0.00000000000E+00 -0.21483618135E+04  0.21483618135E+04  0.25500000920E-02 0. -1.
    10030    2    1    2    0    0  0.00000000000E+00  0.00000000000E+00 -0.19516411372E+04  0.23450824899E+04  0.13001956606E+04 0.  0.
        1    1    3    3  502    0  0.57048593446E+03 -0.11677568334E+03 -0.14971201310E+04  0.16063808541E+04  0.50400001928E-02 0.  1.
       -1    1    3    3    0  502 -0.57048593446E+03  0.11677568334E+03 -0.45452100615E+03  0.73870163577E+03  0.50400001928E-02 0. -1.
</event>
<event>
 5   0  0.3551277E-05  0.1307159E+04  0.7818609E-02  0.9023907E-01
       -1   -1    0    0    0  501  0.00000000000E+00  0.00000000000E+00  0.64522922522E+03  0.64522922524E+03  0.50400001928E-02 0. -1.
        1   -1    0    0  501    0  0.00000000000E+00  0.00000000000E+00 -0.66203787888E+03  0.66203787890E+03  0.50400001928E-02 0.  1.
    10030    2    1    2    0    0  0.00000000000E+00  0.00000000000E+00 -0.16808653652E+02  0.13072671041E+04  0.13071590380E+04 0.  0.
        4    1    3    3  502    0 -0.38003737681E+03  0.25731671265E+03  0.45695583378E+03  0.64765001761E+03  0.12699999809E+01 0. -1.
       -4    1    3    3    0  502  0.38003737681E+03 -0.25731671265E+03 -0.47376448744E+03  0.65961708653E+03  0.12699999809E+01 0.  1.
</event>
<event>
 5   0  0.6458698E-05  0.1300057E+04  0.7818609E-02  0.9029520E-01
        2   -1    0    0  501    0  0.00000000000E+00  0.00000000000E+00  0.78604430336E+03  0.78604430337E+03  0.25500000920E-02 0. -1.
       -2   -1    0    0    0  501  0.00000000000E+00  0.00000000000E+00 -0.53754829015E+03  0.53754829015E+03  0.25500000920E-02 0.  1.
    10030    2    1    2    0    0  0.00000000000E+00  0.00000000000E+00  0.24849601322E+03  0.13235925935E+04  0.13000565699E+04 0.  0.
        3    1    3    3  502    0 -0.43256863956E+02 -0.64562665264E+03  0.18727044538E+03  0.67362835509E+03  0.10100000352E+00 0. -1.
       -3    1    3    3    0  502  0.43256863956E+02  0.64562665264E+03  0.61225567840E+02  0.64996423843E+03  0.10100000352E+00 0.  1.
</event>
<event>
 5   0  0.6671239E-05  0.1299813E+04  0.7818609E-02  0.9029713E-01
        2   -1    0    0  501    0  0.00000000000E+00  0.00000000000E+00  0.50919757120E+03  0.50919757120E+03  0.25500000920E-02 0. -1.
       -2   -1    0    0    0  501  0.00000000000E+00  0.00000000000E+00 -0.82949829528E+03  0.82949829528E+03  0.25500000920E-02 0.  1.
    10030    2    1    2    0    0  0.00000000000E+00  0.00000000000E+00 -0.32030072408E+03  0.13386958665E+04  0.12998130901E+04 0.  0.
        1    1    3    3  502    0 -0.27872532573E+02  0.53266511453E+03 -0.54256555667E+03  0.76084583565E+03  0.50400001928E-02 0.  1.
       -1    1    3    3    0  502  0.27872532573E+02 -0.53266511453E+03  0.22226483259E+03  0.57785003084E+03  0.50400001928E-02 0. -1.
</event>
<event>
 5   0  0.3718559E-05  0.1302107E+04  0.7818609E-02  0.9027896E-01
        1   -1    0    0  501    0  0.00000000000E+00  0.00000000000E+00  0.15576877460E+04  0.15576877460E+04  0.50400001928E-02 0.  1.
       -1   -1    0    0    0  501  0.00000000000E+00  0.00000000000E+00 -0.27211526442E+03  0.27211526447E+03  0.50400001928E-02 0. -1.
    10030    2    1    2    0    0  0.00000000000E+00  0.00000000000E+00  0.12855724816E+04  0.18298030105E+04  0.13021069279E+04 0.  0.
        2    1    3    3  502    0 -0.51035439936E+02 -0.40862642469E+03 -0.65848935021E+02  0.41703267658E+03  0.25500000920E-02 0. -1.
       -2    1    3    3    0  502  0.51035439936E+02  0.40862642469E+03  0.13514214166E+04  0.14127703339E+04  0.25500000920E-02 0.  1.
</event>
<event>
 5   0  0.6688086E-05  0.1300451E+04  0.7818609E-02  0.9029208E-01
       -2   -1    0    0    0  501  0.00000000000E+00  0.00000000000E+00  0.71951327135E+03  0.71951327135E+03  0.25500000920E-02 0. -1.
        2   -1    0    0  501    0  0.00000000000E+00  0.00000000000E+00 -0.58760973057E+03  0.58760973058E+03  0.25500000920E-02 0.  1.
    10030    2    1    2    0    0  0.00000000000E+00  0.00000000000E+00  0.13190354077E+03  0.13071230019E+04  0.13004506904E+04 0.  0.
        5    1    3    3  502    0 -0.26427685395E+03  0.11446928814E+03 -0.51998467091E+03  0.59443386633E+03  0.46999998093E+01 0.  1.
       -5    1    3    3    0  502  0.26427685395E+03 -0.11446928814E+03  0.65188821169E+03  0.71268913560E+03  0.46999998093E+01 0. -1.
</event>
<event>
 5   0  0.3689707E-05  0.1299618E+04  0.7818609E-02  0.9029868E-01
       -1   -1    0    0    0  501  0.00000000000E+00  0.00000000000E+00  0.44848498729E+03  0.44848498732E+03  0.50400001928E-02 0.  1.
        1   -1    0    0  501    0  0.00000000000E+00  0.00000000000E+00 -0.94150732412E+03  0.94150732414E+03  0.50400001928E-02 0. -1.
    10030    2    1    2    0    0  0.00000000000E+00  0.00000000000E+00 -0.49302233684E+03  0.13899923115E+04  0.12996182521E+04 0.  0.
        1    1    3    3  502    0 -0.48354149512E+03  0.62982358625E+02  0.21285890779E+03  0.53206021243E+03  0.50400001928E-02 0.  1.
       -1    1    3    3    0  502  0.48354149512E+03 -0.62982358625E+02 -0.70588124462E+03  0.85793209902E+03  0.50400001928E-02 0. -1.
</event>
<event>
 5   0  0.6671239E-05  0.1298459E+04  0.7818609E-02  0.9030788E-01
       -2   -1    0    0    0  501  0.00000000000E+00  0.00000000000E+00  0.51233593389E+03  0.51233593389E+03  0.25500000920E-02 0.  1.
        2   -1    0    0  501    0  0.00000000000E+00  0.00000000000E+00 -0.82270008848E+03  0.82270008848E+03  0.25500000920E-02 0. -1.
    10030    2    1    2    0    0  0.00000000000E+00  0.00000000000E+00 -0.31036415459E+03  0.13350360224E+04  0.12984588067E+04 0.  0.
        1    1    3    3  502    0  0.30703545691E+03  0.92845188295E+02 -0.73553613003E+03  0.80243653917E+03  0.50400001928E-02 0. -1.
       -1    1    3    3    0  502 -0.30703545691E+03 -0.92845188295E+02  0.42517197544E+03  0.53259948321E+03  0.50400001928E-02 0.  1.
</event>
<event>
 5   0  0.6618060E-05  0.1300269E+04  0.7818609E-02  0.9029352E-01
       -2   -1    0    0    0  501  0.00000000000E+00  0.00000000000E+00  0.24358536069E+03  0.24358536070E+03  0.25500000920E-02 0.  1.
        2   -1    0    0  501    0  0.00000000000E+00  0.00000000000E+00 -0.17352231374E+04  0.17352231374E+04  0.25500000920E-02 0. -1.
    10030    2    1    2    0    0  0.00000000000E+00  0.00000000000E+00 -0.14916377767E+04  0.19788084981E+04  0.13002691318E+04 0.  0.
        2    1    3    3  502    0  0.81343802419E+01  0.18639248590E+03  0.20197023572E+03  0.27495509282E+03  0.25500000920E-02 0.  1.
       -2    1    3    3    0  502 -0.81343802419E+01 -0.18639248590E+03 -0.16936080124E+04  0.17038534052E+04  0.25500000920E-02 0. -1.
</event>
<event>
 5   0  0.3552698E-05  0.1299924E+04  0.7818609E-02  0.9029625E-01
        1   -1    0    0  501    0  0.00000000000E+00  0.00000000000E+00  0.10108053000E+04  0.10108053000E+04  0.50400001928E-02 0.  1.
       -1   -1    0    0    0  501  0.00000000000E+00  0.00000000000E+00 -0.41793493275E+03  0.41793493278E+03  0.50400001928E-02 0. -1.
    10030    2    1    2    0    0  0.00000000000E+00  0.00000000000E+00  0.59287036722E+03  0.14287402328E+04  0.12999243749E+04 0.  0.
        5    1    3    3  502    0  0.19754887871E+02  0.54709883642E+03 -0.88595439080E+02  0.55459772289E+03  0.46999998093E+01 0. -1.
       -5    1    3    3    0  502 -0.19754887871E+02 -0.54709883642E+03  0.68146580630E+03  0.87414250987E+03  0.46999998093E+01 0.  1.
</event>
<event>
 5   0  0.3631841E-05  0.1299585E+04  0.7818609E-02  0.9029895E-01
       -1   -1    0    0    0  501  0.00000000000E+00  0.00000000000E+00  0.26740331952E+03  0.26740331957E+03  0.50400001928E-02 0. -1.
        1   -1    0    0  501    0  0.00000000000E+00  0.00000000000E+00 -0.15790005721E+04  0.15790005721E+04  0.50400001928E-02 0.  1.
    10030    2    1    2    0    0  0.00000000000E+00  0.00000000000E+00 -0.13115972526E+04  0.18464038917E+04  0.12995845406E+04 0.  0.
        3    1    3    3  502    0 -0.28721348602E+03 -0.45846777110E+03 -0.11671667734E+04  0.12864534857E+04  0.10100000352E+00 0.  1.
       -3    1    3    3    0  502  0.28721348602E+03  0.45846777110E+03 -0.14443047921E+03  0.55995040603E+03  0.10100000352E+00 0. -1.
</event>
<event>
 5   0  0.6458698E-05  0.1299997E+04  0.7818609E-02  0.9029567E-01
       -2   -1    0    0    0  501  0.00000000000E+00  0.00000000000E+00  0.35112477139E+03  0.35112477140E+03  0.25500000920E-02 0.  1.
        2   -1    0    0  501    0  0.00000000000E+00  0.00000000000E+00 -0.12032709459E+04  0.12032709459E+04  0.25500000920E-02 0. -1.
    10030    2    1    2    0    0  0.00000000000E+00  0.00000000000E+00 -0.85214617450E+03  0.15543957173E+04  0.12999972859E+04 0.  0.
        3    1    3    3  502    0 -0.37181871414E+03  0.20510866748E+03  0.16234747150E+03  0.45461569855E+03  0.10100000352E+00 0.  1.
       -3    1    3    3    0  502  0.37181871414E+03 -0.20510866748E+03 -0.10144936460E+04  0.10997800187E+04  0.10100000352E+00 0. -1.
</event>
<event>
 5   0  0.6688086E-05  0.1300043E+04  0.7818609E-02  0.9029531E-01
       -2   -1    0    0    0  501  0.00000000000E+00  0.00000000000E+00  0.66074380127E+03  0.66074380127E+03  0.25500000920E-02 0. -1.
        2   -1    0    0  501    0  0.00000000000E+00  0.00000000000E+00 -0.63947352888E+03  0.63947352889E+03  0.25500000920E-02 0.  1.
    10030    2    1    2    0    0  0.00000000000E+00  0.00000000000E+00  0.21270272390E+02  0.13002173302E+04  0.13000433382E+04 0.  0.
        5    1    3    3  502    0  0.20222330930E+02 -0.23609110616E+03 -0.59472112027E+03  0.64020563413E+03  0.46999998093E+01 0.  1.
       -5    1    3    3    0  502 -0.20222330930E+02  0.23609110616E+03  0.61599139266E+03  0.66001169603E+03  0.46999998093E+01 0. -1.
</event>
<event>
 5   0  0.3552698E-05  0.1300076E+04  0.7818609E-02  0.9029505E-01
        1   -1    0    0  501    0  0.00000000000E+00  0.00000000000E+00  0.14381431338E+04  0.14381431338E+04  0.50400001928E-02 0. -1.
       -1   -1    0    0    0  501  0.00000000000E+00  0.00000000000E+00 -0.29381577806E+03  0.29381577811E+03  0.50400001928E-02 0.  1.
    10030    2    1    2    0    0  0.00000000000E+00  0.00000000000E+00  0.11443273557E+04  0.17319589119E+04  0.13000756037E+04 0.  0.
        5    1    3    3  502    0 -0.44612069443E+03 -0.44275345625E+03  0.79297436910E+03  0.10118718976E+04  0.46999998093E+01 0. -1.
       -5    1    3    3    0  502  0.44612069443E+03  0.44275345625E+03  0.35135298662E+03  0.72008701434E+03  0.46999998093E+01 0.  1.
</event>
<event>
 5   0  0.6671239E-05  0.1300780E+04  0.7818609E-02  0.9028947E-01
        2   -1    0    0  501    0  0.00000000000E+00  0.00000000000E+00  0.53474911555E+03  0.53474911555E+03  0.25500000920E-02 0.  1.
       -2   -1    0    0    0  501  0.00000000000E+00  0.00000000000E+00 -0.79103900875E+03  0.79103900876E+03  0.25500000920E-02 0. -1.
    10030    2    1    2    0    0  0.00000000000E+00  0.00000000000E+00 -0.25628989321E+03  0.13257881243E+04  0.13007803970E+04 0.  0.
        1    1    3    3  502    0 -0.54718751111E+02  0.40634820021E+03 -0.64272185771E+03  0.76236761994E+03  0.50400001928E-02 0. -1.
       -1    1    3    3    0  502  0.54718751111E+02 -0.40634820021E+03  0.38643196450E+03  0.56342050437E+03  0.50400001928E-02 0.  1.
</event>
<event>
 5   0  0.3689707E-05  0.1299786E+04  0.7818609E-02  0.9029735E-01
       -1   -1    0    0    0  501  0.00000000000E+00  0.00000000000E+00  0.13640562373E+04  0.13640562373E+04  0.50400001928E-02 0.  1.
        1   -1    0    0  501    0  0.00000000000E+00  0.00000000000E+00 -0.30963588602E+03  0.30963588606E+03  0.50400001928E-02 0. -1.
    10030    2    1    2    0    0  0.00000000000E+00  0.00000000000E+00  0.10544203513E+04  0.16736921234E+04  0.12997857695E+04 0.  0.
        1    1    3    3  502    0 -0.26937494453E+03 -0.26668946580E+03 -0.15254498094E+03  0.40860262254E+03  0.50400001928E-02 0. -1.
       -1    1    3    3    0  502  0.26937494453E+03  0.26668946580E+03  0.12069653322E+04  0.12650895008E+04  0.50400001928E-02 0.  1.
</event>
<event>
 5   0  0.6458698E-05  0.1299178E+04  0.7818609E-02  0.9030217E-01
        2   -1    0    0  501    0  0.00000000000E+00  0.00000000000E+00  0.17653715802E+04  0.17653715802E+04  0.25500000920E-02 0.  1.
       -2   -1    0    0    0  501  0.00000000000E+00  0.00000000000E+00 -0.23902380637E+03  0.23902380639E+03  0.25500000920E-02 0. -1.
    10030    2    1    2    0    0  0.00000000000E+00  0.00000000000E+00  0.15263477738E+04  0.20043953866E+04  0.12991779474E+04 0.  0.
        3    1    3    3  502    0  0.31431697551E+03  0.52087123220E+03  0.41181817565E+03  0.73464019875E+03  0.10100000352E+00 0.  1.
       -3    1    3    3    0  502 -0.31431697551E+03 -0.52087123220E+03  0.11145295982E+04  0.12697551878E+04  0.10100000352E+00 0. -1.
</event>
<event>
 5   0  0.6742824E-05  0.1299271E+04  0.7818609E-02  0.9030144E-01
       -2   -1    0    0    0  501  0.00000000000E+00  0.00000000000E+00  0.17655839953E+03  0.17655839955E+03  0.25500000920E-02 0.  1.
        2   -1    0    0  501    0  0.00000000000E+00  0.00000000000E+00 -0.23902910383E+04  0.23902910383E+04  0.25500000920E-02 0. -1.
    10030    2    1    2    0    0  0.00000000000E+00  0.00000000000E+00 -0.22137326387E+04  0.25668494378E+04  0.12992705033E+04 0.  0.
        4    1    3    3  502    0  0.39565699569E+03 -0.44967914693E+03 -0.16037958090E+04  0.17119925243E+04  0.12699999809E+01 0.  1.
       -4    1    3    3    0  502 -0.39565699569E+03  0.44967914693E+03 -0.60993682975E+03  0.85485691353E+03  0.12699999809E+01 0. -1.
</event>
<event>
 5   0  0.6618060E-05  0.1297934E+04  0.7818609E-02  0.9031205E-01
       -2   -1    0    0    0  501  0.00000000000E+00  0.00000000000E+00  0.30968799126E+03  0.30968799127E+03  0.25500000920E-02 0. -1.
        2   -1    0    0  501    0  0.00000000000E+00  0.00000000000E+00 -0.13599442499E+04  0.13599442499E+04  0.25500000920E-02 0.  1.
    10030    2    1    2    0    0  0.00000000000E+00  0.00000000000E+00 -0.10502562586E+04  0.16696322411E+04  0.12979343635E+04 0.  0.
        2    1    3    3  502    0 -0.31937674567E+03 -0.27372222207E+03  0.11059835069E+03  0.43492224099E+03  0.25500000920E-02 0. -1.
       -2    1    3    3    0  502  0.31937674567E+03  0.27372222207E+03 -0.11608546093E+04  0.12347100001E+04  0.25500000920E-02 0.  1.
</event>
<event>
 5   0  0.6618060E-05  0.1300219E+04  0.7818609E-02  0.9029392E-01
       -2   -1    0    0    0  501  0.00000000000E+00  0.00000000000E+00  0.32880417660E+03  0.32880417661E+03  0.25500000920E-02 0. -1.
        2   -1    0    0  501    0  0.00000000000E+00  0.00000000000E+00 -0.12853914381E+04  0.12853914381E+04  0.25500000920E-02 0.  1.
    10030    2    1    2    0    0  0.00000000000E+00  0.00000000000E+00 -0.95658726154E+03  0.16141956148E+04  0.13002185562E+04 0.  0.
        2    1    3    3  502    0 -0.25901483465E+03 -0.27911182791E+03 -0.11324606184E+04  0.11947632189E+04  0.25500000920E-02 0.  1.
       -2    1    3    3    0  502  0.25901483465E+03  0.27911182791E+03  0.17587335684E+03  0.41943239586E+03  0.25500000920E-02 0. -1.
</event>
<event>
 5   0  0.6671239E-05  0.1302332E+04  0.7818609E-02  0.9027718E-01
       -2   -1    0    0    0  501  0.00000000000E+00  0.00000000000E+00  0.31925861360E+03  0.31925861361E+03  0.25500000920E-02 0.  1.
        2   -1    0    0  501    0  0.00000000000E+00  0.00000000000E+00 -0.13281309091E+04  0.13281309091E+04  0.25500000920E-02 0. -1.
    10030    2    1    2    0    0  0.00000000000E+00  0.00000000000E+00 -0.10088722955E+04  0.16473895227E+04  0.13023321123E+04 0.  0.
        1    1    3    3  502    0  0.90073284729E+02  0.55462440132E+03 -0.88161102912E+02  0.56876515651E+03  0.50400001928E-02 0.  1.
       -1    1    3    3    0  502 -0.90073284729E+02 -0.55462440132E+03 -0.92071119254E+03  0.10786243662E+04  0.50400001928E-02 0. -1.
</event>
<event>
 5   0  0.3552698E-05  0.1299770E+04  0.7818609E-02  0.9029747E-01
       -1   -1    0    0    0  501  0.00000000000E+00  0.00000000000E+00  0.61000127820E+03  0.61000127822E+03  0.50400001928E-02 0.  1.
        1   -1    0    0  501    0  0.00000000000E+00  0.00000000000E+00 -0.69237661112E+03  0.69237661114E+03  0.50400001928E-02 0. -1.
    10030    2    1    2    0    0  0.00000000000E+00  0.00000000000E+00 -0.82375332916E+02  0.13023778894E+04  0.12997701609E+04 0.  0.
        5    1    3    3  502    0 -0.17411776813E+03 -0.62210121913E+03  0.29676240794E+02  0.64670680628E+03  0.46999998093E+01 0.  1.
       -5    1    3    3    0  502  0.17411776813E+03  0.62210121913E+03 -0.11205157371E+03  0.65567108308E+03  0.46999998093E+01 0. -1.
</event>
<event>
 5   0  0.3689707E-05  0.1299895E+04  0.7818609E-02  0.9029648E-01
       -1   -1    0    0    0  501  0.00000000000E+00  0.00000000000E+00  0.84333982809E+03  0.84333982810E+03  0.50400001928E-02 0.  1.
        1   -1    0    0  501    0  0.00000000000E+00  0.00000000000E+00 -0.50090345330E+03  0.50090345333E+03  0.50400001928E-02 0. -1.
    10030    2    1    2    0    0  0.00000000000E+00  0.00000000000E+00  0.34243637479E+03  0.13442432814E+04  0.12998951223E+04 0.  0.
        1    1    3    3  502    0 -0.64264960854E+03 -0.21242935121E+02  0.73211139468E+02  0.64715504527E+03  0.50400001928E-02 0. -1.
       -1    1    3    3    0  502  0.64264960854E+03  0.21242935121E+02  0.26922523532E+03  0.69708823617E+03  0.50400001928E-02 0.  1.
</event>
<event>
 5   0  0.6671239E-05  0.1295605E+04  0.7818609E-02  0.9033058E-01
        2   -1    0    0  501    0  0.00000000000E+00  0.00000000000E+00  0.53260221272E+03  0.53260221273E+03  0.25500000920E-02 0.  1.
       -2   -1    0    0    0  501  0.00000000000E+00  0.00000000000E+00 -0.78791970655E+03  0.78791970655E+03  0.25500000920E-02 0. -1.
    10030    2    1    2    0    0  0.00000000000E+00  0.00000000000E+00 -0.25531749383E+03  0.13205219193E+04  0.12956045371E+04 0.  0.
        1    1    3    3  502    0 -0.61080836704E+03  0.19778774444E+03 -0.21557853810E+03  0.67725989046E+03  0.50400001928E-02 0. -1.
       -1    1    3    3    0  502  0.61080836704E+03 -0.19778774444E+03 -0.39738955723E+02  0.64326202883E+03  0.50400001928E-02 0.  1.
</event>
<event>
 5   0  0.3718559E-05  0.1298875E+04  0.7818609E-02  0.9030458E-01
       -1   -1    0    0    0  501  0.00000000000E+00  0.00000000000E+00  0.84967630502E+03  0.84967630503E+03  0.50400001928E-02 0. -1.
        1   -1    0    0  501    0  0.00000000000E+00  0.00000000000E+00 -0.49638789786E+03  0.49638789788E+03  0.50400001928E-02 0.  1.
    10030    2    1    2    0    0  0.00000000000E+00  0.00000000000E+00  0.35328840716E+03  0.13460642029E+04  0.12988749515E+04 0.  0.
        2    1    3    3  502    0  0.71524331908E+02 -0.87337157441E+02  0.83943068086E+03  0.84698723550E+03  0.25500000920E-02 0. -1.
       -2    1    3    3    0  502 -0.71524331908E+02  0.87337157441E+02 -0.48614227370E+03  0.49907696742E+03  0.25500000920E-02 0.  1.
</event>
<event>
 5   0  0.3631841E-05  0.1299735E+04  0.7818609E-02  0.9029775E-01
       -1   -1    0    0    0  501  0.00000000000E+00  0.00000000000E+00  0.14503887361E+04  0.14503887361E+04  0.50400001928E-02 0.  1.
        1   -1    0    0  501    0  0.00000000000E+00  0.00000000000E+00 -0.29118256991E+03  0.29118256995E+03  0.50400001928E-02 0. -1.
    10030    2    1    2    0    0  0.00000000000E+00  0.00000000000E+00  0.11592061662E+04  0.17415713061E+04  0.12997352339E+04 0.  0.
        3    1    3    3  502    0  0.24822712924E+03 -0.58231010446E+03  0.38255332178E+03  0.73962748709E+03  0.10100000352E+00 0. -1.
       -3    1    3    3    0  502 -0.24822712924E+03  0.58231010446E+03  0.77665284441E+03  0.10019438190E+04  0.10100000352E+00 0.  1.
</event>
<event>
 5   0  0.3551277E-05  0.1300007E+04  0.7818609E-02  0.9029560E-01
        1   -1    0    0  501    0  0.00000000000E+00  0.00000000000E+00  0.12173183411E+04  0.12173183412E+04  0.50400001928E-02 0. -1.
       -1   -1    0    0    0  501  0.00000000000E+00  0.00000000000E+00 -0.34707795111E+03  0.34707795115E+03  0.50400001928E-02 0.  1.
    10030    2    1    2    0    0  0.00000000000E+00  0.00000000000E+00  0.87024039003E+03  0.15643962923E+04  0.13000067011E+04 0.  0.
        4    1    3    3  502    0 -0.53136333884E+03 -0.86743449373E+02  0.87337252253E+03  0.10259885964E+04  0.12699999809E+01 0. -1.
       -4    1    3    3    0  502  0.53136333884E+03  0.86743449373E+02 -0.31321324995E+01  0.53840769592E+03  0.12699999809E+01 0.  1.
</event>
<event>
 5   0  0.6671239E-05  0.1301096E+04  0.7818609E-02  0.9028696E-01
        2   -1    0    0  501    0  0.00000000000E+00  0.00000000000E+00  0.20183472941E+04  0.20183472941E+04  0.25500000920E-02 0. -1.
       -2   -1    0    0    0  501  0.00000000000E+00  0.00000000000E+00 -0.20968279073E+03  0.20968279074E+03  0.25500000920E-02 0.  1.
    10030    2    1    2    0    0  0.00000000000E+00  0.00000000000E+00  0.18086645034E+04  0.22280300849E+04  0.13010959893E+04 0.  0.
        1    1    3    3  502    0 -0.36068681164E+03 -0.46837566796E+03  0.13693494594E+04  0.14915055094E+04  0.50400001928E-02 0. -1.
       -1    1    3    3    0  502  0.36068681164E+03  0.46837566796E+03  0.43931504397E+03  0.73652457550E+03  0.50400001928E-02 0.  1.
</event>
<event>
 5   0  0.3718559E-05  0.1300571E+04  0.7818609E-02  0.9029112E-01
        1   -1    0    0  501    0  0.00000000000E+00  0.00000000000E+00  0.79888015717E+03  0.79888015718E+03  0.50400001928E-02 0. -1.
       -1   -1    0    0    0  501  0.00000000000E+00  0.00000000000E+00 -0.52933003167E+03  0.52933003169E+03  0.50400001928E-02 0.  1.
    10030    2    1    2    0    0  0.00000000000E+00  0.00000000000E+00  0.26955012550E+03  0.13282101889E+04  0.13005710421E+04 0.  0.
        2    1    3    3  502    0  0.25363700586E+03  0.58275585268E+03  0.27530441273E+03  0.69262445398E+03  0.25500000920E-02 0. -1.
       -2    1    3    3    0  502 -0.25363700586E+03 -0.58275585268E+03 -0.57542872324E+01  0.63558573489E+03  0.25500000920E-02 0.  1.
</event>
<event>
 5   0  0.3631841E-05  0.1297688E+04  0.7818609E-02  0.9031401E-01
        1   -1    0    0  501    0  0.00000000000E+00  0.00000000000E+00  0.59809402178E+03  0.59809402180E+03  0.50400001928E-02 0.  1.
       -1   -1    0    0    0  501  0.00000000000E+00  0.00000000000E+00 -0.70389998539E+03  0.70389998541E+03  0.50400001928E-02 0. -1.
    10030    2    1    2    0    0  0.00000000000E+00  0.00000000000E+00 -0.10580596362E+03  0.13019940072E+04  0.12976877486E+04 0.  0.
        3    1    3    3  502    0 -0.11847012892E+03 -0.75622368545E+02 -0.68844358138E+03  0.70264392762E+03  0.10100000352E+00 0. -1.
       -3    1    3    3    0  502  0.11847012892E+03  0.75622368545E+02  0.58263761776E+03  0.59935007959E+03  0.10100000352E+00 0.  1.
</event>
<event>
 5   0  0.3552698E-05  0.1299421E+04  0.7818609E-02  0.9030025E-01
       -1   -1    0    0    0  501  0.00000000000E+00  0.00000000000E+00  0.59050942743E+03  0.59050942745E+03  0.50400001928E-02 0.  1.
        1   -1    0    0  501    0  0.00000000000E+00  0.00000000000E+00 -0.71484626359E+03  0.71484626361E+03  0.50400001928E-02 0. -1.
    10030    2    1    2    0    0  0.00000000000E+00  0.00000000000E+00 -0.12433683616E+03  0.13053556911E+04  0.12994205752E+04 0.  0.
        5    1    3    3  502    0 -0.19351388003E+03 -0.53043315321E+03 -0.38503087710E+03  0.68343091685E+03  0.46999998093E+01 0.  1.
       -5    1    3    3    0  502  0.19351388003E+03  0.53043315321E+03  0.26069404094E+03  0.62192477421E+03  0.46999998093E+01 0. -1.
</event>
<event>
 5   0  0.6671239E-05  0.1300518E+04  0.7818609E-02  0.9029154E-01
       -2   -1    0    0    0  501  0.00000000000E+00  0.00000000000E+00  0.25895041634E+03  0.25895041635E+03  0.25500000920E-02 0.  1.
        2   -1    0    0  501    0  0.00000000000E+00  0.00000000000E+00 -0.16328876115E+04  0.16328876115E+04  0.25500000920E-02 0. -1.
    10030    2    1    2    0    0  0.00000000000E+00  0.00000000000E+00 -0.13739371952E+04  0.18918380279E+04  0.13005182457E+04 0.  0.
        1    1    3    3  502    0 -0.42713420086E+03  0.35972825377E+03 -0.11715951946E+04  0.12978764741E+04  0.50400001928E-02 0. -1.
       -1    1    3    3    0  502  0.42713420086E+03 -0.35972825377E+03 -0.20234200061E+03  0.59396155375E+03  0.50400001928E-02 0.  1.
</event>
<event>
 5   0  0.2512000E-05  0.1299046E+04  0.7818609E-02  0.9030322E-01
       -3   -1    0    0    0  501  0.00000000000E+00  0.00000000000E+00  0.57429777918E+03  0.57429778806E+03  0.10100000352E+00 0. -1.
        3   -1    0    0  501    0  0.00000000000E+00  0.00000000000E+00 -0.73460187719E+03  0.73460188413E+03  0.10100000352E+00 0.  1.
    10030    2    1    2    0    0  0.00000000000E+00  0.00000000000E+00 -0.16030409801E+03  0.13088996722E+04  0.12990461686E+04 0.  0.
        1    1    3    3  502    0 -0.14803148530E+03 -0.53630504494E+03  0.25756762134E+03  0.61308849398E+03  0.50400001928E-02 0. -1.
       -1    1    3    3    0  502  0.14803148530E+03  0.53630504494E+03 -0.41787171935E+03  0.69581117821E+03  0.50400001928E-02 0.  1.
</event>
<event>
 5   0  0.3552698E-05  0.1300006E+04  0.7818609E-02  0.9029560E-01
        1   -1    0    0  501    0  0.00000000000E+00  0.00000000000E+00  0.15648659084E+04  0.15648659084E+04  0.50400001928E-02 0. -1.
       -1   -1    0    0    0  501  0.00000000000E+00  0.00000000000E+00 -0.26999378941E+03  0.26999378946E+03  0.50400001928E-02 0.  1.
    10030    2    1    2    0    0  0.00000000000E+00  0.00000000000E+00  0.12948721190E+04  0.18348596979E+04  0.13000062717E+04 0.  0.
        5    1    3    3  502    0  0.67869724689E+01 -0.48928848675E+03  0.43596227517E+02  0.49129625208E+03  0.46999998093E+01 0.  1.
       -5    1    3    3    0  502 -0.67869724689E+01  0.48928848675E+03  0.12512758915E+04  0.13435634458E+04  0.46999998093E+01 0. -1.
</event>
<event>
 5   0  0.6618060E-05  0.1301324E+04  0.7818609E-02  0.9028516E-01
        2   -1    0    0  501    0  0.00000000000E+00  0.00000000000E+00  0.41756407156E+03  0.41756407157E+03  0.25500000920E-02 0. -1.
       -2   -1    0    0    0  501  0.00000000000E+00  0.00000000000E+00 -0.10138824077E+04  0.10138824077E+04  0.25500000920E-02 0.  1.
    10030    2    1    2    0    0  0.00000000000E+00  0.00000000000E+00 -0.59631833615E+03  0.14314464793E+04  0.13013237357E+04 0.  0.
        2    1    3    3  502    0 -0.32925884851E+03  0.40144969282E+03  0.13321134296E+03  0.53602099500E+03  0.25500000920E-02 0. -1.
       -2    1    3    3    0  502  0.32925884851E+03 -0.40144969282E+03 -0.72952967911E+03  0.89542548428E+03  0.25500000920E-02 0.  1.
</event>
<event>
 5   0  0.3718559E-05  0.1300759E+04  0.7818609E-02  0.9028963E-01
        1   -1    0    0  501    0  0.00000000000E+00  0.00000000000E+00  0.12498186674E+04  0.12498186674E+04  0.50400001928E-02 0. -1.
       -1   -1    0    0    0  501  0.00000000000E+00  0.00000000000E+00 -0.33844408499E+03  0.33844408503E+03  0.50400001928E-02 0.  1.
    10030    2    1    2    0    0  0.00000000000E+00  0.00000000000E+00  0.91137458236E+03  0.15882627524E+04  0.13007593710E+04 0.  0.
        2    1    3    3  502    0 -0.51875141006E+03 -0.16425227573E+03  0.89067457411E+03  0.10437351352E+04  0.25500000920E-02 0. -1.
       -2    1    3    3    0  502  0.51875141006E+03  0.16425227573E+03  0.20700008248E+02  0.54452761718E+03  0.25500000920E-02 0.  1.
</event>
<event>
 5   0  0.6688086E-05  0.1299561E+04  0.7818609E-02  0.9029914E-01
       -2   -1    0    0    0  501  0.00000000000E+00  0.00000000000E+00  0.37921182311E+03  0.37921182312E+03  0.25500000920E-02 0. -1.
        2   -1    0    0  501    0  0.00000000000E+00  0.00000000000E+00 -0.11133999236E+04  0.11133999236E+04  0.25500000920E-02 0.  1.
    10030    2    1    2    0    0  0.00000000000E+00  0.00000000000E+00 -0.73418810049E+03  0.14926117467E+04  0.12995605640E+04 0.  0.
        5    1    3    3  502    0  0.45736269468E+02  0.62242893508E+03 -0.15945475016E+03  0.64417194359E+03  0.46999998093E+01 0. -1.
       -5    1    3    3    0  502 -0.45736269468E+02 -0.62242893508E+03 -0.57473335033E+03  0.84843980314E+03  0.46999998093E+01 0.  1.
</event>
<event>
 5   0  0.6742824E-05  0.1299538E+04  0.7818609E-02  0.9029932E-01
        2   -1    0    0  501    0  0.00000000000E+00  0.00000000000E+00  0.38838012434E+03  0.38838012435E+03  0.25500000920E-02 0. -1.
       -2   -1    0    0    0  501  0.00000000000E+00  0.00000000000E+00 -0.10870789049E+04  0.10870789049E+04  0.25500000920E-02 0.  1.
    10030    2    1    2    0    0  0.00000000000E+00  0.00000000000E+00 -0.69869878053E+03  0.14754590292E+04  0.12995381337E+04 0.  0.
        4    1    3    3  502    0  0.40506281744E+03 -0.50529907150E+03 -0.40937599286E+03  0.76615491525E+03  0.12699999809E+01 0.  1.
       -4    1    3    3    0  502 -0.40506281744E+03  0.50529907150E+03 -0.28932278767E+03  0.70930411397E+03  0.12699999809E+01 0. -1.
</event>
<event>
 5   0  0.6742824E-05  0.1300760E+04  0.7818609E-02  0.9028963E-01
        2   -1    0    0  501    0  0.00000000000E+00  0.00000000000E+00  0.24150295829E+04  0.24150295829E+04  0.25500000920E-02 0. -1.
       -2   -1    0    0    0  501  0.00000000000E+00  0.00000000000E+00 -0.17515060723E+03  0.17515060725E+03  0.25500000920E-02 0.  1.
    10030    2    1    2    0    0  0.00000000000E+00  0.00000000000E+00  0.22398789757E+04  0.25901801901E+04  0.13007596211E+04 0.  0.
        4    1    3    3  502    0  0.81338795864E+02  0.31101251293E+03 -0.58795495287E+01  0.32152910431E+03  0.12699999809E+01 0.  1.
       -4    1    3    3    0  502 -0.81338795864E+02 -0.31101251293E+03  0.22457585252E+04  0.22686510858E+04  0.12699999809E+01 0. -1.
</event>
<event>
 5   0  0.3552698E-05  0.1299166E+04  0.7818609E-02  0.9030227E-01
       -1   -1    0    0    0  501  0.00000000000E+00  0.00000000000E+00  0.36510710936E+03  0.36510710940E+03  0.50400001928E-02 0. -1.
        1   -1    0    0  501    0  0.00000000000E+00  0.00000000000E+00 -0.11557105817E+04  0.11557105817E+04  0.50400001928E-02 0.  1.
    10030    2    1    2    0    0  0.00000000000E+00  0.00000000000E+00 -0.79060347229E+03  0.15208176911E+04  0.12991661168E+04 0.  0.
        5    1    3    3  502    0 -0.12855693760E+03 -0.15341077243E+03 -0.11186920530E+04  0.11364663439E+04  0.46999998093E+01 0.  1.
       -5    1    3    3    0  502  0.12855693760E+03  0.15341077243E+03  0.32808858070E+03  0.38435134719E+03  0.46999998093E+01 0. -1.
</event>
<event>
 5   0  0.3552698E-05  0.1299890E+04  0.7818609E-02  0.9029652E-01
       -1   -1    0    0    0  501  0.00000000000E+00  0.00000000000E+00  0.21578060969E+03  0.21578060975E+03  0.50400001928E-02 0. -1.
        1   -1    0    0  501    0  0.00000000000E+00  0.00000000000E+00 -0.19576756579E+04  0.19576756579E+04  0.50400001928E-02 0.  1.
    10030    2    1    2    0    0  0.00000000000E+00  0.00000000000E+00 -0.17418950482E+04  0.21734562677E+04  0.12998899140E+04 0.  0.
        5    1    3    3  502    0  0.33857908679E+03 -0.39091618984E+03 -0.15291314287E+04  0.16142231201E+04  0.46999998093E+01 0.  1.
       -5    1    3    3    0  502 -0.33857908679E+03  0.39091618984E+03 -0.21276361957E+03  0.55923314754E+03  0.46999998093E+01 0. -1.
</event>
<event>
 5   0  0.3552698E-05  0.1298985E+04  0.7818609E-02  0.9030370E-01
       -1   -1    0    0    0  501  0.00000000000E+00  0.00000000000E+00  0.33668250987E+03  0.33668250991E+03  0.50400001928E-02 0. -1.
        1   -1    0    0  501    0  0.00000000000E+00  0.00000000000E+00 -0.12529331420E+04  0.12529331420E+04  0.50400001928E-02 0.  1.
    10030    2    1    2    0    0  0.00000000000E+00  0.00000000000E+00 -0.91625063210E+03  0.15896156519E+04  0.12989852578E+04 0.  0.
        5    1    3    3  502    0  0.44559281670E+03  0.23823794423E+03  0.41225613544E+02  0.50698315315E+03  0.46999998093E+01 0. -1.
       -5    1    3    3    0  502 -0.44559281670E+03 -0.23823794423E+03 -0.95747624564E+03  0.10826324987E+04  0.46999998093E+01 0.  1.
</event>
<event>
 5   0  0.6671239E-05  0.1299655E+04  0.7818609E-02  0.9029839E-01
       -2   -1    0    0    0  501  0.00000000000E+00  0.00000000000E+00  0.37097278205E+03  0.37097278206E+03  0.25500000920E-02 0. -1.
        2   -1    0    0  501    0  0.00000000000E+00  0.00000000000E+00 -0.11382934458E+04  0.11382934458E+04  0.25500000920E-02 0.  1.
    10030    2    1    2    0    0  0.00000000000E+00  0.00000000000E+00 -0.76732066375E+03  0.15092662279E+04  0.12996551641E+04 0.  0.
        1    1    3    3  502    0  0.41388118164E+03  0.55266965249E+02  0.19456463733E+03  0.46065981819E+03  0.50400001928E-02 0. -1.
       -1    1    3    3    0  502 -0.41388118164E+03 -0.55266965249E+02 -0.96188530108E+03  0.10486064097E+04  0.50400001928E-02 0.  1.
</event>
<event>
 5   0  0.6688086E-05  0.1299703E+04  0.7818609E-02  0.9029800E-01
       -2   -1    0    0    0  501  0.00000000000E+00  0.00000000000E+00  0.44550099758E+03  0.44550099759E+03  0.25500000920E-02 0. -1.
        2   -1    0    0  501    0  0.00000000000E+00  0.00000000000E+00 -0.94793781765E+03  0.94793781765E+03  0.25500000920E-02 0.  1.
    10030    2    1    2    0    0  0.00000000000E+00  0.00000000000E+00 -0.50243682007E+03  0.13934388152E+04  0.12997034176E+04 0.  0.
        5    1    3    3  502    0  0.74833427281E+02 -0.68534963134E+02 -0.93937292464E+03  0.94484954599E+03  0.46999998093E+01 0.  1.
       -5    1    3    3    0  502 -0.74833427281E+02  0.68534963134E+02  0.43693610457E+03  0.44858926925E+03  0.46999998093E+01 0. -1.
</event>
<event>
 5   0  0.3631841E-05  0.1299690E+04  0.7818609E-02  0.9029811E-01
       -1   -1    0    0    0  501  0.00000000000E+00  0.00000000000E+00  0.81118647456E+03  0.81118647457E+03  0.50400001928E-02 0. -1.
        1   -1    0    0  501    0  0.00000000000E+00  0.00000000000E+00 -0.52059329257E+03  0.52059329259E+03  0.50400001928E-02 0.  1.
    10030    2    1    2    0    0  0.00000000000E+00  0.00000000000E+00  0.29059318199E+03  0.13317797672E+04  0.12996895594E+04 0.  0.
        3    1    3    3  502    0 -0.39048803995E+03 -0.13150289015E+03 -0.36962888287E+03  0.55353359493E+03  0.10100000352E+00 0.  1.
       -3    1    3    3    0  502  0.39048803995E+03  0.13150289015E+03  0.66022206486E+03  0.77824617223E+03  0.10100000352E+00 0. -1.
</event>
<event>
 5   0  0.6742824E-05  0.1298815E+04  0.7818609E-02  0.9030506E-01
        2   -1    0    0  501    0  0.00000000000E+00  0.00000000000E+00  0.66662711590E+03  0.66662711590E+03  0.25500000920E-02 0. -1.
       -2   -1    0    0    0  501  0.00000000000E+00  0.00000000000E+00 -0.63263226128E+03  0.63263226128E+03  0.25500000920E-02 0.  1.
    10030    2    1    2    0    0  0.00000000000E+00  0.00000000000E+00  0.33994854622E+02  0.12992593772E+04  0.12988145669E+04 0.  0.
        4    1    3    3  502    0  0.57693371495E+03  0.27068506447E+03  0.14196134986E+03  0.65289934395E+03  0.12699999809E+01 0. -1.
       -4    1    3    3    0  502 -0.57693371495E+03 -0.27068506447E+03 -0.10796649524E+03  0.64636003324E+03  0.12699999809E+01 0.  1.
</event>
<event>
 5   0  0.6671239E-05  0.1299969E+04  0.7818609E-02  0.9029589E-01
       -2   -1    0    0    0  501  0.00000000000E+00  0.00000000000E+00  0.26847436940E+03  0.26847436941E+03  0.25500000920E-02 0. -1.
        2   -1    0    0  501    0  0.00000000000E+00  0.00000000000E+00 -0.15736331375E+04  0.15736331375E+04  0.25500000920E-02 0.  1.
    10030    2    1    2    0    0  0.00000000000E+00  0.00000000000E+00 -0.13051587681E+04  0.18421075069E+04  0.12999694831E+04 0.  0.
        1    1    3    3  502    0 -0.64432988201E+03 -0.85257069719E+02 -0.64251945840E+03  0.91392615634E+03  0.50400001928E-02 0. -1.
       -1    1    3    3    0  502  0.64432988201E+03  0.85257069719E+02 -0.66263930972E+03  0.92818135060E+03  0.50400001928E-02 0.  1.
</event>
<event>
 5   0  0.3689707E-05  0.1299518E+04  0.7818609E-02  0.9029947E-01
       -1   -1    0    0    0  501  0.00000000000E+00  0.00000000000E+00  0.48655895702E+03  0.48655895705E+03  0.50400001928E-02 0.  1.
        1   -1    0    0  501    0  0.00000000000E+00  0.00000000000E+00 -0.86769925609E+03  0.86769925610E+03  0.50400001928E-02 0. -1.
    10030    2    1    2    0    0  0.00000000000E+00  0.00000000000E+00 -0.38114029906E+03  0.13542582132E+04  0.12995181339E+04 0.  0.
        1    1    3    3  502    0 -0.30365080929E+03  0.16020532643E+03 -0.76545709117E+03  0.83892438220E+03  0.50400001928E-02 0. -1.
       -1    1    3    3    0  502  0.30365080929E+03 -0.16020532643E+03  0.38431679211E+03  0.51533383095E+03  0.50400001928E-02 0.  1.
</event>
<event>
 5   0  0.6458698E-05  0.1299986E+04  0.7818609E-02  0.9029576E-01
       -2   -1    0    0    0  501  0.00000000000E+00  0.00000000000E+00  0.23510125130E+03  0.23510125132E+03  0.25500000920E-02 0. -1.
        2   -1    0    0  501    0  0.00000000000E+00  0.00000000000E+00 -0.17970596284E+04  0.17970596284E+04  0.25500000920E-02 0.  1.
    10030    2    1    2    0    0  0.00000000000E+00  0.00000000000E+00 -0.15619583771E+04  0.20321608797E+04  0.12999861035E+04 0.  0.
        3    1    3    3  502    0 -0.39201164514E+03  0.13849699804E+03 -0.15620193030E+04  0.16164030628E+04  0.10100000352E+00 0. -1.
       -3    1    3    3    0  502  0.39201164514E+03 -0.13849699804E+03  0.60925898012E-01  0.41575781689E+03  0.10100000352E+00 0.  1.
</event>
<event>
 5   0  0.3631841E-05  0.1297056E+04  0.7818609E-02  0.9031903E-01
        1   -1    0    0  501    0  0.00000000000E+00  0.00000000000E+00  0.14953520992E+04  0.14953520992E+04  0.50400001928E-02 0. -1.
       -1   -1    0    0    0  501  0.00000000000E+00  0.00000000000E+00 -0.28126377903E+03  0.28126377908E+03  0.50400001928E-02 0.  1.
    10030    2    1    2    0    0  0.00000000000E+00  0.00000000000E+00  0.12140883202E+04  0.17766158783E+04  0.12970557158E+04 0.  0.
        3    1    3    3  502    0 -0.20435987249E+03 -0.53786422107E+03  0.19720531166E+03  0.60823582840E+03  0.10100000352E+00 0.  1.
       -3    1    3    3    0  502  0.20435987249E+03  0.53786422107E+03  0.10168830085E+04  0.11683800499E+04  0.10100000352E+00 0. -1.
</event>
<event>
 5   0  0.3552698E-05  0.1300485E+04  0.7818609E-02  0.9029180E-01
        1   -1    0    0  501    0  0.00000000000E+00  0.00000000000E+00  0.13527364999E+04  0.13527364999E+04  0.50400001928E-02 0.  1.
       -1   -1    0    0    0  501  0.00000000000E+00  0.00000000000E+00 -0.31256312489E+03  0.31256312494E+03  0.50400001928E-02 0. -1.
    10030    2    1    2    0    0  0.00000000000E+00  0.00000000000E+00  0.10401733750E+04  0.16652996248E+04  0.13004853672E+04 0.  0.
        5    1    3    3  502    0 -0.31241675492E+03  0.13408726809E+03  0.12298351667E+04  0.12759703176E+04  0.46999998093E+01 0.  1.
       -5    1    3    3    0  502  0.31241675492E+03 -0.13408726809E+03 -0.18966179170E+03  0.38932930721E+03  0.46999998093E+01 0. -1.
</event>
<event>
 5   0  0.3689707E-05  0.1300990E+04  0.7818609E-02  0.9028781E-01
       -1   -1    0    0    0  501  0.00000000000E+00  0.00000000000E+00  0.10666147227E+04  0.10666147228E+04  0.50400001928E-02 0.  1.
        1   -1    0    0  501    0  0.00000000000E+00  0.00000000000E+00 -0.39671634015E+03  0.39671634018E+03  0.50400001928E-02 0. -1.
    10030    2    1    2    0    0  0.00000000000E+00  0.00000000000E+00  0.66989838260E+03  0.14633310629E+04  0.13009896067E+04 0.  0.
        1    1    3    3  502    0  0.32187007884E+03  0.56027752763E+03  0.25053623853E+03  0.69302212264E+03  0.50400001928E-02 0. -1.
       -1    1    3    3    0  502 -0.32187007884E+03 -0.56027752763E+03  0.41936214407E+03  0.77030894031E+03  0.50400001928E-02 0.  1.
</event>
<event>
 5   0  0.3689707E-05  0.1300110E+04  0.7818609E-02  0.9029478E-01
       -1   -1    0    0    0  501  0.00000000000E+00  0.00000000000E+00  0.34381814602E+03  0.34381814606E+03  0.50400001928E-02 0. -1.
        1   -1    0    0  501    0  0.00000000000E+00  0.00000000000E+00 -0.12290560098E+04  0.12290560098E+04  0.50400001928E-02 0.  1.
    10030    2    1    2    0    0  0.00000000000E+00  0.00000000000E+00 -0.88523786374E+03  0.15728741558E+04  0.13001103933E+04 0.  0.
        1    1    3    3  502    0  0.14406955773E+03  0.21585297305E+03 -0.11636673308E+04  0.11922542515E+04  0.50400001928E-02 0.  1.
       -1    1    3    3    0  502 -0.14406955773E+03 -0.21585297305E+03  0.27842946704E+03  0.38061990434E+03  0.50400001928E-02 0. -1.
</event>
<event>
 5   0  0.6458698E-05  0.1299260E+04  0.7818609E-02  0.9030152E-01
        2   -1    0    0  501    0  0.00000000000E+00  0.00000000000E+00  0.80080323340E+03  0.80080323340E+03  0.25500000920E-02 0. -1.
       -2   -1    0    0    0  501  0.00000000000E+00  0.00000000000E+00 -0.52699451777E+03  0.52699451778E+03  0.25500000920E-02 0.  1.
    10030    2    1    2    0    0  0.00000000000E+00  0.00000000000E+00  0.27380871562E+03  0.13277977512E+04  0.12992596566E+04 0.  0.
        3    1    3    3  502    0 -0.20356161705E+03 -0.85999635078E+02  0.76121168802E+03  0.79263895524E+03  0.10100000352E+00 0. -1.
       -3    1    3    3    0  502  0.20356161705E+03  0.85999635078E+02 -0.48740297240E+03  0.53515879594E+03  0.10100000352E+00 0.  1.
</event>
<event>
 5   0  0.3689707E-05  0.1301650E+04  0.7818609E-02  0.9028257E-01
       -1   -1    0    0    0  501  0.00000000000E+00  0.00000000000E+00  0.36833167457E+03  0.36833167460E+03  0.50400001928E-02 0. -1.
        1   -1    0    0  501    0  0.00000000000E+00  0.00000000000E+00 -0.11499783720E+04  0.11499783720E+04  0.50400001928E-02 0.  1.
    10030    2    1    2    0    0  0.00000000000E+00  0.00000000000E+00 -0.78164669740E+03  0.15183100466E+04  0.13016504285E+04 0.  0.
        1    1    3    3  502    0 -0.44345947536E+03 -0.43064647829E+03 -0.15331178989E+03  0.63688083697E+03  0.50400001928E-02 0. -1.
       -1    1    3    3    0  502  0.44345947536E+03  0.43064647829E+03 -0.62833490751E+03  0.88142920962E+03  0.50400001928E-02 0.  1.
</event>
<event>
 5   0  0.3718559E-05  0.1302319E+04  0.7818609E-02  0.9027729E-01
       -1   -1    0    0    0  501  0.00000000000E+00  0.00000000000E+00  0.60730953406E+03  0.60730953408E+03  0.50400001928E-02 0. -1.
        1   -1    0    0  501    0  0.00000000000E+00  0.00000000000E+00 -0.69817509679E+03  0.69817509681E+03  0.50400001928E-02 0.  1.
    10030    2    1    2    0    0  0.00000000000E+00  0.00000000000E+00 -0.90865562728E+02  0.13054846309E+04  0.13023185367E+04 0.  0.
        2    1    3    3  502    0  0.43841725228E+03 -0.33634568129E+03  0.29989024628E+03  0.62870681898E+03  0.25500000920E-02 0. -1.
       -2    1    3    3    0  502 -0.43841725228E+03  0.33634568129E+03 -0.39075580901E+03  0.67677781191E+03  0.25500000920E-02 0.  1.
</event>
<event>
 5   0  0.3552698E-05  0.1299598E+04  0.7818609E-02  0.9029884E-01
        1   -1    0    0  501    0  0.00000000000E+00  0.00000000000E+00  0.53972258075E+03  0.53972258078E+03  0.50400001928E-02 0. -1.
       -1   -1    0    0    0  501  0.00000000000E+00  0.00000000000E+00 -0.78232589189E+03  0.78232589190E+03  0.50400001928E-02 0.  1.
    10030    2    1    2    0    0  0.00000000000E+00  0.00000000000E+00 -0.24260331113E+03  0.13220484727E+04  0.12995983216E+04 0.  0.
        5    1    3    3  502    0 -0.37862115331E+03 -0.45572808431E+03 -0.39269634727E+03  0.71082668473E+03  0.46999998093E+01 0.  1.
       -5    1    3    3    0  502  0.37862115331E+03  0.45572808431E+03  0.15009303614E+03  0.61122178795E+03  0.46999998093E+01 0. -1.
</event>
<event>
 5   0  0.6671239E-05  0.1299177E+04  0.7818609E-02  0.9030218E-01
        2   -1    0    0  501    0  0.00000000000E+00  0.00000000000E+00  0.35859972015E+03  0.35859972016E+03  0.25500000920E-02 0. -1.
       -2   -1    0    0    0  501  0.00000000000E+00  0.00000000000E+00 -0.11767019658E+04  0.11767019658E+04  0.25500000920E-02 0.  1.
    10030    2    1    2    0    0  0.00000000000E+00  0.00000000000E+00 -0.81810224566E+03  0.15353016860E+04  0.12991766556E+04 0.  0.
        1    1    3    3  502    0  0.17092160187E+03  0.23567093868E+03 -0.10952906786E+04  0.11333210736E+04  0.50400001928E-02 0.  1.
       -1    1    3    3    0  502 -0.17092160187E+03 -0.23567093868E+03  0.27718843292E+03  0.40198061234E+03  0.50400001928E-02 0. -1.
</event>
<event>
 5   0  0.6458698E-05  0.1298296E+04  0.7818609E-02  0.9030917E-01
        2   -1    0    0  501    0  0.00000000000E+00  0.00000000000E+00  0.14942220803E+04  0.14942220803E+04  0.25500000920E-02 0.  1.
       -2   -1    0    0    0  501  0.00000000000E+00  0.00000000000E+00 -0.28201509370E+03  0.28201509372E+03  0.25500000920E-02 0. -1.
    10030    2    1    2    0    0  0.00000000000E+00  0.00000000000E+00  0.12122069866E+04  0.17762371740E+04  0.12982960833E+04 0.  0.
        3    1    3    3  502    0 -0.40300731256E+03 -0.33060889956E+03  0.76801733737E+02  0.52689245103E+03  0.10100000352E+00 0. -1.
       -3    1    3    3    0  502  0.40300731256E+03  0.33060889956E+03  0.11354052528E+04  0.12493447230E+04  0.10100000352E+00 0.  1.
</event>
<event>
 5   0  0.3551277E-05  0.1300252E+04  0.7818609E-02  0.9029365E-01
        1   -1    0    0  501    0  0.00000000000E+00  0.00000000000E+00  0.47531204478E+03  0.47531204480E+03  0.50400001928E-02 0. -1.
       -1   -1    0    0    0  501  0.00000000000E+00  0.00000000000E+00 -0.88923414950E+03  0.88923414951E+03  0.50400001928E-02 0.  1.
    10030    2    1    2    0    0  0.00000000000E+00  0.00000000000E+00 -0.41392210472E+03  0.13645461943E+04  0.13002518247E+04 0.  0.
        4    1    3    3  502    0 -0.33017236109E+02 -0.31692313831E+02 -0.88754021799E+03  0.88872031151E+03  0.12699999809E+01 0.  1.
       -4    1    3    3    0  502  0.33017236109E+02  0.31692313831E+02  0.47361811327E+03  0.47582588281E+03  0.12699999809E+01 0. -1.
</event>
<event>
 5   0  0.3718559E-05  0.1299970E+04  0.7818609E-02  0.9029589E-01
       -1   -1    0    0    0  501  0.00000000000E+00  0.00000000000E+00  0.46049596306E+03  0.46049596308E+03  0.50400001928E-02 0. -1.
        1   -1    0    0  501    0  0.00000000000E+00  0.00000000000E+00 -0.91744718984E+03  0.91744718985E+03  0.50400001928E-02 0.  1.
    10030    2    1    2    0    0  0.00000000000E+00  0.00000000000E+00 -0.45695122678E+03  0.13779431529E+04  0.12999703493E+04 0.  0.
        2    1    3    3  502    0 -0.23759233897E+03 -0.14370138035E+03  0.39446518417E+03  0.48239298065E+03  0.25500000920E-02 0. -1.
       -2    1    3    3    0  502  0.23759233897E+03  0.14370138035E+03 -0.85141641095E+03  0.89555017229E+03  0.25500000920E-02 0.  1.
</event>
<event>
 5   0  0.3551277E-05  0.1300387E+04  0.7818609E-02  0.9029258E-01
        1   -1    0    0  501    0  0.00000000000E+00  0.00000000000E+00  0.36260213841E+03  0.36260213845E+03  0.50400001928E-02 0. -1.
       -1   -1    0    0    0  501  0.00000000000E+00  0.00000000000E+00 -0.11658832441E+04  0.11658832441E+04  0.50400001928E-02 0.  1.
    10030    2    1    2    0    0  0.00000000000E+00  0.00000000000E+00 -0.80328110568E+03  0.15284853826E+04  0.13003872615E+04 0.  0.
        4    1    3    3  502    0  0.20533131116E+03  0.44660971387E+03 -0.90188529290E+03  0.10271416058E+04  0.12699999809E+01 0.  1.
       -4    1    3    3    0  502 -0.20533131116E+03 -0.44660971387E+03  0.98604187226E+02  0.50134377677E+03  0.12699999809E+01 0. -1.
</event>
<event>
 5   0  0.3689707E-05  0.1300001E+04  0.7818609E-02  0.9029564E-01
        1   -1    0    0  501    0  0.00000000000E+00  0.00000000000E+00  0.18963217010E+04  0.18963217010E+04  0.50400001928E-02 0. -1.
       -1   -1    0    0    0  501  0.00000000000E+00  0.00000000000E+00 -0.22280006035E+03  0.22280006041E+03  0.50400001928E-02 0.  1.
    10030    2    1    2    0    0  0.00000000000E+00  0.00000000000E+00  0.16735216407E+04  0.21191217614E+04  0.13000009069E+04 0.  0.
        1    1    3    3  502    0  0.28003046758E+03  0.57360603140E+03  0.10368021158E+04  0.12175383236E+04  0.50400001928E-02 0. -1.
       -1    1    3    3    0  502 -0.28003046758E+03 -0.57360603140E+03  0.63671952484E+03  0.90158343783E+03  0.50400001928E-02 0.  1.
</event>
<event>
 5   0  0.2512000E-05  0.1299551E+04  0.7818609E-02  0.9029922E-01
        3   -1    0    0  501    0  0.00000000000E+00  0.00000000000E+00  0.57390125628E+03  0.57390126516E+03  0.10100000352E+00 0.  1.
       -3   -1    0    0    0  501  0.00000000000E+00  0.00000000000E+00 -0.73568033158E+03  0.73568033852E+03  0.10100000352E+00 0. -1.
    10030    2    1    2    0    0  0.00000000000E+00  0.00000000000E+00 -0.16177907531E+03  0.13095816037E+04  0.12995505021E+04 0.  0.
        2    1    3    3  502    0  0.62070366882E+03 -0.18664588446E+03 -0.34730443554E+02  0.64908854126E+03  0.25500000920E-02 0. -1.
       -2    1    3    3    0  502 -0.62070366882E+03  0.18664588446E+03 -0.12704863175E+03  0.66049306243E+03  0.25500000920E-02 0.  1.
</event>
<event>
 5   0  0.3551277E-05  0.1303762E+04  0.7818609E-02  0.9026587E-01
        1   -1    0    0  501    0  0.00000000000E+00  0.00000000000E+00  0.14374958177E+04  0.14374958177E+04  0.50400001928E-02 0.  1.
       -1   -1    0    0    0  501  0.00000000000E+00  0.00000000000E+00 -0.29561733976E+03  0.29561733981E+03  0.50400001928E-02 0. -1.
    10030    2    1    2    0    0  0.00000000000E+00  0.00000000000E+00  0.11418784779E+04  0.17331131575E+04  0.13037617721E+04 0.  0.
        4    1    3    3  502    0  0.36535880923E+03 -0.20287284835E+03  0.12360000817E+04  0.13047383902E+04  0.12699999809E+01 0.  1.
       -4    1    3    3    0  502 -0.36535880923E+03  0.20287284835E+03 -0.94121603734E+02  0.42837476731E+03  0.12699999809E+01 0. -1.
</event>
<event>
 5   0  0.6742824E-05  0.1299703E+04  0.7818609E-02  0.9029800E-01
       -2   -1    0    0    0  501  0.00000000000E+00  0.00000000000E+00  0.56702482886E+03  0.56702482886E+03  0.25500000920E-02 0. -1.
        2   -1    0    0  501    0  0.00000000000E+00  0.00000000000E+00 -0.74477729042E+03  0.74477729042E+03  0.25500000920E-02 0.  1.
    10030    2    1    2    0    0  0.00000000000E+00  0.00000000000E+00 -0.17775246156E+03  0.13118021193E+04  0.12997033748E+04 0.  0.
        4    1    3    3  502    0 -0.63157433891E+03 -0.13559262440E+03 -0.17264381714E+02  0.64619747534E+03  0.12699999809E+01 0. -1.
       -4    1    3    3    0  502  0.63157433891E+03  0.13559262440E+03 -0.16048807985E+03  0.66560464394E+03  0.12699999809E+01 0.  1.
</event>
<event>
 5   0  0.2512000E-05  0.1300062E+04  0.7818609E-02  0.9029516E-01
       -3   -1    0    0    0  501  0.00000000000E+00  0.00000000000E+00  0.58534090446E+03  0.58534091318E+03  0.10100000352E+00 0. -1.
        3   -1    0    0  501    0  0.00000000000E+00  0.00000000000E+00 -0.72186996529E+03  0.72186997235E+03  0.10100000352E+00 0.  1.
    10030    2    1    2    0    0  0.00000000000E+00  0.00000000000E+00 -0.13652906082E+03  0.13072108855E+04  0.13000615812E+04 0.  0.
        3    1    3    3  502    0 -0.60438227666E+03 -0.23510532662E+03 -0.11309184063E+03  0.65828734270E+03  0.10100000352E+00 0. -1.
       -3    1    3    3    0  502  0.60438227666E+03  0.23510532662E+03 -0.23437220189E+02  0.64892354283E+03  0.10100000352E+00 0.  1.
</event>
<event>
 5   0  0.6742824E-05  0.1301375E+04  0.7818609E-02  0.9028476E-01
        2   -1    0    0  501    0  0.00000000000E+00  0.00000000000E+00  0.24010082732E+03  0.24010082733E+03  0.25500000920E-02 0.  1.
       -2   -1    0    0    0  501  0.00000000000E+00  0.00000000000E+00 -0.17634005164E+04  0.17634005164E+04  0.25500000920E-02 0. -1.
    10030    2    1    2    0    0  0.00000000000E+00  0.00000000000E+00 -0.15232996891E+04  0.20035013438E+04  0.13013745393E+04 0.  0.
        4    1    3    3  502    0 -0.99831327269E+02 -0.26357033373E+02  0.22740653156E+03  0.24975253874E+03  0.12699999809E+01 0.  1.
       -4    1    3    3    0  502  0.99831327269E+02  0.26357033373E+02 -0.17507062207E+04  0.17537488050E+04  0.12699999809E+01 0. -1.
</event>
<event>
 5   0  0.3689707E-05  0.1300045E+04  0.7818609E-02  0.9029529E-01
       -1   -1    0    0    0  501  0.00000000000E+00  0.00000000000E+00  0.10521656554E+04  0.10521656554E+04  0.50400001928E-02 0.  1.
        1   -1    0    0  501    0  0.00000000000E+00  0.00000000000E+00 -0.40158069748E+03  0.40158069751E+03  0.50400001928E-02 0. -1.
    10030    2    1    2    0    0  0.00000000000E+00  0.00000000000E+00  0.65058495793E+03  0.14537463529E+04  0.13000452574E+04 0.  0.
        1    1    3    3  502    0  0.74885672577E+02 -0.10646253838E+03  0.10374438766E+04  0.10455773205E+04  0.50400001928E-02 0.  1.
       -1    1    3    3    0  502 -0.74885672577E+02  0.10646253838E+03 -0.38685891868E+03  0.40816903242E+03  0.50400001928E-02 0. -1.
</event>
<event>
 5   0  0.3551277E-05  0.1300390E+04  0.7818609E-02  0.9029256E-01
        1   -1    0    0  501    0  0.00000000000E+00  0.00000000000E+00  0.20001135871E+04  0.20001135871E+04  0.50400001928E-02 0.  1.
       -1   -1    0    0    0  501  0.00000000000E+00  0.00000000000E+00 -0.21136477144E+03  0.21136477150E+03  0.50400001928E-02 0. -1.
    10030    2    1    2    0    0  0.00000000000E+00  0.00000000000E+00  0.17887488157E+04  0.22114783586E+04  0.13003900204E+04 0.  0.
        4    1    3    3  502    0 -0.33989986692E+03 -0.35151221174E+02  0.18350908091E+04  0.18666353202E+04  0.12699999809E+01 0.  1.
       -4    1    3    3    0  502  0.33989986692E+03  0.35151221174E+02 -0.46341993480E+02  0.34484303841E+03  0.12699999809E+01 0. -1.
</event>
<event>
 5   0  0.6742824E-05  0.1298900E+04  0.7818609E-02  0.9030438E-01
       -2   -1    0    0    0  501  0.00000000000E+00  0.00000000000E+00  0.53587305431E+03  0.53587305432E+03  0.25500000920E-02 0.  1.
        2   -1    0    0  501    0  0.00000000000E+00  0.00000000000E+00 -0.78709933267E+03  0.78709933267E+03  0.25500000920E-02 0. -1.
    10030    2    1    2    0    0  0.00000000000E+00  0.00000000000E+00 -0.25122627835E+03  0.13229723870E+04  0.12989000323E+04 0.  0.
        4    1    3    3  502    0  0.45135592526E+02 -0.53467350660E+03  0.24705122728E+03  0.59071897055E+03  0.12699999809E+01 0. -1.
       -4    1    3    3    0  502 -0.45135592526E+02  0.53467350660E+03 -0.49827750563E+03  0.73225341644E+03  0.12699999809E+01 0.  1.
</event>
<event>
 5   0  0.6742824E-05  0.1299814E+04  0.7818609E-02  0.9029712E-01
        2   -1    0    0  501    0  0.00000000000E+00  0.00000000000E+00  0.15614229980E+04  0.15614229980E+04  0.25500000920E-02 0.  1.
       -2   -1    0    0    0  501  0.00000000000E+00  0.00000000000E+00 -0.27050925910E+03  0.27050925911E+03  0.25500000920E-02 0. -1.
    10030    2    1    2    0    0  0.00000000000E+00  0.00000000000E+00  0.12909137389E+04  0.18319322571E+04  0.12998144150E+04 0.  0.
        4    1    3    3  502    0  0.31270822248E+03  0.27026284595E+02  0.14475177391E+04  0.14811570039E+04  0.12699999809E+01 0.  1.
       -4    1    3    3    0  502 -0.31270822248E+03 -0.27026284595E+02 -0.15660400018E+03  0.35077525317E+03  0.12699999809E+01 0. -1.
</event>
<event>
 5   0  0.6688086E-05  0.1297214E+04  0.7818609E-02  0.9031777E-01
        2   -1    0    0  501    0  0.00000000000E+00  0.00000000000E+00  0.16901488753E+04  0.16901488753E+04  0.25500000920E-02 0. -1.
       -2   -1    0    0    0  501  0.00000000000E+00  0.00000000000E+00 -0.24890783581E+03  0.24890783582E+03  0.25500000920E-02 0.  1.
    10030    2    1    2    0    0  0.00000000000E+00  0.00000000000E+00  0.14412410395E+04  0.19390567111E+04  0.12972143983E+04 0.  0.
        5    1    3    3  502    0 -0.20474505052E+03 -0.60338428511E+03  0.53953498941E+03  0.83493306679E+03  0.46999998093E+01 0.  1.
       -5    1    3    3    0  502  0.20474505052E+03  0.60338428511E+03  0.90170605010E+03  0.11041236444E+04  0.46999998093E+01 0. -1.
</event>
<event>
 5   0  0.6671239E-05  0.1299857E+04  0.7818609E-02  0.9029678E-01
        2   -1    0    0  501    0  0.00000000000E+00  0.00000000000E+00  0.40799617196E+03  0.40799617197E+03  0.25500000920E-02 0.  1.
       -2   -1    0    0    0  501  0.00000000000E+00  0.00000000000E+00 -0.10353213616E+04  0.10353213616E+04  0.25500000920E-02 0. -1.
    10030    2    1    2    0    0  0.00000000000E+00  0.00000000000E+00 -0.62732518963E+03  0.14433175336E+04  0.12998571495E+04 0.  0.
        1    1    3    3  502    0  0.18540266934E+03  0.50936655472E+03  0.84491146970E+02  0.54860476739E+03  0.50400001928E-02 0.  1.
       -1    1    3    3    0  502 -0.18540266934E+03 -0.50936655472E+03 -0.71181633660E+03  0.89471276617E+03  0.50400001928E-02 0. -1.
</event>
<event>
 5   0  0.3552698E-05  0.1301343E+04  0.7818609E-02  0.9028501E-01
        1   -1    0    0  501    0  0.00000000000E+00  0.00000000000E+00  0.51053870928E+03  0.51053870930E+03  0.50400001928E-02 0. -1.
       -1   -1    0    0    0  501  0.00000000000E+00  0.00000000000E+00 -0.82926753338E+03  0.82926753340E+03  0.50400001928E-02 0.  1.
    10030    2    1    2    0    0  0.00000000000E+00  0.00000000000E+00 -0.31872882410E+03  0.13398062427E+04  0.13013426546E+04 0.  0.
        5    1    3    3  502    0 -0.27609283645E+03  0.38235369341E+03  0.30213607901E+03  0.56011597142E+03  0.46999998093E+01 0. -1.
       -5    1    3    3    0  502  0.27609283645E+03 -0.38235369341E+03 -0.62086490311E+03  0.77969027128E+03  0.46999998093E+01 0.  1.
</event>
<event>
 5   0  0.6688086E-05  0.1299439E+04  0.7818609E-02  0.9030010E-01
        2   -1    0    0  501    0  0.00000000000E+00  0.00000000000E+00  0.11156072176E+04  0.11156072176E+04  0.25500000920E-02 0.  1.
       -2   -1    0    0    0  501  0.00000000000E+00  0.00000000000E+00 -0.37839099564E+03  0.37839099565E+03  0.25500000920E-02 0. -1.
    10030    2    1    2    0    0  0.00000000000E+00  0.00000000000E+00  0.73721622197E+03  0.14939982133E+04  0.12994394573E+04 0.  0.
        5    1    3    3  502    0 -0.50043392132E+03  0.26508900689E+02 -0.10679566407E+03  0.51241022168E+03  0.46999998093E+01 0. -1.
       -5    1    3    3    0  502  0.50043392132E+03 -0.26508900689E+02  0.84401188605E+03  0.98158799158E+03  0.46999998093E+01 0.  1.
</event>
<event>
 5   0  0.3718559E-05  0.1298595E+04  0.7818609E-02  0.9030680E-01
        1   -1    0    0  501    0  0.00000000000E+00  0.00000000000E+00  0.86722399866E+03  0.86722399867E+03  0.50400001928E-02 0. -1.
       -1   -1    0    0    0  501  0.00000000000E+00  0.00000000000E+00 -0.48613429433E+03  0.48613429435E+03  0.50400001928E-02 0.  1.
    10030    2    1    2    0    0  0.00000000000E+00  0.00000000000E+00  0.38108970433E+03  0.13533582930E+04  0.12985951280E+04 0.  0.
        2    1    3    3  502    0 -0.33410448212E+03  0.51330997162E+03  0.41521526864E+03  0.73994368114E+03  0.25500000920E-02 0. -1.
       -2    1    3    3    0  502  0.33410448212E+03 -0.51330997162E+03 -0.34125564312E+02  0.61341461189E+03  0.25500000920E-02 0.  1.
</event>
<event>
 5   0  0.6688086E-05  0.1300590E+04  0.7818609E-02  0.9029097E-01
       -2   -1    0    0    0  501  0.00000000000E+00  0.00000000000E+00  0.28219298761E+03  0.28219298762E+03  0.25500000920E-02 0.  1.
        2   -1    0    0  501    0  0.00000000000E+00  0.00000000000E+00 -0.14985623974E+04  0.14985623974E+04  0.25500000920E-02 0. -1.
    10030    2    1    2    0    0  0.00000000000E+00  0.00000000000E+00 -0.12163694098E+04  0.17807553850E+04  0.13005903276E+04 0.  0.
        5    1    3    3  502    0  0.10277573867E+03 -0.16036500848E+03 -0.14594883967E+04  0.14718723648E+04  0.46999998093E+01 0. -1.
       -5    1    3    3    0  502 -0.10277573867E+03  0.16036500848E+03  0.24311898685E+03  0.30888302020E+03  0.46999998093E+01 0.  1.
</event>
<event>
 5   0  0.3631841E-05  0.1299742E+04  0.7818609E-02  0.9029769E-01
        1   -1    0    0  501    0  0.00000000000E+00  0.00000000000E+00  0.16070251722E+04  0.16070251722E+04  0.50400001928E-02 0.  1.
       -1   -1    0    0    0  501  0.00000000000E+00  0.00000000000E+00 -0.26280398374E+03  0.26280398379E+03  0.50400001928E-02 0. -1.
    10030    2    1    2    0    0  0.00000000000E+00  0.00000000000E+00  0.13442211884E+04  0.18698291560E+04  0.12997424626E+04 0.  0.
        3    1    3    3  502    0  0.44527960317E+03  0.47182746718E+03  0.61756595613E+03  0.89570240825E+03  0.10100000352E+00 0.  1.
       -3    1    3    3    0  502 -0.44527960317E+03 -0.47182746718E+03  0.72665523230E+03  0.97412674772E+03  0.10100000352E+00 0. -1.
</event>
<event>
 5   0  0.3551277E-05  0.1299955E+04  0.7818609E-02  0.9029601E-01
        1   -1    0    0  501    0  0.00000000000E+00  0.00000000000E+00  0.13952954328E+04  0.13952954328E+04  0.50400001928E-02 0. -1.
       -1   -1    0    0    0  501  0.00000000000E+00  0.00000000000E+00 -0.30278207989E+03  0.30278207993E+03  0.50400001928E-02 0.  1.
    10030    2    1    2    0    0  0.00000000000E+00  0.00000000000E+00  0.10925133529E+04  0.16980775127E+04  0.12999545427E+04 0.  0.
        4    1    3    3  502    0 -0.12497311543E+03  0.29326509569E+03  0.12861647346E+04  0.13250826515E+04  0.12699999809E+01 0. -1.
       -4    1    3    3    0  502  0.12497311543E+03 -0.29326509569E+03 -0.19365138172E+03  0.37299486119E+03  0.12699999809E+01 0.  1.
</event>
<event>
 5   0  0.3631841E-05  0.1300080E+04  0.7818609E-02  0.9029502E-01
        1   -1    0    0  501    0  0.00000000000E+00  0.00000000000E+00  0.12874422928E+04  0.12874422928E+04  0.50400001928E-02 0.  1.
       -1   -1    0    0    0  501  0.00000000000E+00  0.00000000000E+00 -0.32821038992E+03  0.32821038996E+03  0.50400001928E-02 0. -1.
    10030    2    1    2    0    0  0.00000000000E+00  0.00000000000E+00  0.95923190291E+03  0.16156526828E+04  0.13000799006E+04 0.  0.
        3    1    3    3  502    0  0.18166036009E+03  0.33332682790E+03 -0.17614781047E+03  0.41849172269E+03  0.10100000352E+00 0. -1.
       -3    1    3    3    0  502 -0.18166036009E+03 -0.33332682790E+03  0.11353797134E+04  0.11971609601E+04  0.10100000352E+00 0.  1.
</event>
<event>
 5   0  0.3631841E-05  0.1299859E+04  0.7818609E-02  0.9029677E-01
        1   -1    0    0  501    0  0.00000000000E+00  0.00000000000E+00  0.13365891948E+04  0.13365891948E+04  0.50400001928E-02 0. -1.
       -1   -1    0    0    0  501  0.00000000000E+00  0.00000000000E+00 -0.31603445171E+03  0.31603445175E+03  0.50400001928E-02 0.  1.
    10030    2    1    2    0    0  0.00000000000E+00  0.00000000000E+00  0.10205547430E+04  0.16526236465E+04  0.12998588129E+04 0.  0.
        3    1    3    3  502    0 -0.17805169932E+03 -0.36325215675E+03 -0.13644971739E+03  0.42693450621E+03  0.10100000352E+00 0.  1.
       -3    1    3    3    0  502  0.17805169932E+03  0.36325215675E+03  0.11570044604E+04  0.12256891403E+04  0.10100000352E+00 0. -1.
</event>
<event>
 5   0  0.6618060E-05  0.1300386E+04  0.7818609E-02  0.9029259E-01
       -2   -1    0    0    0  501  0.00000000000E+00  0.00000000000E+00  0.45473226734E+03  0.45473226735E+03  0.25500000920E-02 0.  1.
        2   -1    0    0  501    0  0.00000000000E+00  0.00000000000E+00 -0.92967061044E+03  0.92967061045E+03  0.25500000920E-02 0. -1.
    10030    2    1    2    0    0  0.00000000000E+00  0.00000000000E+00 -0.47493834311E+03  0.13844028778E+04  0.13003864419E+04 0.  0.
        2    1    3    3  502    0 -0.27753937940E+03  0.22105699997E+03  0.34257844867E+03  0.49320816888E+03  0.25500000920E-02 0.  1.
       -2    1    3    3    0  502  0.27753937940E+03 -0.22105699997E+03 -0.81751679178E+03  0.89119470891E+03  0.25500000920E-02 0. -1.
</event>
<event>
 5   0  0.3552698E-05  0.1299538E+04  0.7818609E-02  0.9029932E-01
       -1   -1    0    0    0  501  0.00000000000E+00  0.00000000000E+00  0.27729458852E+03  0.27729458857E+03  0.50400001928E-02 0. -1.
        1   -1    0    0  501    0  0.00000000000E+00  0.00000000000E+00 -0.15225666685E+04  0.15225666685E+04  0.50400001928E-02 0.  1.
    10030    2    1    2    0    0  0.00000000000E+00  0.00000000000E+00 -0.12452720800E+04  0.17998612571E+04  0.12995376068E+04 0.  0.
        5    1    3    3  502    0 -0.50659434657E+03 -0.13593803179E+03 -0.91509395594E+02  0.53245942563E+03  0.46999998093E+01 0. -1.
       -5    1    3    3    0  502  0.50659434657E+03  0.13593803179E+03 -0.11537626844E+04  0.12674018314E+04  0.46999998093E+01 0.  1.
</event>
<event>
 5   0  0.3718559E-05  0.1298934E+04  0.7818609E-02  0.9030411E-01
       -1   -1    0    0    0  501  0.00000000000E+00  0.00000000000E+00  0.10459627703E+04  0.10459627703E+04  0.50400001928E-02 0.  1.
        1   -1    0    0  501    0  0.00000000000E+00  0.00000000000E+00 -0.40327208830E+03  0.40327208833E+03  0.50400001928E-02 0. -1.
    10030    2    1    2    0    0  0.00000000000E+00  0.00000000000E+00  0.64269068197E+03  0.14492348586E+04  0.12989343181E+04 0.  0.
        2    1    3    3  502    0  0.12276446628E+02  0.64930578536E+03  0.31278436897E+03  0.72082090391E+03  0.25500000920E-02 0.  1.
       -2    1    3    3    0  502 -0.12276446628E+02 -0.64930578536E+03  0.32990631300E+03  0.72841395470E+03  0.25500000920E-02 0. -1.
</event>
<event>
 5   0  0.3631841E-05  0.1299661E+04  0.7818609E-02  0.9029834E-01
        1   -1    0    0  501    0  0.00000000000E+00  0.00000000000E+00  0.77005867475E+03  0.77005867476E+03  0.50400001928E-02 0.  1.
       -1   -1    0    0    0  501  0.00000000000E+00  0.00000000000E+00 -0.54837300844E+03  0.54837300846E+03  0.50400001928E-02 0. -1.
    10030    2    1    2    0    0  0.00000000000E+00  0.00000000000E+00  0.22168566630E+03  0.13184316832E+04  0.12996605590E+04 0.  0.
        3    1    3    3  502    0  0.50392154349E+02  0.39527443996E+01  0.76806135458E+03  0.76972283844E+03  0.10100000352E+00 0.  1.
       -3    1    3    3    0  502 -0.50392154349E+02 -0.39527443996E+01 -0.54637568828E+03  0.54870884479E+03  0.10100000352E+00 0. -1.
</event>
<event>
 5   0  0.6671239E-05  0.1300868E+04  0.7818609E-02  0.9028877E-01
        2   -1    0    0  501    0  0.00000000000E+00  0.00000000000E+00  0.14765793029E+04  0.14765793029E+04  0.25500000920E-02 0.  1.
       -2   -1    0    0    0  501  0.00000000000E+00  0.00000000000E+00 -0.28651660659E+03  0.28651660660E+03  0.25500000920E-02 0. -1.
    10030    2    1    2    0    0  0.00000000000E+00  0.00000000000E+00  0.11900626963E+04  0.17630959095E+04  0.13008681582E+04 0.  0.
        1    1    3    3  502    0  0.32267392346E+03  0.39260730300E+03  0.44821255666E+02  0.51016458152E+03  0.50400001928E-02 0. -1.
       -1    1    3    3    0  502 -0.32267392346E+03 -0.39260730300E+03  0.11452414407E+04  0.12529313280E+04  0.50400001928E-02 0.  1.
</event>
<event>
 5   0  0.6618060E-05  0.1299662E+04  0.7818609E-02  0.9029833E-01
       -2   -1    0    0    0  501  0.00000000000E+00  0.00000000000E+00  0.53629237491E+03  0.53629237492E+03  0.25500000920E-02 0.  1.
        2   -1    0    0  501    0  0.00000000000E+00  0.00000000000E+00 -0.78740673472E+03  0.78740673472E+03  0.25500000920E-02 0. -1.
    10030    2    1    2    0    0  0.00000000000E+00  0.00000000000E+00 -0.25111435981E+03  0.13236991096E+04  0.12996618449E+04 0.  0.
        2    1    3    3  502    0  0.35786576263E+03 -0.45266079507E+03 -0.42993306171E+03  0.71959164602E+03  0.25500000920E-02 0. -1.
       -2    1    3    3    0  502 -0.35786576263E+03  0.45266079507E+03  0.17881870191E+03  0.60410746363E+03  0.25500000920E-02 0.  1.
</event>
<event>
 5   0  0.3631841E-05  0.1301316E+04  0.7818609E-02  0.9028522E-01
       -1   -1    0    0    0  501  0.00000000000E+00  0.00000000000E+00  0.13042090951E+04  0.13042090951E+04  0.50400001928E-02 0. -1.
        1   -1    0    0  501    0  0.00000000000E+00  0.00000000000E+00 -0.32460740472E+03  0.32460740476E+03  0.50400001928E-02 0.  1.
    10030    2    1    2    0    0  0.00000000000E+00  0.00000000000E+00  0.97960169039E+03  0.16288164999E+04  0.13013161485E+04 0.  0.
        3    1    3    3  502    0 -0.10244601347E+03 -0.53440504245E+03  0.93633609556E+03  0.10829631707E+04  0.10100000352E+00 0. -1.
       -3    1    3    3    0  502  0.10244601347E+03  0.53440504245E+03  0.43265594838E+02  0.54585332917E+03  0.10100000352E+00 0.  1.
</event>
<event>
 5   0  0.6671239E-05  0.1299605E+04  0.7818609E-02  0.9029879E-01
       -2   -1    0    0    0  501  0.00000000000E+00  0.00000000000E+00  0.19010729681E+04  0.19010729681E+04  0.25500000920E-02 0. -1.
        2   -1    0    0  501    0  0.00000000000E+00  0.00000000000E+00 -0.22210782612E+03  0.22210782613E+03  0.25500000920E-02 0.  1.
    10030    2    1    2    0    0  0.00000000000E+00  0.00000000000E+00  0.16789651420E+04  0.21231807943E+04  0.12996048388E+04 0.  0.
        1    1    3    3  502    0 -0.29338275006E+03  0.42012722603E+03  0.14922787591E+04  0.15778074087E+04  0.50400001928E-02 0. -1.
       -1    1    3    3    0  502  0.29338275006E+03 -0.42012722603E+03  0.18668638290E+03  0.54537338555E+03  0.50400001928E-02 0.  1.
</event>
<event>
 5   0  0.3689707E-05  0.1301519E+04  0.7818609E-02  0.9028361E-01
        1   -1    0    0  501    0  0.00000000000E+00  0.00000000000E+00  0.13819308959E+04  0.13819308959E+04  0.50400001928E-02 0.  1.
       -1   -1    0    0    0  501  0.00000000000E+00  0.00000000000E+00 -0.30644652798E+03  0.30644652802E+03  0.50400001928E-02 0. -1.
    10030    2    1    2    0    0  0.00000000000E+00  0.00000000000E+00  0.10754843679E+04  0.16883774239E+04  0.13015189972E+04 0.  0.
        1    1    3    3  502    0  0.42128374812E+03 -0.38251004926E+03  0.12814825067E+03  0.58328030001E+03  0.50400001928E-02 0. -1.
       -1    1    3    3    0  502 -0.42128374812E+03  0.38251004926E+03  0.94733611727E+03  0.11050971239E+04  0.50400001928E-02 0.  1.
</event>
<event>
 5   0  0.3631841E-05  0.1299968E+04  0.7818609E-02  0.9029591E-01
       -1   -1    0    0    0  501  0.00000000000E+00  0.00000000000E+00  0.30046510914E+03  0.30046510919E+03  0.50400001928E-02 0.  1.
        1   -1    0    0  501    0  0.00000000000E+00  0.00000000000E+00 -0.14060832754E+04  0.14060832754E+04  0.50400001928E-02 0. -1.
    10030    2    1    2    0    0  0.00000000000E+00  0.00000000000E+00 -0.11056181662E+04  0.17065483845E+04  0.12999676378E+04 0.  0.
        3    1    3    3  502    0  0.49041341998E+03  0.29637485971E+03 -0.15003366766E+03  0.59232887115E+03  0.10100000352E+00 0.  1.
       -3    1    3    3    0  502 -0.49041341998E+03 -0.29637485971E+03 -0.95558449854E+03  0.11142195134E+04  0.10100000352E+00 0. -1.
</event>
<event>
 5   0  0.6742824E-05  0.1299447E+04  0.7818609E-02  0.9030003E-01
        2   -1    0    0  501    0  0.00000000000E+00  0.00000000000E+00  0.15182404975E+04  0.15182404975E+04  0.25500000920E-02 0.  1.
       -2   -1    0    0    0  501  0.00000000000E+00  0.00000000000E+00 -0.27804613265E+03  0.27804613267E+03  0.25500000920E-02 0. -1.
    10030    2    1    2    0    0  0.00000000000E+00  0.00000000000E+00  0.12401943649E+04  0.17962866302E+04  0.12994474192E+04 0.  0.
        4    1    3    3  502    0 -0.55272734965E+03  0.34114821256E+03  0.64193912853E+03  0.91322345766E+03  0.12699999809E+01 0.  1.
       -4    1    3    3    0  502  0.55272734965E+03 -0.34114821256E+03  0.59825523636E+03  0.88306317255E+03  0.12699999809E+01 0. -1.
</event>
<event>
 5   0  0.2512000E-05  0.1299945E+04  0.7818609E-02  0.9029609E-01
        4   -1    0    0  501    0  0.00000000000E+00  0.00000000000E+00  0.21327335984E+04  0.21327339765E+04  0.12699999809E+01 0. -1.
       -4   -1    0    0    0  501  0.00000000000E+00  0.00000000000E+00 -0.19808326681E+03  0.19808733803E+03  0.12699999809E+01 0.  1.
    10030    2    1    2    0    0  0.00000000000E+00  0.00000000000E+00  0.19346503316E+04  0.23308213146E+04  0.12999446507E+04 0.  0.
        2    1    3    3  502    0 -0.34610098234E+03  0.52585580018E+03  0.67735613869E+03  0.92472782547E+03  0.25500000920E-02 0. -1.
       -2    1    3    3    0  502  0.34610098234E+03 -0.52585580018E+03  0.12572941929E+04  0.14060934891E+04  0.25500000920E-02 0.  1.
</event>
<event>
 5   0  0.2512000E-05  0.1299324E+04  0.7818609E-02  0.9030101E-01
        3   -1    0    0  501    0  0.00000000000E+00  0.00000000000E+00  0.47479461878E+03  0.47479462952E+03  0.10100000352E+00 0. -1.
       -3   -1    0    0    0  501  0.00000000000E+00  0.00000000000E+00 -0.88893309967E+03  0.88893310541E+03  0.10100000352E+00 0.  1.
    10030    2    1    2    0    0  0.00000000000E+00  0.00000000000E+00 -0.41413848089E+03  0.13637277349E+04  0.12993239218E+04 0.  0.
        4    1    3    3  502    0  0.25912258943E+03 -0.54170175280E+03 -0.46729787028E+03  0.76089041117E+03  0.12699999809E+01 0.  1.
       -4    1    3    3    0  502 -0.25912258943E+03  0.54170175280E+03  0.53159389393E+02  0.60283732376E+03  0.12699999809E+01 0. -1.
</event>
<event>
 5   0  0.6671239E-05  0.1299822E+04  0.7818609E-02  0.9029706E-01
       -2   -1    0    0    0  501  0.00000000000E+00  0.00000000000E+00  0.55688272084E+03  0.55688272085E+03  0.25500000920E-02 0. -1.
        2   -1    0    0  501    0  0.00000000000E+00  0.00000000000E+00 -0.75847960834E+03  0.75847960835E+03  0.25500000920E-02 0.  1.
    10030    2    1    2    0    0  0.00000000000E+00  0.00000000000E+00 -0.20159688750E+03  0.13153623292E+04  0.12998218155E+04 0.  0.
        1    1    3    3  502    0 -0.51013658977E+03 -0.34125731139E+03 -0.31710219674E+03  0.69083261070E+03  0.50400001928E-02 0.  1.
       -1    1    3    3    0  502  0.51013658977E+03  0.34125731139E+03  0.11550530924E+03  0.62452971850E+03  0.50400001928E-02 0. -1.
</event>
<event>
 5   0  0.6688086E-05  0.1300538E+04  0.7818609E-02  0.9029138E-01
       -2   -1    0    0    0  501  0.00000000000E+00  0.00000000000E+00  0.17606934906E+03  0.17606934908E+03  0.25500000920E-02 0.  1.
        2   -1    0    0  501    0  0.00000000000E+00  0.00000000000E+00 -0.24016102644E+04  0.24016102644E+04  0.25500000920E-02 0. -1.
    10030    2    1    2    0    0  0.00000000000E+00  0.00000000000E+00 -0.22255409153E+04  0.25776796135E+04  0.13005382823E+04 0.  0.
        5    1    3    3  502    0 -0.10248676786E+03  0.36641992300E+03 -0.21579133118E+04  0.21912049308E+04  0.46999998093E+01 0. -1.
       -5    1    3    3    0  502  0.10248676786E+03 -0.36641992300E+03 -0.67627603507E+02  0.38647468263E+03  0.46999998093E+01 0.  1.
</event>
<event>
 5   0  0.6742824E-05  0.1300323E+04  0.7818609E-02  0.9029309E-01
        2   -1    0    0  501    0  0.00000000000E+00  0.00000000000E+00  0.93453816985E+03  0.93453816985E+03  0.25500000920E-02 0. -1.
       -2   -1    0    0    0  501  0.00000000000E+00  0.00000000000E+00 -0.45231981426E+03  0.45231981426E+03  0.25500000920E-02 0.  1.
    10030    2    1    2    0    0  0.00000000000E+00  0.00000000000E+00  0.48221835560E+03  0.13868579841E+04  0.13003232389E+04 0.  0.
        4    1    3    3  502    0  0.23287205027E+03 -0.12148161005E+03 -0.39321505206E+03  0.47287087397E+03  0.12699999809E+01 0.  1.
       -4    1    3    3    0  502 -0.23287205027E+03  0.12148161005E+03  0.87543340766E+03  0.91398711015E+03  0.12699999809E+01 0. -1.
</event>
<event>
 5   0  0.3631841E-05  0.1299720E+04  0.7818609E-02  0.9029788E-01
        1   -1    0    0  501    0  0.00000000000E+00  0.00000000000E+00  0.64614563535E+03  0.64614563537E+03  0.50400001928E-02 0.  1.
       -1   -1    0    0    0  501  0.00000000000E+00  0.00000000000E+00 -0.65359522557E+03  0.65359522559E+03  0.50400001928E-02 0. -1.
    10030    2    1    2    0    0  0.00000000000E+00  0.00000000000E+00 -0.74495902233E+01  0.12997408610E+04  0.12997195118E+04 0.  0.
        3    1    3    3  502    0 -0.50296660235E+03  0.14356492931E+03 -0.38938823164E+03  0.65208089770E+03  0.10100000352E+00 0. -1.
       -3    1    3    3    0  502  0.50296660235E+03 -0.14356492931E+03  0.38193864142E+03  0.64765996326E+03  0.10100000352E+00 0.  1.
</event>
<event>
 5   0  0.3631841E-05  0.1303568E+04  0.7818609E-02  0.9026740E-01
       -1   -1    0    0    0  501  0.00000000000E+00  0.00000000000E+00  0.14916848583E+04  0.14916848583E+04  0.50400001928E-02 0.  1.
        1   -1    0    0  501    0  0.00000000000E+00  0.00000000000E+00 -0.28479379354E+03  0.28479379358E+03  0.50400001928E-02 0. -1.
    10030    2    1    2    0    0  0.00000000000E+00  0.00000000000E+00  0.12068910647E+04  0.17764786518E+04  0.13035683175E+04 0.  0.
        3    1    3    3  502    0 -0.27482532348E+03  0.58350711878E+03  0.73138061114E+03  0.97515492341E+03  0.10100000352E+00 0.  1.
       -3    1    3    3    0  502  0.27482532348E+03 -0.58350711878E+03  0.47551045358E+03  0.80132372844E+03  0.10100000352E+00 0. -1.
</event>
<event>
 5   0  0.6458698E-05  0.1300195E+04  0.7818609E-02  0.9029411E-01
       -2   -1    0    0    0  501  0.00000000000E+00  0.00000000000E+00  0.54958956616E+03  0.54958956616E+03  0.25500000920E-02 0. -1.
        2   -1    0    0  501    0  0.00000000000E+00  0.00000000000E+00 -0.76898592562E+03  0.76898592562E+03  0.25500000920E-02 0.  1.
    10030    2    1    2    0    0  0.00000000000E+00  0.00000000000E+00 -0.21939635946E+03  0.13185754918E+04  0.13001948181E+04 0.  0.
        3    1    3    3  502    0  0.45467020760E+03 -0.42738027695E+03 -0.29461549635E+03  0.69005593954E+03  0.10100000352E+00 0.  1.
       -3    1    3    3    0  502 -0.45467020760E+03  0.42738027695E+03  0.75219136889E+02  0.62851955225E+03  0.10100000352E+00 0. -1.
</event>
<event>
 5   0  0.6742824E-05  0.1299709E+04  0.7818609E-02  0.9029796E-01
        2   -1    0    0  501    0  0.00000000000E+00  0.00000000000E+00  0.70871092236E+03  0.70871092236E+03  0.25500000920E-02 0. -1.
       -2   -1    0    0    0  501  0.00000000000E+00  0.00000000000E+00 -0.59588580916E+03  0.59588580917E+03  0.25500000920E-02 0.  1.
    10030    2    1    2    0    0  0.00000000000E+00  0.00000000000E+00  0.11282511319E+03  0.13045967315E+04  0.12997088619E+04 0.  0.
        4    1    3    3  502    0  0.36915633323E+03 -0.21996246362E+03 -0.43291363435E+03  0.60998009105E+03  0.12699999809E+01 0.  1.
       -4    1    3    3    0  502 -0.36915633323E+03  0.21996246362E+03  0.54573874755E+03  0.69461664049E+03  0.12699999809E+01 0. -1.
</event>
<event>
 5   0  0.3718559E-05  0.1300491E+04  0.7818609E-02  0.9029176E-01
        1   -1    0    0  501    0  0.00000000000E+00  0.00000000000E+00  0.31009836900E+03  0.31009836904E+03  0.50400001928E-02 0.  1.
       -1   -1    0    0    0  501  0.00000000000E+00  0.00000000000E+00 -0.13634994095E+04  0.13634994095E+04  0.50400001928E-02 0. -1.
    10030    2    1    2    0    0  0.00000000000E+00  0.00000000000E+00 -0.10534010405E+04  0.16735977786E+04  0.13004905891E+04 0.  0.
        2    1    3    3  502    0  0.36793137557E+03  0.23804695880E+03  0.91518135475E+02  0.44767780920E+03  0.25500000920E-02 0.  1.
       -2    1    3    3    0  502 -0.36793137557E+03 -0.23804695880E+03 -0.11449191760E+04  0.12259199693E+04  0.25500000920E-02 0. -1.
</event>
<event>
 5   0  0.3689707E-05  0.1299879E+04  0.7818609E-02  0.9029661E-01
        1   -1    0    0  501    0  0.00000000000E+00  0.00000000000E+00  0.74606352085E+03  0.74606352087E+03  0.50400001928E-02 0.  1.
       -1   -1    0    0    0  501  0.00000000000E+00  0.00000000000E+00 -0.56620060111E+03  0.56620060113E+03  0.50400001928E-02 0. -1.
    10030    2    1    2    0    0  0.00000000000E+00  0.00000000000E+00  0.17986291975E+03  0.13122641220E+04  0.12998794006E+04 0.  0.
        1    1    3    3  502    0 -0.62672397183E+03  0.12771980457E+03 -0.26608121308E+02  0.64015879084E+03  0.50400001928E-02 0.  1.
       -1    1    3    3    0  502  0.62672397183E+03 -0.12771980457E+03  0.20647104105E+03  0.67210533115E+03  0.50400001928E-02 0. -1.
</event>
<event>
 5   0  0.3718559E-05  0.1299800E+04  0.7818609E-02  0.9029724E-01
        1   -1    0    0  501    0  0.00000000000E+00  0.00000000000E+00  0.14376792333E+04  0.14376792333E+04  0.50400001928E-02 0.  1.
       -1   -1    0    0    0  501  0.00000000000E+00  0.00000000000E+00 -0.29378585256E+03  0.29378585260E+03  0.50400001928E-02 0. -1.
    10030    2    1    2    0    0  0.00000000000E+00  0.00000000000E+00  0.11438933807E+04  0.17314650859E+04  0.12997997066E+04 0.  0.
        2    1    3    3  502    0 -0.45402317686E+03 -0.13632508305E+03 -0.20274286408E+02  0.47448142228E+03  0.25500000920E-02 0. -1.
       -2    1    3    3    0  502  0.45402317686E+03  0.13632508305E+03  0.11641676671E+04  0.12569836636E+04  0.25500000920E-02 0.  1.
</event>
<event>
 5   0  0.2512000E-05  0.1298056E+04  0.7818609E-02  0.9031108E-01
       -3   -1    0    0    0  501  0.00000000000E+00  0.00000000000E+00  0.64700701266E+03  0.64700702054E+03  0.10100000352E+00 0. -1.
        3   -1    0    0  501    0  0.00000000000E+00  0.00000000000E+00 -0.65105539858E+03  0.65105540641E+03  0.10100000352E+00 0.  1.
    10030    2    1    2    0    0  0.00000000000E+00  0.00000000000E+00 -0.40483859179E+01  0.12980624270E+04  0.12980561139E+04 0.  0.
        3    1    3    3  502    0 -0.35474942650E+02 -0.36585052209E+03 -0.53694018229E+03  0.65069950486E+03  0.10100000352E+00 0.  1.
       -3    1    3    3    0  502  0.35474942650E+02  0.36585052209E+03  0.53289179637E+03  0.64736292210E+03  0.10100000352E+00 0. -1.
</event>
<event>
 5   0  0.6742824E-05  0.1300073E+04  0.7818609E-02  0.9029508E-01
        2   -1    0    0  501    0  0.00000000000E+00  0.00000000000E+00  0.11006667055E+04  0.11006667055E+04  0.25500000920E-02 0.  1.
       -2   -1    0    0    0  501  0.00000000000E+00  0.00000000000E+00 -0.38390111656E+03  0.38390111656E+03  0.25500000920E-02 0. -1.
    10030    2    1    2    0    0  0.00000000000E+00  0.00000000000E+00  0.71676558889E+03  0.14845678220E+04  0.13000725783E+04 0.  0.
        4    1    3    3  502    0  0.47814140175E+03 -0.32115359024E+03  0.14315299530E+02  0.57616435961E+03  0.12699999809E+01 0. -1.
       -4    1    3    3    0  502 -0.47814140175E+03  0.32115359024E+03  0.70245028936E+03  0.90840346241E+03  0.12699999809E+01 0.  1.
</event>
<event>
 5   0  0.6742824E-05  0.1299271E+04  0.7818609E-02  0.9030143E-01
       -2   -1    0    0    0  501  0.00000000000E+00  0.00000000000E+00  0.31377350324E+03  0.31377350326E+03  0.25500000920E-02 0. -1.
        2   -1    0    0  501    0  0.00000000000E+00  0.00000000000E+00 -0.13450035340E+04  0.13450035340E+04  0.25500000920E-02 0.  1.
    10030    2    1    2    0    0  0.00000000000E+00  0.00000000000E+00 -0.10312300308E+04  0.16587770373E+04  0.12992712892E+04 0.  0.
        4    1    3    3  502    0  0.20459997833E+03  0.59330487323E+03 -0.72983045844E+03  0.96256217186E+03  0.12699999809E+01 0. -1.
       -4    1    3    3    0  502 -0.20459997833E+03 -0.59330487323E+03 -0.30139957235E+03  0.69621486543E+03  0.12699999809E+01 0.  1.
</event>
<event>
 5   0  0.6688086E-05  0.1300781E+04  0.7818609E-02  0.9028946E-01
       -2   -1    0    0    0  501  0.00000000000E+00  0.00000000000E+00  0.64861189505E+03  0.64861189505E+03  0.25500000920E-02 0. -1.
        2   -1    0    0  501    0  0.00000000000E+00  0.00000000000E+00 -0.65217429313E+03  0.65217429313E+03  0.25500000920E-02 0.  1.
    10030    2    1    2    0    0  0.00000000000E+00  0.00000000000E+00 -0.35623980780E+01  0.13007861882E+04  0.13007813101E+04 0.  0.
        5    1    3    3  502    0 -0.15494760503E+03 -0.24995078177E+02  0.62937281361E+03  0.64866458416E+03  0.46999998093E+01 0. -1.
       -5    1    3    3    0  502  0.15494760503E+03  0.24995078177E+02 -0.63293521169E+03  0.65212160402E+03  0.46999998093E+01 0.  1.
</event>
<event>
 5   0  0.3631841E-05  0.1300793E+04  0.7818609E-02  0.9028937E-01
        1   -1    0    0  501    0  0.00000000000E+00  0.00000000000E+00  0.15375345807E+04  0.15375345807E+04  0.50400001928E-02 0. -1.
       -1   -1    0    0    0  501  0.00000000000E+00  0.00000000000E+00 -0.27512592859E+03  0.27512592864E+03  0.50400001928E-02 0.  1.
    10030    2    1    2    0    0  0.00000000000E+00  0.00000000000E+00  0.12624086521E+04  0.18126605094E+04  0.13007930340E+04 0.  0.
        3    1    3    3  502    0 -0.24367084210E+03  0.12882969662E+02 -0.20892287629E+03  0.32123235926E+03  0.10100000352E+00 0.  1.
       -3    1    3    3    0  502  0.24367084210E+03 -0.12882969662E+02  0.14713315284E+04  0.14914281501E+04  0.10100000352E+00 0. -1.
</event>
<event>
 5   0  0.3718559E-05  0.1296910E+04  0.7818609E-02  0.9032019E-01
       -1   -1    0    0    0  501  0.00000000000E+00  0.00000000000E+00  0.57448156889E+03  0.57448156892E+03  0.50400001928E-02 0.  1.
        1   -1    0    0  501    0  0.00000000000E+00  0.00000000000E+00 -0.73195340187E+03  0.73195340189E+03  0.50400001928E-02 0. -1.
    10030    2    1    2    0    0  0.00000000000E+00  0.00000000000E+00 -0.15747183297E+03  0.13064349708E+04  0.12969097712E+04 0.  0.
        2    1    3    3  502    0  0.28915448921E+01  0.46205528194E+02  0.57281467440E+03  0.57468248893E+03  0.25500000920E-02 0.  1.
       -2    1    3    3    0  502 -0.28915448921E+01 -0.46205528194E+02 -0.73028650737E+03  0.73175248187E+03  0.25500000920E-02 0. -1.
</event>
<event>
 5   0  0.6671239E-05  0.1300314E+04  0.7818609E-02  0.9029317E-01
       -2   -1    0    0    0  501  0.00000000000E+00  0.00000000000E+00  0.60868325884E+03  0.60868325885E+03  0.25500000920E-02 0. -1.
        2   -1    0    0  501    0  0.00000000000E+00  0.00000000000E+00 -0.69445621243E+03  0.69445621244E+03  0.25500000920E-02 0.  1.
    10030    2    1    2    0    0  0.00000000000E+00  0.00000000000E+00 -0.85772953587E+02  0.13031394713E+04  0.13003136091E+04 0.  0.
        1    1    3    3  502    0  0.35814094730E+03 -0.34924417055E+03 -0.45908099165E+03  0.67896375876E+03  0.50400001928E-02 0.  1.
       -1    1    3    3    0  502 -0.35814094730E+03  0.34924417055E+03  0.37330803806E+03  0.62417571252E+03  0.50400001928E-02 0. -1.
</event>
<event>
 5   0  0.3551277E-05  0.1298891E+04  0.7818609E-02  0.9030445E-01
        1   -1    0    0  501    0  0.00000000000E+00  0.00000000000E+00  0.83424617464E+03  0.83424617466E+03  0.50400001928E-02 0.  1.
       -1   -1    0    0    0  501  0.00000000000E+00  0.00000000000E+00 -0.50558180120E+03  0.50558180122E+03  0.50400001928E-02 0. -1.
    10030    2    1    2    0    0  0.00000000000E+00  0.00000000000E+00  0.32866437344E+03  0.13398279759E+04  0.12988913483E+04 0.  0.
        4    1    3    3  502    0  0.21368511158E+03 -0.46761038841E+03  0.57364710558E+03  0.77032033396E+03  0.12699999809E+01 0.  1.
       -4    1    3    3    0  502 -0.21368511158E+03  0.46761038841E+03 -0.24498273214E+03  0.56950764192E+03  0.12699999809E+01 0. -1.
</event>
<event>
 5   0  0.6671239E-05  0.1300110E+04  0.7818609E-02  0.9029478E-01
       -2   -1    0    0    0  501  0.00000000000E+00  0.00000000000E+00  0.19379545547E+03  0.19379545549E+03  0.25500000920E-02 0. -1.
        2   -1    0    0  501    0  0.00000000000E+00  0.00000000000E+00 -0.21805019010E+04  0.21805019010E+04  0.25500000920E-02 0.  1.
    10030    2    1    2    0    0  0.00000000000E+00  0.00000000000E+00 -0.19867064456E+04  0.23742973565E+04  0.13001097786E+04 0.  0.
        1    1    3    3  502    0 -0.26721667467E+03  0.51474286172E+03 -0.45715567426E+03  0.73848241377E+03  0.50400001928E-02 0.  1.
       -1    1    3    3    0  502  0.26721667467E+03 -0.51474286172E+03 -0.15295507713E+04  0.16358149428E+04  0.50400001928E-02 0. -1.
</event>
<event>
 5   0  0.2512000E-05  0.1300548E+04  0.7818609E-02  0.9029131E-01
        3   -1    0    0  501    0  0.00000000000E+00  0.00000000000E+00  0.12468387942E+04  0.12468387983E+04  0.10100000352E+00 0.  1.
       -3   -1    0    0    0  501  0.00000000000E+00  0.00000000000E+00 -0.33914257531E+03  0.33914259035E+03  0.10100000352E+00 0. -1.
    10030    2    1    2    0    0  0.00000000000E+00  0.00000000000E+00  0.90769621890E+03  0.15859813887E+04  0.13005477843E+04 0.  0.
        4    1    3    3  502    0  0.52826355244E+02  0.46739460233E+03  0.10013980014E+04  0.11063669862E+04  0.12699999809E+01 0.  1.
       -4    1    3    3    0  502 -0.52826355244E+02 -0.46739460233E+03 -0.93701782491E+02  0.47961440245E+03  0.12699999809E+01 0. -1.
</event>
<event>
 5   0  0.6618060E-05  0.1301137E+04  0.7818609E-02  0.9028664E-01
       -2   -1    0    0    0  501  0.00000000000E+00  0.00000000000E+00  0.53341329508E+03  0.53341329509E+03  0.25500000920E-02 0. -1.
        2   -1    0    0  501    0  0.00000000000E+00  0.00000000000E+00 -0.79345485277E+03  0.79345485277E+03  0.25500000920E-02 0.  1.
    10030    2    1    2    0    0  0.00000000000E+00  0.00000000000E+00 -0.26004155768E+03  0.13268681479E+04  0.13011369913E+04 0.  0.
        2    1    3    3  502    0  0.36050115256E+03  0.15628561902E+03  0.39874368755E+03  0.55980604147E+03  0.25500000920E-02 0. -1.
       -2    1    3    3    0  502 -0.36050115256E+03 -0.15628561902E+03 -0.65878524523E+03  0.76706210638E+03  0.25500000920E-02 0.  1.
</event>
<event>
 5   0  0.3551277E-05  0.1299993E+04  0.7818609E-02  0.9029571E-01
        1   -1    0    0  501    0  0.00000000000E+00  0.00000000000E+00  0.28486270211E+03  0.28486270216E+03  0.50400001928E-02 0.  1.
       -1   -1    0    0    0  501  0.00000000000E+00  0.00000000000E+00 -0.14831545857E+04  0.14831545857E+04  0.50400001928E-02 0. -1.
    10030    2    1    2    0    0  0.00000000000E+00  0.00000000000E+00 -0.11982918836E+04  0.17680172878E+04  0.12999929584E+04 0.  0.
        4    1    3    3  502    0 -0.29990582079E+03  0.13175080951E+03 -0.13626882791E+04  0.14015073086E+04  0.12699999809E+01 0. -1.
       -4    1    3    3    0  502  0.29990582079E+03 -0.13175080951E+03  0.16439639551E+03  0.36650997927E+03  0.12699999809E+01 0.  1.
</event>
<event>
 5   0  0.6742824E-05  0.1300158E+04  0.7818609E-02  0.9029440E-01
        2   -1    0    0  501    0  0.00000000000E+00  0.00000000000E+00  0.27171216357E+04  0.27171216357E+04  0.25500000920E-02 0.  1.
       -2   -1    0    0    0  501  0.00000000000E+00  0.00000000000E+00 -0.15553313032E+03  0.15553313034E+03  0.25500000920E-02 0. -1.
    10030    2    1    2    0    0  0.00000000000E+00  0.00000000000E+00  0.25615885053E+04  0.28726547660E+04  0.13001575804E+04 0.  0.
        4    1    3    3  502    0  0.47369137219E+02  0.15112809963E+03  0.26738402319E+04  0.26785269713E+04  0.12699999809E+01 0.  1.
       -4    1    3    3    0  502 -0.47369137219E+02 -0.15112809963E+03 -0.11225172653E+03  0.19412779468E+03  0.12699999809E+01 0. -1.
</event>
<event>
 5   0  0.3631841E-05  0.1298296E+04  0.7818609E-02  0.9030918E-01
        1   -1    0    0  501    0  0.00000000000E+00  0.00000000000E+00  0.79929767224E+03  0.79929767225E+03  0.50400001928E-02 0.  1.
       -1   -1    0    0    0  501  0.00000000000E+00  0.00000000000E+00 -0.52720396321E+03  0.52720396323E+03  0.50400001928E-02 0. -1.
    10030    2    1    2    0    0  0.00000000000E+00  0.00000000000E+00  0.27209370903E+03  0.13265016355E+04  0.12982956529E+04 0.  0.
        3    1    3    3  502    0  0.40361956873E+03  0.31394036874E+03  0.54464195318E+03  0.74706236604E+03  0.10100000352E+00 0. -1.
       -3    1    3    3    0  502 -0.40361956873E+03 -0.31394036874E+03 -0.27254824415E+03  0.57943926945E+03  0.10100000352E+00 0.  1.
</event>
<event>
 5   0  0.6688086E-05  0.1301334E+04  0.7818609E-02  0.9028508E-01
        2   -1    0    0  501    0  0.00000000000E+00  0.00000000000E+00  0.14470795705E+04  0.14470795705E+04  0.25500000920E-02 0. -1.
       -2   -1    0    0    0  501  0.00000000000E+00  0.00000000000E+00 -0.29256703058E+03  0.29256703059E+03  0.25500000920E-02 0.  1.
    10030    2    1    2    0    0  0.00000000000E+00  0.00000000000E+00  0.11545125399E+04  0.17396466011E+04  0.13013343505E+04 0.  0.
        5    1    3    3  502    0  0.32418853032E+03 -0.27705707573E+03 -0.79673417041E+02  0.43385339665E+03  0.46999998093E+01 0.  1.
       -5    1    3    3    0  502 -0.32418853032E+03  0.27705707573E+03  0.12341859570E+04  0.13057932045E+04  0.46999998093E+01 0. -1.
</event>
<event>
 5   0  0.6688086E-05  0.1299741E+04  0.7818609E-02  0.9029770E-01
       -2   -1    0    0    0  501  0.00000000000E+00  0.00000000000E+00  0.65351711407E+03  0.65351711407E+03  0.25500000920E-02 0.  1.
        2   -1    0    0  501    0  0.00000000000E+00  0.00000000000E+00 -0.64624457781E+03  0.64624457782E+03  0.25500000920E-02 0. -1.
    10030    2    1    2    0    0  0.00000000000E+00  0.00000000000E+00  0.72725362535E+01  0.12997616919E+04  0.12997413458E+04 0.  0.
        5    1    3    3  502    0  0.15824276445E+03 -0.60829835901E+03 -0.16141823290E+03  0.64895731908E+03  0.46999998093E+01 0. -1.
       -5    1    3    3    0  502 -0.15824276445E+03  0.60829835901E+03  0.16869076916E+03  0.65080437281E+03  0.46999998093E+01 0.  1.
</event>
<event>
 5   0  0.6671239E-05  0.1300466E+04  0.7818609E-02  0.9029196E-01
       -2   -1    0    0    0  501  0.00000000000E+00  0.00000000000E+00  0.31412333454E+03  0.31412333455E+03  0.25500000920E-02 0. -1.
        2   -1    0    0  501    0  0.00000000000E+00  0.00000000000E+00 -0.13459776616E+04  0.13459776616E+04  0.25500000920E-02 0.  1.
    10030    2    1    2    0    0  0.00000000000E+00  0.00000000000E+00 -0.10318543271E+04  0.16601009962E+04  0.13004660569E+04 0.  0.
        1    1    3    3  502    0 -0.93516681263E+02 -0.64098791952E+03 -0.44380407436E+03  0.78522158598E+03  0.50400001928E-02 0. -1.
       -1    1    3    3    0  502  0.93516681263E+02  0.64098791952E+03 -0.58805025272E+03  0.87487941020E+03  0.50400001928E-02 0.  1.
</event>
<event>
 5   0  0.3718559E-05  0.1299749E+04  0.7818609E-02  0.9029764E-01
        1   -1    0    0  501    0  0.00000000000E+00  0.00000000000E+00  0.50377355305E+03  0.50377355307E+03  0.50400001928E-02 0. -1.
       -1   -1    0    0    0  501  0.00000000000E+00  0.00000000000E+00 -0.83834653554E+03  0.83834653555E+03  0.50400001928E-02 0.  1.
    10030    2    1    2    0    0  0.00000000000E+00  0.00000000000E+00 -0.33457298249E+03  0.13421200886E+04  0.12997489187E+04 0.  0.
        2    1    3    3  502    0 -0.64809952303E+03 -0.46106635465E+02 -0.15350992142E+03  0.66762572566E+03  0.25500000920E-02 0.  1.
       -2    1    3    3    0  502  0.64809952303E+03  0.46106635465E+02 -0.18106306107E+03  0.67449436296E+03  0.25500000920E-02 0. -1.
</event>
<event>
 5   0  0.3631841E-05  0.1299773E+04  0.7818609E-02  0.9029745E-01
       -1   -1    0    0    0  501  0.00000000000E+00  0.00000000000E+00  0.33343194879E+03  0.33343194882E+03  0.50400001928E-02 0. -1.
        1   -1    0    0  501    0  0.00000000000E+00  0.00000000000E+00 -0.12666825379E+04  0.12666825379E+04  0.50400001928E-02 0.  1.
    10030    2    1    2    0    0  0.00000000000E+00  0.00000000000E+00 -0.93325058911E+03  0.16001144867E+04  0.12997729450E+04 0.  0.
        3    1    3    3  502    0 -0.90571363566E+02 -0.51665550580E+03  0.57221419636E+01  0.52456537884E+03  0.10100000352E+00 0. -1.
       -3    1    3    3    0  502  0.90571363566E+02  0.51665550580E+03 -0.93897273107E+03  0.10755491079E+04  0.10100000352E+00 0.  1.
</event>
<event>
 5   0  0.3689707E-05  0.1299354E+04  0.7818609E-02  0.9030078E-01
       -1   -1    0    0    0  501  0.00000000000E+00  0.00000000000E+00  0.62199007958E+03  0.62199007960E+03  0.50400001928E-02 0.  1.
        1   -1    0    0  501    0  0.00000000000E+00  0.00000000000E+00 -0.67859644654E+03  0.67859644656E+03  0.50400001928E-02 0. -1.
    10030    2    1    2    0    0  0.00000000000E+00  0.00000000000E+00 -0.56606366964E+02  0.13005865262E+04  0.12993540823E+04 0.  0.
        1    1    3    3  502    0  0.48096061747E+03  0.41533231492E+03 -0.16354688591E+03  0.65617957244E+03  0.50400001928E-02 0.  1.
       -1    1    3    3    0  502 -0.48096061747E+03 -0.41533231492E+03  0.10694051895E+03  0.64440695371E+03  0.50400001928E-02 0. -1.
</event>
<event>
 5   0  0.6742824E-05  0.1298189E+04  0.7818609E-02  0.9031002E-01
        2   -1    0    0  501    0  0.00000000000E+00  0.00000000000E+00  0.16040523576E+04  0.16040523576E+04  0.25500000920E-02 0.  1.
       -2   -1    0    0    0  501  0.00000000000E+00  0.00000000000E+00 -0.26266214252E+03  0.26266214253E+03  0.25500000920E-02 0. -1.
    10030    2    1    2    0    0  0.00000000000E+00  0.00000000000E+00  0.13413902151E+04  0.18667145002E+04  0.12981892450E+04 0.  0.
        4    1    3    3  502    0 -0.35370225087E+03  0.54342879549E+03  0.71388299383E+03  0.96439135200E+03  0.12699999809E+01 0. -1.
       -4    1    3    3    0  502  0.35370225087E+03 -0.54342879549E+03  0.62750722126E+03  0.90232314815E+03  0.12699999809E+01 0.  1.
</event>
<event>
 5   0  0.3552698E-05  0.1300162E+04  0.7818609E-02  0.9029437E-01
        1   -1    0    0  501    0  0.00000000000E+00  0.00000000000E+00  0.14617033039E+04  0.14617033039E+04  0.50400001928E-02 0.  1.
       -1   -1    0    0    0  501  0.00000000000E+00  0.00000000000E+00 -0.28911842029E+03  0.28911842034E+03  0.50400001928E-02 0. -1.
    10030    2    1    2    0    0  0.00000000000E+00  0.00000000000E+00  0.11725848836E+04  0.17508217242E+04  0.13001620671E+04 0.  0.
        5    1    3    3  502    0 -0.40242284661E+03 -0.33184395566E+03  0.63848536003E+02  0.52551240131E+03  0.46999998093E+01 0. -1.
       -5    1    3    3    0  502  0.40242284661E+03  0.33184395566E+03  0.11087363476E+04  0.12253093229E+04  0.46999998093E+01 0.  1.
</event>
<event>
 5   0  0.3551277E-05  0.1299214E+04  0.7818609E-02  0.9030189E-01
       -1   -1    0    0    0  501  0.00000000000E+00  0.00000000000E+00  0.28364459999E+03  0.28364460004E+03  0.50400001928E-02 0.  1.
        1   -1    0    0  501    0  0.00000000000E+00  0.00000000000E+00 -0.14877395000E+04  0.14877395000E+04  0.50400001928E-02 0. -1.
    10030    2    1    2    0    0  0.00000000000E+00  0.00000000000E+00 -0.12040949000E+04  0.17713841001E+04  0.12992140323E+04 0.  0.
        4    1    3    3  502    0  0.39048572717E+03 -0.89410187934E+01  0.10566021760E+03  0.40462913813E+03  0.12699999809E+01 0.  1.
       -4    1    3    3    0  502 -0.39048572717E+03  0.89410187934E+01 -0.13097551176E+04  0.13667549619E+04  0.12699999809E+01 0. -1.
</event>
<event>
 5   0  0.3718559E-05  0.1299453E+04  0.7818609E-02  0.9029999E-01
        1   -1    0    0  501    0  0.00000000000E+00  0.00000000000E+00  0.93617848754E+03  0.93617848755E+03  0.50400001928E-02 0. -1.
       -1   -1    0    0    0  501  0.00000000000E+00  0.00000000000E+00 -0.45092329009E+03  0.45092329012E+03  0.50400001928E-02 0.  1.
    10030    2    1    2    0    0  0.00000000000E+00  0.00000000000E+00  0.48525519745E+03  0.13871017777E+04  0.12994532446E+04 0.  0.
        2    1    3    3  502    0  0.16271056651E+03 -0.36028476809E+03 -0.30777202049E+03  0.50100245426E+03  0.25500000920E-02 0.  1.
       -2    1    3    3    0  502 -0.16271056651E+03  0.36028476809E+03  0.79302721793E+03  0.88609932342E+03  0.25500000920E-02 0. -1.
</event>
<event>
 5   0  0.6458698E-05  0.1299455E+04  0.7818609E-02  0.9029997E-01
       -2   -1    0    0    0  501  0.00000000000E+00  0.00000000000E+00  0.48662475164E+03  0.48662475165E+03  0.25500000920E-02 0.  1.
        2   -1    0    0  501    0  0.00000000000E+00  0.00000000000E+00 -0.86749782606E+03  0.86749782606E+03  0.25500000920E-02 0. -1.
    10030    2    1    2    0    0  0.00000000000E+00  0.00000000000E+00 -0.38087307442E+03  0.13541225777E+04  0.12994551384E+04 0.  0.
        3    1    3    3  502    0  0.15318614727E+03 -0.63139928997E+03 -0.18642154343E+03  0.67593199447E+03  0.10100000352E+00 0.  1.
       -3    1    3    3    0  502 -0.15318614727E+03  0.63139928997E+03 -0.19445153099E+03  0.67819058324E+03  0.10100000352E+00 0. -1.
</event>
<event>
 5   0  0.6742824E-05  0.1301077E+04  0.7818609E-02  0.9028711E-01
        2   -1    0    0  501    0  0.00000000000E+00  0.00000000000E+00  0.15123568526E+04  0.15123568526E+04  0.25500000920E-02 0. -1.
       -2   -1    0    0    0  501  0.00000000000E+00  0.00000000000E+00 -0.27982838748E+03  0.27982838749E+03  0.25500000920E-02 0.  1.
    10030    2    1    2    0    0  0.00000000000E+00  0.00000000000E+00  0.12325284651E+04  0.17921852401E+04  0.13010770605E+04 0.  0.
        4    1    3    3  502    0 -0.12631268994E+03  0.63188686299E+03  0.73918195480E+03  0.98062606454E+03  0.12699999809E+01 0.  1.
       -4    1    3    3    0  502  0.12631268994E+03 -0.63188686299E+03  0.49334651029E+03  0.81155917552E+03  0.12699999809E+01 0. -1.
</event>
<event>
 5   0  0.6671239E-05  0.1299717E+04  0.7818609E-02  0.9029790E-01
        2   -1    0    0  501    0  0.00000000000E+00  0.00000000000E+00  0.92542587120E+03  0.92542587121E+03  0.25500000920E-02 0. -1.
       -2   -1    0    0    0  501  0.00000000000E+00  0.00000000000E+00 -0.45634760714E+03  0.45634760715E+03  0.25500000920E-02 0.  1.
    10030    2    1    2    0    0  0.00000000000E+00  0.00000000000E+00  0.46907826406E+03  0.13817734784E+04  0.12997167105E+04 0.  0.
        1    1    3    3  502    0 -0.17595220922E+03  0.27982209023E+02 -0.42987620159E+03  0.46533400120E+03  0.50400001928E-02 0.  1.
       -1    1    3    3    0  502  0.17595220922E+03 -0.27982209023E+02  0.89895446565E+03  0.91643947716E+03  0.50400001928E-02 0. -1.
</event>
<event>
 5   0  0.6458698E-05  0.1301434E+04  0.7818609E-02  0.9028429E-01
        2   -1    0    0  501    0  0.00000000000E+00  0.00000000000E+00  0.74501182136E+03  0.74501182137E+03  0.25500000920E-02 0. -1.
       -2   -1    0    0    0  501  0.00000000000E+00  0.00000000000E+00 -0.56835658496E+03  0.56835658497E+03  0.25500000920E-02 0.  1.
    10030    2    1    2    0    0  0.00000000000E+00  0.00000000000E+00  0.17665523640E+03  0.13133684063E+04  0.13014336319E+04 0.  0.
        3    1    3    3  502    0 -0.26365680808E+03 -0.50147707014E+03 -0.23466716552E+03  0.61323963758E+03  0.10100000352E+00 0.  1.
       -3    1    3    3    0  502  0.26365680808E+03  0.50147707014E+03  0.41132240192E+03  0.70012876876E+03  0.10100000352E+00 0. -1.
</event>
<event>
 5   0  0.3552698E-05  0.1299789E+04  0.7818609E-02  0.9029733E-01
       -1   -1    0    0    0  501  0.00000000000E+00  0.00000000000E+00  0.71912924696E+03  0.71912924698E+03  0.50400001928E-02 0. -1.
        1   -1    0    0  501    0  0.00000000000E+00  0.00000000000E+00 -0.58732519315E+03  0.58732519317E+03  0.50400001928E-02 0.  1.
    10030    2    1    2    0    0  0.00000000000E+00  0.00000000000E+00  0.13180405381E+03  0.13064544402E+04  0.12997887888E+04 0.  0.
        5    1    3    3  502    0  0.14263027499E+03  0.37213046445E+03 -0.45006875084E+03  0.60117256125E+03  0.46999998093E+01 0.  1.
       -5    1    3    3    0  502 -0.14263027499E+03 -0.37213046445E+03  0.58187280465E+03  0.70528187890E+03  0.46999998093E+01 0. -1.
</event>
<event>
 5   0  0.3551277E-05  0.1298654E+04  0.7818609E-02  0.9030633E-01
       -1   -1    0    0    0  501  0.00000000000E+00  0.00000000000E+00  0.34930873458E+03  0.34930873462E+03  0.50400001928E-02 0. -1.
        1   -1    0    0  501    0  0.00000000000E+00  0.00000000000E+00 -0.12070292052E+04  0.12070292052E+04  0.50400001928E-02 0.  1.
    10030    2    1    2    0    0  0.00000000000E+00  0.00000000000E+00 -0.85772047062E+03  0.15563379398E+04  0.12986544487E+04 0.  0.
        4    1    3    3  502    0  0.36873894708E+03  0.52267311540E+02  0.20858833625E+03  0.42686179247E+03  0.12699999809E+01 0. -1.
       -4    1    3    3    0  502 -0.36873894708E+03 -0.52267311540E+02 -0.10663088069E+04  0.11294761474E+04  0.12699999809E+01 0.  1.
</event>
<event>
 5   0  0.3552698E-05  0.1299947E+04  0.7818609E-02  0.9029607E-01
       -1   -1    0    0    0  501  0.00000000000E+00  0.00000000000E+00  0.40750645319E+03  0.40750645322E+03  0.50400001928E-02 0. -1.
        1   -1    0    0  501    0  0.00000000000E+00  0.00000000000E+00 -0.10367090375E+04  0.10367090375E+04  0.50400001928E-02 0.  1.
    10030    2    1    2    0    0  0.00000000000E+00  0.00000000000E+00 -0.62920258427E+03  0.14442154907E+04  0.12999471110E+04 0.  0.
        5    1    3    3  502    0 -0.46844209870E+03  0.44514428076E+03 -0.39198887690E+03  0.75582325985E+03  0.46999998093E+01 0. -1.
       -5    1    3    3    0  502  0.46844209870E+03 -0.44514428076E+03 -0.23721370737E+03  0.68839223085E+03  0.46999998093E+01 0.  1.
</event>
<event>
 5   0  0.3689707E-05  0.1299684E+04  0.7818609E-02  0.9029815E-01
        1   -1    0    0  501    0  0.00000000000E+00  0.00000000000E+00  0.26337094938E+04  0.26337094938E+04  0.50400001928E-02 0.  1.
       -1   -1    0    0    0  501  0.00000000000E+00  0.00000000000E+00 -0.16034226315E+03  0.16034226323E+03  0.50400001928E-02 0. -1.
    10030    2    1    2    0    0  0.00000000000E+00  0.00000000000E+00  0.24733672307E+04  0.27940517571E+04  0.12996844861E+04 0.  0.
        1    1    3    3  502    0 -0.62959675783E+02 -0.51093382733E+03  0.20892535420E+04  0.21517429353E+04  0.50400001928E-02 0.  1.
       -1    1    3    3    0  502  0.62959675783E+02  0.51093382733E+03  0.38411368864E+03  0.64230882176E+03  0.50400001928E-02 0. -1.
</event>
<event>
 5   0  0.6742824E-05  0.1300531E+04  0.7818609E-02  0.9029144E-01
        2   -1    0    0  501    0  0.00000000000E+00  0.00000000000E+00  0.29884880452E+03  0.29884880453E+03  0.25500000920E-02 0.  1.
       -2   -1    0    0    0  501  0.00000000000E+00  0.00000000000E+00 -0.14149131840E+04  0.14149131840E+04  0.25500000920E-02 0. -1.
    10030    2    1    2    0    0  0.00000000000E+00  0.00000000000E+00 -0.11160643795E+04  0.17137619885E+04  0.13005308355E+04 0.  0.
        4    1    3    3  502    0 -0.53792730510E+02 -0.46310470306E+03  0.39303862686E+02  0.46787394710E+03  0.12699999809E+01 0.  1.
       -4    1    3    3    0  502  0.53792730510E+02  0.46310470306E+03 -0.11553682422E+04  0.12458880414E+04  0.12699999809E+01 0. -1.
</event>
<event>
 5   0  0.6671239E-05  0.1300208E+04  0.7818609E-02  0.9029400E-01
       -2   -1    0    0    0  501  0.00000000000E+00  0.00000000000E+00  0.25931123471E+03  0.25931123472E+03  0.25500000920E-02 0. -1.
        2   -1    0    0  501    0  0.00000000000E+00  0.00000000000E+00 -0.16298377545E+04  0.16298377545E+04  0.25500000920E-02 0.  1.
    10030    2    1    2    0    0  0.00000000000E+00  0.00000000000E+00 -0.13705265198E+04  0.18891489892E+04  0.13002080457E+04 0.  0.
        1    1    3    3  502    0 -0.56823994981E+02 -0.25773514057E+03 -0.15484956275E+04  0.15708262404E+04  0.50400001928E-02 0.  1.
       -1    1    3    3    0  502  0.56823994981E+02  0.25773514057E+03  0.17796910772E+03  0.31832274882E+03  0.50400001928E-02 0. -1.
</event>
<event>
 5   0  0.6618060E-05  0.1300106E+04  0.7818609E-02  0.9029481E-01
       -2   -1    0    0    0  501  0.00000000000E+00  0.00000000000E+00  0.27576814215E+03  0.27576814217E+03  0.25500000920E-02 0.  1.
        2   -1    0    0  501    0  0.00000000000E+00  0.00000000000E+00 -0.15323336026E+04  0.15323336026E+04  0.25500000920E-02 0. -1.
    10030    2    1    2    0    0  0.00000000000E+00  0.00000000000E+00 -0.12565654604E+04  0.18081017447E+04  0.13001058276E+04 0.  0.
        2    1    3    3  502    0  0.59533545597E+03  0.19559774279E+03 -0.86870689666E+03  0.10711369914E+04  0.25500000920E-02 0.  1.
       -2    1    3    3    0  502 -0.59533545597E+03 -0.19559774279E+03 -0.38785856377E+03  0.73696475331E+03  0.25500000920E-02 0. -1.
</event>
<event>
 5   0  0.3631841E-05  0.1300162E+04  0.7818609E-02  0.9029437E-01
       -1   -1    0    0    0  501  0.00000000000E+00  0.00000000000E+00  0.45919214892E+03  0.45919214894E+03  0.50400001928E-02 0. -1.
        1   -1    0    0  501    0  0.00000000000E+00  0.00000000000E+00 -0.92032311609E+03  0.92032311610E+03  0.50400001928E-02 0.  1.
    10030    2    1    2    0    0  0.00000000000E+00  0.00000000000E+00 -0.46113096717E+03  0.13795152650E+04  0.13001617582E+04 0.  0.
        3    1    3    3  502    0  0.58818355313E+03 -0.24888311856E+03 -0.35921964408E+03  0.73276289601E+03  0.10100000352E+00 0.  1.
       -3    1    3    3    0  502 -0.58818355313E+03  0.24888311856E+03 -0.10191132309E+03  0.64675236903E+03  0.10100000352E+00 0. -1.
</event>
<event>
 5   0  0.6458698E-05  0.1302099E+04  0.7818609E-02  0.9027902E-01
        2   -1    0    0  501    0  0.00000000000E+00  0.00000000000E+00  0.23784486184E+04  0.23784486184E+04  0.25500000920E-02 0.  1.
       -2   -1    0    0    0  501  0.00000000000E+00  0.00000000000E+00 -0.17821090175E+03  0.17821090177E+03  0.25500000920E-02 0. -1.
    10030    2    1    2    0    0  0.00000000000E+00  0.00000000000E+00  0.22002377167E+04  0.25566595202E+04  0.13020990332E+04 0.  0.
        3    1    3    3  502    0 -0.42341480981E+03  0.47250851511E+03  0.13868225760E+04  0.15250643480E+04  0.10100000352E+00 0.  1.
       -3    1    3    3    0  502  0.42341480981E+03 -0.47250851511E+03  0.81341514065E+03  0.10315951722E+04  0.10100000352E+00 0. -1.
</event>
<event>
 5   0  0.6688086E-05  0.1300647E+04  0.7818609E-02  0.9029052E-01
       -2   -1    0    0    0  501  0.00000000000E+00  0.00000000000E+00  0.52538180476E+03  0.52538180477E+03  0.25500000920E-02 0. -1.
        2   -1    0    0  501    0  0.00000000000E+00  0.00000000000E+00 -0.80497818695E+03  0.80497818696E+03  0.25500000920E-02 0.  1.
    10030    2    1    2    0    0  0.00000000000E+00  0.00000000000E+00 -0.27959638219E+03  0.13303599917E+04  0.13006473660E+04 0.  0.
        5    1    3    3  502    0 -0.12763775947E+02 -0.71458467821E+02  0.52120755325E+03  0.52625909034E+03  0.46999998093E+01 0. -1.
       -5    1    3    3    0  502  0.12763775947E+02  0.71458467821E+02 -0.80080393544E+03  0.80410090139E+03  0.46999998093E+01 0.  1.
</event>
<event>
 5   0  0.6671239E-05  0.1299523E+04  0.7818609E-02  0.9029943E-01
        2   -1    0    0  501    0  0.00000000000E+00  0.00000000000E+00  0.12873095909E+04  0.12873095909E+04  0.25500000920E-02 0.  1.
       -2   -1    0    0    0  501  0.00000000000E+00  0.00000000000E+00 -0.32796331417E+03  0.32796331418E+03  0.25500000920E-02 0. -1.
    10030    2    1    2    0    0  0.00000000000E+00  0.00000000000E+00  0.95934627675E+03  0.16152729051E+04  0.12995234816E+04 0.  0.
        1    1    3    3  502    0 -0.42546998215E+03  0.25366932045E+03 -0.42993027381E+02  0.49721346550E+03  0.50400001928E-02 0. -1.
       -1    1    3    3    0  502  0.42546998215E+03 -0.25366932045E+03  0.10023393041E+04  0.11180594396E+04  0.50400001928E-02 0.  1.
</event>
<event>
 5   0  0.3631841E-05  0.1299996E+04  0.7818609E-02  0.9029569E-01
        1   -1    0    0  501    0  0.00000000000E+00  0.00000000000E+00  0.71081857762E+03  0.71081857764E+03  0.50400001928E-02 0. -1.
       -1   -1    0    0    0  501  0.00000000000E+00  0.00000000000E+00 -0.59438126313E+03  0.59438126315E+03  0.50400001928E-02 0.  1.
    10030    2    1    2    0    0  0.00000000000E+00  0.00000000000E+00  0.11643731449E+03  0.13051998408E+04  0.12999957601E+04 0.  0.
        3    1    3    3  502    0  0.31939319133E+01 -0.12756510938E+03 -0.58168208461E+03  0.59551416112E+03  0.10100000352E+00 0.  1.
       -3    1    3    3    0  502 -0.31939319133E+01  0.12756510938E+03  0.69811939910E+03  0.70968567967E+03  0.10100000352E+00 0. -1.
</event>
<event>
 5   0  0.3551277E-05  0.1300304E+04  0.7818609E-02  0.9029324E-01
        1   -1    0    0  501    0  0.00000000000E+00  0.00000000000E+00  0.10837089192E+04  0.10837089192E+04  0.50400001928E-02 0.  1.
       -1   -1    0    0    0  501  0.00000000000E+00  0.00000000000E+00 -0.39004734730E+03  0.39004734734E+03  0.50400001928E-02 0. -1.
    10030    2    1    2    0    0  0.00000000000E+00  0.00000000000E+00  0.69366157187E+03  0.14737562665E+04  0.13003042555E+04 0.  0.
        4    1    3    3  502    0  0.40549335704E+03  0.49318670357E+03  0.48581915287E+03  0.80229660935E+03  0.12699999809E+01 0.  1.
       -4    1    3    3    0  502 -0.40549335704E+03 -0.49318670357E+03  0.20784241900E+03  0.67145965717E+03  0.12699999809E+01 0. -1.
</event>
<event>
 5   0  0.3631841E-05  0.1300339E+04  0.7818609E-02  0.9029297E-01
        1   -1    0    0  501    0  0.00000000000E+00  0.00000000000E+00  0.16136592121E+04  0.16136592121E+04  0.50400001928E-02 0. -1.
       -1   -1    0    0    0  501  0.00000000000E+00  0.00000000000E+00 -0.26196378086E+03  0.26196378091E+03  0.50400001928E-02 0.  1.
    10030    2    1    2    0    0  0.00000000000E+00  0.00000000000E+00  0.13516954312E+04  0.18756229930E+04  0.13003388301E+04 0.  0.
        3    1    3    3  502    0  0.43596576289E+02  0.37408114220E+03 -0.88606823034E+02  0.38689603475E+03  0.10100000352E+00 0.  1.
       -3    1    3    3    0  502 -0.43596576289E+02 -0.37408114220E+03  0.14403022542E+04  0.14887269582E+04  0.10100000352E+00 0. -1.
</event>
<event>
 5   0  0.6742824E-05  0.1298978E+04  0.7818609E-02  0.9030376E-01
        2   -1    0    0  501    0  0.00000000000E+00  0.00000000000E+00  0.17560457398E+04  0.17560457398E+04  0.25500000920E-02 0.  1.
       -2   -1    0    0    0  501  0.00000000000E+00  0.00000000000E+00 -0.24021917835E+03  0.24021917836E+03  0.25500000920E-02 0. -1.
    10030    2    1    2    0    0  0.00000000000E+00  0.00000000000E+00  0.15158265615E+04  0.19962649182E+04  0.12989778517E+04 0.  0.
        4    1    3    3  502    0 -0.83725432798E+02  0.13600366489E+03  0.17253964679E+04  0.17327727864E+04  0.12699999809E+01 0.  1.
       -4    1    3    3    0  502  0.83725432798E+02 -0.13600366489E+03 -0.20956990640E+03  0.26349213181E+03  0.12699999809E+01 0. -1.
</event>
<event>
 5   0  0.6688086E-05  0.1300002E+04  0.7818609E-02  0.9029564E-01
       -2   -1    0    0    0  501  0.00000000000E+00  0.00000000000E+00  0.47213959861E+03  0.47213959862E+03  0.25500000920E-02 0. -1.
        2   -1    0    0  501    0  0.00000000000E+00  0.00000000000E+00 -0.89486519363E+03  0.89486519364E+03  0.25500000920E-02 0.  1.
    10030    2    1    2    0    0  0.00000000000E+00  0.00000000000E+00 -0.42272559502E+03  0.13670047923E+04  0.13000019898E+04 0.  0.
        5    1    3    3  502    0  0.17374325488E+03  0.19725148928E+03 -0.83646303922E+03  0.87680520905E+03  0.46999998093E+01 0.  1.
       -5    1    3    3    0  502 -0.17374325488E+03 -0.19725148928E+03  0.41373744420E+03  0.49019958321E+03  0.46999998093E+01 0. -1.
</event>
<event>
 5   0  0.6618060E-05  0.1297540E+04  0.7818609E-02  0.9031518E-01
       -2   -1    0    0    0  501  0.00000000000E+00  0.00000000000E+00  0.37365779051E+03  0.37365779052E+03  0.25500000920E-02 0. -1.
        2   -1    0    0  501    0  0.00000000000E+00  0.00000000000E+00 -0.11264382762E+04  0.11264382762E+04  0.25500000920E-02 0.  1.
    10030    2    1    2    0    0  0.00000000000E+00  0.00000000000E+00 -0.75278048572E+03  0.15000960668E+04  0.12975398837E+04 0.  0.
        2    1    3    3  502    0 -0.33356760221E+03  0.50636122764E+03 -0.64313166130E+03  0.88390461696E+03  0.25500000920E-02 0.  1.
       -2    1    3    3    0  502  0.33356760221E+03 -0.50636122764E+03 -0.10964882442E+03  0.61619144980E+03  0.25500000920E-02 0. -1.
</event>
<event>
 5   0  0.6458698E-05  0.1299757E+04  0.7818609E-02  0.9029758E-01
       -2   -1    0    0    0  501  0.00000000000E+00  0.00000000000E+00  0.35280780418E+03  0.35280780418E+03  0.25500000920E-02 0.  1.
        2   -1    0    0  501    0  0.00000000000E+00  0.00000000000E+00 -0.11970873511E+04  0.11970873511E+04  0.25500000920E-02 0. -1.
    10030    2    1    2    0    0  0.00000000000E+00  0.00000000000E+00 -0.84427954691E+03  0.15498951553E+04  0.12997565307E+04 0.  0.
        3    1    3    3  502    0  0.46058959777E+03  0.38004063610E+03 -0.11633242514E+03  0.60836412288E+03  0.10100000352E+00 0.  1.
       -3    1    3    3    0  502 -0.46058959777E+03 -0.38004063610E+03 -0.72794712176E+03  0.94153103239E+03  0.10100000352E+00 0. -1.
</event>
<event>
 5   0  0.6618060E-05  0.1300336E+04  0.7818609E-02  0.9029299E-01
       -2   -1    0    0    0  501  0.00000000000E+00  0.00000000000E+00  0.38673769544E+03  0.38673769545E+03  0.25500000920E-02 0.  1.
        2   -1    0    0  501    0  0.00000000000E+00  0.00000000000E+00 -0.10930368943E+04  0.10930368943E+04  0.25500000920E-02 0. -1.
    10030    2    1    2    0    0  0.00000000000E+00  0.00000000000E+00 -0.70629919889E+03  0.14797745898E+04  0.13003362174E+04 0.  0.
        2    1    3    3  502    0  0.95364452018E+02  0.41490378488E+03 -0.91236564886E+03  0.10068021686E+04  0.25500000920E-02 0. -1.
       -2    1    3    3    0  502 -0.95364452018E+02 -0.41490378488E+03  0.20606644997E+03  0.47297242121E+03  0.25500000920E-02 0.  1.
</event>
<event>
 5   0  0.6458698E-05  0.1299257E+04  0.7818609E-02  0.9030154E-01
        2   -1    0    0  501    0  0.00000000000E+00  0.00000000000E+00  0.55556750037E+03  0.55556750038E+03  0.25500000920E-02 0.  1.
       -2   -1    0    0    0  501  0.00000000000E+00  0.00000000000E+00 -0.75961496969E+03  0.75961496969E+03  0.25500000920E-02 0. -1.
    10030    2    1    2    0    0  0.00000000000E+00  0.00000000000E+00 -0.20404746931E+03  0.13151824701E+04  0.12992573109E+04 0.  0.
        3    1    3    3  502    0  0.39297668850E+03 -0.24838470708E+03 -0.56133839094E+03  0.72885282449E+03  0.10100000352E+00 0. -1.
       -3    1    3    3    0  502 -0.39297668850E+03  0.24838470708E+03  0.35729092163E+03  0.58632964559E+03  0.10100000352E+00 0.  1.
</event>
<event>
 5   0  0.6458698E-05  0.1300298E+04  0.7818609E-02  0.9029329E-01
       -2   -1    0    0    0  501  0.00000000000E+00  0.00000000000E+00  0.34057012742E+03  0.34057012743E+03  0.25500000920E-02 0. -1.
        2   -1    0    0  501    0  0.00000000000E+00  0.00000000000E+00 -0.12411351280E+04  0.12411351280E+04  0.25500000920E-02 0.  1.
    10030    2    1    2    0    0  0.00000000000E+00  0.00000000000E+00 -0.90056500061E+03  0.15817052555E+04  0.13002977331E+04 0.  0.
        3    1    3    3  502    0 -0.49804159325E+03  0.41084665628E+02 -0.95617214717E+03  0.10788876510E+04  0.10100000352E+00 0.  1.
       -3    1    3    3    0  502  0.49804159325E+03 -0.41084665628E+02  0.55607146557E+02  0.50281760441E+03  0.10100000352E+00 0. -1.
</event>
<event>
 5   0  0.6742824E-05  0.1298905E+04  0.7818609E-02  0.9030434E-01
       -2   -1    0    0    0  501  0.00000000000E+00  0.00000000000E+00  0.12742511131E+04  0.12742511131E+04  0.25500000920E-02 0.  1.
        2   -1    0    0  501    0  0.00000000000E+00  0.00000000000E+00 -0.33100906769E+03  0.33100906770E+03  0.25500000920E-02 0. -1.
    10030    2    1    2    0    0  0.00000000000E+00  0.00000000000E+00  0.94324204538E+03  0.16052601808E+04  0.12989051897E+04 0.  0.
        4    1    3    3  502    0 -0.44656794315E+00 -0.39482569184E+03 -0.16565381173E+03  0.42817090583E+03  0.12699999809E+01 0. -1.
       -4    1    3    3    0  502  0.44656794315E+00  0.39482569184E+03  0.11088958571E+04  0.11770892749E+04  0.12699999809E+01 0.  1.
</event>
<event>
 5   0  0.3631841E-05  0.1299627E+04  0.7818609E-02  0.9029861E-01
       -1   -1    0    0    0  501  0.00000000000E+00  0.00000000000E+00  0.75553982773E+03  0.75553982774E+03  0.50400001928E-02 0. -1.
        1   -1    0    0  501    0  0.00000000000E+00  0.00000000000E+00 -0.55888213796E+03  0.55888213799E+03  0.50400001928E-02 0.  1.
    10030    2    1    2    0    0  0.00000000000E+00  0.00000000000E+00  0.19665768976E+03  0.13144219657E+04  0.12996271993E+04 0.  0.
        3    1    3    3  502    0  0.31898745934E+03 -0.35597024891E+02  0.66977196095E+03  0.74270763916E+03  0.10100000352E+00 0. -1.
       -3    1    3    3    0  502 -0.31898745934E+03  0.35597024891E+02 -0.47311427119E+03  0.57171432657E+03  0.10100000352E+00 0.  1.
</event>
<event>
 5   0  0.3718559E-05  0.1300015E+04  0.7818609E-02  0.9029553E-01
        1   -1    0    0  501    0  0.00000000000E+00  0.00000000000E+00  0.54407137169E+03  0.54407137171E+03  0.50400001928E-02 0. -1.
       -1   -1    0    0    0  501  0.00000000000E+00  0.00000000000E+00 -0.77657066704E+03  0.77657066705E+03  0.50400001928E-02 0.  1.
    10030    2    1    2    0    0  0.00000000000E+00  0.00000000000E+00 -0.23249929535E+03  0.13206420388E+04  0.13000151815E+04 0.  0.
        2    1    3    3  502    0 -0.46952107717E+03 -0.20410280504E+03  0.29060699279E+03  0.58869382636E+03  0.25500000920E-02 0. -1.
       -2    1    3    3    0  502  0.46952107717E+03  0.20410280504E+03 -0.52310628814E+03  0.73194821240E+03  0.25500000920E-02 0.  1.
</event>
<event>
 5   0  0.3718559E-05  0.1299934E+04  0.7818609E-02  0.9029618E-01
        1   -1    0    0  501    0  0.00000000000E+00  0.00000000000E+00  0.29530332072E+04  0.29530332072E+04  0.50400001928E-02 0.  1.
       -1   -1    0    0    0  501  0.00000000000E+00  0.00000000000E+00 -0.14305859930E+03  0.14305859939E+03  0.50400001928E-02 0. -1.
    10030    2    1    2    0    0  0.00000000000E+00  0.00000000000E+00  0.28099746079E+04  0.30960918066E+04  0.12999335282E+04 0.  0.
        2    1    3    3  502    0  0.63340273858E+03 -0.13846394431E+03  0.15137544967E+04  0.16467616614E+04  0.25500000920E-02 0.  1.
       -2    1    3    3    0  502 -0.63340273858E+03  0.13846394431E+03  0.12962201112E+04  0.14493301452E+04  0.25500000920E-02 0. -1.
</event>
<event>
 5   0  0.3631841E-05  0.1299792E+04  0.7818609E-02  0.9029730E-01
       -1   -1    0    0    0  501  0.00000000000E+00  0.00000000000E+00  0.65316258031E+03  0.65316258033E+03  0.50400001928E-02 0.  1.
        1   -1    0    0  501    0  0.00000000000E+00  0.00000000000E+00 -0.64664602739E+03  0.64664602741E+03  0.50400001928E-02 0. -1.
    10030    2    1    2    0    0  0.00000000000E+00  0.00000000000E+00  0.65165529186E+01  0.12998086077E+04  0.12997922724E+04 0.  0.
        3    1    3    3  502    0  0.25998894784E+03  0.10440123891E+03 -0.58315433367E+03  0.64696434119E+03  0.10100000352E+00 0. -1.
       -3    1    3    3    0  502 -0.25998894784E+03 -0.10440123891E+03  0.58967088659E+03  0.65284426656E+03  0.10100000352E+00 0.  1.
</event>
<event>
 5   0  0.6671239E-05  0.1300348E+04  0.7818609E-02  0.9029289E-01
        2   -1    0    0  501    0  0.00000000000E+00  0.00000000000E+00  0.13821984294E+04  0.13821984294E+04  0.25500000920E-02 0.  1.
       -2   -1    0    0    0  501  0.00000000000E+00  0.00000000000E+00 -0.30583620383E+03  0.30583620384E+03  0.25500000920E-02 0. -1.
    10030    2    1    2    0    0  0.00000000000E+00  0.00000000000E+00  0.10763622256E+04  0.16880346332E+04  0.13003481389E+04 0.  0.
        1    1    3    3  502    0 -0.25446344684E+03 -0.38375564656E+03 -0.57701139564E+02  0.46405760804E+03  0.50400001928E-02 0. -1.
       -1    1    3    3    0  502  0.25446344684E+03  0.38375564656E+03  0.11340633651E+04  0.12239770252E+04  0.50400001928E-02 0.  1.
</event>
<event>
 5   0  0.3631841E-05  0.1296823E+04  0.7818609E-02  0.9032088E-01
       -1   -1    0    0    0  501  0.00000000000E+00  0.00000000000E+00  0.62813360525E+03  0.62813360527E+03  0.50400001928E-02 0.  1.
        1   -1    0    0  501    0  0.00000000000E+00  0.00000000000E+00 -0.66934415088E+03  0.66934415090E+03  0.50400001928E-02 0. -1.
    10030    2    1    2    0    0  0.00000000000E+00  0.00000000000E+00 -0.41210545633E+02  0.12974777562E+04  0.12968231254E+04 0.  0.
        3    1    3    3  502    0 -0.19587603469E+03  0.14554459437E+03 -0.62164714725E+03  0.66782919657E+03  0.10100000352E+00 0. -1.
       -3    1    3    3    0  502  0.19587603469E+03 -0.14554459437E+03  0.58043660161E+03  0.62964855960E+03  0.10100000352E+00 0.  1.
</event>
<event>
 5   0  0.6458698E-05  0.1300060E+04  0.7818609E-02  0.9029518E-01
        2   -1    0    0  501    0  0.00000000000E+00  0.00000000000E+00  0.10448016509E+04  0.10448016509E+04  0.25500000920E-02 0.  1.
       -2   -1    0    0    0  501  0.00000000000E+00  0.00000000000E+00 -0.40442025487E+03  0.40442025488E+03  0.25500000920E-02 0. -1.
    10030    2    1    2    0    0  0.00000000000E+00  0.00000000000E+00  0.64038139602E+03  0.14492219058E+04  0.13000599216E+04 0.  0.
        3    1    3    3  502    0  0.10612628128E+03  0.50454413880E+03  0.76147834013E+03  0.91960689877E+03  0.10100000352E+00 0.  1.
       -3    1    3    3    0  502 -0.10612628128E+03 -0.50454413880E+03 -0.12109694411E+03  0.52961500701E+03  0.10100000352E+00 0. -1.
</event>
<event>
 5   0  0.3689707E-05  0.1300404E+04  0.7818609E-02  0.9029245E-01
       -1   -1    0    0    0  501  0.00000000000E+00  0.00000000000E+00  0.10040203351E+04  0.10040203352E+04  0.50400001928E-02 0.  1.
        1   -1    0    0  501    0  0.00000000000E+00  0.00000000000E+00 -0.42106955817E+03  0.42106955820E+03  0.50400001928E-02 0. -1.
    10030    2    1    2    0    0  0.00000000000E+00  0.00000000000E+00  0.58295077697E+03  0.14250898934E+04  0.13004036280E+04 0.  0.
        1    1    3    3  502    0 -0.73622166952E+02  0.18245024079E+03  0.97061690818E+03  0.99035624716E+03  0.50400001928E-02 0.  1.
       -1    1    3    3    0  502  0.73622166952E+02 -0.18245024079E+03 -0.38766613121E+03  0.43473364620E+03  0.50400001928E-02 0. -1.
</event>
<event>
 5   0  0.6742824E-05  0.1299450E+04  0.7818609E-02  0.9030001E-01
       -2   -1    0    0    0  501  0.00000000000E+00  0.00000000000E+00  0.16744825359E+03  0.16744825361E+03  0.25500000920E-02 0.  1.
        2   -1    0    0  501    0  0.00000000000E+00  0.00000000000E+00 -0.25210330787E+04  0.25210330787E+04  0.25500000920E-02 0. -1.
    10030    2    1    2    0    0  0.00000000000E+00  0.00000000000E+00 -0.23535848251E+04  0.26884813323E+04  0.12994500164E+04 0.  0.
        4    1    3    3  502    0  0.64458998523E+03  0.29230751353E+02 -0.13342260431E+04  0.14820632351E+04  0.12699999809E+01 0.  1.
       -4    1    3    3    0  502 -0.64458998523E+03 -0.29230751353E+02 -0.10193587820E+04  0.12064180972E+04  0.12699999809E+01 0. -1.
</event>
<event>
 5   0  0.6742824E-05  0.1306413E+04  0.7818609E-02  0.9024495E-01
        2   -1    0    0  501    0  0.00000000000E+00  0.00000000000E+00  0.16166478765E+04  0.16166478765E+04  0.25500000920E-02 0. -1.
       -2   -1    0    0    0  501  0.00000000000E+00  0.00000000000E+00 -0.26392806725E+03  0.26392806727E+03  0.25500000920E-02 0.  1.
    10030    2    1    2    0    0  0.00000000000E+00  0.00000000000E+00  0.13527198093E+04  0.18805759438E+04  0.13064130273E+04 0.  0.
        4    1    3    3  502    0  0.28902418363E+03 -0.58578322103E+03  0.67696351485E+03  0.94072215564E+03  0.12699999809E+01 0. -1.
       -4    1    3    3    0  502 -0.28902418363E+03  0.58578322103E+03  0.67575629441E+03  0.93985378815E+03  0.12699999809E+01 0.  1.
</event>
<event>
 5   0  0.3552698E-05  0.1299778E+04  0.7818609E-02  0.9029741E-01
        1   -1    0    0  501    0  0.00000000000E+00  0.00000000000E+00  0.87053364761E+03  0.87053364763E+03  0.50400001928E-02 0. -1.
       -1   -1    0    0    0  501  0.00000000000E+00  0.00000000000E+00 -0.48516905121E+03  0.48516905123E+03  0.50400001928E-02 0.  1.
    10030    2    1    2    0    0  0.00000000000E+00  0.00000000000E+00  0.38536459641E+03  0.13557026989E+04  0.12997784179E+04 0.  0.
        5    1    3    3  502    0  0.15509067341E+03  0.47080807336E+03 -0.24566237878E+03  0.55324990128E+03  0.46999998093E+01 0.  1.
       -5    1    3    3    0  502 -0.15509067341E+03 -0.47080807336E+03  0.63102697519E+03  0.80245279758E+03  0.46999998093E+01 0. -1.
</event>
<event>
 5   0  0.3631841E-05  0.1300992E+04  0.7818609E-02  0.9028779E-01
       -1   -1    0    0    0  501  0.00000000000E+00  0.00000000000E+00  0.25796870931E+03  0.25796870936E+03  0.50400001928E-02 0. -1.
        1   -1    0    0  501    0  0.00000000000E+00  0.00000000000E+00 -0.16402951789E+04  0.16402951789E+04  0.50400001928E-02 0.  1.
    10030    2    1    2    0    0  0.00000000000E+00  0.00000000000E+00 -0.13823264696E+04  0.18982638883E+04  0.13009916683E+04 0.  0.
        3    1    3    3  502    0 -0.21094792394E+03  0.30521894784E+03  0.88443139919E+02  0.38141818511E+03  0.10100000352E+00 0. -1.
       -3    1    3    3    0  502  0.21094792394E+03 -0.30521894784E+03 -0.14707696095E+04  0.15168457032E+04  0.10100000352E+00 0.  1.
</event>
<event>
 5   0  0.3718559E-05  0.1300025E+04  0.7818609E-02  0.9029545E-01
       -1   -1    0    0    0  501  0.00000000000E+00  0.00000000000E+00  0.47178296376E+03  0.47178296378E+03  0.50400001928E-02 0.  1.
        1   -1    0    0  501    0  0.00000000000E+00  0.00000000000E+00 -0.89557315788E+03  0.89557315790E+03  0.50400001928E-02 0. -1.
    10030    2    1    2    0    0  0.00000000000E+00  0.00000000000E+00 -0.42379019413E+03  0.13673561217E+04  0.13000248593E+04 0.  0.
        2    1    3    3  502    0 -0.35949349422E+03 -0.42203981767E+03  0.14503767661E+03  0.57305244762E+03  0.25500000920E-02 0.  1.
       -2    1    3    3    0  502  0.35949349422E+03  0.42203981767E+03 -0.56882787074E+03  0.79430367405E+03  0.25500000920E-02 0. -1.
</event>
<event>
 5   0  0.6742824E-05  0.1299694E+04  0.7818609E-02  0.9029808E-01
       -2   -1    0    0    0  501  0.00000000000E+00  0.00000000000E+00  0.75012962040E+03  0.75012962040E+03  0.25500000920E-02 0.  1.
        2   -1    0    0  501    0  0.00000000000E+00  0.00000000000E+00 -0.56297058852E+03  0.56297058852E+03  0.25500000920E-02 0. -1.
    10030    2    1    2    0    0  0.00000000000E+00  0.00000000000E+00  0.18715903188E+03  0.13131002089E+04  0.12996936776E+04 0.  0.
        4    1    3    3  502    0  0.10440429779E+03 -0.61847880719E+03  0.26528259339E+03  0.68102331795E+03  0.12699999809E+01 0.  1.
       -4    1    3    3    0  502 -0.10440429779E+03  0.61847880719E+03 -0.78123561502E+02  0.63207689097E+03  0.12699999809E+01 0. -1.
</event>
<event>
 5   0  0.3631841E-05  0.1300114E+04  0.7818609E-02  0.9029475E-01
       -1   -1    0    0    0  501  0.00000000000E+00  0.00000000000E+00  0.80624216002E+03  0.80624216004E+03  0.50400001928E-02 0. -1.
        1   -1    0    0  501    0  0.00000000000E+00  0.00000000000E+00 -0.52412799225E+03  0.52412799228E+03  0.50400001928E-02 0.  1.
    10030    2    1    2    0    0  0.00000000000E+00  0.00000000000E+00  0.28211416777E+03  0.13303701523E+04  0.13001139714E+04 0.  0.
        3    1    3    3  502    0 -0.49348361184E+03 -0.39571437851E+03 -0.12290826423E+02  0.63266659397E+03  0.10100000352E+00 0.  1.
       -3    1    3    3    0  502  0.49348361184E+03  0.39571437851E+03  0.29440499419E+03  0.69770355834E+03  0.10100000352E+00 0. -1.
</event>
<event>
 5   0  0.6618060E-05  0.1299720E+04  0.7818609E-02  0.9029787E-01
        2   -1    0    0  501    0  0.00000000000E+00  0.00000000000E+00  0.13181022003E+04  0.13181022003E+04  0.25500000920E-02 0. -1.
       -2   -1    0    0    0  501  0.00000000000E+00  0.00000000000E+00 -0.32039839456E+03  0.32039839457E+03  0.25500000920E-02 0.  1.
    10030    2    1    2    0    0  0.00000000000E+00  0.00000000000E+00  0.99770380575E+03  0.16385005949E+04  0.12997197065E+04 0.  0.
        2    1    3    3  502    0  0.32443788141E+02  0.22912588188E+03 -0.26669651880E+03  0.35309814823E+03  0.25500000920E-02 0.  1.
       -2    1    3    3    0  502 -0.32443788141E+02 -0.22912588188E+03  0.12644003245E+04  0.12854024467E+04  0.25500000920E-02 0. -1.
</event>
<event>
 5   0  0.6742824E-05  0.1299644E+04  0.7818609E-02  0.9029848E-01
        2   -1    0    0  501    0  0.00000000000E+00  0.00000000000E+00  0.14774116136E+04  0.14774116136E+04  0.25500000920E-02 0.  1.
       -2   -1    0    0    0  501  0.00000000000E+00  0.00000000000E+00 -0.28581650763E+03  0.28581650764E+03  0.25500000920E-02 0. -1.
    10030    2    1    2    0    0  0.00000000000E+00  0.00000000000E+00  0.11915951060E+04  0.17632281213E+04  0.12996439939E+04 0.  0.
        4    1    3    3  502    0  0.19395949256E+03  0.54339570567E+03  0.19021924110E+03  0.60752296276E+03  0.12699999809E+01 0. -1.
       -4    1    3    3    0  502 -0.19395949256E+03 -0.54339570567E+03  0.10013758649E+04  0.11557051585E+04  0.12699999809E+01 0.  1.
</event>
<event>
 5   0  0.3552698E-05  0.1308164E+04  0.7818609E-02  0.9023116E-01
       -1   -1    0    0    0  501  0.00000000000E+00  0.00000000000E+00  0.17503357996E+03  0.17503358003E+03  0.50400001928E-02 0.  1.
        1   -1    0    0  501    0  0.00000000000E+00  0.00000000000E+00 -0.24442342875E+04  0.24442342875E+04  0.50400001928E-02 0. -1.
    10030    2    1    2    0    0  0.00000000000E+00  0.00000000000E+00 -0.22692007076E+04  0.26192678676E+04  0.13081637171E+04 0.  0.
        5    1    3    3  502    0  0.64261925186E+02 -0.15006382225E+02  0.16831720295E+03  0.18085230810E+03  0.46999998093E+01 0.  1.
       -5    1    3    3    0  502 -0.64261925186E+02  0.15006382225E+02 -0.24375179105E+04  0.24384155595E+04  0.46999998093E+01 0. -1.
</event>
<event>
 5   0  0.2512000E-05  0.1300494E+04  0.7818609E-02  0.9029174E-01
        4   -1    0    0  501    0  0.00000000000E+00  0.00000000000E+00  0.84829300899E+03  0.84829395966E+03  0.12699999809E+01 0.  1.
       -4   -1    0    0    0  501  0.00000000000E+00  0.00000000000E+00 -0.49843523123E+03  0.49843684919E+03  0.12699999809E+01 0. -1.
    10030    2    1    2    0    0  0.00000000000E+00  0.00000000000E+00  0.34985777776E+03  0.13467308088E+04  0.13004935243E+04 0.  0.
        5    1    3    3  502    0 -0.54029918366E+03  0.35303394020E+03  0.25674805324E+03  0.69462063289E+03  0.46999998093E+01 0. -1.
       -5    1    3    3    0  502  0.54029918366E+03 -0.35303394020E+03  0.93109724518E+02  0.65211017596E+03  0.46999998093E+01 0.  1.
</event>
<event>
 5   0  0.6618060E-05  0.1298990E+04  0.7818609E-02  0.9030366E-01
        2   -1    0    0  501    0  0.00000000000E+00  0.00000000000E+00  0.72213368621E+03  0.72213368622E+03  0.25500000920E-02 0.  1.
       -2   -1    0    0    0  501  0.00000000000E+00  0.00000000000E+00 -0.58416310115E+03  0.58416310116E+03  0.25500000920E-02 0. -1.
    10030    2    1    2    0    0  0.00000000000E+00  0.00000000000E+00  0.13797058506E+03  0.13062967874E+04  0.12989901518E+04 0.  0.
        2    1    3    3  502    0 -0.16093299724E+03 -0.60719959692E+03 -0.97028336747E+02  0.63561409537E+03  0.25500000920E-02 0. -1.
       -2    1    3    3    0  502  0.16093299724E+03  0.60719959692E+03  0.23499892181E+03  0.67068269200E+03  0.25500000920E-02 0.  1.
</event>
<event>
 5   0  0.6458698E-05  0.1299600E+04  0.7818609E-02  0.9029882E-01
        2   -1    0    0  501    0  0.00000000000E+00  0.00000000000E+00  0.93254593603E+03  0.93254593603E+03  0.25500000920E-02 0. -1.
       -2   -1    0    0    0  501  0.00000000000E+00  0.00000000000E+00 -0.45278203163E+03  0.45278203164E+03  0.25500000920E-02 0.  1.
    10030    2    1    2    0    0  0.00000000000E+00  0.00000000000E+00  0.47976390440E+03  0.13853279677E+04  0.12996000054E+04 0.  0.
        3    1    3    3  502    0  0.58417834226E+03  0.62855383508E+02 -0.55959118067E+02  0.59020891885E+03  0.10100000352E+00 0. -1.
       -3    1    3    3    0  502 -0.58417834226E+03 -0.62855383508E+02  0.53572302246E+03  0.79511904882E+03  0.10100000352E+00 0.  1.
</event>
<event>
 5   0  0.6688086E-05  0.1298494E+04  0.7818609E-02  0.9030761E-01
       -2   -1    0    0    0  501  0.00000000000E+00  0.00000000000E+00  0.17045740976E+03  0.17045740978E+03  0.25500000920E-02 0.  1.
        2   -1    0    0  501    0  0.00000000000E+00  0.00000000000E+00 -0.24728845007E+04  0.24728845007E+04  0.25500000920E-02 0. -1.
    10030    2    1    2    0    0  0.00000000000E+00  0.00000000000E+00 -0.23024270909E+04  0.26433419105E+04  0.12984937222E+04 0.  0.
        5    1    3    3  502    0 -0.17453506194E+03  0.46502957469E+02 -0.24206710153E+04  0.24274050480E+04  0.46999998093E+01 0. -1.
       -5    1    3    3    0  502  0.17453506194E+03 -0.46502957469E+02  0.11824392439E+03  0.21593686242E+03  0.46999998093E+01 0.  1.
</event>
<event>
 5   0  0.3718559E-05  0.1297435E+04  0.7818609E-02  0.9031602E-01
       -1   -1    0    0    0  501  0.00000000000E+00  0.00000000000E+00  0.33596484634E+03  0.33596484638E+03  0.50400001928E-02 0. -1.
        1   -1    0    0  501    0  0.00000000000E+00  0.00000000000E+00 -0.12526148410E+04  0.12526148410E+04  0.50400001928E-02 0.  1.
    10030    2    1    2    0    0  0.00000000000E+00  0.00000000000E+00 -0.91664999466E+03  0.15885796874E+04  0.12974352433E+04 0.  0.
        2    1    3    3  502    0  0.46614822873E+03 -0.23818982353E+03 -0.92745715265E+03  0.10649907667E+04  0.25500000920E-02 0.  1.
       -2    1    3    3    0  502 -0.46614822873E+03  0.23818982353E+03  0.10807157993E+02  0.52358892068E+03  0.25500000920E-02 0. -1.
</event>
<event>
 5   0  0.6618060E-05  0.1299851E+04  0.7818609E-02  0.9029684E-01
       -2   -1    0    0    0  501  0.00000000000E+00  0.00000000000E+00  0.82497593683E+03  0.82497593684E+03  0.25500000920E-02 0.  1.
        2   -1    0    0  501    0  0.00000000000E+00  0.00000000000E+00 -0.51201844712E+03  0.51201844712E+03  0.25500000920E-02 0. -1.
    10030    2    1    2    0    0  0.00000000000E+00  0.00000000000E+00  0.31295748972E+03  0.13369943840E+04  0.12998506039E+04 0.  0.
        2    1    3    3  502    0 -0.63339884808E+03  0.12656975967E+03  0.82386370592E+02  0.65115399014E+03  0.25500000920E-02 0. -1.
       -2    1    3    3    0  502  0.63339884808E+03 -0.12656975967E+03  0.23057111913E+03  0.68584039382E+03  0.25500000920E-02 0.  1.
</event>
<event>
 5   0  0.3718559E-05  0.1300412E+04  0.7818609E-02  0.9029238E-01
       -1   -1    0    0    0  501  0.00000000000E+00  0.00000000000E+00  0.76058590684E+03  0.76058590685E+03  0.50400001928E-02 0.  1.
        1   -1    0    0  501    0  0.00000000000E+00  0.00000000000E+00 -0.55584504318E+03  0.55584504320E+03  0.50400001928E-02 0. -1.
    10030    2    1    2    0    0  0.00000000000E+00  0.00000000000E+00  0.20474086366E+03  0.13164309501E+04  0.13004120981E+04 0.  0.
        2    1    3    3  502    0  0.18895378253E+03 -0.60220383727E+02  0.72922181757E+03  0.75570793682E+03  0.25500000920E-02 0.  1.
       -2    1    3    3    0  502 -0.18895378253E+03  0.60220383727E+02 -0.52448095391E+03  0.56072301323E+03  0.25500000920E-02 0. -1.
</event>
<event>
 5   0  0.6688086E-05  0.1300140E+04  0.7818609E-02  0.9029454E-01
        2   -1    0    0  501    0  0.00000000000E+00  0.00000000000E+00  0.57570458696E+03  0.57570458697E+03  0.25500000920E-02 0.  1.
       -2   -1    0    0    0  501  0.00000000000E+00  0.00000000000E+00 -0.73404126367E+03  0.73404126368E+03  0.25500000920E-02 0. -1.
    10030    2    1    2    0    0  0.00000000000E+00  0.00000000000E+00 -0.15833667671E+03  0.13097458506E+04  0.13001398733E+04 0.  0.
        5    1    3    3  502    0  0.27187773595E+03  0.58984948730E+03 -0.10636617553E+03  0.65816090302E+03  0.46999998093E+01 0. -1.
       -5    1    3    3    0  502 -0.27187773595E+03 -0.58984948730E+03 -0.51970501181E+02  0.65158494762E+03  0.46999998093E+01 0.  1.
</event>
<event>
 5   0  0.3551277E-05  0.1300553E+04  0.7818609E-02  0.9029127E-01
       -1   -1    0    0    0  501  0.00000000000E+00  0.00000000000E+00  0.89724073731E+03  0.89724073733E+03  0.50400001928E-02 0. -1.
        1   -1    0    0  501    0  0.00000000000E+00  0.00000000000E+00 -0.47128859164E+03  0.47128859167E+03  0.50400001928E-02 0.  1.
    10030    2    1    2    0    0  0.00000000000E+00  0.00000000000E+00  0.42595214567E+03  0.13685293290E+04  0.13005526879E+04 0.  0.
        4    1    3    3  502    0  0.52955792956E+03 -0.31153921238E+03  0.43711011051E+03  0.75402595660E+03  0.12699999809E+01 0. -1.
       -4    1    3    3    0  502 -0.52955792956E+03  0.31153921238E+03 -0.11157964842E+02  0.61450337240E+03  0.12699999809E+01 0.  1.
</event>
<event>
 5   0  0.3718559E-05  0.1299165E+04  0.7818609E-02  0.9030228E-01
        1   -1    0    0  501    0  0.00000000000E+00  0.00000000000E+00  0.17833580044E+04  0.17833580044E+04  0.50400001928E-02 0.  1.
       -1   -1    0    0    0  501  0.00000000000E+00  0.00000000000E+00 -0.23660831844E+03  0.23660831849E+03  0.50400001928E-02 0. -1.
    10030    2    1    2    0    0  0.00000000000E+00  0.00000000000E+00  0.15467496859E+04  0.20199663229E+04  0.12991648681E+04 0.  0.
        2    1    3    3  502    0  0.17187862404E+03  0.44619018970E+03  0.14570169490E+04  0.15334687269E+04  0.25500000920E-02 0.  1.
       -2    1    3    3    0  502 -0.17187862404E+03 -0.44619018970E+03  0.89732736956E+02  0.48649759596E+03  0.25500000920E-02 0. -1.
</event>
<event>
 5   0  0.3689707E-05  0.1300168E+04  0.7818609E-02  0.9029432E-01
       -1   -1    0    0    0  501  0.00000000000E+00  0.00000000000E+00  0.28453654738E+03  0.28453654742E+03  0.50400001928E-02 0.  1.
        1   -1    0    0  501    0  0.00000000000E+00  0.00000000000E+00 -0.14852546118E+04  0.14852546118E+04  0.50400001928E-02 0. -1.
    10030    2    1    2    0    0  0.00000000000E+00  0.00000000000E+00 -0.12007180644E+04  0.17697911592E+04  0.13001680188E+04 0.  0.
        1    1    3    3  502    0 -0.30070301046E+03 -0.33257925562E+03  0.40386843561E+02  0.45018036266E+03  0.50400001928E-02 0.  1.
       -1    1    3    3    0  502  0.30070301046E+03  0.33257925562E+03 -0.12411049080E+04  0.13196107966E+04  0.50400001928E-02 0. -1.
</event>
<event>
 5   0  0.6688086E-05  0.1300671E+04  0.7818609E-02  0.9029033E-01
        2   -1    0    0  501    0  0.00000000000E+00  0.00000000000E+00  0.44413857033E+03  0.44413857034E+03  0.25500000920E-02 0.  1.
       -2   -1    0    0    0  501  0.00000000000E+00  0.00000000000E+00 -0.95226144372E+03  0.95226144372E+03  0.25500000920E-02 0. -1.
    10030    2    1    2    0    0  0.00000000000E+00  0.00000000000E+00 -0.50812287339E+03  0.13964000141E+04  0.13006706519E+04 0.  0.
        5    1    3    3  502    0 -0.24795492919E+03 -0.25937860786E+02 -0.89890060284E+03  0.93284446899E+03  0.46999998093E+01 0. -1.
       -5    1    3    3    0  502  0.24795492919E+03  0.25937860786E+02  0.39077772945E+03  0.46355554507E+03  0.46999998093E+01 0.  1.
</event>
<event>
 5   0  0.3552698E-05  0.1299781E+04  0.7818609E-02  0.9029739E-01
       -1   -1    0    0    0  501  0.00000000000E+00  0.00000000000E+00  0.51798305306E+03  0.51798305308E+03  0.50400001928E-02 0.  1.
        1   -1    0    0  501    0  0.00000000000E+00  0.00000000000E+00 -0.81538880848E+03  0.81538880850E+03  0.50400001928E-02 0. -1.
    10030    2    1    2    0    0  0.00000000000E+00  0.00000000000E+00 -0.29740575542E+03  0.13333718616E+04  0.12997808807E+04 0.  0.
        5    1    3    3  502    0 -0.55805528369E+02 -0.24633935455E+03  0.46555231156E+03  0.52967761836E+03  0.46999998093E+01 0.  1.
       -5    1    3    3    0  502  0.55805528369E+02  0.24633935455E+03 -0.76295806699E+03  0.80369424321E+03  0.46999998093E+01 0. -1.
</event>
<event>
 5   0  0.3631841E-05  0.1299921E+04  0.7818609E-02  0.9029628E-01
       -1   -1    0    0    0  501  0.00000000000E+00  0.00000000000E+00  0.26792197658E+03  0.26792197662E+03  0.50400001928E-02 0. -1.
        1   -1    0    0  501    0  0.00000000000E+00  0.00000000000E+00 -0.15767606607E+04  0.15767606607E+04  0.50400001928E-02 0.  1.
    10030    2    1    2    0    0  0.00000000000E+00  0.00000000000E+00 -0.13088386841E+04  0.18446826373E+04  0.12999212789E+04 0.  0.
        3    1    3    3  502    0 -0.29703223818E+03 -0.12866441198E+03  0.14539662689E+03  0.35485612682E+03  0.10100000352E+00 0. -1.
       -3    1    3    3    0  502  0.29703223818E+03  0.12866441198E+03 -0.14542353110E+04  0.14898265105E+04  0.10100000352E+00 0.  1.
</event>
<event>
 5   0  0.6671239E-05  0.1300022E+04  0.7818609E-02  0.9029548E-01
       -2   -1    0    0    0  501  0.00000000000E+00  0.00000000000E+00  0.63695744962E+03  0.63695744962E+03  0.25500000920E-02 0.  1.
        2   -1    0    0  501    0  0.00000000000E+00  0.00000000000E+00 -0.66333204879E+03  0.66333204880E+03  0.25500000920E-02 0. -1.
    10030    2    1    2    0    0  0.00000000000E+00  0.00000000000E+00 -0.26374599175E+02  0.13002894984E+04  0.13000219845E+04 0.  0.
        1    1    3    3  502    0 -0.14724039871E+03  0.23944736644E+02 -0.64597948523E+03  0.66298007571E+03  0.50400001928E-02 0. -1.
       -1    1    3    3    0  502  0.14724039871E+03 -0.23944736644E+02  0.61960488606E+03  0.63730942271E+03  0.50400001928E-02 0.  1.
</event>
<event>
 5   0  0.3689707E-05  0.1299825E+04  0.7818609E-02  0.9029704E-01
        1   -1    0    0  501    0  0.00000000000E+00  0.00000000000E+00  0.52691482656E+03  0.52691482658E+03  0.50400001928E-02 0.  1.
       -1   -1    0    0    0  501  0.00000000000E+00  0.00000000000E+00 -0.80162143076E+03  0.80162143078E+03  0.50400001928E-02 0. -1.
    10030    2    1    2    0    0  0.00000000000E+00  0.00000000000E+00 -0.27470660420E+03  0.13285362574E+04  0.12998249377E+04 0.  0.
        1    1    3    3  502    0 -0.39933630154E+03 -0.51241534911E+03 -0.11830716924E+03  0.66032988578E+03  0.50400001928E-02 0.  1.
       -1    1    3    3    0  502  0.39933630154E+03  0.51241534911E+03 -0.15639943497E+03  0.66820637158E+03  0.50400001928E-02 0. -1.
</event>
<event>
 5   0  0.6458698E-05  0.1300725E+04  0.7818609E-02  0.9028990E-01
        2   -1    0    0  501    0  0.00000000000E+00  0.00000000000E+00  0.11648839289E+04  0.11648839289E+04  0.25500000920E-02 0.  1.
       -2   -1    0    0    0  501  0.00000000000E+00  0.00000000000E+00 -0.36310179675E+03  0.36310179676E+03  0.25500000920E-02 0. -1.
    10030    2    1    2    0    0  0.00000000000E+00  0.00000000000E+00  0.80178213218E+03  0.15279857257E+04  0.13007251018E+04 0.  0.
        3    1    3    3  502    0  0.62329337734E+03 -0.86954424853E+02  0.20816659314E+03  0.66286427490E+03  0.10100000352E+00 0. -1.
       -3    1    3    3    0  502 -0.62329337734E+03  0.86954424853E+02  0.59361553904E+03  0.86512145080E+03  0.10100000352E+00 0.  1.
</event>
<event>
 5   0  0.3689707E-05  0.1300741E+04  0.7818609E-02  0.9028978E-01
        1   -1    0    0  501    0  0.00000000000E+00  0.00000000000E+00  0.14053212846E+04  0.14053212846E+04  0.50400001928E-02 0. -1.
       -1   -1    0    0    0  501  0.00000000000E+00  0.00000000000E+00 -0.30098594402E+03  0.30098594406E+03  0.50400001928E-02 0.  1.
    10030    2    1    2    0    0  0.00000000000E+00  0.00000000000E+00  0.11043353406E+04  0.17063072287E+04  0.13007412556E+04 0.  0.
        1    1    3    3  502    0  0.24851351591E+03 -0.35002025325E+03  0.11930828208E+04  0.12679588962E+04  0.50400001928E-02 0. -1.
       -1    1    3    3    0  502 -0.24851351591E+03  0.35002025325E+03 -0.88747480203E+02  0.43834833243E+03  0.50400001928E-02 0.  1.
</event>
<event>
 5   0  0.3551277E-05  0.1299502E+04  0.7818609E-02  0.9029960E-01
       -1   -1    0    0    0  501  0.00000000000E+00  0.00000000000E+00  0.48896034919E+03  0.48896034921E+03  0.50400001928E-02 0.  1.
        1   -1    0    0  501    0  0.00000000000E+00  0.00000000000E+00 -0.86341655272E+03  0.86341655273E+03  0.50400001928E-02 0. -1.
    10030    2    1    2    0    0  0.00000000000E+00  0.00000000000E+00 -0.37445620353E+03  0.13523769019E+04  0.12995021495E+04 0.  0.
        4    1    3    3  502    0 -0.13938958422E+03 -0.27118611579E+03 -0.78433618658E+03  0.84152019112E+03  0.12699999809E+01 0. -1.
       -4    1    3    3    0  502  0.13938958422E+03  0.27118611579E+03  0.40987998305E+03  0.51085671082E+03  0.12699999809E+01 0.  1.
</event>
<event>
 5   0  0.6671239E-05  0.1299819E+04  0.7818609E-02  0.9029709E-01
        2   -1    0    0  501    0  0.00000000000E+00  0.00000000000E+00  0.98328876025E+03  0.98328876026E+03  0.25500000920E-02 0. -1.
       -2   -1    0    0    0  501  0.00000000000E+00  0.00000000000E+00 -0.42956095693E+03  0.42956095693E+03  0.25500000920E-02 0.  1.
    10030    2    1    2    0    0  0.00000000000E+00  0.00000000000E+00  0.55372780333E+03  0.14128497172E+04  0.12998191579E+04 0.  0.
        1    1    3    3  502    0 -0.54750944350E+03  0.18056651429E+03 -0.49244723624E+02  0.57861550242E+03  0.50400001928E-02 0. -1.
       -1    1    3    3    0  502  0.54750944350E+03 -0.18056651429E+03  0.60297252695E+03  0.83423421477E+03  0.50400001928E-02 0.  1.
</event>
<event>
 5   0  0.3689707E-05  0.1298759E+04  0.7818609E-02  0.9030550E-01
       -1   -1    0    0    0  501  0.00000000000E+00  0.00000000000E+00  0.11488439067E+04  0.11488439067E+04  0.50400001928E-02 0. -1.
        1   -1    0    0  501    0  0.00000000000E+00  0.00000000000E+00 -0.36705907329E+03  0.36705907333E+03  0.50400001928E-02 0.  1.
    10030    2    1    2    0    0  0.00000000000E+00  0.00000000000E+00  0.78178483343E+03  0.15159029801E+04  0.12987587610E+04 0.  0.
        1    1    3    3  502    0  0.80491010523E+02 -0.60190075772E+03  0.65942371347E+03  0.89643904357E+03  0.50400001928E-02 0.  1.
       -1    1    3    3    0  502 -0.80491010523E+02  0.60190075772E+03  0.12236111997E+03  0.61946393650E+03  0.50400001928E-02 0. -1.
</event>
<event>
 5   0  0.3689707E-05  0.1307647E+04  0.7818609E-02  0.9023523E-01
        1   -1    0    0  501    0  0.00000000000E+00  0.00000000000E+00  0.68948066724E+03  0.68948066726E+03  0.50400001928E-02 0. -1.
       -1   -1    0    0    0  501  0.00000000000E+00  0.00000000000E+00 -0.62001013673E+03  0.62001013675E+03  0.50400001928E-02 0.  1.
    10030    2    1    2    0    0  0.00000000000E+00  0.00000000000E+00  0.69470530513E+02  0.13094908040E+04  0.13076467456E+04 0.  0.
        1    1    3    3  502    0  0.27444778678E+03  0.19273758197E+03  0.59678930483E+03  0.68456324584E+03  0.50400001928E-02 0. -1.
       -1    1    3    3    0  502 -0.27444778678E+03 -0.19273758197E+03 -0.52731877432E+03  0.62492755816E+03  0.50400001928E-02 0.  1.
</event>
<event>
 5   0  0.6458698E-05  0.1297579E+04  0.7818609E-02  0.9031487E-01
       -2   -1    0    0    0  501  0.00000000000E+00  0.00000000000E+00  0.29902610959E+03  0.29902610960E+03  0.25500000920E-02 0.  1.
        2   -1    0    0  501    0  0.00000000000E+00  0.00000000000E+00 -0.14076622122E+04  0.14076622122E+04  0.25500000920E-02 0. -1.
    10030    2    1    2    0    0  0.00000000000E+00  0.00000000000E+00 -0.11086361026E+04  0.17066883218E+04  0.12975789070E+04 0.  0.
        3    1    3    3  502    0  0.57630030378E+03 -0.23065090131E+03 -0.80250630208E+03  0.10145630850E+04  0.10100000352E+00 0.  1.
       -3    1    3    3    0  502 -0.57630030378E+03  0.23065090131E+03 -0.30612980052E+03  0.69212523677E+03  0.10100000352E+00 0. -1.
</event>
<event>
 5   0  0.6688086E-05  0.1299016E+04  0.7818609E-02  0.9030346E-01
       -2   -1    0    0    0  501  0.00000000000E+00  0.00000000000E+00  0.75850618700E+03  0.75850618701E+03  0.25500000920E-02 0. -1.
        2   -1    0    0  501    0  0.00000000000E+00  0.00000000000E+00 -0.55617333305E+03  0.55617333305E+03  0.25500000920E-02 0.  1.
    10030    2    1    2    0    0  0.00000000000E+00  0.00000000000E+00  0.20233285395E+03  0.13146795201E+04  0.12990164189E+04 0.  0.
        5    1    3    3  502    0  0.31784035957E+02  0.38793842768E+03  0.62737059965E+03  0.73832405346E+03  0.46999998093E+01 0. -1.
       -5    1    3    3    0  502 -0.31784035957E+02 -0.38793842768E+03 -0.42503774570E+03  0.57635546660E+03  0.46999998093E+01 0.  1.
</event>
<event>
 5   0  0.6618060E-05  0.1299926E+04  0.7818609E-02  0.9029624E-01
        2   -1    0    0  501    0  0.00000000000E+00  0.00000000000E+00  0.50368854481E+03  0.50368854481E+03  0.25500000920E-02 0.  1.
       -2   -1    0    0    0  501  0.00000000000E+00  0.00000000000E+00 -0.83871604295E+03  0.83871604295E+03  0.25500000920E-02 0. -1.
    10030    2    1    2    0    0  0.00000000000E+00  0.00000000000E+00 -0.33502749814E+03  0.13424045878E+04  0.12999256335E+04 0.  0.
        2    1    3    3  502    0 -0.13098438372E+03  0.15941164034E+02  0.48971146546E+03  0.50717684184E+03  0.25500000920E-02 0.  1.
       -2    1    3    3    0  502  0.13098438372E+03 -0.15941164034E+02 -0.82473896359E+03  0.83522774593E+03  0.25500000920E-02 0. -1.
</event>
<event>
 5   0  0.6618060E-05  0.1299989E+04  0.7818609E-02  0.9029574E-01
        2   -1    0    0  501    0  0.00000000000E+00  0.00000000000E+00  0.18305918531E+04  0.18305918531E+04  0.25500000920E-02 0.  1.
       -2   -1    0    0    0  501  0.00000000000E+00  0.00000000000E+00 -0.23079575273E+03  0.23079575275E+03  0.25500000920E-02 0. -1.
    10030    2    1    2    0    0  0.00000000000E+00  0.00000000000E+00  0.15997961004E+04  0.20613876059E+04  0.12999889610E+04 0.  0.
        2    1    3    3  502    0 -0.58740464011E+03  0.79558550251E+02  0.12227739853E+04  0.13588782113E+04  0.25500000920E-02 0.  1.
       -2    1    3    3    0  502  0.58740464011E+03 -0.79558550251E+02  0.37702211513E+03  0.70250939456E+03  0.25500000920E-02 0. -1.
</event>
<event>
 5   0  0.6458698E-05  0.1299962E+04  0.7818609E-02  0.9029595E-01
        2   -1    0    0  501    0  0.00000000000E+00  0.00000000000E+00  0.10036143228E+04  0.10036143228E+04  0.25500000920E-02 0. -1.
       -2   -1    0    0    0  501  0.00000000000E+00  0.00000000000E+00 -0.42095410749E+03  0.42095410750E+03  0.25500000920E-02 0.  1.
    10030    2    1    2    0    0  0.00000000000E+00  0.00000000000E+00  0.58266021533E+03  0.14245684303E+04  0.12999624172E+04 0.  0.
        3    1    3    3  502    0  0.38662763324E+03 -0.14699890367E+03 -0.25811337413E+03  0.48755730798E+03  0.10100000352E+00 0.  1.
       -3    1    3    3    0  502 -0.38662763324E+03  0.14699890367E+03  0.84077358946E+03  0.93701112235E+03  0.10100000352E+00 0. -1.
</event>
<event>
 5   0  0.3718559E-05  0.1300107E+04  0.7818609E-02  0.9029481E-01
       -1   -1    0    0    0  501  0.00000000000E+00  0.00000000000E+00  0.32624121190E+03  0.32624121194E+03  0.50400001928E-02 0.  1.
        1   -1    0    0  501    0  0.00000000000E+00  0.00000000000E+00 -0.12952662834E+04  0.12952662834E+04  0.50400001928E-02 0. -1.
    10030    2    1    2    0    0  0.00000000000E+00  0.00000000000E+00 -0.96902507148E+03  0.16215074953E+04  0.13001065219E+04 0.  0.
        2    1    3    3  502    0  0.39568593691E+03 -0.50395758821E+03 -0.62130057324E+03  0.89249930739E+03  0.25500000920E-02 0. -1.
       -2    1    3    3    0  502 -0.39568593691E+03  0.50395758821E+03 -0.34772449824E+03  0.72900818793E+03  0.25500000920E-02 0.  1.
</event>
<event>
 5   0  0.6671239E-05  0.1299372E+04  0.7818609E-02  0.9030064E-01
       -2   -1    0    0    0  501  0.00000000000E+00  0.00000000000E+00  0.40773841917E+03  0.40773841917E+03  0.25500000920E-02 0.  1.
        2   -1    0    0  501    0  0.00000000000E+00  0.00000000000E+00 -0.10352021238E+04  0.10352021238E+04  0.25500000920E-02 0. -1.
    10030    2    1    2    0    0  0.00000000000E+00  0.00000000000E+00 -0.62746370461E+03  0.14429405430E+04  0.12993716596E+04 0.  0.
        1    1    3    3  502    0 -0.52827742082E+03  0.15889637244E+03  0.67356864319E+02  0.55575357644E+03  0.50400001928E-02 0.  1.
       -1    1    3    3    0  502  0.52827742082E+03 -0.15889637244E+03 -0.69482056893E+03  0.88718696652E+03  0.50400001928E-02 0. -1.
</event>
<event>
 5   0  0.3689707E-05  0.1299920E+04  0.7818609E-02  0.9029629E-01
        1   -1    0    0  501    0  0.00000000000E+00  0.00000000000E+00  0.46025135384E+03  0.46025135387E+03  0.50400001928E-02 0.  1.
       -1   -1    0    0    0  501  0.00000000000E+00  0.00000000000E+00 -0.91786324155E+03  0.91786324157E+03  0.50400001928E-02 0. -1.
    10030    2    1    2    0    0  0.00000000000E+00  0.00000000000E+00 -0.45761188771E+03  0.13781145954E+04  0.12999196892E+04 0.  0.
        1    1    3    3  502    0 -0.35588032683E+03 -0.17447513125E+03  0.31730740557E+03  0.50771681881E+03  0.50400001928E-02 0.  1.
       -1    1    3    3    0  502  0.35588032683E+03  0.17447513125E+03 -0.77491929328E+03  0.87039777663E+03  0.50400001928E-02 0. -1.
</event>
<event>
 5   0  0.3631841E-05  0.1300557E+04  0.7818609E-02  0.9029124E-01
       -1   -1    0    0    0  501  0.00000000000E+00  0.00000000000E+00  0.64507050190E+03  0.64507050192E+03  0.50400001928E-02 0. -1.
        1   -1    0    0  501    0  0.00000000000E+00  0.00000000000E+00 -0.65552861366E+03  0.65552861368E+03  0.50400001928E-02 0.  1.
    10030    2    1    2    0    0  0.00000000000E+00  0.00000000000E+00 -0.10458111763E+02  0.13005991156E+04  0.13005570681E+04 0.  0.
        3    1    3    3  502    0  0.43550698430E+01  0.59739326479E+03 -0.26207287532E+03  0.65236483782E+03  0.10100000352E+00 0.  1.
       -3    1    3    3    0  502 -0.43550698430E+01 -0.59739326479E+03  0.25161476355E+03  0.64823427778E+03  0.10100000352E+00 0. -1.
</event>
<event>
 5   0  0.3551277E-05  0.1299454E+04  0.7818609E-02  0.9029998E-01
       -1   -1    0    0    0  501  0.00000000000E+00  0.00000000000E+00  0.27003973425E+03  0.27003973430E+03  0.50400001928E-02 0.  1.
        1   -1    0    0  501    0  0.00000000000E+00  0.00000000000E+00 -0.15632707027E+04  0.15632707027E+04  0.50400001928E-02 0. -1.
    10030    2    1    2    0    0  0.00000000000E+00  0.00000000000E+00 -0.12932309684E+04  0.18333104370E+04  0.12994540471E+04 0.  0.
        4    1    3    3  502    0 -0.35301891874E+01  0.49157120424E+03 -0.12459928121E+04  0.13394604928E+04  0.12699999809E+01 0. -1.
       -4    1    3    3    0  502  0.35301891874E+01 -0.49157120424E+03 -0.47238156346E+02  0.49384994420E+03  0.12699999809E+01 0.  1.
</event>
<event>
 5   0  0.6742824E-05  0.1301676E+04  0.7818609E-02  0.9028237E-01
        2   -1    0    0  501    0  0.00000000000E+00  0.00000000000E+00  0.26737174544E+04  0.26737174544E+04  0.25500000920E-02 0.  1.
       -2   -1    0    0    0  501  0.00000000000E+00  0.00000000000E+00 -0.15842736032E+03  0.15842736034E+03  0.25500000920E-02 0. -1.
    10030    2    1    2    0    0  0.00000000000E+00  0.00000000000E+00  0.25152900941E+04  0.28321448148E+04  0.13016758407E+04 0.  0.
        4    1    3    3  502    0  0.46665557872E+03  0.45234029489E+03  0.13333046786E+04  0.14832673900E+04  0.12699999809E+01 0.  1.
       -4    1    3    3    0  502 -0.46665557872E+03 -0.45234029489E+03  0.11819854155E+04  0.13488774247E+04  0.12699999809E+01 0. -1.
</event>
<event>
 5   0  0.3631841E-05  0.1300050E+04  0.7818609E-02  0.9029525E-01
       -1   -1    0    0    0  501  0.00000000000E+00  0.00000000000E+00  0.19967312585E+04  0.19967312585E+04  0.50400001928E-02 0. -1.
        1   -1    0    0  501    0  0.00000000000E+00  0.00000000000E+00 -0.21161218203E+03  0.21161218209E+03  0.50400001928E-02 0.  1.
    10030    2    1    2    0    0  0.00000000000E+00  0.00000000000E+00  0.17851190765E+04  0.22083434406E+04  0.13000502430E+04 0.  0.
        3    1    3    3  502    0 -0.45602442831E+03 -0.44088807384E+03  0.11339371355E+04  0.12992898100E+04  0.10100000352E+00 0. -1.
       -3    1    3    3    0  502  0.45602442831E+03  0.44088807384E+03  0.65118194099E+03  0.90905363062E+03  0.10100000352E+00 0.  1.
</event>
<event>
 5   0  0.6688086E-05  0.1300512E+04  0.7818609E-02  0.9029159E-01
        2   -1    0    0  501    0  0.00000000000E+00  0.00000000000E+00  0.21755802717E+04  0.21755802717E+04  0.25500000920E-02 0. -1.
       -2   -1    0    0    0  501  0.00000000000E+00  0.00000000000E+00 -0.19435415173E+03  0.19435415175E+03  0.25500000920E-02 0.  1.
    10030    2    1    2    0    0  0.00000000000E+00  0.00000000000E+00  0.19812261200E+04  0.23699344235E+04  0.13005122964E+04 0.  0.
        5    1    3    3  502    0 -0.34864473791E+03 -0.10177259857E+03  0.77481250222E+01  0.36330832434E+03  0.46999998093E+01 0.  1.
       -5    1    3    3    0  502  0.34864473791E+03  0.10177259857E+03  0.19734779950E+04  0.20066260991E+04  0.46999998093E+01 0. -1.
</event>
<event>
 5   0  0.3631841E-05  0.1297965E+04  0.7818609E-02  0.9031180E-01
       -1   -1    0    0    0  501  0.00000000000E+00  0.00000000000E+00  0.64488420843E+03  0.64488420845E+03  0.50400001928E-02 0. -1.
        1   -1    0    0  501    0  0.00000000000E+00  0.00000000000E+00 -0.65310730305E+03  0.65310730307E+03  0.50400001928E-02 0.  1.
    10030    2    1    2    0    0  0.00000000000E+00  0.00000000000E+00 -0.82230946259E+01  0.12979915115E+04  0.12979654636E+04 0.  0.
        3    1    3    3  502    0  0.17744390306E+03  0.47044673159E+02  0.61837908570E+03  0.64505212490E+03  0.10100000352E+00 0. -1.
       -3    1    3    3    0  502 -0.17744390306E+03 -0.47044673159E+02 -0.62660218033E+03  0.65293938662E+03  0.10100000352E+00 0.  1.
</event>
<event>
 5   0  0.6671239E-05  0.1299187E+04  0.7818609E-02  0.9030210E-01
        2   -1    0    0  501    0  0.00000000000E+00  0.00000000000E+00  0.13411119534E+04  0.13411119534E+04  0.25500000920E-02 0. -1.
       -2   -1    0    0    0  501  0.00000000000E+00  0.00000000000E+00 -0.31464336675E+03  0.31464336676E+03  0.25500000920E-02 0.  1.
    10030    2    1    2    0    0  0.00000000000E+00  0.00000000000E+00  0.10264685866E+04  0.16557553201E+04  0.12991874079E+04 0.  0.
        1    1    3    3  502    0 -0.22901523825E+03  0.37368794878E+03  0.11242835154E+04  0.12066913795E+04  0.50400001928E-02 0. -1.
       -1    1    3    3    0  502  0.22901523825E+03 -0.37368794878E+03 -0.97814928801E+02  0.44906394059E+03  0.50400001928E-02 0.  1.
</event>
<event>
 5   0  0.3631841E-05  0.1299947E+04  0.7818609E-02  0.9029607E-01
        1   -1    0    0  501    0  0.00000000000E+00  0.00000000000E+00  0.16840212756E+04  0.16840212756E+04  0.50400001928E-02 0.  1.
       -1   -1    0    0    0  501  0.00000000000E+00  0.00000000000E+00 -0.25086711422E+03  0.25086711427E+03  0.50400001928E-02 0. -1.
    10030    2    1    2    0    0  0.00000000000E+00  0.00000000000E+00  0.14331541614E+04  0.19348883899E+04  0.12999470108E+04 0.  0.
        3    1    3    3  502    0 -0.18457062367E+03  0.37055866926E+03  0.14624092131E+04  0.15198752446E+04  0.10100000352E+00 0.  1.
       -3    1    3    3    0  502  0.18457062367E+03 -0.37055866926E+03 -0.29255051708E+02  0.41501314526E+03  0.10100000352E+00 0. -1.
</event>
<event>
 5   0  0.6688086E-05  0.1307399E+04  0.7818609E-02  0.9023718E-01
        2   -1    0    0  501    0  0.00000000000E+00  0.00000000000E+00  0.94978714387E+03  0.94978714388E+03  0.25500000920E-02 0. -1.
       -2   -1    0    0    0  501  0.00000000000E+00  0.00000000000E+00 -0.44991478126E+03  0.44991478127E+03  0.25500000920E-02 0.  1.
    10030    2    1    2    0    0  0.00000000000E+00  0.00000000000E+00  0.49987236262E+03  0.13997019251E+04  0.13073993653E+04 0.  0.
        5    1    3    3  502    0 -0.32473885149E+03 -0.55835327584E+03  0.14240889304E+03  0.66144998686E+03  0.46999998093E+01 0. -1.
       -5    1    3    3    0  502  0.32473885149E+03  0.55835327584E+03  0.35746346958E+03  0.73825193828E+03  0.46999998093E+01 0.  1.
</event>
<event>
 5   0  0.6458698E-05  0.1300098E+04  0.7818609E-02  0.9029487E-01
        2   -1    0    0  501    0  0.00000000000E+00  0.00000000000E+00  0.55338493556E+03  0.55338493556E+03  0.25500000920E-02 0.  1.
       -2   -1    0    0    0  501  0.00000000000E+00  0.00000000000E+00 -0.76359846146E+03  0.76359846147E+03  0.25500000920E-02 0. -1.
    10030    2    1    2    0    0  0.00000000000E+00  0.00000000000E+00 -0.21021352591E+03  0.13169833970E+04  0.13000982815E+04 0.  0.
        3    1    3    3  502    0  0.33082737276E+03  0.35980353237E+03 -0.53922665134E+03  0.72778480624E+03  0.10100000352E+00 0. -1.
       -3    1    3    3    0  502 -0.33082737276E+03 -0.35980353237E+03  0.32901312544E+03  0.58919859079E+03  0.10100000352E+00 0.  1.
</event>
<event>
 5   0  0.6458698E-05  0.1303005E+04  0.7818609E-02  0.9027185E-01
        2   -1    0    0  501    0  0.00000000000E+00  0.00000000000E+00  0.31047905528E+03  0.31047905529E+03  0.25500000920E-02 0.  1.
       -2   -1    0    0    0  501  0.00000000000E+00  0.00000000000E+00 -0.13670992340E+04  0.13670992340E+04  0.25500000920E-02 0. -1.
    10030    2    1    2    0    0  0.00000000000E+00  0.00000000000E+00 -0.10566201788E+04  0.16775782893E+04  0.13030052627E+04 0.  0.
        3    1    3    3  502    0  0.42308417412E+03 -0.27118294336E+03 -0.10621288628E+04  0.11750141014E+04  0.10100000352E+00 0. -1.
       -3    1    3    3    0  502 -0.42308417412E+03  0.27118294336E+03  0.55086840517E+01  0.50256418790E+03  0.10100000352E+00 0.  1.
</event>
<event>
 5   0  0.3689707E-05  0.1299644E+04  0.7818609E-02  0.9029848E-01
        1   -1    0    0  501    0  0.00000000000E+00  0.00000000000E+00  0.70716912198E+03  0.70716912200E+03  0.50400001928E-02 0.  1.
       -1   -1    0    0    0  501  0.00000000000E+00  0.00000000000E+00 -0.59712530679E+03  0.59712530681E+03  0.50400001928E-02 0. -1.
    10030    2    1    2    0    0  0.00000000000E+00  0.00000000000E+00  0.11004381519E+03  0.13042944288E+04  0.12996439188E+04 0.  0.
        1    1    3    3  502    0 -0.19585736217E+03 -0.43117903410E+03 -0.39153447632E+03  0.61447108308E+03  0.50400001928E-02 0. -1.
       -1    1    3    3    0  502  0.19585736217E+03  0.43117903410E+03  0.50157829152E+03  0.68982334573E+03  0.50400001928E-02 0.  1.
</event>
<event>
 5   0  0.3551277E-05  0.1300055E+04  0.7818609E-02  0.9029521E-01
        1   -1    0    0  501    0  0.00000000000E+00  0.00000000000E+00  0.11425985527E+04  0.11425985527E+04  0.50400001928E-02 0. -1.
       -1   -1    0    0    0  501  0.00000000000E+00  0.00000000000E+00 -0.36980272850E+03  0.36980272853E+03  0.50400001928E-02 0.  1.
    10030    2    1    2    0    0  0.00000000000E+00  0.00000000000E+00  0.77279582419E+03  0.15124012812E+04  0.13000554794E+04 0.  0.
        4    1    3    3  502    0 -0.10545229670E+03  0.14314361378E+02  0.11323941670E+04  0.11373843898E+04  0.12699999809E+01 0. -1.
       -4    1    3    3    0  502  0.10545229670E+03 -0.14314361378E+02 -0.35959834280E+03  0.37501689144E+03  0.12699999809E+01 0.  1.
</event>
<event>
 5   0  0.3689707E-05  0.1303230E+04  0.7818609E-02  0.9027007E-01
       -1   -1    0    0    0  501  0.00000000000E+00  0.00000000000E+00  0.17571287831E+03  0.17571287838E+03  0.50400001928E-02 0.  1.
        1   -1    0    0  501    0  0.00000000000E+00  0.00000000000E+00 -0.24164549729E+04  0.24164549729E+04  0.50400001928E-02 0. -1.
    10030    2    1    2    0    0  0.00000000000E+00  0.00000000000E+00 -0.22407420946E+04  0.25921678513E+04  0.13032302309E+04 0.  0.
        1    1    3    3  502    0 -0.24474225711E+03 -0.55051693724E+03 -0.16141746148E+04  0.17229414841E+04  0.50400001928E-02 0. -1.
       -1    1    3    3    0  502  0.24474225711E+03  0.55051693724E+03 -0.62656747978E+03  0.86922636715E+03  0.50400001928E-02 0.  1.
</event>
<event>
 5   0  0.3552698E-05  0.1300143E+04  0.7818609E-02  0.9029452E-01
       -1   -1    0    0    0  501  0.00000000000E+00  0.00000000000E+00  0.81270217059E+03  0.81270217061E+03  0.50400001928E-02 0. -1.
        1   -1    0    0  501    0  0.00000000000E+00  0.00000000000E+00 -0.51998468536E+03  0.51998468538E+03  0.50400001928E-02 0.  1.
    10030    2    1    2    0    0  0.00000000000E+00  0.00000000000E+00  0.29271748523E+03  0.13326868560E+04  0.13001425806E+04 0.  0.
        5    1    3    3  502    0  0.41448067717E+03  0.34288500895E+02  0.65846489876E+03  0.77882478513E+03  0.46999998093E+01 0. -1.
       -5    1    3    3    0  502 -0.41448067717E+03 -0.34288500895E+02 -0.36574741352E+03  0.55386207086E+03  0.46999998093E+01 0.  1.
</event>
<event>
 5   0  0.3631841E-05  0.1297587E+04  0.7818609E-02  0.9031481E-01
       -1   -1    0    0    0  501  0.00000000000E+00  0.00000000000E+00  0.46879046124E+03  0.46879046126E+03  0.50400001928E-02 0.  1.
        1   -1    0    0  501    0  0.00000000000E+00  0.00000000000E+00 -0.89791340357E+03  0.89791340358E+03  0.50400001928E-02 0. -1.
    10030    2    1    2    0    0  0.00000000000E+00  0.00000000000E+00 -0.42912294233E+03  0.13667038648E+04  0.12975873591E+04 0.  0.
        3    1    3    3  502    0 -0.91816376390E+01  0.22486632237E+03  0.42636074649E+03  0.48211270649E+03  0.10100000352E+00 0.  1.
       -3    1    3    3    0  502  0.91816376390E+01 -0.22486632237E+03 -0.85548368882E+03  0.88459115836E+03  0.10100000352E+00 0. -1.
</event>
<event>
 5   0  0.3551277E-05  0.1300084E+04  0.7818609E-02  0.9029498E-01
        1   -1    0    0  501    0  0.00000000000E+00  0.00000000000E+00  0.45928864134E+03  0.45928864137E+03  0.50400001928E-02 0. -1.
       -1   -1    0    0    0  501  0.00000000000E+00  0.00000000000E+00 -0.92002023063E+03  0.92002023064E+03  0.50400001928E-02 0.  1.
    10030    2    1    2    0    0  0.00000000000E+00  0.00000000000E+00 -0.46073158929E+03  0.13793088720E+04  0.13000843692E+04 0.  0.
        4    1    3    3  502    0  0.32119118067E+02 -0.43134624022E+03 -0.74517987719E+03  0.86161817469E+03  0.12699999809E+01 0.  1.
       -4    1    3    3    0  502 -0.32119118067E+02  0.43134624022E+03  0.28444828790E+03  0.51769069732E+03  0.12699999809E+01 0. -1.
</event>
<event>
 5   0  0.3718559E-05  0.1299924E+04  0.7818609E-02  0.9029626E-01
        1   -1    0    0  501    0  0.00000000000E+00  0.00000000000E+00  0.67130910671E+03  0.67130910673E+03  0.50400001928E-02 0. -1.
       -1   -1    0    0    0  501  0.00000000000E+00  0.00000000000E+00 -0.62929353855E+03  0.62929353857E+03  0.50400001928E-02 0.  1.
    10030    2    1    2    0    0  0.00000000000E+00  0.00000000000E+00  0.42015568161E+02  0.13006026453E+04  0.12999238181E+04 0.  0.
        2    1    3    3  502    0  0.40485663618E+03  0.85877945159E+01  0.52967059402E+03  0.66673351817E+03  0.25500000920E-02 0. -1.
       -2    1    3    3    0  502 -0.40485663618E+03 -0.85877945159E+01 -0.48765502586E+03  0.63386912713E+03  0.25500000920E-02 0.  1.
</event>
<event>
 5   0  0.6618060E-05  0.1297066E+04  0.7818609E-02  0.9031895E-01
       -2   -1    0    0    0  501  0.00000000000E+00  0.00000000000E+00  0.43075908822E+03  0.43075908823E+03  0.25500000920E-02 0. -1.
        2   -1    0    0  501    0  0.00000000000E+00  0.00000000000E+00 -0.97640367373E+03  0.97640367373E+03  0.25500000920E-02 0.  1.
    10030    2    1    2    0    0  0.00000000000E+00  0.00000000000E+00 -0.54564458551E+03  0.14071627620E+04  0.12970655438E+04 0.  0.
        2    1    3    3  502    0 -0.45878300499E+03 -0.45622990274E+03 -0.22470455853E+03  0.68492314054E+03  0.25500000920E-02 0. -1.
       -2    1    3    3    0  502  0.45878300499E+03  0.45622990274E+03 -0.32094002698E+03  0.72223962142E+03  0.25500000920E-02 0.  1.
</event>
<event>
 5   0  0.3552698E-05  0.1300660E+04  0.7818609E-02  0.9029042E-01
       -1   -1    0    0    0  501  0.00000000000E+00  0.00000000000E+00  0.26419962297E+03  0.26419962302E+03  0.50400001928E-02 0.  1.
        1   -1    0    0  501    0  0.00000000000E+00  0.00000000000E+00 -0.16007941440E+04  0.16007941440E+04  0.50400001928E-02 0. -1.
    10030    2    1    2    0    0  0.00000000000E+00  0.00000000000E+00 -0.13365945211E+04  0.18649937670E+04  0.13006601545E+04 0.  0.
        5    1    3    3  502    0  0.50448273363E+03 -0.17360748023E+03 -0.12014716244E+04  0.13146096531E+04  0.46999998093E+01 0. -1.
       -5    1    3    3    0  502 -0.50448273363E+03  0.17360748023E+03 -0.13512289667E+03  0.55038411398E+03  0.46999998093E+01 0.  1.
</event>
<event>
 5   0  0.3631841E-05  0.1300506E+04  0.7818609E-02  0.9029164E-01
        1   -1    0    0  501    0  0.00000000000E+00  0.00000000000E+00  0.43099361715E+03  0.43099361718E+03  0.50400001928E-02 0. -1.
       -1   -1    0    0    0  501  0.00000000000E+00  0.00000000000E+00 -0.98105638117E+03  0.98105638118E+03  0.50400001928E-02 0.  1.
    10030    2    1    2    0    0  0.00000000000E+00  0.00000000000E+00 -0.55006276401E+03  0.14120499984E+04  0.13005061144E+04 0.  0.
        3    1    3    3  502    0  0.29337923871E+03  0.42575798835E+03 -0.70317139296E+03  0.87280654238E+03  0.10100000352E+00 0.  1.
       -3    1    3    3    0  502 -0.29337923871E+03 -0.42575798835E+03  0.15310862894E+03  0.53924345598E+03  0.10100000352E+00 0. -1.
</event>
<event>
 5   0  0.6618060E-05  0.1300318E+04  0.7818609E-02  0.9029313E-01
        2   -1    0    0  501    0  0.00000000000E+00  0.00000000000E+00  0.87108534669E+03  0.87108534670E+03  0.25500000920E-02 0. -1.
       -2   -1    0    0    0  501  0.00000000000E+00  0.00000000000E+00 -0.48526471978E+03  0.48526471979E+03  0.25500000920E-02 0.  1.
    10030    2    1    2    0    0  0.00000000000E+00  0.00000000000E+00  0.38582062691E+03  0.13563500665E+04  0.13003184020E+04 0.  0.
        2    1    3    3  502    0 -0.20314442877E+03 -0.28031679466E+03  0.76695321364E+03  0.84146443551E+03  0.25500000920E-02 0. -1.
       -2    1    3    3    0  502  0.20314442877E+03  0.28031679466E+03 -0.38113258673E+03  0.51488563097E+03  0.25500000920E-02 0.  1.
</event>
<event>
 5   0  0.3718559E-05  0.1299435E+04  0.7818609E-02  0.9030013E-01
        1   -1    0    0  501    0  0.00000000000E+00  0.00000000000E+00  0.10502987598E+04  0.10502987598E+04  0.50400001928E-02 0. -1.
       -1   -1    0    0    0  501  0.00000000000E+00  0.00000000000E+00 -0.40191717240E+03  0.40191717243E+03  0.50400001928E-02 0.  1.
    10030    2    1    2    0    0  0.00000000000E+00  0.00000000000E+00  0.64838158739E+03  0.14522159322E+04  0.12994354278E+04 0.  0.
        2    1    3    3  502    0  0.21652608075E+03 -0.52540265098E+03  0.67618528973E+03  0.88326555200E+03  0.25500000920E-02 0. -1.
       -2    1    3    3    0  502 -0.21652608075E+03  0.52540265098E+03 -0.27803702338E+02  0.56895038023E+03  0.25500000920E-02 0.  1.
</event>
<event>
 5   0  0.3552698E-05  0.1299697E+04  0.7818609E-02  0.9029805E-01
        1   -1    0    0  501    0  0.00000000000E+00  0.00000000000E+00  0.56217968199E+03  0.56217968201E+03  0.50400001928E-02 0. -1.
       -1   -1    0    0    0  501  0.00000000000E+00  0.00000000000E+00 -0.75118935405E+03  0.75118935407E+03  0.50400001928E-02 0.  1.
    10030    2    1    2    0    0  0.00000000000E+00  0.00000000000E+00 -0.18900967206E+03  0.13133690361E+04  0.12996974913E+04 0.  0.
        5    1    3    3  502    0  0.19915452706E+03 -0.82687119910E+01 -0.71951751217E+03  0.74663139337E+03  0.46999998093E+01 0.  1.
       -5    1    3    3    0  502 -0.19915452706E+03  0.82687119910E+01  0.53050784011E+03  0.56673764271E+03  0.46999998093E+01 0. -1.
</event>
<event>
 5   0  0.6671239E-05  0.1299868E+04  0.7818609E-02  0.9029670E-01
        2   -1    0    0  501    0  0.00000000000E+00  0.00000000000E+00  0.78039829905E+03  0.78039829905E+03  0.25500000920E-02 0.  1.
       -2   -1    0    0    0  501  0.00000000000E+00  0.00000000000E+00 -0.54127996255E+03  0.54127996256E+03  0.25500000920E-02 0. -1.
    10030    2    1    2    0    0  0.00000000000E+00  0.00000000000E+00  0.23911833649E+03  0.13216782616E+04  0.12998676272E+04 0.  0.
        1    1    3    3  502    0  0.53721317665E+03  0.23164962494E+03  0.40742515064E+03  0.71291991086E+03  0.50400001928E-02 0. -1.
       -1    1    3    3    0  502 -0.53721317665E+03 -0.23164962494E+03 -0.16830681415E+03  0.60875835075E+03  0.50400001928E-02 0.  1.
</event>
<event>
 5   0  0.6618060E-05  0.1299127E+04  0.7818609E-02  0.9030257E-01
        2   -1    0    0  501    0  0.00000000000E+00  0.00000000000E+00  0.17515431585E+04  0.17515431585E+04  0.25500000920E-02 0.  1.
       -2   -1    0    0    0  501  0.00000000000E+00  0.00000000000E+00 -0.24089214042E+03  0.24089214044E+03  0.25500000920E-02 0. -1.
    10030    2    1    2    0    0  0.00000000000E+00  0.00000000000E+00  0.15106510181E+04  0.19924352989E+04  0.12991273694E+04 0.  0.
        2    1    3    3  502    0  0.33176507119E+03 -0.47961341104E+03  0.31658835836E+03  0.66357009815E+03  0.25500000920E-02 0. -1.
       -2    1    3    3    0  502 -0.33176507119E+03  0.47961341104E+03  0.11940626597E+04  0.13288652008E+04  0.25500000920E-02 0.  1.
</event>
<event>
 5   0  0.6742824E-05  0.1300586E+04  0.7818609E-02  0.9029100E-01
       -2   -1    0    0    0  501  0.00000000000E+00  0.00000000000E+00  0.37107546983E+03  0.37107546984E+03  0.25500000920E-02 0.  1.
        2   -1    0    0  501    0  0.00000000000E+00  0.00000000000E+00 -0.11396094491E+04  0.11396094491E+04  0.25500000920E-02 0. -1.
    10030    2    1    2    0    0  0.00000000000E+00  0.00000000000E+00 -0.76853397925E+03  0.15106849189E+04  0.13005861936E+04 0.  0.
        4    1    3    3  502    0  0.49412920753E+03 -0.34967526424E+03 -0.10831093181E+03  0.61495474224E+03  0.12699999809E+01 0.  1.
       -4    1    3    3    0  502 -0.49412920753E+03  0.34967526424E+03 -0.66022304743E+03  0.89573017668E+03  0.12699999809E+01 0. -1.
</event>
<event>
 5   0  0.6688086E-05  0.1300514E+04  0.7818609E-02  0.9029158E-01
        2   -1    0    0  501    0  0.00000000000E+00  0.00000000000E+00  0.81618600140E+03  0.81618600141E+03  0.25500000920E-02 0. -1.
       -2   -1    0    0    0  501  0.00000000000E+00  0.00000000000E+00 -0.51806098145E+03  0.51806098146E+03  0.25500000920E-02 0.  1.
    10030    2    1    2    0    0  0.00000000000E+00  0.00000000000E+00  0.29812501995E+03  0.13342469829E+04  0.13005139306E+04 0.  0.
        5    1    3    3  502    0 -0.79336065843E+02  0.59823626130E+03 -0.99356939386E+02  0.61161648692E+03  0.46999998093E+01 0. -1.
       -5    1    3    3    0  502  0.79336065843E+02 -0.59823626130E+03  0.39748195934E+03  0.72263049595E+03  0.46999998093E+01 0.  1.
</event>
<event>
 5   0  0.6742824E-05  0.1303041E+04  0.7818609E-02  0.9027157E-01
        2   -1    0    0  501    0  0.00000000000E+00  0.00000000000E+00  0.12803774717E+04  0.12803774718E+04  0.25500000920E-02 0. -1.
       -2   -1    0    0    0  501  0.00000000000E+00  0.00000000000E+00 -0.33152623288E+03  0.33152623289E+03  0.25500000920E-02 0.  1.
    10030    2    1    2    0    0  0.00000000000E+00  0.00000000000E+00  0.94885123887E+03  0.16119037046E+04  0.13030406285E+04 0.  0.
        4    1    3    3  502    0 -0.34799787683E+03  0.97041317336E+02 -0.19626689422E+03  0.41114698857E+03  0.12699999809E+01 0.  1.
       -4    1    3    3    0  502  0.34799787683E+03 -0.97041317336E+02  0.11451181331E+04  0.12007567161E+04  0.12699999809E+01 0. -1.
</event>
<event>
 5   0  0.6671239E-05  0.1299513E+04  0.7818609E-02  0.9029952E-01
        2   -1    0    0  501    0  0.00000000000E+00  0.00000000000E+00  0.48884227709E+03  0.48884227710E+03  0.25500000920E-02 0.  1.
       -2   -1    0    0    0  501  0.00000000000E+00  0.00000000000E+00 -0.86363917553E+03  0.86363917554E+03  0.25500000920E-02 0. -1.
    10030    2    1    2    0    0  0.00000000000E+00  0.00000000000E+00 -0.37479689844E+03  0.13524814526E+04  0.12995127412E+04 0.  0.
        1    1    3    3  502    0  0.90843185430E+02  0.56752105647E+03  0.12802358519E+03  0.58883161622E+03  0.50400001928E-02 0.  1.
       -1    1    3    3    0  502 -0.90843185430E+02 -0.56752105647E+03 -0.50282048363E+03  0.76364983641E+03  0.50400001928E-02 0. -1.
</event>
<event>
 5   0  0.3718559E-05  0.1299611E+04  0.7818609E-02  0.9029874E-01
        1   -1    0    0  501    0  0.00000000000E+00  0.00000000000E+00  0.72872090922E+03  0.72872090924E+03  0.50400001928E-02 0.  1.
       -1   -1    0    0    0  501  0.00000000000E+00  0.00000000000E+00 -0.57943622684E+03  0.57943622686E+03  0.50400001928E-02 0. -1.
    10030    2    1    2    0    0  0.00000000000E+00  0.00000000000E+00  0.14928468239E+03  0.13081571361E+04  0.12996111635E+04 0.  0.
        2    1    3    3  502    0 -0.23384221324E+03  0.53021493475E+03  0.37057774049E+03  0.68785021587E+03  0.25500000920E-02 0.  1.
       -2    1    3    3    0  502  0.23384221324E+03 -0.53021493475E+03 -0.22129305810E+03  0.62030692023E+03  0.25500000920E-02 0. -1.
</event>
<event>
 5   0  0.6618060E-05  0.1299033E+04  0.7818609E-02  0.9030332E-01
       -2   -1    0    0    0  501  0.00000000000E+00  0.00000000000E+00  0.32648710363E+03  0.32648710364E+03  0.25500000920E-02 0.  1.
        2   -1    0    0  501    0  0.00000000000E+00  0.00000000000E+00 -0.12921550742E+04  0.12921550742E+04  0.25500000920E-02 0. -1.
    10030    2    1    2    0    0  0.00000000000E+00  0.00000000000E+00 -0.96566797061E+03  0.16186421779E+04  0.12990334370E+04 0.  0.
        2    1    3    3  502    0  0.17862534797E+03 -0.61919574509E+03 -0.58376736171E+03  0.86953707125E+03  0.25500000920E-02 0. -1.
       -2    1    3    3    0  502 -0.17862534797E+03  0.61919574509E+03 -0.38190060890E+03  0.74910510662E+03  0.25500000920E-02 0.  1.
</event>
<event>
 5   0  0.6458698E-05  0.1299719E+04  0.7818609E-02  0.9029788E-01
       -2   -1    0    0    0  501  0.00000000000E+00  0.00000000000E+00  0.32623635594E+03  0.32623635595E+03  0.25500000920E-02 0. -1.
        2   -1    0    0  501    0  0.00000000000E+00  0.00000000000E+00 -0.12945126557E+04  0.12945126557E+04  0.25500000920E-02 0.  1.
    10030    2    1    2    0    0  0.00000000000E+00  0.00000000000E+00 -0.96827629975E+03  0.16207490117E+04  0.12997185719E+04 0.  0.
        3    1    3    3  502    0 -0.31077248075E+03  0.40946046767E+02 -0.11940097523E+04  0.12344696887E+04  0.10100000352E+00 0.  1.
       -3    1    3    3    0  502  0.31077248075E+03 -0.40946046767E+02  0.22573345255E+03  0.38627932295E+03  0.10100000352E+00 0. -1.
</event>
<event>
 5   0  0.2512000E-05  0.1300398E+04  0.7818609E-02  0.9029250E-01
       -4   -1    0    0    0  501  0.00000000000E+00  0.00000000000E+00  0.37629681562E+03  0.37629895874E+03  0.12699999809E+01 0.  1.
        4   -1    0    0  501    0  0.00000000000E+00  0.00000000000E+00 -0.11234656279E+04  0.11234663457E+04  0.12699999809E+01 0. -1.
    10030    2    1    2    0    0  0.00000000000E+00  0.00000000000E+00 -0.74716881231E+03  0.14997653045E+04  0.13003979139E+04 0.  0.
        2    1    3    3  502    0  0.19470735346E+03 -0.48115291093E+03 -0.82520549179E+03  0.97487598230E+03  0.25500000920E-02 0. -1.
       -2    1    3    3    0  502 -0.19470735346E+03  0.48115291093E+03  0.78036679482E+02  0.52488932218E+03  0.25500000920E-02 0.  1.
</event>
<event>
 5   0  0.6671239E-05  0.1302045E+04  0.7818609E-02  0.9027945E-01
        2   -1    0    0  501    0  0.00000000000E+00  0.00000000000E+00  0.12232753707E+04  0.12232753707E+04  0.25500000920E-02 0.  1.
       -2   -1    0    0    0  501  0.00000000000E+00  0.00000000000E+00 -0.34647183869E+03  0.34647183870E+03  0.25500000920E-02 0. -1.
    10030    2    1    2    0    0  0.00000000000E+00  0.00000000000E+00  0.87680353198E+03  0.15697472094E+04  0.13020452633E+04 0.  0.
        1    1    3    3  502    0  0.14643086762E+03  0.21193849390E+03 -0.28241315414E+03  0.38225268325E+03  0.50400001928E-02 0. -1.
       -1    1    3    3    0  502 -0.14643086762E+03 -0.21193849390E+03  0.11592166861E+04  0.11874945261E+04  0.50400001928E-02 0.  1.
</event>
<event>
 5   0  0.3689707E-05  0.1300870E+04  0.7818609E-02  0.9028875E-01
       -1   -1    0    0    0  501  0.00000000000E+00  0.00000000000E+00  0.69991913240E+03  0.69991913241E+03  0.50400001928E-02 0.  1.
        1   -1    0    0  501    0  0.00000000000E+00  0.00000000000E+00 -0.60444975214E+03  0.60444975216E+03  0.50400001928E-02 0. -1.
    10030    2    1    2    0    0  0.00000000000E+00  0.00000000000E+00  0.95469380259E+02  0.13043688846E+04  0.13008703950E+04 0.  0.
        1    1    3    3  502    0  0.58257193550E+03  0.28142902884E+03  0.11479945129E+03  0.65709304695E+03  0.50400001928E-02 0. -1.
       -1    1    3    3    0  502 -0.58257193550E+03 -0.28142902884E+03 -0.19330071031E+02  0.64727583763E+03  0.50400001928E-02 0.  1.
</event>
<event>
 5   0  0.6618060E-05  0.1299814E+04  0.7818609E-02  0.9029713E-01
        2   -1    0    0  501    0  0.00000000000E+00  0.00000000000E+00  0.20067788039E+04  0.20067788039E+04  0.25500000920E-02 0. -1.
       -2   -1    0    0    0  501  0.00000000000E+00  0.00000000000E+00 -0.21047614881E+03  0.21047614882E+03  0.25500000920E-02 0.  1.
    10030    2    1    2    0    0  0.00000000000E+00  0.00000000000E+00  0.17963026551E+04  0.22172549527E+04  0.12998139470E+04 0.  0.
        2    1    3    3  502    0 -0.41845559305E+03  0.36276799242E+03  0.14783158178E+04  0.15786460517E+04  0.25500000920E-02 0.  1.
       -2    1    3    3    0  502  0.41845559305E+03 -0.36276799242E+03  0.31798683733E+03  0.63860890097E+03  0.25500000920E-02 0. -1.
</event>
<event>
 5   0  0.3631841E-05  0.1299955E+04  0.7818609E-02  0.9029601E-01
       -1   -1    0    0    0  501  0.00000000000E+00  0.00000000000E+00  0.54950328133E+03  0.54950328136E+03  0.50400001928E-02 0. -1.
        1   -1    0    0  501    0  0.00000000000E+00  0.00000000000E+00 -0.76882342649E+03  0.76882342650E+03  0.50400001928E-02 0.  1.
    10030    2    1    2    0    0  0.00000000000E+00  0.00000000000E+00 -0.21932014515E+03  0.13183267079E+04  0.12999553772E+04 0.  0.
        3    1    3    3  502    0 -0.30439124250E+03  0.24340108852E+03 -0.63717739753E+03  0.74692246219E+03  0.10100000352E+00 0.  1.
       -3    1    3    3    0  502  0.30439124250E+03 -0.24340108852E+03  0.41785725238E+03  0.57140424567E+03  0.10100000352E+00 0. -1.
</event>
<event>
 5   0  0.6688086E-05  0.1298560E+04  0.7818609E-02  0.9030708E-01
       -2   -1    0    0    0  501  0.00000000000E+00  0.00000000000E+00  0.57644027933E+03  0.57644027933E+03  0.25500000920E-02 0. -1.
        2   -1    0    0  501    0  0.00000000000E+00  0.00000000000E+00 -0.73132364133E+03  0.73132364133E+03  0.25500000920E-02 0.  1.
    10030    2    1    2    0    0  0.00000000000E+00  0.00000000000E+00 -0.15488336200E+03  0.13077639207E+04  0.12985598239E+04 0.  0.
        5    1    3    3  502    0  0.81468561243E+02  0.42569141923E+01 -0.72612441380E+03  0.73070787741E+03  0.46999998093E+01 0.  1.
       -5    1    3    3    0  502 -0.81468561243E+02 -0.42569141923E+01  0.57124105181E+03  0.57705604325E+03  0.46999998093E+01 0. -1.
</event>
<event>
 5   0  0.3551277E-05  0.1297859E+04  0.7818609E-02  0.9031265E-01
       -1   -1    0    0    0  501  0.00000000000E+00  0.00000000000E+00  0.42779706683E+03  0.42779706686E+03  0.50400001928E-02 0.  1.
        1   -1    0    0  501    0  0.00000000000E+00  0.00000000000E+00 -0.98436734003E+03  0.98436734004E+03  0.50400001928E-02 0. -1.
    10030    2    1    2    0    0  0.00000000000E+00  0.00000000000E+00 -0.55657027320E+03  0.14121644069E+04  0.12978589458E+04 0.  0.
        4    1    3    3  502    0 -0.27376984374E+03  0.26834362745E+03 -0.84799218003E+03  0.93061838582E+03  0.12699999809E+01 0. -1.
       -4    1    3    3    0  502  0.27376984374E+03 -0.26834362745E+03  0.29142190683E+03  0.48154602108E+03  0.12699999809E+01 0.  1.
</event>
<event>
 5   0  0.6742824E-05  0.1299926E+04  0.7818609E-02  0.9029624E-01
       -2   -1    0    0    0  501  0.00000000000E+00  0.00000000000E+00  0.36514443198E+03  0.36514443199E+03  0.25500000920E-02 0. -1.
        2   -1    0    0  501    0  0.00000000000E+00  0.00000000000E+00 -0.11569444846E+04  0.11569444846E+04  0.25500000920E-02 0.  1.
    10030    2    1    2    0    0  0.00000000000E+00  0.00000000000E+00 -0.79180005262E+03  0.15220889166E+04  0.12999259005E+04 0.  0.
        4    1    3    3  502    0  0.58953239013E+03 -0.19339304915E+03 -0.62264744352E+03  0.87899986479E+03  0.12699999809E+01 0.  1.
       -4    1    3    3    0  502 -0.58953239013E+03  0.19339304915E+03 -0.16915260910E+03  0.64308905180E+03  0.12699999809E+01 0. -1.
</event>
<event>
 5   0  0.3689707E-05  0.1299030E+04  0.7818609E-02  0.9030335E-01
        1   -1    0    0  501    0  0.00000000000E+00  0.00000000000E+00  0.13688001269E+04  0.13688001269E+04  0.50400001928E-02 0.  1.
       -1   -1    0    0    0  501  0.00000000000E+00  0.00000000000E+00 -0.30820392772E+03  0.30820392776E+03  0.50400001928E-02 0. -1.
    10030    2    1    2    0    0  0.00000000000E+00  0.00000000000E+00  0.10605961992E+04  0.16770040547E+04  0.12990297539E+04 0.  0.
        1    1    3    3  502    0 -0.42313833034E+03 -0.93830460032E+02  0.11548102901E+04  0.12334654466E+04  0.50400001928E-02 0.  1.
       -1    1    3    3    0  502  0.42313833034E+03  0.93830460032E+02 -0.94214090968E+02  0.44353860801E+03  0.50400001928E-02 0. -1.
</event>
<event>
 5   0  0.6671239E-05  0.1299944E+04  0.7818609E-02  0.9029610E-01
        2   -1    0    0  501    0  0.00000000000E+00  0.00000000000E+00  0.11400718948E+04  0.11400718948E+04  0.25500000920E-02 0.  1.
       -2   -1    0    0    0  501  0.00000000000E+00  0.00000000000E+00 -0.37055863509E+03  0.37055863510E+03  0.25500000920E-02 0. -1.
    10030    2    1    2    0    0  0.00000000000E+00  0.00000000000E+00  0.76951325967E+03  0.15106305299E+04  0.12999438222E+04 0.  0.
        1    1    3    3  502    0 -0.41344472946E+03  0.12614746963E+03 -0.17931465949E+03  0.46797807165E+03  0.50400001928E-02 0. -1.
       -1    1    3    3    0  502  0.41344472946E+03 -0.12614746963E+03  0.94882791916E+03  0.10426524582E+04  0.50400001928E-02 0.  1.
</event>
<event>
 5   0  0.3551277E-05  0.1298961E+04  0.7818609E-02  0.9030390E-01
       -1   -1    0    0    0  501  0.00000000000E+00  0.00000000000E+00  0.37915492248E+03  0.37915492251E+03  0.50400001928E-02 0. -1.
        1   -1    0    0  501    0  0.00000000000E+00  0.00000000000E+00 -0.11125396935E+04  0.11125396935E+04  0.50400001928E-02 0.  1.
    10030    2    1    2    0    0  0.00000000000E+00  0.00000000000E+00 -0.73338477102E+03  0.14916946160E+04  0.12989609714E+04 0.  0.
        4    1    3    3  502    0 -0.24160260360E+03 -0.47424365266E+03 -0.79413552610E+03  0.95599775464E+03  0.12699999809E+01 0.  1.
       -4    1    3    3    0  502  0.24160260360E+03  0.47424365266E+03  0.60750755079E+02  0.53569686139E+03  0.12699999809E+01 0. -1.
</event>
<event>
 5   0  0.2512000E-05  0.1299827E+04  0.7818609E-02  0.9029703E-01
        3   -1    0    0  501    0  0.00000000000E+00  0.00000000000E+00  0.94786071514E+03  0.94786072052E+03  0.10100000352E+00 0. -1.
       -3   -1    0    0    0  501  0.00000000000E+00  0.00000000000E+00 -0.44562177902E+03  0.44562179046E+03  0.10100000352E+00 0.  1.
    10030    2    1    2    0    0  0.00000000000E+00  0.00000000000E+00  0.50223893612E+03  0.13934825110E+04  0.12998267421E+04 0.  0.
        1    1    3    3  502    0  0.12781624369E+03  0.16567678979E+02  0.93402272620E+03  0.94287323285E+03  0.50400001928E-02 0. -1.
       -1    1    3    3    0  502 -0.12781624369E+03 -0.16567678979E+02 -0.43178379008E+03  0.45060927813E+03  0.50400001928E-02 0.  1.
</event>
<event>
 5   0  0.6458698E-05  0.1299620E+04  0.7818609E-02  0.9029867E-01
       -2   -1    0    0    0  501  0.00000000000E+00  0.00000000000E+00  0.47718488075E+03  0.47718488075E+03  0.25500000920E-02 0.  1.
        2   -1    0    0  501    0  0.00000000000E+00  0.00000000000E+00 -0.88488337106E+03  0.88488337106E+03  0.25500000920E-02 0. -1.
    10030    2    1    2    0    0  0.00000000000E+00  0.00000000000E+00 -0.40769849031E+03  0.13620682518E+04  0.12996198920E+04 0.  0.
        3    1    3    3  502    0  0.30035580562E+03 -0.24640514716E+03  0.34206761203E+03  0.51762860037E+03  0.10100000352E+00 0.  1.
       -3    1    3    3    0  502 -0.30035580562E+03  0.24640514716E+03 -0.74976610234E+03  0.84443965145E+03  0.10100000352E+00 0. -1.
</event>
<event>
 5   0  0.3631841E-05  0.1299791E+04  0.7818609E-02  0.9029731E-01
       -1   -1    0    0    0  501  0.00000000000E+00  0.00000000000E+00  0.39613030093E+03  0.39613030096E+03  0.50400001928E-02 0.  1.
        1   -1    0    0  501    0  0.00000000000E+00  0.00000000000E+00 -0.10662257520E+04  0.10662257520E+04  0.50400001928E-02 0. -1.
    10030    2    1    2    0    0  0.00000000000E+00  0.00000000000E+00 -0.67009545107E+03  0.14623560530E+04  0.12997912571E+04 0.  0.
        3    1    3    3  502    0 -0.30166805023E+02  0.16377412914E+03  0.37171858366E+03  0.40731648278E+03  0.10100000352E+00 0.  1.
       -3    1    3    3    0  502  0.30166805023E+02 -0.16377412914E+03 -0.10418140347E+04  0.10550395702E+04  0.10100000352E+00 0. -1.
</event>
<event>
 5   0  0.6671239E-05  0.1300035E+04  0.7818609E-02  0.9029537E-01
       -2   -1    0    0    0  501  0.00000000000E+00  0.00000000000E+00  0.82490330206E+03  0.82490330207E+03  0.25500000920E-02 0.  1.
        2   -1    0    0  501    0  0.00000000000E+00  0.00000000000E+00 -0.51220875589E+03  0.51220875590E+03  0.25500000920E-02 0. -1.
    10030    2    1    2    0    0  0.00000000000E+00  0.00000000000E+00  0.31269454617E+03  0.13371120580E+04  0.13000349135E+04 0.  0.
        1    1    3    3  502    0  0.34646759393E+03 -0.54227387794E+03  0.25073573418E+03  0.69062953945E+03  0.50400001928E-02 0.  1.
       -1    1    3    3    0  502 -0.34646759393E+03  0.54227387794E+03  0.61958811986E+02  0.64648251852E+03  0.50400001928E-02 0. -1.
</event>
<event>
 5   0  0.3551277E-05  0.1300823E+04  0.7818609E-02  0.9028913E-01
       -1   -1    0    0    0  501  0.00000000000E+00  0.00000000000E+00  0.38115620329E+03  0.38115620332E+03  0.50400001928E-02 0.  1.
        1   -1    0    0  501    0  0.00000000000E+00  0.00000000000E+00 -0.11098734731E+04  0.11098734731E+04  0.50400001928E-02 0. -1.
    10030    2    1    2    0    0  0.00000000000E+00  0.00000000000E+00 -0.72871726983E+03  0.14910296765E+04  0.13008230613E+04 0.  0.
        4    1    3    3  502    0  0.95588470348E+01  0.57968393045E+03 -0.26449661111E+02  0.58036714953E+03  0.12699999809E+01 0.  1.
       -4    1    3    3    0  502 -0.95588470348E+01 -0.57968393045E+03 -0.70226760872E+03  0.91066252692E+03  0.12699999809E+01 0. -1.
</event>
<event>
 5   0  0.6458698E-05  0.1300096E+04  0.7818609E-02  0.9029489E-01
       -2   -1    0    0    0  501  0.00000000000E+00  0.00000000000E+00  0.91964461442E+03  0.91964461443E+03  0.25500000920E-02 0. -1.
        2   -1    0    0  501    0  0.00000000000E+00  0.00000000000E+00 -0.45948427412E+03  0.45948427413E+03  0.25500000920E-02 0.  1.
    10030    2    1    2    0    0  0.00000000000E+00  0.00000000000E+00  0.46016034030E+03  0.13791288886E+04  0.13000957474E+04 0.  0.
        3    1    3    3  502    0  0.22366182644E+03  0.37928689082E+03 -0.27719397355E+03  0.52030728164E+03  0.10100000352E+00 0.  1.
       -3    1    3    3    0  502 -0.22366182644E+03 -0.37928689082E+03  0.73735431385E+03  0.85882160692E+03  0.10100000352E+00 0. -1.
</event>
<event>
 5   0  0.3551277E-05  0.1299888E+04  0.7818609E-02  0.9029654E-01
       -1   -1    0    0    0  501  0.00000000000E+00  0.00000000000E+00  0.27967879538E+03  0.27967879543E+03  0.50400001928E-02 0.  1.
        1   -1    0    0  501    0  0.00000000000E+00  0.00000000000E+00 -0.15104017251E+04  0.15104017251E+04  0.50400001928E-02 0. -1.
    10030    2    1    2    0    0  0.00000000000E+00  0.00000000000E+00 -0.12307229297E+04  0.17900805205E+04  0.12998882030E+04 0.  0.
        4    1    3    3  502    0 -0.43712533140E+03 -0.16755283216E+03  0.55170657135E+01  0.46817150471E+03  0.12699999809E+01 0.  1.
       -4    1    3    3    0  502  0.43712533140E+03  0.16755283216E+03 -0.12362399954E+04  0.13219090158E+04  0.12699999809E+01 0. -1.
</event>
<event>
 5   0  0.3552698E-05  0.1300450E+04  0.7818609E-02  0.9029208E-01
       -1   -1    0    0    0  501  0.00000000000E+00  0.00000000000E+00  0.95775577044E+03  0.95775577045E+03  0.50400001928E-02 0. -1.
        1   -1    0    0  501    0  0.00000000000E+00  0.00000000000E+00 -0.44144103852E+03  0.44144103855E+03  0.50400001928E-02 0.  1.
    10030    2    1    2    0    0  0.00000000000E+00  0.00000000000E+00  0.51631473192E+03  0.13991968090E+04  0.13004502328E+04 0.  0.
        5    1    3    3  502    0 -0.55438210060E+01 -0.25027306817E+03 -0.38749478391E+03  0.46134763483E+03  0.46999998093E+01 0.  1.
       -5    1    3    3    0  502  0.55438210060E+01  0.25027306817E+03  0.90380951583E+03  0.93784917418E+03  0.46999998093E+01 0. -1.
</event>
<event>
 5   0  0.3551277E-05  0.1300093E+04  0.7818609E-02  0.9029492E-01
        1   -1    0    0  501    0  0.00000000000E+00  0.00000000000E+00  0.27204683552E+04  0.27204683552E+04  0.50400001928E-02 0.  1.
       -1   -1    0    0    0  501  0.00000000000E+00  0.00000000000E+00 -0.15532628909E+03  0.15532628917E+03  0.50400001928E-02 0. -1.
    10030    2    1    2    0    0  0.00000000000E+00  0.00000000000E+00  0.25651420661E+04  0.28757946444E+04  0.13000926957E+04 0.  0.
        4    1    3    3  502    0  0.64265437069E+03  0.61217265585E+02  0.14511249349E+04  0.15882434899E+04  0.12699999809E+01 0. -1.
       -4    1    3    3    0  502 -0.64265437069E+03 -0.61217265585E+02  0.11140171313E+04  0.12875511545E+04  0.12699999809E+01 0.  1.
</event>
<event>
 5   0  0.3631841E-05  0.1299788E+04  0.7818609E-02  0.9029733E-01
        1   -1    0    0  501    0  0.00000000000E+00  0.00000000000E+00  0.11324630921E+04  0.11324630921E+04  0.50400001928E-02 0. -1.
       -1   -1    0    0    0  501  0.00000000000E+00  0.00000000000E+00 -0.37295880207E+03  0.37295880210E+03  0.50400001928E-02 0.  1.
    10030    2    1    2    0    0  0.00000000000E+00  0.00000000000E+00  0.75950429004E+03  0.15054218942E+04  0.12997877954E+04 0.  0.
        3    1    3    3  502    0 -0.45615449283E+03  0.11674515841E+02  0.91572605398E+03  0.10231165289E+04  0.10100000352E+00 0. -1.
       -3    1    3    3    0  502  0.45615449283E+03 -0.11674515841E+02 -0.15622176394E+03  0.48230536528E+03  0.10100000352E+00 0.  1.
</event>
<event>
 5   0  0.6618060E-05  0.1300425E+04  0.7818609E-02  0.9029228E-01
        2   -1    0    0  501    0  0.00000000000E+00  0.00000000000E+00  0.10026399898E+04  0.10026399898E+04  0.25500000920E-02 0.  1.
       -2   -1    0    0    0  501  0.00000000000E+00  0.00000000000E+00 -0.42166323944E+03  0.42166323945E+03  0.25500000920E-02 0. -1.
    10030    2    1    2    0    0  0.00000000000E+00  0.00000000000E+00  0.58097675040E+03  0.14243032293E+04  0.13004252014E+04 0.  0.
        2    1    3    3  502    0 -0.50926598843E+03 -0.78936344002E+02 -0.14375635525E+03  0.53502213324E+03  0.25500000920E-02 0. -1.
       -2    1    3    3    0  502  0.50926598843E+03  0.78936344002E+02  0.72473310565E+03  0.88928109606E+03  0.25500000920E-02 0.  1.
</event>
<event>
 5   0  0.6742824E-05  0.1300506E+04  0.7818609E-02  0.9029164E-01
       -2   -1    0    0    0  501  0.00000000000E+00  0.00000000000E+00  0.23090511448E+03  0.23090511450E+03  0.25500000920E-02 0.  1.
        2   -1    0    0  501    0  0.00000000000E+00  0.00000000000E+00 -0.18311807835E+04  0.18311807835E+04  0.25500000920E-02 0. -1.
    10030    2    1    2    0    0  0.00000000000E+00  0.00000000000E+00 -0.16002756690E+04  0.20620858980E+04  0.13005060684E+04 0.  0.
        4    1    3    3  502    0 -0.61524415056E+03 -0.20806074620E+03 -0.74967787187E+03  0.99188364407E+03  0.12699999809E+01 0.  1.
       -4    1    3    3    0  502  0.61524415056E+03  0.20806074620E+03 -0.85059779717E+03  0.10702022539E+04  0.12699999809E+01 0. -1.
</event>
<event>
 5   0  0.6688086E-05  0.1300199E+04  0.7818609E-02  0.9029408E-01
       -2   -1    0    0    0  501  0.00000000000E+00  0.00000000000E+00  0.20437546726E+03  0.20437546728E+03  0.25500000920E-02 0. -1.
        2   -1    0    0  501    0  0.00000000000E+00  0.00000000000E+00 -0.20679052429E+04  0.20679052429E+04  0.25500000920E-02 0.  1.
    10030    2    1    2    0    0  0.00000000000E+00  0.00000000000E+00 -0.18635297756E+04  0.22722807102E+04  0.13001986007E+04 0.  0.
        5    1    3    3  502    0  0.41617054344E+03 -0.22859346419E+03 -0.15577651699E+03  0.49974123938E+03  0.46999998093E+01 0. -1.
       -5    1    3    3    0  502 -0.41617054344E+03  0.22859346419E+03 -0.17077532587E+04  0.17725394708E+04  0.46999998093E+01 0.  1.
</event>
<event>
 5   0  0.6688086E-05  0.1300077E+04  0.7818609E-02  0.9029504E-01
        2   -1    0    0  501    0  0.00000000000E+00  0.00000000000E+00  0.27591571653E+04  0.27591571653E+04  0.25500000920E-02 0. -1.
       -2   -1    0    0    0  501  0.00000000000E+00  0.00000000000E+00 -0.15314454677E+03  0.15314454679E+03  0.25500000920E-02 0.  1.
    10030    2    1    2    0    0  0.00000000000E+00  0.00000000000E+00  0.26060126185E+04  0.29123017120E+04  0.13000767263E+04 0.  0.
        5    1    3    3  502    0 -0.20704968978E+03 -0.24933070132E+03  0.25652233995E+04  0.25856195683E+04  0.46999998093E+01 0. -1.
       -5    1    3    3    0  502  0.20704968978E+03  0.24933070132E+03  0.40789218992E+02  0.32668214375E+03  0.46999998093E+01 0.  1.
</event>
<event>
 5   0  0.3551277E-05  0.1301204E+04  0.7818609E-02  0.9028611E-01
        1   -1    0    0  501    0  0.00000000000E+00  0.00000000000E+00  0.65336967135E+03  0.65336967137E+03  0.50400001928E-02 0.  1.
       -1   -1    0    0    0  501  0.00000000000E+00  0.00000000000E+00 -0.64784560486E+03  0.64784560488E+03  0.50400001928E-02 0. -1.
    10030    2    1    2    0    0  0.00000000000E+00  0.00000000000E+00  0.55240664901E+01  0.13012152762E+04  0.13012035505E+04 0.  0.
        4    1    3    3  502    0 -0.35540023187E+03 -0.29312485602E+03 -0.45664340291E+03  0.64865731812E+03  0.12699999809E+01 0. -1.
       -4    1    3    3    0  502  0.35540023187E+03  0.29312485602E+03  0.46216746941E+03  0.65255795812E+03  0.12699999809E+01 0.  1.
</event>
<event>
 5   0  0.3689707E-05  0.1299720E+04  0.7818609E-02  0.9029787E-01
       -1   -1    0    0    0  501  0.00000000000E+00  0.00000000000E+00  0.49861448792E+03  0.49861448795E+03  0.50400001928E-02 0. -1.
        1   -1    0    0  501    0  0.00000000000E+00  0.00000000000E+00 -0.84698269088E+03  0.84698269089E+03  0.50400001928E-02 0.  1.
    10030    2    1    2    0    0  0.00000000000E+00  0.00000000000E+00 -0.34836820296E+03  0.13455971788E+04  0.12997197247E+04 0.  0.
        1    1    3    3  502    0  0.42008776383E+03  0.26367879976E+03  0.26053947419E+03  0.56025088702E+03  0.50400001928E-02 0. -1.
       -1    1    3    3    0  502 -0.42008776383E+03 -0.26367879976E+03 -0.60890767715E+03  0.78534629182E+03  0.50400001928E-02 0.  1.
</event>
<event>
 5   0  0.6458698E-05  0.1300700E+04  0.7818609E-02  0.9029010E-01
        2   -1    0    0  501    0  0.00000000000E+00  0.00000000000E+00  0.77399581974E+03  0.77399581975E+03  0.25500000920E-02 0.  1.
       -2   -1    0    0    0  501  0.00000000000E+00  0.00000000000E+00 -0.54645639235E+03  0.54645639236E+03  0.25500000920E-02 0. -1.
    10030    2    1    2    0    0  0.00000000000E+00  0.00000000000E+00  0.22753942739E+03  0.13204522121E+04  0.13006997553E+04 0.  0.
        3    1    3    3  502    0 -0.18710755674E+03 -0.28864666664E+03 -0.44654383238E+03  0.56367325676E+03  0.10100000352E+00 0. -1.
       -3    1    3    3    0  502  0.18710755674E+03  0.28864666664E+03  0.67408325977E+03  0.75677895535E+03  0.10100000352E+00 0.  1.
</event>
<event>
 5   0  0.6671239E-05  0.1299996E+04  0.7818609E-02  0.9029568E-01
        2   -1    0    0  501    0  0.00000000000E+00  0.00000000000E+00  0.12669057245E+04  0.12669057245E+04  0.25500000920E-02 0.  1.
       -2   -1    0    0    0  501  0.00000000000E+00  0.00000000000E+00 -0.33348779078E+03  0.33348779079E+03  0.25500000920E-02 0. -1.
    10030    2    1    2    0    0  0.00000000000E+00  0.00000000000E+00  0.93341793374E+03  0.16003935153E+04  0.12999962941E+04 0.  0.
        1    1    3    3  502    0  0.13200225987E+03  0.62644143972E+03  0.60513855430E+03  0.88093481253E+03  0.50400001928E-02 0.  1.
       -1    1    3    3    0  502 -0.13200225987E+03 -0.62644143972E+03  0.32827937944E+03  0.71945870277E+03  0.50400001928E-02 0. -1.
</event>
<event>
 5   0  0.2512000E-05  0.1299738E+04  0.7818609E-02  0.9029773E-01
        3   -1    0    0  501    0  0.00000000000E+00  0.00000000000E+00  0.12880435420E+04  0.12880435459E+04  0.10100000352E+00 0.  1.
       -3   -1    0    0    0  501  0.00000000000E+00  0.00000000000E+00 -0.32788454146E+03  0.32788455702E+03  0.10100000352E+00 0. -1.
    10030    2    1    2    0    0  0.00000000000E+00  0.00000000000E+00  0.96015900051E+03  0.16159281029E+04  0.12997377919E+04 0.  0.
        4    1    3    3  502    0 -0.63170101539E+03 -0.13998510950E+03  0.40459775948E+03  0.76311399122E+03  0.12699999809E+01 0. -1.
       -4    1    3    3    0  502  0.63170101539E+03  0.13998510950E+03  0.55556124103E+03  0.85281411172E+03  0.12699999809E+01 0.  1.
</event>
<event>
 5   0  0.6688086E-05  0.1297857E+04  0.7818609E-02  0.9031266E-01
        2   -1    0    0  501    0  0.00000000000E+00  0.00000000000E+00  0.12395266333E+04  0.12395266333E+04  0.25500000920E-02 0. -1.
       -2   -1    0    0    0  501  0.00000000000E+00  0.00000000000E+00 -0.33973315275E+03  0.33973315276E+03  0.25500000920E-02 0.  1.
    10030    2    1    2    0    0  0.00000000000E+00  0.00000000000E+00  0.89979348054E+03  0.15792597861E+04  0.12978571432E+04 0.  0.
        5    1    3    3  502    0 -0.36309118777E+03  0.11677163435E+03  0.10887165954E+04  0.11536016385E+04  0.46999998093E+01 0. -1.
       -5    1    3    3    0  502  0.36309118777E+03 -0.11677163435E+03 -0.18892311489E+03  0.42565814754E+03  0.46999998093E+01 0.  1.
</event>
<event>
 5   0  0.3631841E-05  0.1300006E+04  0.7818609E-02  0.9029560E-01
       -1   -1    0    0    0  501  0.00000000000E+00  0.00000000000E+00  0.42497846107E+03  0.42497846110E+03  0.50400001928E-02 0. -1.
        1   -1    0    0  501    0  0.00000000000E+00  0.00000000000E+00 -0.99417794399E+03  0.99417794400E+03  0.50400001928E-02 0.  1.
    10030    2    1    2    0    0  0.00000000000E+00  0.00000000000E+00 -0.56919948291E+03  0.14191564051E+04  0.13000064811E+04 0.  0.
        3    1    3    3  502    0 -0.57445061748E+03 -0.14474475555E+03  0.74244545484E+01  0.59245226719E+03  0.10100000352E+00 0. -1.
       -3    1    3    3    0  502  0.57445061748E+03  0.14474475555E+03 -0.57662393746E+03  0.82670413791E+03  0.10100000352E+00 0.  1.
</event>
<event>
 5   0  0.2512000E-05  0.1300027E+04  0.7818609E-02  0.9029544E-01
        3   -1    0    0  501    0  0.00000000000E+00  0.00000000000E+00  0.74433740436E+03  0.74433741122E+03  0.10100000352E+00 0.  1.
       -3   -1    0    0    0  501  0.00000000000E+00  0.00000000000E+00 -0.56764229547E+03  0.56764230445E+03  0.10100000352E+00 0. -1.
    10030    2    1    2    0    0  0.00000000000E+00  0.00000000000E+00  0.17669510890E+03  0.13119797157E+04  0.13000267739E+04 0.  0.
        3    1    3    3  502    0 -0.55662802938E+03  0.28500263443E+03 -0.90641905426E+02  0.63188387378E+03  0.10100000352E+00 0. -1.
       -3    1    3    3    0  502  0.55662802938E+03 -0.28500263443E+03  0.26733701432E+03  0.68009584189E+03  0.10100000352E+00 0.  1.
</event>
<event>
 5   0  0.6618060E-05  0.1300090E+04  0.7818609E-02  0.9029494E-01
        2   -1    0    0  501    0  0.00000000000E+00  0.00000000000E+00  0.88584513018E+03  0.88584513018E+03  0.25500000920E-02 0. -1.
       -2   -1    0    0    0  501  0.00000000000E+00  0.00000000000E+00 -0.47701158093E+03  0.47701158093E+03  0.25500000920E-02 0.  1.
    10030    2    1    2    0    0  0.00000000000E+00  0.00000000000E+00  0.40883354925E+03  0.13628567111E+04  0.13000898215E+04 0.  0.
        2    1    3    3  502    0  0.31609338555E+03 -0.71248544219E+02  0.79515425166E+03  0.85863942804E+03  0.25500000920E-02 0. -1.
       -2    1    3    3    0  502 -0.31609338555E+03  0.71248544219E+02 -0.38632070241E+03  0.50421728308E+03  0.25500000920E-02 0.  1.
</event>
<event>
 5   0  0.3689707E-05  0.1299830E+04  0.7818609E-02  0.9029700E-01
        1   -1    0    0  501    0  0.00000000000E+00  0.00000000000E+00  0.12875273309E+04  0.12875273309E+04  0.50400001928E-02 0.  1.
       -1   -1    0    0    0  501  0.00000000000E+00  0.00000000000E+00 -0.32806244430E+03  0.32806244433E+03  0.50400001928E-02 0. -1.
    10030    2    1    2    0    0  0.00000000000E+00  0.00000000000E+00  0.95946488658E+03  0.16155897752E+04  0.12998297786E+04 0.  0.
        1    1    3    3  502    0  0.47623695109E+03 -0.25424038127E+03  0.92950881061E+03  0.10749076398E+04  0.50400001928E-02 0.  1.
       -1    1    3    3    0  502 -0.47623695109E+03  0.25424038127E+03  0.29956075969E+02  0.54068213543E+03  0.50400001928E-02 0. -1.
</event>
<event>
 5   0  0.6458698E-05  0.1299958E+04  0.7818609E-02  0.9029599E-01
        2   -1    0    0  501    0  0.00000000000E+00  0.00000000000E+00  0.84601698360E+03  0.84601698360E+03  0.25500000920E-02 0.  1.
       -2   -1    0    0    0  501  0.00000000000E+00  0.00000000000E+00 -0.49936630734E+03  0.49936630734E+03  0.25500000920E-02 0. -1.
    10030    2    1    2    0    0  0.00000000000E+00  0.00000000000E+00  0.34665067626E+03  0.13453832909E+04  0.12999575025E+04 0.  0.
        3    1    3    3  502    0  0.13352286103E+02 -0.32554482404E+03  0.75539709718E+03  0.82266791637E+03  0.10100000352E+00 0.  1.
       -3    1    3    3    0  502 -0.13352286103E+02  0.32554482404E+03 -0.40874642092E+03  0.52271537457E+03  0.10100000352E+00 0. -1.
</event>
<event>
 5   0  0.6618060E-05  0.1300761E+04  0.7818609E-02  0.9028962E-01
       -2   -1    0    0    0  501  0.00000000000E+00  0.00000000000E+00  0.55857369922E+03  0.55857369922E+03  0.25500000920E-02 0. -1.
        2   -1    0    0  501    0  0.00000000000E+00  0.00000000000E+00 -0.75727651247E+03  0.75727651248E+03  0.25500000920E-02 0.  1.
    10030    2    1    2    0    0  0.00000000000E+00  0.00000000000E+00 -0.19870281325E+03  0.13158502117E+04  0.13007609202E+04 0.  0.
        2    1    3    3  502    0 -0.29828728814E+02  0.57644696118E+02  0.55528931708E+03  0.55906966447E+03  0.25500000920E-02 0. -1.
       -2    1    3    3    0  502  0.29828728814E+02 -0.57644696118E+02 -0.75399213034E+03  0.75678054723E+03  0.25500000920E-02 0.  1.
</event>
<event>
 5   0  0.3689707E-05  0.1299737E+04  0.7818609E-02  0.9029773E-01
       -1   -1    0    0    0  501  0.00000000000E+00  0.00000000000E+00  0.30914245605E+03  0.30914245609E+03  0.50400001928E-02 0.  1.
        1   -1    0    0  501    0  0.00000000000E+00  0.00000000000E+00 -0.13661317682E+04  0.13661317682E+04  0.50400001928E-02 0. -1.
    10030    2    1    2    0    0  0.00000000000E+00  0.00000000000E+00 -0.10569893122E+04  0.16752742243E+04  0.12997374045E+04 0.  0.
        1    1    3    3  502    0 -0.41684270684E+03 -0.39868841981E+03 -0.14263407599E+03  0.59418412803E+03  0.50400001928E-02 0.  1.
       -1    1    3    3    0  502  0.41684270684E+03  0.39868841981E+03 -0.91435523616E+03  0.10810900963E+04  0.50400001928E-02 0. -1.
</event>
<event>
 5   0  0.6688086E-05  0.1299991E+04  0.7818609E-02  0.9029572E-01
        2   -1    0    0  501    0  0.00000000000E+00  0.00000000000E+00  0.11804203601E+04  0.11804203601E+04  0.25500000920E-02 0.  1.
       -2   -1    0    0    0  501  0.00000000000E+00  0.00000000000E+00 -0.35791860057E+03  0.35791860057E+03  0.25500000920E-02 0. -1.
    10030    2    1    2    0    0  0.00000000000E+00  0.00000000000E+00  0.82250175951E+03  0.15383389607E+04  0.12999913898E+04 0.  0.
        5    1    3    3  502    0  0.49886792104E+03  0.10473036791E+03  0.88847030959E+03  0.10243237934E+04  0.46999998093E+01 0.  1.
       -5    1    3    3    0  502 -0.49886792104E+03 -0.10473036791E+03 -0.65968550084E+02  0.51401516729E+03  0.46999998093E+01 0. -1.
</event>
<event>
 5   0  0.6618060E-05  0.1300028E+04  0.7818609E-02  0.9029543E-01
        2   -1    0    0  501    0  0.00000000000E+00  0.00000000000E+00  0.95616353265E+03  0.95616353265E+03  0.25500000920E-02 0.  1.
       -2   -1    0    0    0  501  0.00000000000E+00  0.00000000000E+00 -0.44188902178E+03  0.44188902179E+03  0.25500000920E-02 0. -1.
    10030    2    1    2    0    0  0.00000000000E+00  0.00000000000E+00  0.51427451086E+03  0.13980525544E+04  0.13000279506E+04 0.  0.
        2    1    3    3  502    0  0.17085147344E+03 -0.27924567385E+03 -0.34676560216E+03  0.47688023149E+03  0.25500000920E-02 0. -1.
       -2    1    3    3    0  502 -0.17085147344E+03  0.27924567385E+03  0.86104011302E+03  0.92117232295E+03  0.25500000920E-02 0.  1.
</event>
<event>
 5   0  0.6688086E-05  0.1299757E+04  0.7818609E-02  0.9029758E-01
       -2   -1    0    0    0  501  0.00000000000E+00  0.00000000000E+00  0.54872502365E+03  0.54872502366E+03  0.25500000920E-02 0.  1.
        2   -1    0    0  501    0  0.00000000000E+00  0.00000000000E+00 -0.76967940105E+03  0.76967940105E+03  0.25500000920E-02 0. -1.
    10030    2    1    2    0    0  0.00000000000E+00  0.00000000000E+00 -0.22095437740E+03  0.13184044247E+04  0.12997574351E+04 0.  0.
        5    1    3    3  502    0  0.34252919632E+03 -0.80119143247E+02  0.44378213958E+03  0.56631263879E+03  0.46999998093E+01 0.  1.
       -5    1    3    3    0  502 -0.34252919632E+03  0.80119143247E+02 -0.66473651698E+03  0.75209178592E+03  0.46999998093E+01 0. -1.
</event>
<event>
 5   0  0.3689707E-05  0.1300079E+04  0.7818609E-02  0.9029502E-01
       -1   -1    0    0    0  501  0.00000000000E+00  0.00000000000E+00  0.70912644965E+03  0.70912644967E+03  0.50400001928E-02 0. -1.
        1   -1    0    0  501    0  0.00000000000E+00  0.00000000000E+00 -0.59587616913E+03  0.59587616915E+03  0.50400001928E-02 0.  1.
    10030    2    1    2    0    0  0.00000000000E+00  0.00000000000E+00  0.11325028052E+03  0.13050026188E+04  0.13000793088E+04 0.  0.
        1    1    3    3  502    0  0.59737761654E+03 -0.26813594188E+02  0.31248758694E+03  0.67470547471E+03  0.50400001928E-02 0. -1.
       -1    1    3    3    0  502 -0.59737761654E+03  0.26813594188E+02 -0.19923730642E+03  0.63029714411E+03  0.50400001928E-02 0.  1.
</event>
<event>
 5   0  0.6742824E-05  0.1298843E+04  0.7818609E-02  0.9030483E-01
        2   -1    0    0  501    0  0.00000000000E+00  0.00000000000E+00  0.11406763014E+04  0.11406763014E+04  0.25500000920E-02 0. -1.
       -2   -1    0    0    0  501  0.00000000000E+00  0.00000000000E+00 -0.36973525110E+03  0.36973525111E+03  0.25500000920E-02 0.  1.
    10030    2    1    2    0    0  0.00000000000E+00  0.00000000000E+00  0.77094105027E+03  0.15104115525E+04  0.12988429292E+04 0.  0.
        4    1    3    3  502    0  0.70434510324E+02 -0.14281133021E+02 -0.36509521095E+03  0.37210361052E+03  0.12699999809E+01 0.  1.
       -4    1    3    3    0  502 -0.70434510324E+02  0.14281133021E+02  0.11360362612E+04  0.11383079419E+04  0.12699999809E+01 0. -1.
</event>
<event>
 5   0  0.6458698E-05  0.1299732E+04  0.7818609E-02  0.9029778E-01
        2   -1    0    0  501    0  0.00000000000E+00  0.00000000000E+00  0.17407091541E+04  0.17407091541E+04  0.25500000920E-02 0.  1.
       -2   -1    0    0    0  501  0.00000000000E+00  0.00000000000E+00 -0.24261714929E+03  0.24261714930E+03  0.25500000920E-02 0. -1.
    10030    2    1    2    0    0  0.00000000000E+00  0.00000000000E+00  0.14980920048E+04  0.19833263034E+04  0.12997321151E+04 0.  0.
        3    1    3    3  502    0 -0.12329117173E+03  0.61075374924E+02 -0.22013648903E+03  0.25959776280E+03  0.10100000352E+00 0. -1.
       -3    1    3    3    0  502  0.12329117173E+03 -0.61075374924E+02  0.17182284939E+04  0.17237285406E+04  0.10100000352E+00 0.  1.
</event>
<event>
 5   0  0.6688086E-05  0.1301221E+04  0.7818609E-02  0.9028597E-01
        2   -1    0    0  501    0  0.00000000000E+00  0.00000000000E+00  0.36470408075E+03  0.36470408075E+03  0.25500000920E-02 0.  1.
       -2   -1    0    0    0  501  0.00000000000E+00  0.00000000000E+00 -0.11606512343E+04  0.11606512343E+04  0.25500000920E-02 0. -1.
    10030    2    1    2    0    0  0.00000000000E+00  0.00000000000E+00 -0.79594715357E+03  0.15253553151E+04  0.13012213363E+04 0.  0.
        5    1    3    3  502    0 -0.46675529321E+03 -0.42580207272E+03 -0.21597558793E+03  0.66770910841E+03  0.46999998093E+01 0.  1.
       -5    1    3    3    0  502  0.46675529321E+03  0.42580207272E+03 -0.57997156564E+03  0.85764620667E+03  0.46999998093E+01 0. -1.
</event>
<event>
 5   0  0.6458698E-05  0.1300004E+04  0.7818609E-02  0.9029562E-01
        2   -1    0    0  501    0  0.00000000000E+00  0.00000000000E+00  0.60705132852E+03  0.60705132853E+03  0.25500000920E-02 0.  1.
       -2   -1    0    0    0  501  0.00000000000E+00  0.00000000000E+00 -0.69599119850E+03  0.69599119851E+03  0.25500000920E-02 0. -1.
    10030    2    1    2    0    0  0.00000000000E+00  0.00000000000E+00 -0.88939869978E+02  0.13030425270E+04  0.13000036641E+04 0.  0.
        3    1    3    3  502    0 -0.30000371153E+03 -0.80957106302E+02  0.52778151573E+03  0.61246193232E+03  0.10100000352E+00 0.  1.
       -3    1    3    3    0  502  0.30000371153E+03  0.80957106302E+02 -0.61672138571E+03  0.69058059471E+03  0.10100000352E+00 0. -1.
</event>
<event>
 5   0  0.3631841E-05  0.1299982E+04  0.7818609E-02  0.9029580E-01
        1   -1    0    0  501    0  0.00000000000E+00  0.00000000000E+00  0.10344498136E+04  0.10344498136E+04  0.50400001928E-02 0. -1.
       -1   -1    0    0    0  501  0.00000000000E+00  0.00000000000E+00 -0.40841822864E+03  0.40841822867E+03  0.50400001928E-02 0.  1.
    10030    2    1    2    0    0  0.00000000000E+00  0.00000000000E+00  0.62603158497E+03  0.14428680423E+04  0.12999817853E+04 0.  0.
        3    1    3    3  502    0  0.23603459073E+03  0.53398360537E+02 -0.35655261944E+03  0.43092167915E+03  0.10100000352E+00 0.  1.
       -3    1    3    3    0  502 -0.23603459073E+03 -0.53398360537E+02  0.98258420442E+03  0.10119463632E+04  0.10100000352E+00 0. -1.
</event>
<event>
 5   0  0.3631841E-05  0.1299845E+04  0.7818609E-02  0.9029688E-01
       -1   -1    0    0    0  501  0.00000000000E+00  0.00000000000E+00  0.77704565034E+03  0.77704565036E+03  0.50400001928E-02 0.  1.
        1   -1    0    0  501    0  0.00000000000E+00  0.00000000000E+00 -0.54359661157E+03  0.54359661160E+03  0.50400001928E-02 0. -1.
    10030    2    1    2    0    0  0.00000000000E+00  0.00000000000E+00  0.23344903877E+03  0.13206422620E+04  0.12998451948E+04 0.  0.
        3    1    3    3  502    0 -0.10559480554E+03  0.63087069605E+03 -0.23144650566E+00  0.63964690405E+03  0.10100000352E+00 0. -1.
       -3    1    3    3    0  502  0.10559480554E+03 -0.63087069605E+03  0.23368048528E+03  0.68099535791E+03  0.10100000352E+00 0.  1.
</event>
<event>
 5   0  0.6742824E-05  0.1300088E+04  0.7818609E-02  0.9029495E-01
       -2   -1    0    0    0  501  0.00000000000E+00  0.00000000000E+00  0.31405785971E+03  0.31405785972E+03  0.25500000920E-02 0.  1.
        2   -1    0    0  501    0  0.00000000000E+00  0.00000000000E+00 -0.13454762836E+04  0.13454762836E+04  0.25500000920E-02 0. -1.
    10030    2    1    2    0    0  0.00000000000E+00  0.00000000000E+00 -0.10314184238E+04  0.16595341433E+04  0.13000883076E+04 0.  0.
        4    1    3    3  502    0  0.63190426178E+03  0.12562435024E+03 -0.40537457249E+03  0.76119289957E+03  0.12699999809E+01 0.  1.
       -4    1    3    3    0  502 -0.63190426178E+03 -0.12562435024E+03 -0.62604385136E+03  0.89834124371E+03  0.12699999809E+01 0. -1.
</event>
<event>
 5   0  0.3552698E-05  0.1298644E+04  0.7818609E-02  0.9030641E-01
        1   -1    0    0  501    0  0.00000000000E+00  0.00000000000E+00  0.55917692159E+03  0.55917692161E+03  0.50400001928E-02 0. -1.
       -1   -1    0    0    0  501  0.00000000000E+00  0.00000000000E+00 -0.75399928391E+03  0.75399928392E+03  0.50400001928E-02 0.  1.
    10030    2    1    2    0    0  0.00000000000E+00  0.00000000000E+00 -0.19482236232E+03  0.13131762055E+04  0.12986439057E+04 0.  0.
        5    1    3    3  502    0 -0.20300837391E+02  0.45594842141E+03  0.36959657859E+03  0.58730299496E+03  0.46999998093E+01 0. -1.
       -5    1    3    3    0  502  0.20300837391E+02 -0.45594842141E+03 -0.56441894090E+03  0.72587321058E+03  0.46999998093E+01 0.  1.
</event>
<event>
 5   0  0.2512000E-05  0.1300289E+04  0.7818609E-02  0.9029336E-01
        3   -1    0    0  501    0  0.00000000000E+00  0.00000000000E+00  0.93434597651E+03  0.93434598197E+03  0.10100000352E+00 0.  1.
       -3   -1    0    0    0  501  0.00000000000E+00  0.00000000000E+00 -0.45238925630E+03  0.45238926758E+03  0.10100000352E+00 0. -1.
    10030    2    1    2    0    0  0.00000000000E+00  0.00000000000E+00  0.48195672020E+03  0.13867352495E+04  0.13002893417E+04 0.  0.
        4    1    3    3  502    0  0.35999602033E+02  0.23612935033E+03  0.88585479291E+03  0.91749298006E+03  0.12699999809E+01 0.  1.
       -4    1    3    3    0  502 -0.35999602033E+02 -0.23612935033E+03 -0.40389807271E+03  0.46924226949E+03  0.12699999809E+01 0. -1.
</event>
<event>
 5   0  0.3631841E-05  0.1300063E+04  0.7818609E-02  0.9029515E-01
        1   -1    0    0  501    0  0.00000000000E+00  0.00000000000E+00  0.83755963244E+03  0.83755963246E+03  0.50400001928E-02 0.  1.
       -1   -1    0    0    0  501  0.00000000000E+00  0.00000000000E+00 -0.50449033769E+03  0.50449033771E+03  0.50400001928E-02 0. -1.
    10030    2    1    2    0    0  0.00000000000E+00  0.00000000000E+00  0.33306929475E+03  0.13420499702E+04  0.13000626782E+04 0.  0.
        3    1    3    3  502    0  0.16092836737E+03 -0.39054785544E+03  0.67657175651E+03  0.79760574140E+03  0.10100000352E+00 0.  1.
       -3    1    3    3    0  502 -0.16092836737E+03  0.39054785544E+03 -0.34350246175E+03  0.54444422877E+03  0.10100000352E+00 0. -1.
</event>
<event>
 5   0  0.3552698E-05  0.1300401E+04  0.7818609E-02  0.9029247E-01
       -1   -1    0    0    0  501  0.00000000000E+00  0.00000000000E+00  0.64619765020E+03  0.64619765022E+03  0.50400001928E-02 0. -1.
        1   -1    0    0  501    0  0.00000000000E+00  0.00000000000E+00 -0.65422781805E+03  0.65422781807E+03  0.50400001928E-02 0.  1.
    10030    2    1    2    0    0  0.00000000000E+00  0.00000000000E+00 -0.80301678534E+01  0.13004254683E+04  0.13004006748E+04 0.  0.
        5    1    3    3  502    0  0.55107114769E+03  0.99952998383E+02 -0.33427639878E+03  0.65225210807E+03  0.46999998093E+01 0.  1.
       -5    1    3    3    0  502 -0.55107114769E+03 -0.99952998383E+02  0.32624623093E+03  0.64817336022E+03  0.46999998093E+01 0. -1.
</event>
<event>
 5   0  0.3631841E-05  0.1300160E+04  0.7818609E-02  0.9029439E-01
        1   -1    0    0  501    0  0.00000000000E+00  0.00000000000E+00  0.90237569525E+03  0.90237569526E+03  0.50400001928E-02 0.  1.
       -1   -1    0    0    0  501  0.00000000000E+00  0.00000000000E+00 -0.46832358383E+03  0.46832358386E+03  0.50400001928E-02 0. -1.
    10030    2    1    2    0    0  0.00000000000E+00  0.00000000000E+00  0.43405211142E+03  0.13706992791E+04  0.13001597126E+04 0.  0.
        3    1    3    3  502    0 -0.10909667831E+03 -0.38921179191E+03  0.75378130779E+03  0.85532109430E+03  0.10100000352E+00 0.  1.
       -3    1    3    3    0  502  0.10909667831E+03  0.38921179191E+03 -0.31972919637E+03  0.51537818483E+03  0.10100000352E+00 0. -1.
</event>
<event>
 5   0  0.6671239E-05  0.1301163E+04  0.7818609E-02  0.9028644E-01
        2   -1    0    0  501    0  0.00000000000E+00  0.00000000000E+00  0.39279734746E+03  0.39279734747E+03  0.25500000920E-02 0.  1.
       -2   -1    0    0    0  501  0.00000000000E+00  0.00000000000E+00 -0.10775430194E+04  0.10775430194E+04  0.25500000920E-02 0. -1.
    10030    2    1    2    0    0  0.00000000000E+00  0.00000000000E+00 -0.68474567198E+03  0.14703403669E+04  0.13011626183E+04 0.  0.
        1    1    3    3  502    0 -0.16574518921E+03  0.38819489557E+03  0.21706067041E+03  0.47463889364E+03  0.50400001928E-02 0.  1.
       -1    1    3    3    0  502  0.16574518921E+03 -0.38819489557E+03 -0.90180634238E+03  0.99570147327E+03  0.50400001928E-02 0. -1.
</event>
<event>
 5   0  0.3718559E-05  0.1293881E+04  0.7818609E-02  0.9034431E-01
       -1   -1    0    0    0  501  0.00000000000E+00  0.00000000000E+00  0.67285607116E+03  0.67285607118E+03  0.50400001928E-02 0.  1.
        1   -1    0    0  501    0  0.00000000000E+00  0.00000000000E+00 -0.62202347481E+03  0.62202347483E+03  0.50400001928E-02 0. -1.
    10030    2    1    2    0    0  0.00000000000E+00  0.00000000000E+00  0.50832596359E+02  0.12948795460E+04  0.12938814033E+04 0.  0.
        2    1    3    3  502    0  0.29810862218E+03 -0.51983727633E+03 -0.21856005121E+03  0.63786208578E+03  0.25500000920E-02 0. -1.
       -2    1    3    3    0  502 -0.29810862218E+03  0.51983727633E+03  0.26939264757E+03  0.65701746023E+03  0.25500000920E-02 0.  1.
</event>
<event>
 5   0  0.3631841E-05  0.1299636E+04  0.7818609E-02  0.9029854E-01
        1   -1    0    0  501    0  0.00000000000E+00  0.00000000000E+00  0.26708234135E+03  0.26708234140E+03  0.50400001928E-02 0.  1.
       -1   -1    0    0    0  501  0.00000000000E+00  0.00000000000E+00 -0.15810224009E+04  0.15810224009E+04  0.50400001928E-02 0. -1.
    10030    2    1    2    0    0  0.00000000000E+00  0.00000000000E+00 -0.13139400596E+04  0.18481047423E+04  0.12996355868E+04 0.  0.
        3    1    3    3  502    0 -0.13982235381E+03  0.40701588822E+03  0.35380165331E+02  0.43181476374E+03  0.10100000352E+00 0.  1.
       -3    1    3    3    0  502  0.13982235381E+03 -0.40701588822E+03 -0.13493202249E+04  0.14162899786E+04  0.10100000352E+00 0. -1.
</event>
<event>
 5   0  0.3718559E-05  0.1299967E+04  0.7818609E-02  0.9029592E-01
       -1   -1    0    0    0  501  0.00000000000E+00  0.00000000000E+00  0.21252968932E+03  0.21252968938E+03  0.50400001928E-02 0.  1.
        1   -1    0    0  501    0  0.00000000000E+00  0.00000000000E+00 -0.19878552424E+04  0.19878552425E+04  0.50400001928E-02 0. -1.
    10030    2    1    2    0    0  0.00000000000E+00  0.00000000000E+00 -0.17753255531E+04  0.22003849318E+04  0.12999665490E+04 0.  0.
        2    1    3    3  502    0 -0.24348945353E+03  0.38699704305E+03 -0.10569554890E+03  0.46928176438E+03  0.25500000920E-02 0.  1.
       -2    1    3    3    0  502  0.24348945353E+03 -0.38699704305E+03 -0.16696300042E+04  0.17311031674E+04  0.25500000920E-02 0. -1.
</event>
<event>
 5   0  0.3631841E-05  0.1299905E+04  0.7818609E-02  0.9029640E-01
       -1   -1    0    0    0  501  0.00000000000E+00  0.00000000000E+00  0.41464666013E+03  0.41464666016E+03  0.50400001928E-02 0.  1.
        1   -1    0    0  501    0  0.00000000000E+00  0.00000000000E+00 -0.10187911037E+04  0.10187911037E+04  0.50400001928E-02 0. -1.
    10030    2    1    2    0    0  0.00000000000E+00  0.00000000000E+00 -0.60414444358E+03  0.14334377639E+04  0.12999051174E+04 0.  0.
        3    1    3    3  502    0 -0.26951925587E+02  0.20453977931E+03  0.37758160760E+03  0.43026829794E+03  0.10100000352E+00 0.  1.
       -3    1    3    3    0  502  0.26951925587E+02 -0.20453977931E+03 -0.98172605119E+03  0.10031694659E+04  0.10100000352E+00 0. -1.
</event>
<event>
 5   0  0.6688086E-05  0.1300098E+04  0.7818609E-02  0.9029488E-01
        2   -1    0    0  501    0  0.00000000000E+00  0.00000000000E+00  0.66047569592E+03  0.66047569592E+03  0.25500000920E-02 0.  1.
       -2   -1    0    0    0  501  0.00000000000E+00  0.00000000000E+00 -0.63978656273E+03  0.63978656273E+03  0.25500000920E-02 0. -1.
    10030    2    1    2    0    0  0.00000000000E+00  0.00000000000E+00  0.20689133188E+02  0.13002622587E+04  0.13000976506E+04 0.  0.
        5    1    3    3  502    0 -0.15644165097E+03 -0.57711916249E+03 -0.24464039027E+03  0.64607393417E+03  0.46999998093E+01 0. -1.
       -5    1    3    3    0  502  0.15644165097E+03  0.57711916249E+03  0.26532952345E+03  0.65418832448E+03  0.46999998093E+01 0.  1.
</event>
<event>
 5   0  0.6671239E-05  0.1301851E+04  0.7818609E-02  0.9028099E-01
        2   -1    0    0  501    0  0.00000000000E+00  0.00000000000E+00  0.12868350159E+04  0.12868350159E+04  0.25500000920E-02 0. -1.
       -2   -1    0    0    0  501  0.00000000000E+00  0.00000000000E+00 -0.32926048814E+03  0.32926048815E+03  0.25500000920E-02 0.  1.
    10030    2    1    2    0    0  0.00000000000E+00  0.00000000000E+00  0.95757452773E+03  0.16160955040E+04  0.13018508755E+04 0.  0.
        1    1    3    3  502    0  0.42225765265E+03 -0.39839533007E+02 -0.13417844810E+03  0.44485117688E+03  0.50400001928E-02 0.  1.
       -1    1    3    3    0  502 -0.42225765265E+03  0.39839533007E+02  0.10917529758E+04  0.11712443271E+04  0.50400001928E-02 0. -1.
</event>
<event>
 5   0  0.3689707E-05  0.1299809E+04  0.7818609E-02  0.9029717E-01
        1   -1    0    0  501    0  0.00000000000E+00  0.00000000000E+00  0.56845250063E+03  0.56845250065E+03  0.50400001928E-02 0. -1.
       -1   -1    0    0    0  501  0.00000000000E+00  0.00000000000E+00 -0.74302740947E+03  0.74302740948E+03  0.50400001928E-02 0.  1.
    10030    2    1    2    0    0  0.00000000000E+00  0.00000000000E+00 -0.17457490883E+03  0.13114799101E+04  0.12998088921E+04 0.  0.
        1    1    3    3  502    0  0.53752715515E+03 -0.12213408443E+03  0.26007636177E+03  0.60950134625E+03  0.50400001928E-02 0. -1.
       -1    1    3    3    0  502 -0.53752715515E+03  0.12213408443E+03 -0.43465127060E+03  0.70197856389E+03  0.50400001928E-02 0.  1.
</event>
<event>
 5   0  0.6618060E-05  0.1299357E+04  0.7818609E-02  0.9030075E-01
       -2   -1    0    0    0  501  0.00000000000E+00  0.00000000000E+00  0.48549852047E+03  0.48549852048E+03  0.25500000920E-02 0.  1.
        2   -1    0    0  501    0  0.00000000000E+00  0.00000000000E+00 -0.86937897826E+03  0.86937897826E+03  0.25500000920E-02 0. -1.
    10030    2    1    2    0    0  0.00000000000E+00  0.00000000000E+00 -0.38388045779E+03  0.13548774987E+04  0.12993570836E+04 0.  0.
        2    1    3    3  502    0  0.30324357834E+03 -0.53218338847E+03 -0.41777326585E+03  0.74142452645E+03  0.25500000920E-02 0. -1.
       -2    1    3    3    0  502 -0.30324357834E+03  0.53218338847E+03  0.33892808059E+02  0.61345297229E+03  0.25500000920E-02 0.  1.
</event>
<event>
 5   0  0.6688086E-05  0.1296387E+04  0.7818609E-02  0.9032435E-01
        2   -1    0    0  501    0  0.00000000000E+00  0.00000000000E+00  0.13025129253E+04  0.13025129253E+04  0.25500000920E-02 0. -1.
       -2   -1    0    0    0  501  0.00000000000E+00  0.00000000000E+00 -0.32257235981E+03  0.32257235982E+03  0.25500000920E-02 0.  1.
    10030    2    1    2    0    0  0.00000000000E+00  0.00000000000E+00  0.97994056545E+03  0.16250852851E+04  0.12963867756E+04 0.  0.
        5    1    3    3  502    0  0.33449521550E+03  0.24413710401E+02 -0.20532562321E+03  0.39327316206E+03  0.46999998093E+01 0.  1.
       -5    1    3    3    0  502 -0.33449521550E+03 -0.24413710401E+02  0.11852661887E+04  0.12318121230E+04  0.46999998093E+01 0. -1.
</event>
<event>
 5   0  0.3718559E-05  0.1299975E+04  0.7818609E-02  0.9029585E-01
       -1   -1    0    0    0  501  0.00000000000E+00  0.00000000000E+00  0.21349513925E+03  0.21349513931E+03  0.50400001928E-02 0. -1.
        1   -1    0    0  501    0  0.00000000000E+00  0.00000000000E+00 -0.19788911234E+04  0.19788911234E+04  0.50400001928E-02 0.  1.
    10030    2    1    2    0    0  0.00000000000E+00  0.00000000000E+00 -0.17653959842E+04  0.21923862628E+04  0.12999748244E+04 0.  0.
        2    1    3    3  502    0  0.12257123688E+03  0.15839335621E+03 -0.19255552601E+04  0.19359429804E+04  0.25500000920E-02 0.  1.
       -2    1    3    3    0  502 -0.12257123688E+03 -0.15839335621E+03  0.16015927595E+03  0.25644328239E+03  0.25500000920E-02 0. -1.
</event>
<event>
 5   0  0.6618060E-05  0.1299669E+04  0.7818609E-02  0.9029828E-01
       -2   -1    0    0    0  501  0.00000000000E+00  0.00000000000E+00  0.49583390406E+03  0.49583390407E+03  0.25500000920E-02 0.  1.
        2   -1    0    0  501    0  0.00000000000E+00  0.00000000000E+00 -0.85166552349E+03  0.85166552349E+03  0.25500000920E-02 0. -1.
    10030    2    1    2    0    0  0.00000000000E+00  0.00000000000E+00 -0.35583161943E+03  0.13474994276E+04  0.12996686370E+04 0.  0.
        2    1    3    3  502    0 -0.28073992593E+03  0.16974299629E+03  0.40367118223E+03  0.52017113931E+03  0.25500000920E-02 0. -1.
       -2    1    3    3    0  502  0.28073992593E+03 -0.16974299629E+03 -0.75950280166E+03  0.82732828825E+03  0.25500000920E-02 0.  1.
</event>
<event>
 5   0  0.6458698E-05  0.1299874E+04  0.7818609E-02  0.9029665E-01
       -2   -1    0    0    0  501  0.00000000000E+00  0.00000000000E+00  0.59346953679E+03  0.59346953679E+03  0.25500000920E-02 0. -1.
        2   -1    0    0  501    0  0.00000000000E+00  0.00000000000E+00 -0.71177763097E+03  0.71177763097E+03  0.25500000920E-02 0.  1.
    10030    2    1    2    0    0  0.00000000000E+00  0.00000000000E+00 -0.11830809418E+03  0.13052471678E+04  0.12998743646E+04 0.  0.
        3    1    3    3  502    0  0.26615220611E+03 -0.59293757269E+03 -0.61688130676E+02  0.65285327417E+03  0.10100000352E+00 0.  1.
       -3    1    3    3    0  502 -0.26615220611E+03  0.59293757269E+03 -0.56619963504E+02  0.65239389359E+03  0.10100000352E+00 0. -1.
</event>
<event>
 5   0  0.3552698E-05  0.1299161E+04  0.7818609E-02  0.9030231E-01
        1   -1    0    0  501    0  0.00000000000E+00  0.00000000000E+00  0.53084148338E+03  0.53084148340E+03  0.50400001928E-02 0. -1.
       -1   -1    0    0    0  501  0.00000000000E+00  0.00000000000E+00 -0.79487945536E+03  0.79487945538E+03  0.50400001928E-02 0.  1.
    10030    2    1    2    0    0  0.00000000000E+00  0.00000000000E+00 -0.26403797198E+03  0.13257209388E+04  0.12991612513E+04 0.  0.
        5    1    3    3  502    0 -0.53964770814E+03 -0.19174160945E+03  0.18075726063E+03  0.60056620864E+03  0.46999998093E+01 0. -1.
       -5    1    3    3    0  502  0.53964770814E+03  0.19174160945E+03 -0.44479523261E+03  0.72515473014E+03  0.46999998093E+01 0.  1.
</event>
<event>
 5   0  0.3552698E-05  0.1299681E+04  0.7818609E-02  0.9029818E-01
       -1   -1    0    0    0  501  0.00000000000E+00  0.00000000000E+00  0.53792197107E+03  0.53792197109E+03  0.50400001928E-02 0.  1.
        1   -1    0    0  501    0  0.00000000000E+00  0.00000000000E+00 -0.78504434752E+03  0.78504434754E+03  0.50400001928E-02 0. -1.
    10030    2    1    2    0    0  0.00000000000E+00  0.00000000000E+00 -0.24712237645E+03  0.13229663186E+04  0.12996808883E+04 0.  0.
        5    1    3    3  502    0  0.58452464758E+03 -0.79853183657E+02 -0.40088484550E+03  0.71328559772E+03  0.46999998093E+01 0.  1.
       -5    1    3    3    0  502 -0.58452464758E+03  0.79853183657E+02  0.15376246905E+03  0.60968072091E+03  0.46999998093E+01 0. -1.
</event>
<event>
 5   0  0.6671239E-05  0.1299569E+04  0.7818609E-02  0.9029907E-01
        2   -1    0    0  501    0  0.00000000000E+00  0.00000000000E+00  0.86757094347E+03  0.86757094347E+03  0.25500000920E-02 0. -1.
       -2   -1    0    0    0  501  0.00000000000E+00  0.00000000000E+00 -0.48666905192E+03  0.48666905193E+03  0.25500000920E-02 0.  1.
    10030    2    1    2    0    0  0.00000000000E+00  0.00000000000E+00  0.38090189155E+03  0.13542399954E+04  0.12995690494E+04 0.  0.
        1    1    3    3  502    0  0.51254256713E+03  0.34741287784E+03  0.39577900595E+03  0.73487183399E+03  0.50400001928E-02 0. -1.
       -1    1    3    3    0  502 -0.51254256713E+03 -0.34741287784E+03 -0.14877114405E+02  0.61936816141E+03  0.50400001928E-02 0.  1.
</event>
<event>
 5   0  0.3551277E-05  0.1300979E+04  0.7818609E-02  0.9028790E-01
       -1   -1    0    0    0  501  0.00000000000E+00  0.00000000000E+00  0.10057897001E+04  0.10057897001E+04  0.50400001928E-02 0. -1.
        1   -1    0    0  501    0  0.00000000000E+00  0.00000000000E+00 -0.42070056217E+03  0.42070056220E+03  0.50400001928E-02 0.  1.
    10030    2    1    2    0    0  0.00000000000E+00  0.00000000000E+00  0.58508913792E+03  0.14264902623E+04  0.13009785429E+04 0.  0.
        4    1    3    3  502    0  0.18985828523E+03 -0.51795502150E+03 -0.85399207316E+02  0.55822774051E+03  0.12699999809E+01 0.  1.
       -4    1    3    3    0  502 -0.18985828523E+03  0.51795502150E+03  0.67048834523E+03  0.86826252180E+03  0.12699999809E+01 0. -1.
</event>
<event>
 5   0  0.3718559E-05  0.1299594E+04  0.7818609E-02  0.9029887E-01
       -1   -1    0    0    0  501  0.00000000000E+00  0.00000000000E+00  0.47709936342E+03  0.47709936345E+03  0.50400001928E-02 0. -1.
        1   -1    0    0  501    0  0.00000000000E+00  0.00000000000E+00 -0.88500716459E+03  0.88500716461E+03  0.50400001928E-02 0.  1.
    10030    2    1    2    0    0  0.00000000000E+00  0.00000000000E+00 -0.40790780117E+03  0.13621065281E+04  0.12995943288E+04 0.  0.
        2    1    3    3  502    0  0.42858404828E+03  0.18307186305E+03 -0.67854450220E+03  0.82317813075E+03  0.25500000920E-02 0.  1.
       -2    1    3    3    0  502 -0.42858404828E+03 -0.18307186305E+03  0.27063670103E+03  0.53892839731E+03  0.25500000920E-02 0. -1.
</event>
<event>
 5   0  0.6742824E-05  0.1299917E+04  0.7818609E-02  0.9029631E-01
        2   -1    0    0  501    0  0.00000000000E+00  0.00000000000E+00  0.21415681292E+04  0.21415681292E+04  0.25500000920E-02 0. -1.
       -2   -1    0    0    0  501  0.00000000000E+00  0.00000000000E+00 -0.19726012586E+03  0.19726012588E+03  0.25500000920E-02 0.  1.
    10030    2    1    2    0    0  0.00000000000E+00  0.00000000000E+00  0.19443080034E+04  0.23388282551E+04  0.12999169185E+04 0.  0.
        4    1    3    3  502    0 -0.39229410673E+03  0.47065211531E+03  0.58194315323E+03  0.84502516313E+03  0.12699999809E+01 0.  1.
       -4    1    3    3    0  502  0.39229410673E+03 -0.47065211531E+03  0.13623648501E+04  0.14938030920E+04  0.12699999809E+01 0. -1.
</event>
<event>
 5   0  0.6618060E-05  0.1299845E+04  0.7818609E-02  0.9029688E-01
        2   -1    0    0  501    0  0.00000000000E+00  0.00000000000E+00  0.12375116406E+04  0.12375116406E+04  0.25500000920E-02 0. -1.
       -2   -1    0    0    0  501  0.00000000000E+00  0.00000000000E+00 -0.34132952385E+03  0.34132952386E+03  0.25500000920E-02 0.  1.
    10030    2    1    2    0    0  0.00000000000E+00  0.00000000000E+00  0.89618211674E+03  0.15788411645E+04  0.12998450047E+04 0.  0.
        2    1    3    3  502    0 -0.10343960145E+03  0.56545306064E+03  0.81643360634E+03  0.99849924812E+03  0.25500000920E-02 0. -1.
       -2    1    3    3    0  502  0.10343960145E+03 -0.56545306064E+03  0.79748510403E+02  0.58034191633E+03  0.25500000920E-02 0.  1.
</event>
<event>
 5   0  0.6458698E-05  0.1300296E+04  0.7818609E-02  0.9029330E-01
       -2   -1    0    0    0  501  0.00000000000E+00  0.00000000000E+00  0.39039207244E+03  0.39039207245E+03  0.25500000920E-02 0.  1.
        2   -1    0    0  501    0  0.00000000000E+00  0.00000000000E+00 -0.10827382957E+04  0.10827382957E+04  0.25500000920E-02 0. -1.
    10030    2    1    2    0    0  0.00000000000E+00  0.00000000000E+00 -0.69234622321E+03  0.14731303681E+04  0.13002960388E+04 0.  0.
        3    1    3    3  502    0 -0.16743368752E+03  0.34459345234E+03  0.24892094754E+03  0.45688109551E+03  0.10100000352E+00 0.  1.
       -3    1    3    3    0  502  0.16743368752E+03 -0.34459345234E+03 -0.94126717075E+03  0.10162492726E+04  0.10100000352E+00 0. -1.
</event>
<event>
 5   0  0.2512000E-05  0.1301536E+04  0.7818609E-02  0.9028348E-01
       -4   -1    0    0    0  501  0.00000000000E+00  0.00000000000E+00  0.75753945404E+03  0.75754051860E+03  0.12699999809E+01 0. -1.
        4   -1    0    0  501    0  0.00000000000E+00  0.00000000000E+00 -0.55904344621E+03  0.55904488876E+03  0.12699999809E+01 0.  1.
    10030    2    1    2    0    0  0.00000000000E+00  0.00000000000E+00  0.19849600783E+03  0.13165854074E+04  0.13015361961E+04 0.  0.
        3    1    3    3  502    0 -0.61980337910E+03  0.92079636115E+02  0.27696150932E+03  0.68508581651E+03  0.10100000352E+00 0. -1.
       -3    1    3    3    0  502  0.61980337910E+03 -0.92079636115E+02 -0.78465501492E+02  0.63149959086E+03  0.10100000352E+00 0.  1.
</event>
<event>
 5   0  0.6742824E-05  0.1300105E+04  0.7818609E-02  0.9029482E-01
        2   -1    0    0  501    0  0.00000000000E+00  0.00000000000E+00  0.14164350668E+04  0.14164350668E+04  0.25500000920E-02 0. -1.
       -2   -1    0    0    0  501  0.00000000000E+00  0.00000000000E+00 -0.29833244189E+03  0.29833244190E+03  0.25500000920E-02 0.  1.
    10030    2    1    2    0    0  0.00000000000E+00  0.00000000000E+00  0.11181026249E+04  0.17147675087E+04  0.13001054300E+04 0.  0.
        4    1    3    3  502    0  0.49379132656E+03 -0.36426656944E+03  0.27602492560E+03  0.67283830171E+03  0.12699999809E+01 0.  1.
       -4    1    3    3    0  502 -0.49379132656E+03  0.36426656944E+03  0.84207769927E+03  0.10419292070E+04  0.12699999809E+01 0. -1.
</event>
<event>
 5   0  0.6458698E-05  0.1299403E+04  0.7818609E-02  0.9030038E-01
       -2   -1    0    0    0  501  0.00000000000E+00  0.00000000000E+00  0.33802118357E+03  0.33802118358E+03  0.25500000920E-02 0. -1.
        2   -1    0    0  501    0  0.00000000000E+00  0.00000000000E+00 -0.12487744998E+04  0.12487744998E+04  0.25500000920E-02 0.  1.
    10030    2    1    2    0    0  0.00000000000E+00  0.00000000000E+00 -0.91075331620E+03  0.15867956834E+04  0.12994033007E+04 0.  0.
        3    1    3    3  502    0 -0.61158158021E+03  0.55820537836E+02 -0.71432359750E+03  0.94202238500E+03  0.10100000352E+00 0.  1.
       -3    1    3    3    0  502  0.61158158021E+03 -0.55820537836E+02 -0.19642971870E+03  0.64477329836E+03  0.10100000352E+00 0. -1.
</event>
<event>
 5   0  0.3631841E-05  0.1298657E+04  0.7818609E-02  0.9030631E-01
       -1   -1    0    0    0  501  0.00000000000E+00  0.00000000000E+00  0.41724315708E+03  0.41724315711E+03  0.50400001928E-02 0.  1.
        1   -1    0    0  501    0  0.00000000000E+00  0.00000000000E+00 -0.10105082417E+04  0.10105082418E+04  0.50400001928E-02 0. -1.
    10030    2    1    2    0    0  0.00000000000E+00  0.00000000000E+00 -0.59326508466E+03  0.14277513989E+04  0.12986572282E+04 0.  0.
        3    1    3    3  502    0 -0.62272950333E+03 -0.14958376736E+03 -0.41432701602E+03  0.76278058718E+03  0.10100000352E+00 0. -1.
       -3    1    3    3    0  502  0.62272950333E+03  0.14958376736E+03 -0.17893806864E+03  0.66497081168E+03  0.10100000352E+00 0.  1.
</event>
<event>
 5   0  0.6458698E-05  0.1299202E+04  0.7818609E-02  0.9030198E-01
       -2   -1    0    0    0  501  0.00000000000E+00  0.00000000000E+00  0.47416091582E+03  0.47416091582E+03  0.25500000920E-02 0.  1.
        2   -1    0    0  501    0  0.00000000000E+00  0.00000000000E+00 -0.88995465765E+03  0.88995465766E+03  0.25500000920E-02 0. -1.
    10030    2    1    2    0    0  0.00000000000E+00  0.00000000000E+00 -0.41579374184E+03  0.13641155735E+04  0.12992023946E+04 0.  0.
        3    1    3    3  502    0  0.32692712161E+03  0.13004055068E+03  0.36545437351E+03  0.50729557162E+03  0.10100000352E+00 0.  1.
       -3    1    3    3    0  502 -0.32692712161E+03 -0.13004055068E+03 -0.78124811534E+03  0.85682000186E+03  0.10100000352E+00 0. -1.
</event>
<event>
 5   0  0.3718559E-05  0.1299440E+04  0.7818609E-02  0.9030009E-01
       -1   -1    0    0    0  501  0.00000000000E+00  0.00000000000E+00  0.72423215200E+03  0.72423215202E+03  0.50400001928E-02 0.  1.
        1   -1    0    0  501    0  0.00000000000E+00  0.00000000000E+00 -0.58287392647E+03  0.58287392649E+03  0.50400001928E-02 0. -1.
    10030    2    1    2    0    0  0.00000000000E+00  0.00000000000E+00  0.14135822553E+03  0.13071060785E+04  0.12994399380E+04 0.  0.
        2    1    3    3  502    0 -0.46453681418E+02  0.21412383430E+03 -0.54459034217E+03  0.58701414099E+03  0.25500000920E-02 0. -1.
       -2    1    3    3    0  502  0.46453681418E+02 -0.21412383430E+03  0.68594856770E+03  0.72009193751E+03  0.25500000920E-02 0.  1.
</event>
<event>
 5   0  0.3689707E-05  0.1298765E+04  0.7818609E-02  0.9030545E-01
       -1   -1    0    0    0  501  0.00000000000E+00  0.00000000000E+00  0.46923854300E+03  0.46923854302E+03  0.50400001928E-02 0. -1.
        1   -1    0    0  501    0  0.00000000000E+00  0.00000000000E+00 -0.89868486161E+03  0.89868486162E+03  0.50400001928E-02 0.  1.
    10030    2    1    2    0    0  0.00000000000E+00  0.00000000000E+00 -0.42944631861E+03  0.13679234046E+04  0.12987649135E+04 0.  0.
        1    1    3    3  502    0  0.63001543053E+02 -0.58341416162E+03 -0.50766342281E+03  0.77592746393E+03  0.50400001928E-02 0.  1.
       -1    1    3    3    0  502 -0.63001543053E+02  0.58341416162E+03  0.78217104193E+02  0.59199594071E+03  0.50400001928E-02 0. -1.
</event>
<event>
 5   0  0.6742824E-05  0.1300050E+04  0.7818609E-02  0.9029525E-01
       -2   -1    0    0    0  501  0.00000000000E+00  0.00000000000E+00  0.60926438395E+03  0.60926438396E+03  0.25500000920E-02 0. -1.
        2   -1    0    0  501    0  0.00000000000E+00  0.00000000000E+00 -0.69351263556E+03  0.69351263556E+03  0.25500000920E-02 0.  1.
    10030    2    1    2    0    0  0.00000000000E+00  0.00000000000E+00 -0.84248251610E+02  0.13027770195E+04  0.13000500739E+04 0.  0.
        4    1    3    3  502    0  0.39749679982E+03 -0.24321243194E+02 -0.55694847970E+03  0.68468127671E+03  0.12699999809E+01 0.  1.
       -4    1    3    3    0  502 -0.39749679982E+03  0.24321243194E+02  0.47270022809E+03  0.61809574281E+03  0.12699999809E+01 0. -1.
</event>
<event>
 5   0  0.6742824E-05  0.1299896E+04  0.7818609E-02  0.9029648E-01
       -2   -1    0    0    0  501  0.00000000000E+00  0.00000000000E+00  0.92067667660E+03  0.92067667661E+03  0.25500000920E-02 0. -1.
        2   -1    0    0  501    0  0.00000000000E+00  0.00000000000E+00 -0.45882784828E+03  0.45882784828E+03  0.25500000920E-02 0.  1.
    10030    2    1    2    0    0  0.00000000000E+00  0.00000000000E+00  0.46184882833E+03  0.13795045249E+04  0.12998955319E+04 0.  0.
        4    1    3    3  502    0 -0.35013065674E+02  0.29938987727E+03  0.84201060714E+03  0.89433980612E+03  0.12699999809E+01 0. -1.
       -4    1    3    3    0  502  0.35013065674E+02 -0.29938987727E+03 -0.38016177881E+03  0.48516471877E+03  0.12699999809E+01 0.  1.
</event>
<event>
 5   0  0.6742824E-05  0.1299928E+04  0.7818609E-02  0.9029622E-01
       -2   -1    0    0    0  501  0.00000000000E+00  0.00000000000E+00  0.18709490767E+03  0.18709490768E+03  0.25500000920E-02 0.  1.
        2   -1    0    0  501    0  0.00000000000E+00  0.00000000000E+00 -0.22579630401E+04  0.22579630401E+04  0.25500000920E-02 0. -1.
    10030    2    1    2    0    0  0.00000000000E+00  0.00000000000E+00 -0.20708681325E+04  0.24450579478E+04  0.12999282850E+04 0.  0.
        4    1    3    3  502    0 -0.54391916990E+03 -0.15329436645E+03 -0.43147337577E+03  0.71099796980E+03  0.12699999809E+01 0.  1.
       -4    1    3    3    0  502  0.54391916990E+03  0.15329436645E+03 -0.16393947567E+04  0.17340599780E+04  0.12699999809E+01 0. -1.
</event>
<event>
 5   0  0.2512000E-05  0.1299740E+04  0.7818609E-02  0.9029772E-01
       -3   -1    0    0    0  501  0.00000000000E+00  0.00000000000E+00  0.35864942287E+03  0.35864943709E+03  0.10100000352E+00 0.  1.
        3   -1    0    0  501    0  0.00000000000E+00  0.00000000000E+00 -0.11775586753E+04  0.11775586796E+04  0.10100000352E+00 0. -1.
    10030    2    1    2    0    0  0.00000000000E+00  0.00000000000E+00 -0.81890925241E+03  0.15362081167E+04  0.12997395947E+04 0.  0.
        4    1    3    3  502    0 -0.19558273913E+03  0.41737501161E+03 -0.95092372946E+03  0.10567459772E+04  0.12699999809E+01 0. -1.
       -4    1    3    3    0  502  0.19558273913E+03 -0.41737501161E+03  0.13201447705E+03  0.47946213950E+03  0.12699999809E+01 0.  1.
</event>
<event>
 5   0  0.3689707E-05  0.1300449E+04  0.7818609E-02  0.9029210E-01
       -1   -1    0    0    0  501  0.00000000000E+00  0.00000000000E+00  0.11624135358E+04  0.11624135358E+04  0.50400001928E-02 0.  1.
        1   -1    0    0  501    0  0.00000000000E+00  0.00000000000E+00 -0.36371875376E+03  0.36371875379E+03  0.50400001928E-02 0. -1.
    10030    2    1    2    0    0  0.00000000000E+00  0.00000000000E+00  0.79869478201E+03  0.15261322896E+04  0.13004485420E+04 0.  0.
        1    1    3    3  502    0  0.10421535395E+03  0.76318154557E+02  0.11472049256E+04  0.11544541749E+04  0.50400001928E-02 0.  1.
       -1    1    3    3    0  502 -0.10421535395E+03 -0.76318154557E+02 -0.34851014357E+03  0.37167811465E+03  0.50400001928E-02 0. -1.
</event>
<event>
 5   0  0.2512000E-05  0.1299623E+04  0.7818609E-02  0.9029864E-01
       -3   -1    0    0    0  501  0.00000000000E+00  0.00000000000E+00  0.10167299201E+04  0.10167299251E+04  0.10100000352E+00 0. -1.
        3   -1    0    0  501    0  0.00000000000E+00  0.00000000000E+00 -0.41530695122E+03  0.41530696350E+03  0.10100000352E+00 0.  1.
    10030    2    1    2    0    0  0.00000000000E+00  0.00000000000E+00  0.60142296885E+03  0.14320368886E+04  0.12996230464E+04 0.  0.
        1    1    3    3  502    0 -0.18055297587E+03  0.59099357914E+03  0.52213917953E+03  0.80901304718E+03  0.50400001928E-02 0.  1.
       -1    1    3    3    0  502  0.18055297587E+03 -0.59099357914E+03  0.79283789315E+02  0.62302384140E+03  0.50400001928E-02 0. -1.
</event>
<event>
 5   0  0.6458698E-05  0.1300155E+04  0.7818609E-02  0.9029442E-01
        2   -1    0    0  501    0  0.00000000000E+00  0.00000000000E+00  0.12726722880E+04  0.12726722880E+04  0.25500000920E-02 0. -1.
       -2   -1    0    0    0  501  0.00000000000E+00  0.00000000000E+00 -0.33205772964E+03  0.33205772965E+03  0.25500000920E-02 0.  1.
    10030    2    1    2    0    0  0.00000000000E+00  0.00000000000E+00  0.94061455834E+03  0.16047300176E+04  0.13001548685E+04 0.  0.
        3    1    3    3  502    0 -0.51242589933E+03 -0.23194740074E+03  0.68042883646E+02  0.56657721736E+03  0.10100000352E+00 0.  1.
       -3    1    3    3    0  502  0.51242589933E+03  0.23194740074E+03  0.87257167469E+03  0.10381528003E+04  0.10100000352E+00 0. -1.
</event>
<event>
 5   0  0.6671239E-05  0.1299539E+04  0.7818609E-02  0.9029931E-01
       -2   -1    0    0    0  501  0.00000000000E+00  0.00000000000E+00  0.56186384595E+03  0.56186384595E+03  0.25500000920E-02 0. -1.
        2   -1    0    0  501    0  0.00000000000E+00  0.00000000000E+00 -0.75142856782E+03  0.75142856782E+03  0.25500000920E-02 0.  1.
    10030    2    1    2    0    0  0.00000000000E+00  0.00000000000E+00 -0.18956472187E+03  0.13132924138E+04  0.12995392185E+04 0.  0.
        1    1    3    3  502    0 -0.27044827590E+03 -0.92940872634E+01 -0.69177265586E+03  0.74281764748E+03  0.50400001928E-02 0.  1.
       -1    1    3    3    0  502  0.27044827590E+03  0.92940872634E+01  0.50220793398E+03  0.57047476630E+03  0.50400001928E-02 0. -1.
</event>
<event>
 5   0  0.2512000E-05  0.1299912E+04  0.7818609E-02  0.9029635E-01
       -4   -1    0    0    0  501  0.00000000000E+00  0.00000000000E+00  0.89902136824E+03  0.89902226527E+03  0.12699999809E+01 0.  1.
        4   -1    0    0  501    0  0.00000000000E+00  0.00000000000E+00 -0.46989008248E+03  0.46989179873E+03  0.12699999809E+01 0. -1.
    10030    2    1    2    0    0  0.00000000000E+00  0.00000000000E+00  0.42913128576E+03  0.13689140640E+04  0.12999123256E+04 0.  0.
        5    1    3    3  502    0  0.62984526845E+03  0.14474570738E+03  0.14187597522E+03  0.66167005701E+03  0.46999998093E+01 0.  1.
       -5    1    3    3    0  502 -0.62984526845E+03 -0.14474570738E+03  0.28725531054E+03  0.70724400699E+03  0.46999998093E+01 0. -1.
</event>
<event>
 5   0  0.3689707E-05  0.1300048E+04  0.7818609E-02  0.9029527E-01
        1   -1    0    0  501    0  0.00000000000E+00  0.00000000000E+00  0.44799509769E+03  0.44799509772E+03  0.50400001928E-02 0. -1.
       -1   -1    0    0    0  501  0.00000000000E+00  0.00000000000E+00 -0.94316084201E+03  0.94316084202E+03  0.50400001928E-02 0.  1.
    10030    2    1    2    0    0  0.00000000000E+00  0.00000000000E+00 -0.49516574432E+03  0.13911559397E+04  0.13000483585E+04 0.  0.
        1    1    3    3  502    0 -0.10166836194E+03 -0.33061909146E+03 -0.83650232893E+03  0.90519698728E+03  0.50400001928E-02 0.  1.
       -1    1    3    3    0  502  0.10166836194E+03  0.33061909146E+03  0.34133658461E+03  0.48595895246E+03  0.50400001928E-02 0. -1.
</event>
<event>
 5   0  0.3718559E-05  0.1299495E+04  0.7818609E-02  0.9029966E-01
       -1   -1    0    0    0  501  0.00000000000E+00  0.00000000000E+00  0.61318493054E+03  0.61318493056E+03  0.50400001928E-02 0. -1.
        1   -1    0    0  501    0  0.00000000000E+00  0.00000000000E+00 -0.68849008819E+03  0.68849008821E+03  0.50400001928E-02 0.  1.
    10030    2    1    2    0    0  0.00000000000E+00  0.00000000000E+00 -0.75305157653E+02  0.13016750188E+04  0.12994948971E+04 0.  0.
        2    1    3    3  502    0  0.41630058044E+03 -0.90747467511E+02  0.45371138441E+03  0.62241087433E+03  0.25500000920E-02 0. -1.
       -2    1    3    3    0  502 -0.41630058044E+03  0.90747467511E+02 -0.52901654207E+03  0.67926414444E+03  0.25500000920E-02 0.  1.
</event>
<event>
 5   0  0.6458698E-05  0.1300057E+04  0.7818609E-02  0.9029520E-01
        2   -1    0    0  501    0  0.00000000000E+00  0.00000000000E+00  0.81333848331E+03  0.81333848331E+03  0.25500000920E-02 0. -1.
       -2   -1    0    0    0  501  0.00000000000E+00  0.00000000000E+00 -0.51950960056E+03  0.51950960056E+03  0.25500000920E-02 0.  1.
    10030    2    1    2    0    0  0.00000000000E+00  0.00000000000E+00  0.29382888275E+03  0.13328480839E+04  0.13000571535E+04 0.  0.
        3    1    3    3  502    0 -0.61924864520E+03 -0.19765573572E+03  0.14761426308E+03  0.66657831896E+03  0.10100000352E+00 0. -1.
       -3    1    3    3    0  502  0.61924864520E+03  0.19765573572E+03  0.14621461968E+03  0.66626976492E+03  0.10100000352E+00 0.  1.
</event>
<event>
 5   0  0.3718559E-05  0.1299955E+04  0.7818609E-02  0.9029601E-01
       -1   -1    0    0    0  501  0.00000000000E+00  0.00000000000E+00  0.51573713914E+03  0.51573713917E+03  0.50400001928E-02 0.  1.
        1   -1    0    0  501    0  0.00000000000E+00  0.00000000000E+00 -0.81915845923E+03  0.81915845924E+03  0.50400001928E-02 0. -1.
    10030    2    1    2    0    0  0.00000000000E+00  0.00000000000E+00 -0.30342132009E+03  0.13348955984E+04  0.12999545227E+04 0.  0.
        2    1    3    3  502    0  0.46377486145E+03 -0.13678390913E+02  0.31571231528E+03  0.56120271429E+03  0.25500000920E-02 0.  1.
       -2    1    3    3    0  502 -0.46377486145E+03  0.13678390913E+02 -0.61913363537E+03  0.77369288412E+03  0.25500000920E-02 0. -1.
</event>
<event>
 5   0  0.6742824E-05  0.1299681E+04  0.7818609E-02  0.9029818E-01
       -2   -1    0    0    0  501  0.00000000000E+00  0.00000000000E+00  0.32102556243E+03  0.32102556244E+03  0.25500000920E-02 0.  1.
        2   -1    0    0  501    0  0.00000000000E+00  0.00000000000E+00 -0.13154486533E+04  0.13154486533E+04  0.25500000920E-02 0. -1.
    10030    2    1    2    0    0  0.00000000000E+00  0.00000000000E+00 -0.99442309089E+03  0.16364742158E+04  0.12996809513E+04 0.  0.
        4    1    3    3  502    0 -0.48477008832E+03 -0.15472832539E+03 -0.10061080958E+04  0.11274741711E+04  0.12699999809E+01 0. -1.
       -4    1    3    3    0  502  0.48477008832E+03  0.15472832539E+03  0.11685004915E+02  0.50900004464E+03  0.12699999809E+01 0.  1.
</event>
<event>
 5   0  0.3631841E-05  0.1300411E+04  0.7818609E-02  0.9029240E-01
        1   -1    0    0  501    0  0.00000000000E+00  0.00000000000E+00  0.86846602863E+03  0.86846602864E+03  0.50400001928E-02 0.  1.
       -1   -1    0    0    0  501  0.00000000000E+00  0.00000000000E+00 -0.48679732193E+03  0.48679732196E+03  0.50400001928E-02 0. -1.
    10030    2    1    2    0    0  0.00000000000E+00  0.00000000000E+00  0.38166870670E+03  0.13552633506E+04  0.13004106074E+04 0.  0.
        3    1    3    3  502    0 -0.29803368564E+03 -0.56929938399E+02  0.79015810661E+03  0.84641298389E+03  0.10100000352E+00 0.  1.
       -3    1    3    3    0  502  0.29803368564E+03  0.56929938399E+02 -0.40848939991E+03  0.50885036671E+03  0.10100000352E+00 0. -1.
</event>
<event>
 5   0  0.3689707E-05  0.1301395E+04  0.7818609E-02  0.9028460E-01
       -1   -1    0    0    0  501  0.00000000000E+00  0.00000000000E+00  0.74242742599E+03  0.74242742601E+03  0.50400001928E-02 0.  1.
        1   -1    0    0  501    0  0.00000000000E+00  0.00000000000E+00 -0.57030125277E+03  0.57030125280E+03  0.50400001928E-02 0. -1.
    10030    2    1    2    0    0  0.00000000000E+00  0.00000000000E+00  0.17212617322E+03  0.13127286788E+04  0.13013950840E+04 0.  0.
        1    1    3    3  502    0  0.82583192915E+02  0.24813810276E+03 -0.51495706556E+03  0.57755803275E+03  0.50400001928E-02 0. -1.
       -1    1    3    3    0  502 -0.82583192915E+02 -0.24813810276E+03  0.68708323878E+03  0.73517064606E+03  0.50400001928E-02 0.  1.
</event>
<event>
 5   0  0.6742824E-05  0.1300390E+04  0.7818609E-02  0.9029256E-01
       -2   -1    0    0    0  501  0.00000000000E+00  0.00000000000E+00  0.58100146080E+03  0.58100146081E+03  0.25500000920E-02 0.  1.
        2   -1    0    0  501    0  0.00000000000E+00  0.00000000000E+00 -0.72762867889E+03  0.72762867889E+03  0.25500000920E-02 0. -1.
    10030    2    1    2    0    0  0.00000000000E+00  0.00000000000E+00 -0.14662721809E+03  0.13086301397E+04  0.13003896729E+04 0.  0.
        4    1    3    3  502    0 -0.53632186154E+03  0.36585056549E+03 -0.10909079054E+03  0.65832377211E+03  0.12699999809E+01 0. -1.
       -4    1    3    3    0  502  0.53632186154E+03 -0.36585056549E+03 -0.37536427545E+02  0.65030636759E+03  0.12699999809E+01 0.  1.
</event>
<event>
 5   0  0.6688086E-05  0.1300278E+04  0.7818609E-02  0.9029345E-01
       -2   -1    0    0    0  501  0.00000000000E+00  0.00000000000E+00  0.27122390482E+03  0.27122390484E+03  0.25500000920E-02 0.  1.
        2   -1    0    0  501    0  0.00000000000E+00  0.00000000000E+00 -0.15584198721E+04  0.15584198721E+04  0.25500000920E-02 0. -1.
    10030    2    1    2    0    0  0.00000000000E+00  0.00000000000E+00 -0.12871959673E+04  0.18296437769E+04  0.13002780058E+04 0.  0.
        5    1    3    3  502    0 -0.42774986442E+03  0.44559270293E+02 -0.13296353991E+04  0.13974647973E+04  0.46999998093E+01 0. -1.
       -5    1    3    3    0  502  0.42774986442E+03 -0.44559270293E+02  0.42439431831E+02  0.43217897966E+03  0.46999998093E+01 0.  1.
</event>
<event>
 5   0  0.3718559E-05  0.1300339E+04  0.7818609E-02  0.9029296E-01
       -1   -1    0    0    0  501  0.00000000000E+00  0.00000000000E+00  0.39059722077E+03  0.39059722080E+03  0.50400001928E-02 0. -1.
        1   -1    0    0  501    0  0.00000000000E+00  0.00000000000E+00 -0.10822412256E+04  0.10822412256E+04  0.50400001928E-02 0.  1.
    10030    2    1    2    0    0  0.00000000000E+00  0.00000000000E+00 -0.69164400481E+03  0.14728384464E+04  0.13003390557E+04 0.  0.
        2    1    3    3  502    0 -0.18594884772E+03 -0.44158434116E+03  0.15196340793E+03  0.50265950870E+03  0.25500000920E-02 0. -1.
       -2    1    3    3    0  502  0.18594884772E+03  0.44158434116E+03 -0.84360741273E+03  0.97017893770E+03  0.25500000920E-02 0.  1.
</event>
<event>
 5   0  0.3718559E-05  0.1299356E+04  0.7818609E-02  0.9030076E-01
       -1   -1    0    0    0  501  0.00000000000E+00  0.00000000000E+00  0.36134910339E+03  0.36134910342E+03  0.50400001928E-02 0.  1.
        1   -1    0    0  501    0  0.00000000000E+00  0.00000000000E+00 -0.11680706483E+04  0.11680706483E+04  0.50400001928E-02 0. -1.
    10030    2    1    2    0    0  0.00000000000E+00  0.00000000000E+00 -0.80672154494E+03  0.15294197518E+04  0.12993556580E+04 0.  0.
        2    1    3    3  502    0 -0.19315730989E+02 -0.33044844625E+03 -0.10613700360E+04  0.11117893804E+04  0.25500000920E-02 0. -1.
       -2    1    3    3    0  502  0.19315730989E+02  0.33044844625E+03  0.25464849104E+03  0.41763037136E+03  0.25500000920E-02 0.  1.
</event>
<event>
 5   0  0.3689707E-05  0.1301519E+04  0.7818609E-02  0.9028362E-01
        1   -1    0    0  501    0  0.00000000000E+00  0.00000000000E+00  0.59891104617E+03  0.59891104619E+03  0.50400001928E-02 0.  1.
       -1   -1    0    0    0  501  0.00000000000E+00  0.00000000000E+00 -0.70709624208E+03  0.70709624210E+03  0.50400001928E-02 0. -1.
    10030    2    1    2    0    0  0.00000000000E+00  0.00000000000E+00 -0.10818519591E+03  0.13060072883E+04  0.13015187284E+04 0.  0.
        1    1    3    3  502    0 -0.60011396244E+03 -0.20443545177E+03 -0.20142240880E+03  0.66520794391E+03  0.50400001928E-02 0. -1.
       -1    1    3    3    0  502  0.60011396244E+03  0.20443545177E+03  0.93237212886E+02  0.64079934437E+03  0.50400001928E-02 0.  1.
</event>
<event>
 5   0  0.3552698E-05  0.1300067E+04  0.7818609E-02  0.9029512E-01
        1   -1    0    0  501    0  0.00000000000E+00  0.00000000000E+00  0.67079046164E+03  0.67079046165E+03  0.50400001928E-02 0. -1.
       -1   -1    0    0    0  501  0.00000000000E+00  0.00000000000E+00 -0.62991872840E+03  0.62991872842E+03  0.50400001928E-02 0.  1.
    10030    2    1    2    0    0  0.00000000000E+00  0.00000000000E+00  0.40871733235E+02  0.13007091901E+04  0.13000668823E+04 0.  0.
        5    1    3    3  502    0 -0.24970809134E+03  0.79281872893E+02 -0.57473755390E+03  0.63165266731E+03  0.46999998093E+01 0.  1.
       -5    1    3    3    0  502  0.24970809134E+03 -0.79281872893E+02  0.61560928714E+03  0.66905652277E+03  0.46999998093E+01 0. -1.
</event>
<event>
 5   0  0.3631841E-05  0.1300138E+04  0.7818609E-02  0.9029456E-01
        1   -1    0    0  501    0  0.00000000000E+00  0.00000000000E+00  0.86366608332E+03  0.86366608333E+03  0.50400001928E-02 0.  1.
       -1   -1    0    0    0  501  0.00000000000E+00  0.00000000000E+00 -0.48929765627E+03  0.48929765629E+03  0.50400001928E-02 0. -1.
    10030    2    1    2    0    0  0.00000000000E+00  0.00000000000E+00  0.37436842705E+03  0.13529637396E+04  0.13001381317E+04 0.  0.
        3    1    3    3  502    0  0.22552221276E+03 -0.18824581055E+02  0.82135039691E+03  0.85195722781E+03  0.10100000352E+00 0.  1.
       -3    1    3    3    0  502 -0.22552221276E+03  0.18824581055E+02 -0.44698196986E+03  0.50100651182E+03  0.10100000352E+00 0. -1.
</event>
<event>
 5   0  0.6671239E-05  0.1300174E+04  0.7818609E-02  0.9029427E-01
        2   -1    0    0  501    0  0.00000000000E+00  0.00000000000E+00  0.96323678599E+03  0.96323678599E+03  0.25500000920E-02 0.  1.
       -2   -1    0    0    0  501  0.00000000000E+00  0.00000000000E+00 -0.43874303146E+03  0.43874303146E+03  0.25500000920E-02 0. -1.
    10030    2    1    2    0    0  0.00000000000E+00  0.00000000000E+00  0.52449375453E+03  0.14019798175E+04  0.13001744921E+04 0.  0.
        1    1    3    3  502    0  0.33889821054E+03 -0.51472316530E+03  0.39110167370E+02  0.61751237981E+03  0.50400001928E-02 0. -1.
       -1    1    3    3    0  502 -0.33889821054E+03  0.51472316530E+03  0.48538358716E+03  0.78446743764E+03  0.50400001928E-02 0.  1.
</event>
<event>
 5   0  0.3631841E-05  0.1300523E+04  0.7818609E-02  0.9029151E-01
        1   -1    0    0  501    0  0.00000000000E+00  0.00000000000E+00  0.12934521918E+04  0.12934521918E+04  0.50400001928E-02 0. -1.
       -1   -1    0    0    0  501  0.00000000000E+00  0.00000000000E+00 -0.32690799165E+03  0.32690799168E+03  0.50400001928E-02 0.  1.
    10030    2    1    2    0    0  0.00000000000E+00  0.00000000000E+00  0.96654420018E+03  0.16203601835E+04  0.13005227539E+04 0.  0.
        3    1    3    3  502    0  0.39002033936E+03  0.26410791948E+01  0.11315353147E+04  0.11968688395E+04  0.10100000352E+00 0. -1.
       -3    1    3    3    0  502 -0.39002033936E+03 -0.26410791948E+01 -0.16499111448E+03  0.42349134403E+03  0.10100000352E+00 0.  1.
</event>
<event>
 5   0  0.3689707E-05  0.1299838E+04  0.7818609E-02  0.9029693E-01
       -1   -1    0    0    0  501  0.00000000000E+00  0.00000000000E+00  0.21816256859E+03  0.21816256865E+03  0.50400001928E-02 0.  1.
        1   -1    0    0  501    0  0.00000000000E+00  0.00000000000E+00 -0.19361472297E+04  0.19361472297E+04  0.50400001928E-02 0. -1.
    10030    2    1    2    0    0  0.00000000000E+00  0.00000000000E+00 -0.17179846611E+04  0.21543097984E+04  0.12998382251E+04 0.  0.
        1    1    3    3  502    0 -0.20799357638E+03 -0.30660475663E+03  0.25997054093E+02  0.37140766207E+03  0.50400001928E-02 0.  1.
       -1    1    3    3    0  502  0.20799357638E+03  0.30660475663E+03 -0.17439817152E+04  0.17829021363E+04  0.50400001928E-02 0. -1.
</event>
<event>
 5   0  0.3689707E-05  0.1299785E+04  0.7818609E-02  0.9029736E-01
       -1   -1    0    0    0  501  0.00000000000E+00  0.00000000000E+00  0.24299564003E+03  0.24299564008E+03  0.50400001928E-02 0. -1.
        1   -1    0    0  501    0  0.00000000000E+00  0.00000000000E+00 -0.17381381781E+04  0.17381381781E+04  0.50400001928E-02 0.  1.
    10030    2    1    2    0    0  0.00000000000E+00  0.00000000000E+00 -0.14951425381E+04  0.19811338182E+04  0.12997845962E+04 0.  0.
        1    1    3    3  502    0 -0.27880408126E+03 -0.91635550117E+02  0.13624387122E+03  0.32356016788E+03  0.50400001928E-02 0. -1.
       -1    1    3    3    0  502  0.27880408126E+03  0.91635550117E+02 -0.16313864093E+04  0.16575736503E+04  0.50400001928E-02 0.  1.
</event>
<event>
 5   0  0.3551277E-05  0.1300725E+04  0.7818609E-02  0.9028991E-01
        1   -1    0    0  501    0  0.00000000000E+00  0.00000000000E+00  0.14134648529E+04  0.14134648529E+04  0.50400001928E-02 0.  1.
       -1   -1    0    0    0  501  0.00000000000E+00  0.00000000000E+00 -0.29924415049E+03  0.29924415053E+03  0.50400001928E-02 0. -1.
    10030    2    1    2    0    0  0.00000000000E+00  0.00000000000E+00  0.11142207024E+04  0.17127090034E+04  0.13007245507E+04 0.  0.
        4    1    3    3  502    0  0.12201402460E+03 -0.42472164621E+03  0.11854198616E+04  0.12651078058E+04  0.12699999809E+01 0.  1.
       -4    1    3    3    0  502 -0.12201402460E+03  0.42472164621E+03 -0.71199159246E+02  0.44760119765E+03  0.12699999809E+01 0. -1.
</event>
<event>
 5   0  0.3631841E-05  0.1300150E+04  0.7818609E-02  0.9029446E-01
       -1   -1    0    0    0  501  0.00000000000E+00  0.00000000000E+00  0.28807722484E+03  0.28807722488E+03  0.50400001928E-02 0. -1.
        1   -1    0    0  501    0  0.00000000000E+00  0.00000000000E+00 -0.14669589082E+04  0.14669589082E+04  0.50400001928E-02 0.  1.
    10030    2    1    2    0    0  0.00000000000E+00  0.00000000000E+00 -0.11788816834E+04  0.17550361331E+04  0.13001499164E+04 0.  0.
        3    1    3    3  502    0 -0.12015200383E+03 -0.16973327877E+03 -0.14208476220E+04  0.14359853290E+04  0.10100000352E+00 0.  1.
       -3    1    3    3    0  502  0.12015200383E+03  0.16973327877E+03  0.24196593862E+03  0.31905080411E+03  0.10100000352E+00 0. -1.
</event>
<event>
 5   0  0.6671239E-05  0.1299980E+04  0.7818609E-02  0.9029581E-01
        2   -1    0    0  501    0  0.00000000000E+00  0.00000000000E+00  0.18563643129E+04  0.18563643129E+04  0.25500000920E-02 0.  1.
       -2   -1    0    0    0  501  0.00000000000E+00  0.00000000000E+00 -0.22758851865E+03  0.22758851866E+03  0.25500000920E-02 0. -1.
    10030    2    1    2    0    0  0.00000000000E+00  0.00000000000E+00  0.16287757942E+04  0.20839528315E+04  0.12999803138E+04 0.  0.
        1    1    3    3  502    0  0.62489016750E+03 -0.15710210933E+03  0.95152642160E+03  0.11491611398E+04  0.50400001928E-02 0.  1.
       -1    1    3    3    0  502 -0.62489016750E+03  0.15710210933E+03  0.67724937262E+03  0.93479169173E+03  0.50400001928E-02 0. -1.
</event>
<event>
 5   0  0.6458698E-05  0.1299935E+04  0.7818609E-02  0.9029617E-01
        2   -1    0    0  501    0  0.00000000000E+00  0.00000000000E+00  0.86535065897E+03  0.86535065897E+03  0.25500000920E-02 0. -1.
       -2   -1    0    0    0  501  0.00000000000E+00  0.00000000000E+00 -0.48819231096E+03  0.48819231097E+03  0.25500000920E-02 0.  1.
    10030    2    1    2    0    0  0.00000000000E+00  0.00000000000E+00  0.37715834801E+03  0.13535429699E+04  0.12999346722E+04 0.  0.
        3    1    3    3  502    0  0.41886348659E+03 -0.46316928697E+03  0.91008272409E+00  0.62447838012E+03  0.10100000352E+00 0. -1.
       -3    1    3    3    0  502 -0.41886348659E+03  0.46316928697E+03  0.37624826529E+03  0.72906458982E+03  0.10100000352E+00 0.  1.
</event>
<event>
 5   0  0.3631841E-05  0.1299510E+04  0.7818609E-02  0.9029954E-01
       -1   -1    0    0    0  501  0.00000000000E+00  0.00000000000E+00  0.34563979705E+03  0.34563979708E+03  0.50400001928E-02 0. -1.
        1   -1    0    0  501    0  0.00000000000E+00  0.00000000000E+00 -0.12214497927E+04  0.12214497927E+04  0.50400001928E-02 0.  1.
    10030    2    1    2    0    0  0.00000000000E+00  0.00000000000E+00 -0.87580999566E+03  0.15670895898E+04  0.12995101515E+04 0.  0.
        3    1    3    3  502    0  0.47921585757E+03 -0.25268763801E+03 -0.53171195521E+01  0.54178147118E+03  0.10100000352E+00 0. -1.
       -3    1    3    3    0  502 -0.47921585757E+03  0.25268763801E+03 -0.87049287611E+03  0.10253081186E+04  0.10100000352E+00 0.  1.
</event>
<event>
 5   0  0.2512000E-05  0.1299880E+04  0.7818609E-02  0.9029661E-01
        4   -1    0    0  501    0  0.00000000000E+00  0.00000000000E+00  0.11358386733E+04  0.11358393833E+04  0.12699999809E+01 0.  1.
       -4   -1    0    0    0  501  0.00000000000E+00  0.00000000000E+00 -0.37190097395E+03  0.37190314240E+03  0.12699999809E+01 0. -1.
    10030    2    1    2    0    0  0.00000000000E+00  0.00000000000E+00  0.76393769935E+03  0.15077425257E+04  0.12998795003E+04 0.  0.
        2    1    3    3  502    0  0.28097702668E+03 -0.33669074021E+03 -0.17444073829E+03  0.47195160265E+03  0.25500000920E-02 0. -1.
       -2    1    3    3    0  502 -0.28097702668E+03  0.33669074021E+03  0.93837843764E+03  0.10357909231E+04  0.25500000920E-02 0.  1.
</event>
<event>
 5   0  0.3551277E-05  0.1296886E+04  0.7818609E-02  0.9032038E-01
       -1   -1    0    0    0  501  0.00000000000E+00  0.00000000000E+00  0.60759557423E+03  0.60759557425E+03  0.50400001928E-02 0.  1.
        1   -1    0    0  501    0  0.00000000000E+00  0.00000000000E+00 -0.69203679500E+03  0.69203679502E+03  0.50400001928E-02 0. -1.
    10030    2    1    2    0    0  0.00000000000E+00  0.00000000000E+00 -0.84441220773E+02  0.12996323693E+04  0.12968862616E+04 0.  0.
        4    1    3    3  502    0 -0.13996278211E+03 -0.47073908669E+03  0.38210486005E+03  0.62224641831E+03  0.12699999809E+01 0.  1.
       -4    1    3    3    0  502  0.13996278211E+03  0.47073908669E+03 -0.46654608083E+03  0.67738595096E+03  0.12699999809E+01 0. -1.
</event>
<event>
 5   0  0.3718559E-05  0.1298554E+04  0.7818609E-02  0.9030712E-01
        1   -1    0    0  501    0  0.00000000000E+00  0.00000000000E+00  0.85885663937E+03  0.85885663938E+03  0.50400001928E-02 0.  1.
       -1   -1    0    0    0  501  0.00000000000E+00  0.00000000000E+00 -0.49083967477E+03  0.49083967480E+03  0.50400001928E-02 0. -1.
    10030    2    1    2    0    0  0.00000000000E+00  0.00000000000E+00  0.36801696459E+03  0.13496963142E+04  0.12985544479E+04 0.  0.
        2    1    3    3  502    0 -0.53612244237E+03 -0.88143915189E+02 -0.18546908839E+03  0.57410400256E+03  0.25500000920E-02 0. -1.
       -2    1    3    3    0  502  0.53612244237E+03  0.88143915189E+02  0.55348605298E+03  0.77559231162E+03  0.25500000920E-02 0.  1.
</event>
<event>
 5   0  0.3689707E-05  0.1299487E+04  0.7818609E-02  0.9029972E-01
       -1   -1    0    0    0  501  0.00000000000E+00  0.00000000000E+00  0.14933604466E+04  0.14933604466E+04  0.50400001928E-02 0. -1.
        1   -1    0    0  501    0  0.00000000000E+00  0.00000000000E+00 -0.28269587294E+03  0.28269587298E+03  0.50400001928E-02 0.  1.
    10030    2    1    2    0    0  0.00000000000E+00  0.00000000000E+00  0.12106645736E+04  0.17760563196E+04  0.12994873375E+04 0.  0.
        1    1    3    3  502    0 -0.26203730922E+03  0.43384720349E+03  0.11609738006E+04  0.12667861355E+04  0.50400001928E-02 0. -1.
       -1    1    3    3    0  502  0.26203730922E+03 -0.43384720349E+03  0.49690773002E+02  0.50927018403E+03  0.50400001928E-02 0.  1.
</event>
<event>
 5   0  0.3552698E-05  0.1299404E+04  0.7818609E-02  0.9030038E-01
       -1   -1    0    0    0  501  0.00000000000E+00  0.00000000000E+00  0.52881740634E+03  0.52881740636E+03  0.50400001928E-02 0.  1.
        1   -1    0    0  501    0  0.00000000000E+00  0.00000000000E+00 -0.79822065299E+03  0.79822065300E+03  0.50400001928E-02 0. -1.
    10030    2    1    2    0    0  0.00000000000E+00  0.00000000000E+00 -0.26940324665E+03  0.13270380594E+04  0.12994044412E+04 0.  0.
        5    1    3    3  502    0 -0.33449616101E+03 -0.33525728196E+03 -0.58891351179E+03  0.75572901308E+03  0.46999998093E+01 0. -1.
       -5    1    3    3    0  502  0.33449616101E+03  0.33525728196E+03  0.31951026514E+03  0.57130904629E+03  0.46999998093E+01 0.  1.
</event>
<event>
 5   0  0.6688086E-05  0.1299971E+04  0.7818609E-02  0.9029588E-01
       -2   -1    0    0    0  501  0.00000000000E+00  0.00000000000E+00  0.72453273169E+03  0.72453273169E+03  0.25500000920E-02 0.  1.
        2   -1    0    0  501    0  0.00000000000E+00  0.00000000000E+00 -0.58310819586E+03  0.58310819587E+03  0.25500000920E-02 0. -1.
    10030    2    1    2    0    0  0.00000000000E+00  0.00000000000E+00  0.14142453583E+03  0.13076409276E+04  0.12999707289E+04 0.  0.
        5    1    3    3  502    0 -0.50068035094E+03  0.37138074150E+03 -0.11436905224E+03  0.63380347040E+03  0.46999998093E+01 0. -1.
       -5    1    3    3    0  502  0.50068035094E+03 -0.37138074150E+03  0.25579358807E+03  0.67383745716E+03  0.46999998093E+01 0.  1.
</event>
<event>
 5   0  0.6742824E-05  0.1299862E+04  0.7818609E-02  0.9029675E-01
       -2   -1    0    0    0  501  0.00000000000E+00  0.00000000000E+00  0.56472661409E+03  0.56472661410E+03  0.25500000920E-02 0.  1.
        2   -1    0    0  501    0  0.00000000000E+00  0.00000000000E+00 -0.74799084347E+03  0.74799084347E+03  0.25500000920E-02 0. -1.
    10030    2    1    2    0    0  0.00000000000E+00  0.00000000000E+00 -0.18326422938E+03  0.13127174576E+04  0.12998620487E+04 0.  0.
        4    1    3    3  502    0 -0.89325775082E+02 -0.37025841406E+03  0.44020537725E+03  0.58211062036E+03  0.12699999809E+01 0.  1.
       -4    1    3    3    0  502  0.89325775082E+02  0.37025841406E+03 -0.62346960663E+03  0.73060683720E+03  0.12699999809E+01 0. -1.
</event>
<event>
 5   0  0.3552698E-05  0.1300537E+04  0.7818609E-02  0.9029139E-01
       -1   -1    0    0    0  501  0.00000000000E+00  0.00000000000E+00  0.83044730276E+03  0.83044730277E+03  0.50400001928E-02 0.  1.
        1   -1    0    0  501    0  0.00000000000E+00  0.00000000000E+00 -0.50918263064E+03  0.50918263067E+03  0.50400001928E-02 0. -1.
    10030    2    1    2    0    0  0.00000000000E+00  0.00000000000E+00  0.32126467211E+03  0.13396299334E+04  0.13005373386E+04 0.  0.
        5    1    3    3  502    0 -0.40163189349E+03  0.80140829405E+02  0.68088496844E+03  0.79457986424E+03  0.46999998093E+01 0.  1.
       -5    1    3    3    0  502  0.40163189349E+03 -0.80140829405E+02 -0.35962029633E+03  0.54505006920E+03  0.46999998093E+01 0. -1.
</event>
<event>
 5   0  0.3552698E-05  0.1300370E+04  0.7818609E-02  0.9029272E-01
        1   -1    0    0  501    0  0.00000000000E+00  0.00000000000E+00  0.60565564790E+03  0.60565564792E+03  0.50400001928E-02 0. -1.
       -1   -1    0    0    0  501  0.00000000000E+00  0.00000000000E+00 -0.69798804005E+03  0.69798804007E+03  0.50400001928E-02 0.  1.
    10030    2    1    2    0    0  0.00000000000E+00  0.00000000000E+00 -0.92332392155E+02  0.13036436880E+04  0.13003697915E+04 0.  0.
        5    1    3    3  502    0  0.17518031920E+03  0.12888127054E+03 -0.66042389871E+03  0.69532750709E+03  0.46999998093E+01 0.  1.
       -5    1    3    3    0  502 -0.17518031920E+03 -0.12888127054E+03  0.56809150655E+03  0.60831618090E+03  0.46999998093E+01 0. -1.
</event>
<event>
 5   0  0.6458698E-05  0.1299665E+04  0.7818609E-02  0.9029831E-01
       -2   -1    0    0    0  501  0.00000000000E+00  0.00000000000E+00  0.30249942958E+03  0.30249942959E+03  0.25500000920E-02 0. -1.
        2   -1    0    0  501    0  0.00000000000E+00  0.00000000000E+00 -0.13959776626E+04  0.13959776626E+04  0.25500000920E-02 0.  1.
    10030    2    1    2    0    0  0.00000000000E+00  0.00000000000E+00 -0.10934782330E+04  0.16984770921E+04  0.12996652594E+04 0.  0.
        3    1    3    3  502    0  0.34988208470E+03 -0.54543864060E+03 -0.48322998278E+03  0.80835141512E+03  0.10100000352E+00 0. -1.
       -3    1    3    3    0  502 -0.34988208470E+03  0.54543864060E+03 -0.61024825019E+03  0.89012567703E+03  0.10100000352E+00 0.  1.
</event>
<event>
 5   0  0.6742824E-05  0.1300007E+04  0.7818609E-02  0.9029560E-01
        2   -1    0    0  501    0  0.00000000000E+00  0.00000000000E+00  0.62008351887E+03  0.62008351887E+03  0.25500000920E-02 0.  1.
       -2   -1    0    0    0  501  0.00000000000E+00  0.00000000000E+00 -0.68136688302E+03  0.68136688302E+03  0.25500000920E-02 0. -1.
    10030    2    1    2    0    0  0.00000000000E+00  0.00000000000E+00 -0.61283364148E+02  0.13014504019E+04  0.13000067299E+04 0.  0.
        4    1    3    3  502    0 -0.24045342511E+03 -0.56355227750E+03 -0.24789360215E+03  0.66095527081E+03  0.12699999809E+01 0.  1.
       -4    1    3    3    0  502  0.24045342511E+03  0.56355227750E+03  0.18661023800E+03  0.64049513109E+03  0.12699999809E+01 0. -1.
</event>
<event>
 5   0  0.6742824E-05  0.1300530E+04  0.7818609E-02  0.9029145E-01
        2   -1    0    0  501    0  0.00000000000E+00  0.00000000000E+00  0.16264805269E+04  0.16264805269E+04  0.25500000920E-02 0. -1.
       -2   -1    0    0    0  501  0.00000000000E+00  0.00000000000E+00 -0.25997526811E+03  0.25997526812E+03  0.25500000920E-02 0.  1.
    10030    2    1    2    0    0  0.00000000000E+00  0.00000000000E+00  0.13665052588E+04  0.18864557950E+04  0.13005302166E+04 0.  0.
        4    1    3    3  502    0  0.56681600957E+03 -0.29484335761E+03  0.50780403562E+03  0.81613696505E+03  0.12699999809E+01 0. -1.
       -4    1    3    3    0  502 -0.56681600957E+03  0.29484335761E+03  0.85870122318E+03  0.10703188300E+04  0.12699999809E+01 0.  1.
</event>
<event>
 5   0  0.3551277E-05  0.1300327E+04  0.7818609E-02  0.9029306E-01
       -1   -1    0    0    0  501  0.00000000000E+00  0.00000000000E+00  0.31192650167E+03  0.31192650172E+03  0.50400001928E-02 0.  1.
        1   -1    0    0  501    0  0.00000000000E+00  0.00000000000E+00 -0.13551668630E+04  0.13551668630E+04  0.50400001928E-02 0. -1.
    10030    2    1    2    0    0  0.00000000000E+00  0.00000000000E+00 -0.10432403613E+04  0.16670933647E+04  0.13003268186E+04 0.  0.
        4    1    3    3  502    0 -0.12510838035E+03 -0.63384420278E+03 -0.61495769298E+03  0.89195580456E+03  0.12699999809E+01 0.  1.
       -4    1    3    3    0  502  0.12510838035E+03  0.63384420278E+03 -0.42828266830E+03  0.77513756012E+03  0.12699999809E+01 0. -1.
</event>
<event>
 5   0  0.3631841E-05  0.1300109E+04  0.7818609E-02  0.9029479E-01
        1   -1    0    0  501    0  0.00000000000E+00  0.00000000000E+00  0.63217540029E+03  0.63217540031E+03  0.50400001928E-02 0. -1.
       -1   -1    0    0    0  501  0.00000000000E+00  0.00000000000E+00 -0.66843903133E+03  0.66843903135E+03  0.50400001928E-02 0.  1.
    10030    2    1    2    0    0  0.00000000000E+00  0.00000000000E+00 -0.36263631042E+02  0.13006144317E+04  0.13001087835E+04 0.  0.
        3    1    3    3  502    0 -0.48409283228E+03 -0.12036014472E+03  0.39884952316E+03  0.63868097438E+03  0.10100000352E+00 0. -1.
       -3    1    3    3    0  502  0.48409283228E+03  0.12036014472E+03 -0.43511315420E+03  0.66193345728E+03  0.10100000352E+00 0.  1.
</event>
<event>
 5   0  0.3631841E-05  0.1299963E+04  0.7818609E-02  0.9029594E-01
       -1   -1    0    0    0  501  0.00000000000E+00  0.00000000000E+00  0.64685743207E+03  0.64685743209E+03  0.50400001928E-02 0.  1.
        1   -1    0    0  501    0  0.00000000000E+00  0.00000000000E+00 -0.65312101826E+03  0.65312101828E+03  0.50400001928E-02 0. -1.
    10030    2    1    2    0    0  0.00000000000E+00  0.00000000000E+00 -0.62635861892E+01  0.12999784504E+04  0.12999633606E+04 0.  0.
        3    1    3    3  502    0  0.14799774896E+03  0.51165206509E+03  0.36941112675E+03  0.64819423029E+03  0.10100000352E+00 0.  1.
       -3    1    3    3    0  502 -0.14799774896E+03 -0.51165206509E+03 -0.37567471294E+03  0.65178422009E+03  0.10100000352E+00 0. -1.
</event>
<event>
 5   0  0.6742824E-05  0.1300230E+04  0.7818609E-02  0.9029383E-01
       -2   -1    0    0    0  501  0.00000000000E+00  0.00000000000E+00  0.24691843220E+03  0.24691843222E+03  0.25500000920E-02 0. -1.
        2   -1    0    0  501    0  0.00000000000E+00  0.00000000000E+00 -0.17116956326E+04  0.17116956326E+04  0.25500000920E-02 0.  1.
    10030    2    1    2    0    0  0.00000000000E+00  0.00000000000E+00 -0.14647772004E+04  0.19586140648E+04  0.13002295213E+04 0.  0.
        4    1    3    3  502    0  0.32379360851E+03 -0.40778906067E+03 -0.13187350849E+04  0.14178145351E+04  0.12699999809E+01 0.  1.
       -4    1    3    3    0  502 -0.32379360851E+03  0.40778906067E+03 -0.14604211546E+03  0.54079952968E+03  0.12699999809E+01 0. -1.
</event>
<event>
 5   0  0.3551277E-05  0.1299769E+04  0.7818609E-02  0.9029749E-01
       -1   -1    0    0    0  501  0.00000000000E+00  0.00000000000E+00  0.46664497478E+03  0.46664497481E+03  0.50400001928E-02 0.  1.
        1   -1    0    0  501    0  0.00000000000E+00  0.00000000000E+00 -0.90507719889E+03  0.90507719891E+03  0.50400001928E-02 0. -1.
    10030    2    1    2    0    0  0.00000000000E+00  0.00000000000E+00 -0.43843222411E+03  0.13717221737E+04  0.12997687897E+04 0.  0.
        4    1    3    3  502    0  0.49760147386E+03  0.34083811556E+03  0.36194332346E+02  0.60422635692E+03  0.12699999809E+01 0.  1.
       -4    1    3    3    0  502 -0.49760147386E+03 -0.34083811556E+03 -0.47462655645E+03  0.76749581680E+03  0.12699999809E+01 0. -1.
</event>
<event>
 5   0  0.6458698E-05  0.1300153E+04  0.7818609E-02  0.9029444E-01
       -2   -1    0    0    0  501  0.00000000000E+00  0.00000000000E+00  0.30378765882E+03  0.30378765883E+03  0.25500000920E-02 0.  1.
        2   -1    0    0  501    0  0.00000000000E+00  0.00000000000E+00 -0.13911014401E+04  0.13911014401E+04  0.25500000920E-02 0. -1.
    10030    2    1    2    0    0  0.00000000000E+00  0.00000000000E+00 -0.10873137813E+04  0.16948890990E+04  0.13001529905E+04 0.  0.
        3    1    3    3  502    0 -0.21592986399E+03 -0.52422619431E+03 -0.12903465313E+03  0.58145400581E+03  0.10100000352E+00 0.  1.
       -3    1    3    3    0  502  0.21592986399E+03  0.52422619431E+03 -0.95827912819E+03  0.11134350932E+04  0.10100000352E+00 0. -1.
</event>
<event>
 5   0  0.3552698E-05  0.1298830E+04  0.7818609E-02  0.9030494E-01
        1   -1    0    0  501    0  0.00000000000E+00  0.00000000000E+00  0.41998319410E+03  0.41998319413E+03  0.50400001928E-02 0. -1.
       -1   -1    0    0    0  501  0.00000000000E+00  0.00000000000E+00 -0.10041826046E+04  0.10041826046E+04  0.50400001928E-02 0.  1.
    10030    2    1    2    0    0  0.00000000000E+00  0.00000000000E+00 -0.58419941045E+03  0.14241657987E+04  0.12988299623E+04 0.  0.
        5    1    3    3  502    0  0.19823294723E+02  0.16492051896E+02  0.41940294371E+03  0.42022121553E+03  0.46999998093E+01 0. -1.
       -5    1    3    3    0  502 -0.19823294723E+02 -0.16492051896E+02 -0.10036023542E+04  0.10039445832E+04  0.46999998093E+01 0.  1.
</event>
<event>
 5   0  0.6458698E-05  0.1298467E+04  0.7818609E-02  0.9030782E-01
       -2   -1    0    0    0  501  0.00000000000E+00  0.00000000000E+00  0.32074887480E+03  0.32074887481E+03  0.25500000920E-02 0.  1.
        2   -1    0    0  501    0  0.00000000000E+00  0.00000000000E+00 -0.13141247966E+04  0.13141247966E+04  0.25500000920E-02 0. -1.
    10030    2    1    2    0    0  0.00000000000E+00  0.00000000000E+00 -0.99337592185E+03  0.16348736715E+04  0.12984668650E+04 0.  0.
        3    1    3    3  502    0 -0.26088006346E+03  0.59289734019E+03 -0.55183474763E+03  0.85094492326E+03  0.10100000352E+00 0.  1.
       -3    1    3    3    0  502  0.26088006346E+03 -0.59289734019E+03 -0.44154117421E+03  0.78392874819E+03  0.10100000352E+00 0. -1.
</event>
<event>
 5   0  0.6671239E-05  0.1300774E+04  0.7818609E-02  0.9028952E-01
       -2   -1    0    0    0  501  0.00000000000E+00  0.00000000000E+00  0.73376749353E+03  0.73376749353E+03  0.25500000920E-02 0.  1.
        2   -1    0    0  501    0  0.00000000000E+00  0.00000000000E+00 -0.57648105416E+03  0.57648105417E+03  0.25500000920E-02 0. -1.
    10030    2    1    2    0    0  0.00000000000E+00  0.00000000000E+00  0.15728643936E+03  0.13102485477E+04  0.13007737054E+04 0.  0.
        1    1    3    3  502    0  0.13506650623E+03  0.53315683110E+03 -0.27102202873E+03  0.61314933559E+03  0.50400001928E-02 0. -1.
       -1    1    3    3    0  502 -0.13506650623E+03 -0.53315683110E+03  0.42830846810E+03  0.69709921211E+03  0.50400001928E-02 0.  1.
</event>
<event>
 5   0  0.3552698E-05  0.1299942E+04  0.7818609E-02  0.9029611E-01
        1   -1    0    0  501    0  0.00000000000E+00  0.00000000000E+00  0.16003362521E+04  0.16003362521E+04  0.50400001928E-02 0. -1.
       -1   -1    0    0    0  501  0.00000000000E+00  0.00000000000E+00 -0.26398353525E+03  0.26398353530E+03  0.50400001928E-02 0.  1.
    10030    2    1    2    0    0  0.00000000000E+00  0.00000000000E+00  0.13363527168E+04  0.18643197874E+04  0.12999421856E+04 0.  0.
        5    1    3    3  502    0 -0.21517344996E+03 -0.61326606428E+03  0.65850752012E+03  0.92522922739E+03  0.46999998093E+01 0.  1.
       -5    1    3    3    0  502  0.21517344996E+03  0.61326606428E+03  0.67784519668E+03  0.93909055997E+03  0.46999998093E+01 0. -1.
</event>
<event>
 5   0  0.3718559E-05  0.1299620E+04  0.7818609E-02  0.9029867E-01
       -1   -1    0    0    0  501  0.00000000000E+00  0.00000000000E+00  0.69157125045E+03  0.69157125047E+03  0.50400001928E-02 0.  1.
        1   -1    0    0  501    0  0.00000000000E+00  0.00000000000E+00 -0.61057009456E+03  0.61057009458E+03  0.50400001928E-02 0. -1.
    10030    2    1    2    0    0  0.00000000000E+00  0.00000000000E+00  0.81001155884E+02  0.13021413450E+04  0.12996195194E+04 0.  0.
        2    1    3    3  502    0 -0.38442929215E+03  0.16579355884E+03 -0.45743391880E+03  0.62009610133E+03  0.25500000920E-02 0. -1.
       -2    1    3    3    0  502  0.38442929215E+03 -0.16579355884E+03  0.53843507469E+03  0.68204524371E+03  0.25500000920E-02 0.  1.
</event>
<event>
 5   0  0.6618060E-05  0.1299459E+04  0.7818609E-02  0.9029994E-01
       -2   -1    0    0    0  501  0.00000000000E+00  0.00000000000E+00  0.29598767263E+03  0.29598767264E+03  0.25500000920E-02 0. -1.
        2   -1    0    0  501    0  0.00000000000E+00  0.00000000000E+00 -0.14262374785E+04  0.14262374785E+04  0.25500000920E-02 0.  1.
    10030    2    1    2    0    0  0.00000000000E+00  0.00000000000E+00 -0.11302498059E+04  0.17222251512E+04  0.12994594444E+04 0.  0.
        2    1    3    3  502    0 -0.61059576063E+02  0.19883237550E+03 -0.13809208606E+04  0.13964974074E+04  0.25500000920E-02 0.  1.
       -2    1    3    3    0  502  0.61059576063E+02 -0.19883237550E+03  0.25067105477E+03  0.32572774380E+03  0.25500000920E-02 0. -1.
</event>
<event>
 5   0  0.6618060E-05  0.1308034E+04  0.7818609E-02  0.9023218E-01
        2   -1    0    0  501    0  0.00000000000E+00  0.00000000000E+00  0.11156156377E+04  0.11156156377E+04  0.25500000920E-02 0. -1.
       -2   -1    0    0    0  501  0.00000000000E+00  0.00000000000E+00 -0.38341016815E+03  0.38341016816E+03  0.25500000920E-02 0.  1.
    10030    2    1    2    0    0  0.00000000000E+00  0.00000000000E+00  0.73220546953E+03  0.14990258058E+04  0.13080342186E+04 0.  0.
        2    1    3    3  502    0  0.62211637616E+03 -0.20175598755E+03  0.36842754215E+03  0.75064846488E+03  0.25500000920E-02 0.  1.
       -2    1    3    3    0  502 -0.62211637616E+03  0.20175598755E+03  0.36377792738E+03  0.74837734096E+03  0.25500000920E-02 0. -1.
</event>
<event>
 5   0  0.3631841E-05  0.1299958E+04  0.7818609E-02  0.9029599E-01
        1   -1    0    0  501    0  0.00000000000E+00  0.00000000000E+00  0.31448875736E+04  0.31448875736E+04  0.50400001928E-02 0.  1.
       -1   -1    0    0    0  501  0.00000000000E+00  0.00000000000E+00 -0.13433628386E+03  0.13433628396E+03  0.50400001928E-02 0. -1.
    10030    2    1    2    0    0  0.00000000000E+00  0.00000000000E+00  0.30105512897E+04  0.32792238575E+04  0.12999577070E+04 0.  0.
        3    1    3    3  502    0 -0.31601647094E+03  0.28320765303E+03  0.27472359496E+04  0.27798162453E+04  0.10100000352E+00 0.  1.
       -3    1    3    3    0  502  0.31601647094E+03 -0.28320765303E+03  0.26331534015E+03  0.49940761228E+03  0.10100000352E+00 0. -1.
</event>
<event>
 5   0  0.3718559E-05  0.1301048E+04  0.7818609E-02  0.9028735E-01
       -1   -1    0    0    0  501  0.00000000000E+00  0.00000000000E+00  0.27142486749E+03  0.27142486754E+03  0.50400001928E-02 0. -1.
        1   -1    0    0  501    0  0.00000000000E+00  0.00000000000E+00 -0.15591103668E+04  0.15591103668E+04  0.50400001928E-02 0.  1.
    10030    2    1    2    0    0  0.00000000000E+00  0.00000000000E+00 -0.12876854993E+04  0.18305352343E+04  0.13010477697E+04 0.  0.
        2    1    3    3  502    0 -0.91898141251E+02  0.87875881087E+02  0.25377093109E+03  0.28384348559E+03  0.25500000920E-02 0. -1.
       -2    1    3    3    0  502  0.91898141251E+02 -0.87875881087E+02 -0.15414564304E+04  0.15466917487E+04  0.25500000920E-02 0.  1.
</event>
<event>
 5   0  0.6671239E-05  0.1300130E+04  0.7818609E-02  0.9029462E-01
        2   -1    0    0  501    0  0.00000000000E+00  0.00000000000E+00  0.70262929972E+03  0.70262929972E+03  0.25500000920E-02 0. -1.
       -2   -1    0    0    0  501  0.00000000000E+00  0.00000000000E+00 -0.60143344402E+03  0.60143344402E+03  0.25500000920E-02 0.  1.
    10030    2    1    2    0    0  0.00000000000E+00  0.00000000000E+00  0.10119585570E+03  0.13040627437E+04  0.13001303928E+04 0.  0.
        1    1    3    3  502    0  0.51393793440E+03  0.25720012930E+03 -0.25413119579E+03  0.62838425476E+03  0.50400001928E-02 0.  1.
       -1    1    3    3    0  502 -0.51393793440E+03 -0.25720012930E+03  0.35532705149E+03  0.67567848898E+03  0.50400001928E-02 0. -1.
</event>
<event>
 5   0  0.3551277E-05  0.1299982E+04  0.7818609E-02  0.9029579E-01
       -1   -1    0    0    0  501  0.00000000000E+00  0.00000000000E+00  0.38200947131E+03  0.38200947135E+03  0.50400001928E-02 0. -1.
        1   -1    0    0  501    0  0.00000000000E+00  0.00000000000E+00 -0.11059635503E+04  0.11059635503E+04  0.50400001928E-02 0.  1.
    10030    2    1    2    0    0  0.00000000000E+00  0.00000000000E+00 -0.72395407898E+03  0.14879730216E+04  0.12999823863E+04 0.  0.
        4    1    3    3  502    0  0.42093575118E+03 -0.21062144085E+03 -0.87506203998E+03  0.99362139907E+03  0.12699999809E+01 0.  1.
       -4    1    3    3    0  502 -0.42093575118E+03  0.21062144085E+03  0.15110796101E+03  0.49435162258E+03  0.12699999809E+01 0. -1.
</event>
<event>
 5   0  0.6671239E-05  0.1300334E+04  0.7818609E-02  0.9029300E-01
       -2   -1    0    0    0  501  0.00000000000E+00  0.00000000000E+00  0.37745236104E+03  0.37745236105E+03  0.25500000920E-02 0.  1.
        2   -1    0    0  501    0  0.00000000000E+00  0.00000000000E+00 -0.11199216623E+04  0.11199216623E+04  0.25500000920E-02 0. -1.
    10030    2    1    2    0    0  0.00000000000E+00  0.00000000000E+00 -0.74246930122E+03  0.14973740233E+04  0.13003339196E+04 0.  0.
        1    1    3    3  502    0 -0.45458127072E+03 -0.19943657719E+03  0.11226825749E+03  0.50894325978E+03  0.50400001928E-02 0.  1.
       -1    1    3    3    0  502  0.45458127072E+03  0.19943657719E+03 -0.85473755871E+03  0.98843076354E+03  0.50400001928E-02 0. -1.
</event>
<event>
 5   0  0.3689707E-05  0.1300046E+04  0.7818609E-02  0.9029528E-01
       -1   -1    0    0    0  501  0.00000000000E+00  0.00000000000E+00  0.33250071631E+03  0.33250071635E+03  0.50400001928E-02 0.  1.
        1   -1    0    0  501    0  0.00000000000E+00  0.00000000000E+00 -0.12707644454E+04  0.12707644454E+04  0.50400001928E-02 0. -1.
    10030    2    1    2    0    0  0.00000000000E+00  0.00000000000E+00 -0.93826372911E+03  0.16032651618E+04  0.13000462890E+04 0.  0.
        1    1    3    3  502    0  0.21165863245E+03  0.30107305543E+03 -0.11299049429E+04  0.11883305691E+04  0.50400001928E-02 0. -1.
       -1    1    3    3    0  502 -0.21165863245E+03 -0.30107305543E+03  0.19164121377E+03  0.41493459272E+03  0.50400001928E-02 0.  1.
</event>
<event>
 5   0  0.6742824E-05  0.1300303E+04  0.7818609E-02  0.9029325E-01
        2   -1    0    0  501    0  0.00000000000E+00  0.00000000000E+00  0.14321462187E+04  0.14321462187E+04  0.25500000920E-02 0. -1.
       -2   -1    0    0    0  501  0.00000000000E+00  0.00000000000E+00 -0.29514951839E+03  0.29514951840E+03  0.25500000920E-02 0.  1.
    10030    2    1    2    0    0  0.00000000000E+00  0.00000000000E+00  0.11369967003E+04  0.17272957371E+04  0.13003034518E+04 0.  0.
        4    1    3    3  502    0  0.24320264222E+03 -0.97099701331E+02 -0.22199291714E+03  0.34330503250E+03  0.12699999809E+01 0.  1.
       -4    1    3    3    0  502 -0.24320264222E+03  0.97099701331E+02  0.13589896174E+04  0.13839907046E+04  0.12699999809E+01 0. -1.
</event>
<event>
 5   0  0.3552698E-05  0.1300289E+04  0.7818609E-02  0.9029336E-01
        1   -1    0    0  501    0  0.00000000000E+00  0.00000000000E+00  0.77404175070E+03  0.77404175071E+03  0.50400001928E-02 0.  1.
       -1   -1    0    0    0  501  0.00000000000E+00  0.00000000000E+00 -0.54607923251E+03  0.54607923254E+03  0.50400001928E-02 0. -1.
    10030    2    1    2    0    0  0.00000000000E+00  0.00000000000E+00  0.22796251818E+03  0.13201209833E+04  0.13002893911E+04 0.  0.
        5    1    3    3  502    0 -0.10910401102E+03 -0.47921380324E+03 -0.31808733565E+03  0.58544956874E+03  0.46999998093E+01 0. -1.
       -5    1    3    3    0  502  0.10910401102E+03  0.47921380324E+03  0.54604985383E+03  0.73467141451E+03  0.46999998093E+01 0.  1.
</event>
<event>
 5   0  0.6458698E-05  0.1300016E+04  0.7818609E-02  0.9029553E-01
       -2   -1    0    0    0  501  0.00000000000E+00  0.00000000000E+00  0.29310901185E+03  0.29310901186E+03  0.25500000920E-02 0.  1.
        2   -1    0    0  501    0  0.00000000000E+00  0.00000000000E+00 -0.14414785415E+04  0.14414785415E+04  0.25500000920E-02 0. -1.
    10030    2    1    2    0    0  0.00000000000E+00  0.00000000000E+00 -0.11483695297E+04  0.17345875534E+04  0.13000159244E+04 0.  0.
        3    1    3    3  502    0  0.52232531727E+03  0.38687807759E+03 -0.57879851570E+03  0.87034827279E+03  0.10100000352E+00 0.  1.
       -3    1    3    3    0  502 -0.52232531727E+03 -0.38687807759E+03 -0.56957101400E+03  0.86423928062E+03  0.10100000352E+00 0. -1.
</event>
<event>
 5   0  0.6618060E-05  0.1301569E+04  0.7818609E-02  0.9028322E-01
       -2   -1    0    0    0  501  0.00000000000E+00  0.00000000000E+00  0.43141202881E+03  0.43141202882E+03  0.25500000920E-02 0. -1.
        2   -1    0    0  501    0  0.00000000000E+00  0.00000000000E+00 -0.98170693789E+03  0.98170693789E+03  0.25500000920E-02 0.  1.
    10030    2    1    2    0    0  0.00000000000E+00  0.00000000000E+00 -0.55029490907E+03  0.14131189667E+04  0.13015685641E+04 0.  0.
        2    1    3    3  502    0  0.30990401428E+03  0.53678625790E+03 -0.59804860636E+02  0.62270105677E+03  0.25500000920E-02 0. -1.
       -2    1    3    3    0  502 -0.30990401428E+03 -0.53678625790E+03 -0.49049004844E+03  0.79041790995E+03  0.25500000920E-02 0.  1.
</event>
<event>
 5   0  0.6671239E-05  0.1299983E+04  0.7818609E-02  0.9029578E-01
       -2   -1    0    0    0  501  0.00000000000E+00  0.00000000000E+00  0.10138858775E+04  0.10138858775E+04  0.25500000920E-02 0. -1.
        2   -1    0    0  501    0  0.00000000000E+00  0.00000000000E+00 -0.41670295442E+03  0.41670295443E+03  0.25500000920E-02 0.  1.
    10030    2    1    2    0    0  0.00000000000E+00  0.00000000000E+00  0.59718292313E+03  0.14305888320E+04  0.12999834470E+04 0.  0.
        1    1    3    3  502    0  0.49986423881E+02  0.51136516287E+03 -0.13952193043E+03  0.53240899829E+03  0.50400001928E-02 0.  1.
       -1    1    3    3    0  502 -0.49986423881E+02 -0.51136516287E+03  0.73670485355E+03  0.89817983368E+03  0.50400001928E-02 0. -1.
</event>
<event>
 5   0  0.3718559E-05  0.1299532E+04  0.7818609E-02  0.9029936E-01
        1   -1    0    0  501    0  0.00000000000E+00  0.00000000000E+00  0.15235446576E+04  0.15235446576E+04  0.50400001928E-02 0.  1.
       -1   -1    0    0    0  501  0.00000000000E+00  0.00000000000E+00 -0.27711412907E+03  0.27711412912E+03  0.50400001928E-02 0. -1.
    10030    2    1    2    0    0  0.00000000000E+00  0.00000000000E+00  0.12464305285E+04  0.18006587867E+04  0.12995318402E+04 0.  0.
        2    1    3    3  502    0 -0.41218876947E+03  0.49416036470E+03  0.49849625141E+03  0.81399788721E+03  0.25500000920E-02 0.  1.
       -2    1    3    3    0  502  0.41218876947E+03 -0.49416036470E+03  0.74793427709E+03  0.98666089948E+03  0.25500000920E-02 0. -1.
</event>
<event>
 5   0  0.6618060E-05  0.1300230E+04  0.7818609E-02  0.9029383E-01
        2   -1    0    0  501    0  0.00000000000E+00  0.00000000000E+00  0.78210623173E+03  0.78210623173E+03  0.25500000920E-02 0.  1.
       -2   -1    0    0    0  501  0.00000000000E+00  0.00000000000E+00 -0.54039935338E+03  0.54039935339E+03  0.25500000920E-02 0. -1.
    10030    2    1    2    0    0  0.00000000000E+00  0.00000000000E+00  0.24170687835E+03  0.13225055851E+04  0.13002302902E+04 0.  0.
        2    1    3    3  502    0  0.27271734797E+03  0.43052778243E+03 -0.28969601026E+03  0.58621898783E+03  0.25500000920E-02 0. -1.
       -2    1    3    3    0  502 -0.27271734797E+03 -0.43052778243E+03  0.53140288861E+03  0.73628659729E+03  0.25500000920E-02 0.  1.
</event>
<event>
 5   0  0.3631841E-05  0.1300034E+04  0.7818609E-02  0.9029539E-01
       -1   -1    0    0    0  501  0.00000000000E+00  0.00000000000E+00  0.53968986577E+03  0.53968986580E+03  0.50400001928E-02 0. -1.
        1   -1    0    0  501    0  0.00000000000E+00  0.00000000000E+00 -0.78289744944E+03  0.78289744946E+03  0.50400001928E-02 0.  1.
    10030    2    1    2    0    0  0.00000000000E+00  0.00000000000E+00 -0.24320758367E+03  0.13225873153E+04  0.13000335679E+04 0.  0.
        3    1    3    3  502    0  0.54599018950E+02  0.63667727278E+03 -0.24276145229E+03  0.68357306520E+03  0.10100000352E+00 0.  1.
       -3    1    3    3    0  502 -0.54599018950E+02 -0.63667727278E+03 -0.44613137836E+00  0.63901425006E+03  0.10100000352E+00 0. -1.
</event>
<event>
 5   0  0.3551277E-05  0.1300124E+04  0.7818609E-02  0.9029467E-01
        1   -1    0    0  501    0  0.00000000000E+00  0.00000000000E+00  0.46067737532E+03  0.46067737535E+03  0.50400001928E-02 0. -1.
       -1   -1    0    0    0  501  0.00000000000E+00  0.00000000000E+00 -0.91730239838E+03  0.91730239840E+03  0.50400001928E-02 0.  1.
    10030    2    1    2    0    0  0.00000000000E+00  0.00000000000E+00 -0.45662502306E+03  0.13779797737E+04  0.13001237807E+04 0.  0.
        4    1    3    3  502    0 -0.22635374715E+03 -0.73854066090E+02  0.41279736175E+03  0.47654350976E+03  0.12699999809E+01 0. -1.
       -4    1    3    3    0  502  0.22635374715E+03  0.73854066090E+02 -0.86942238481E+03  0.90143626399E+03  0.12699999809E+01 0.  1.
</event>
<event>
 5   0  0.3718559E-05  0.1300224E+04  0.7818609E-02  0.9029388E-01
        1   -1    0    0  501    0  0.00000000000E+00  0.00000000000E+00  0.44933743079E+03  0.44933743082E+03  0.50400001928E-02 0. -1.
       -1   -1    0    0    0  501  0.00000000000E+00  0.00000000000E+00 -0.94059670860E+03  0.94059670861E+03  0.50400001928E-02 0.  1.
    10030    2    1    2    0    0  0.00000000000E+00  0.00000000000E+00 -0.49125927780E+03  0.13899341394E+04  0.13002235323E+04 0.  0.
        2    1    3    3  502    0  0.23668967936E+03 -0.38221074189E+03 -0.74764633962E+03  0.87240019755E+03  0.25500000920E-02 0.  1.
       -2    1    3    3    0  502 -0.23668967936E+03  0.38221074189E+03  0.25638706181E+03  0.51753394189E+03  0.25500000920E-02 0. -1.
</event>
<event>
 5   0  0.3552698E-05  0.1300365E+04  0.7818609E-02  0.9029275E-01
       -1   -1    0    0    0  501  0.00000000000E+00  0.00000000000E+00  0.19997334640E+03  0.19997334646E+03  0.50400001928E-02 0.  1.
        1   -1    0    0  501    0  0.00000000000E+00  0.00000000000E+00 -0.21139692293E+04  0.21139692293E+04  0.50400001928E-02 0. -1.
    10030    2    1    2    0    0  0.00000000000E+00  0.00000000000E+00 -0.19139958829E+04  0.23139425758E+04  0.13003653349E+04 0.  0.
        5    1    3    3  502    0  0.46454994812E+03  0.21834344641E+03 -0.24691951529E+03  0.56962430769E+03  0.46999998093E+01 0.  1.
       -5    1    3    3    0  502 -0.46454994812E+03 -0.21834344641E+03 -0.16670763676E+04  0.17443182681E+04  0.46999998093E+01 0. -1.
</event>
<event>
 5   0  0.6458698E-05  0.1300277E+04  0.7818609E-02  0.9029345E-01
       -2   -1    0    0    0  501  0.00000000000E+00  0.00000000000E+00  0.37251174385E+03  0.37251174386E+03  0.25500000920E-02 0. -1.
        2   -1    0    0  501    0  0.00000000000E+00  0.00000000000E+00 -0.11346762400E+04  0.11346762400E+04  0.25500000920E-02 0.  1.
    10030    2    1    2    0    0  0.00000000000E+00  0.00000000000E+00 -0.76216449611E+03  0.15071879838E+04  0.13002772394E+04 0.  0.
        3    1    3    3  502    0  0.57866746894E+03 -0.91669979232E+02 -0.54420287955E+02  0.58840547469E+03  0.10100000352E+00 0. -1.
       -3    1    3    3    0  502 -0.57866746894E+03  0.91669979232E+02 -0.70774420815E+03  0.91878250913E+03  0.10100000352E+00 0.  1.
</event>
<event>
 5   0  0.6742824E-05  0.1300307E+04  0.7818609E-02  0.9029322E-01
       -2   -1    0    0    0  501  0.00000000000E+00  0.00000000000E+00  0.11405641139E+04  0.11405641139E+04  0.25500000920E-02 0. -1.
        2   -1    0    0  501    0  0.00000000000E+00  0.00000000000E+00 -0.37060558664E+03  0.37060558665E+03  0.25500000920E-02 0.  1.
    10030    2    1    2    0    0  0.00000000000E+00  0.00000000000E+00  0.76995852722E+03  0.15111697005E+04  0.13003067831E+04 0.  0.
        4    1    3    3  502    0  0.50155283562E+03  0.21869170125E+03  0.79309000572E+03  0.96352201696E+03  0.12699999809E+01 0. -1.
       -4    1    3    3    0  502 -0.50155283562E+03 -0.21869170125E+03 -0.23131478496E+02  0.54764768356E+03  0.12699999809E+01 0.  1.
</event>
<event>
 5   0  0.6688086E-05  0.1299962E+04  0.7818609E-02  0.9029595E-01
       -2   -1    0    0    0  501  0.00000000000E+00  0.00000000000E+00  0.31870199407E+03  0.31870199408E+03  0.25500000920E-02 0. -1.
        2   -1    0    0  501    0  0.00000000000E+00  0.00000000000E+00 -0.13256129675E+04  0.13256129675E+04  0.25500000920E-02 0.  1.
    10030    2    1    2    0    0  0.00000000000E+00  0.00000000000E+00 -0.10069109734E+04  0.16443149616E+04  0.12999623012E+04 0.  0.
        5    1    3    3  502    0 -0.42008850250E+02 -0.62789065013E+03 -0.70913988593E+03  0.94811016229E+03  0.46999998093E+01 0.  1.
       -5    1    3    3    0  502  0.42008850250E+02  0.62789065013E+03 -0.29777108749E+03  0.69620479930E+03  0.46999998093E+01 0. -1.
</event>
<event>
 5   0  0.3718559E-05  0.1299948E+04  0.7818609E-02  0.9029606E-01
        1   -1    0    0  501    0  0.00000000000E+00  0.00000000000E+00  0.46590817807E+03  0.46590817810E+03  0.50400001928E-02 0.  1.
       -1   -1    0    0    0  501  0.00000000000E+00  0.00000000000E+00 -0.90675895198E+03  0.90675895200E+03  0.50400001928E-02 0. -1.
    10030    2    1    2    0    0  0.00000000000E+00  0.00000000000E+00 -0.44085077391E+03  0.13726671301E+04  0.12999483240E+04 0.  0.
        2    1    3    3  502    0  0.36554917941E+03 -0.37239884746E+03 -0.62960621191E+03  0.81774756878E+03  0.25500000920E-02 0. -1.
       -2    1    3    3    0  502 -0.36554917941E+03  0.37239884746E+03  0.18875543800E+03  0.55491956132E+03  0.25500000920E-02 0.  1.
</event>
<event>
 5   0  0.2512000E-05  0.1306085E+04  0.7818609E-02  0.9024753E-01
        4   -1    0    0  501    0  0.00000000000E+00  0.00000000000E+00  0.23776957257E+03  0.23777296428E+03  0.12699999809E+01 0.  1.
       -4   -1    0    0    0  501  0.00000000000E+00  0.00000000000E+00 -0.17935883960E+04  0.17935888456E+04  0.12699999809E+01 0. -1.
    10030    2    1    2    0    0  0.00000000000E+00  0.00000000000E+00 -0.15558188234E+04  0.20313618099E+04  0.13060852160E+04 0.  0.
        3    1    3    3  502    0 -0.16476301074E+03 -0.62178584260E+03 -0.60263429636E+03  0.88143779651E+03  0.10100000352E+00 0.  1.
       -3    1    3    3    0  502  0.16476301074E+03  0.62178584260E+03 -0.95318452708E+03  0.11499240134E+04  0.10100000352E+00 0. -1.
</event>
<event>
 5   0  0.2512000E-05  0.1302359E+04  0.7818609E-02  0.9027697E-01
       -3   -1    0    0    0  501  0.00000000000E+00  0.00000000000E+00  0.88584034679E+03  0.88584035255E+03  0.10100000352E+00 0.  1.
        3   -1    0    0  501    0  0.00000000000E+00  0.00000000000E+00 -0.47868062074E+03  0.47868063139E+03  0.10100000352E+00 0. -1.
    10030    2    1    2    0    0  0.00000000000E+00  0.00000000000E+00  0.40715972605E+03  0.13645209839E+04  0.13023588112E+04 0.  0.
        2    1    3    3  502    0  0.97007809902E+02 -0.60301923150E+02  0.87526234434E+03  0.88268398000E+03  0.25500000920E-02 0.  1.
       -2    1    3    3    0  502 -0.97007809902E+02  0.60301923150E+02 -0.46810261829E+03  0.48183700395E+03  0.25500000920E-02 0. -1.
</event>
<event>
 5   0  0.3552698E-05  0.1299896E+04  0.7818609E-02  0.9029648E-01
        1   -1    0    0  501    0  0.00000000000E+00  0.00000000000E+00  0.87187142093E+03  0.87187142095E+03  0.50400001928E-02 0.  1.
       -1   -1    0    0    0  501  0.00000000000E+00  0.00000000000E+00 -0.48451191132E+03  0.48451191135E+03  0.50400001928E-02 0. -1.
    10030    2    1    2    0    0  0.00000000000E+00  0.00000000000E+00  0.38735950961E+03  0.13563833323E+04  0.12998955167E+04 0.  0.
        5    1    3    3  502    0 -0.32252090763E+03  0.49542870053E+03 -0.88131840867E+02  0.59771117151E+03  0.46999998093E+01 0. -1.
       -5    1    3    3    0  502  0.32252090763E+03 -0.49542870053E+03  0.47549135048E+03  0.75867216078E+03  0.46999998093E+01 0.  1.
</event>
<event>
 5   0  0.3551277E-05  0.1300440E+04  0.7818609E-02  0.9029217E-01
        1   -1    0    0  501    0  0.00000000000E+00  0.00000000000E+00  0.34415078743E+03  0.34415078747E+03  0.50400001928E-02 0.  1.
       -1   -1    0    0    0  501  0.00000000000E+00  0.00000000000E+00 -0.12284900358E+04  0.12284900358E+04  0.50400001928E-02 0. -1.
    10030    2    1    2    0    0  0.00000000000E+00  0.00000000000E+00 -0.88433924834E+03  0.15726408232E+04  0.13004396383E+04 0.  0.
        4    1    3    3  502    0 -0.81639655834E+02 -0.56340053232E+02 -0.12192848789E+04  0.12233137225E+04  0.12699999809E+01 0. -1.
       -4    1    3    3    0  502  0.81639655834E+02  0.56340053232E+02  0.33494563052E+03  0.34932710073E+03  0.12699999809E+01 0.  1.
</event>
<event>
 5   0  0.3689707E-05  0.1300004E+04  0.7818609E-02  0.9029562E-01
       -1   -1    0    0    0  501  0.00000000000E+00  0.00000000000E+00  0.10184879761E+04  0.10184879761E+04  0.50400001928E-02 0.  1.
        1   -1    0    0  501    0  0.00000000000E+00  0.00000000000E+00 -0.41483340436E+03  0.41483340439E+03  0.50400001928E-02 0. -1.
    10030    2    1    2    0    0  0.00000000000E+00  0.00000000000E+00  0.60365457176E+03  0.14333213805E+04  0.13000043607E+04 0.  0.
        1    1    3    3  502    0  0.23754570998E+03 -0.46118609663E+03  0.73363095513E+03  0.89851820149E+03  0.50400001928E-02 0.  1.
       -1    1    3    3    0  502 -0.23754570998E+03  0.46118609663E+03 -0.12997638338E+03  0.53480317904E+03  0.50400001928E-02 0. -1.
</event>
<event>
 5   0  0.6742824E-05  0.1299682E+04  0.7818609E-02  0.9029817E-01
       -2   -1    0    0    0  501  0.00000000000E+00  0.00000000000E+00  0.38117840948E+03  0.38117840949E+03  0.25500000920E-02 0.  1.
        2   -1    0    0  501    0  0.00000000000E+00  0.00000000000E+00 -0.11078626687E+04  0.11078626687E+04  0.25500000920E-02 0. -1.
    10030    2    1    2    0    0  0.00000000000E+00  0.00000000000E+00 -0.72668425920E+03  0.14890410782E+04  0.12996820072E+04 0.  0.
        4    1    3    3  502    0 -0.63108957946E+03  0.64202948777E+02 -0.52494480323E+03  0.82338613984E+03  0.12699999809E+01 0. -1.
       -4    1    3    3    0  502  0.63108957946E+03 -0.64202948777E+02 -0.20173945596E+03  0.66565493833E+03  0.12699999809E+01 0.  1.
</event>
<event>
 5   0  0.6688086E-05  0.1299713E+04  0.7818609E-02  0.9029793E-01
        2   -1    0    0  501    0  0.00000000000E+00  0.00000000000E+00  0.15818819682E+04  0.15818819682E+04  0.25500000920E-02 0. -1.
       -2   -1    0    0    0  501  0.00000000000E+00  0.00000000000E+00 -0.26696896995E+03  0.26696896996E+03  0.25500000920E-02 0.  1.
    10030    2    1    2    0    0  0.00000000000E+00  0.00000000000E+00  0.13149129983E+04  0.18488509382E+04  0.12997128908E+04 0.  0.
        5    1    3    3  502    0  0.64602842802E+03 -0.63895343045E+02  0.69907462017E+03  0.95402450662E+03  0.46999998093E+01 0. -1.
       -5    1    3    3    0  502 -0.64602842802E+03  0.63895343045E+02  0.61583837810E+03  0.89482643156E+03  0.46999998093E+01 0.  1.
</event>
<event>
 5   0  0.3552698E-05  0.1298706E+04  0.7818609E-02  0.9030592E-01
        1   -1    0    0  501    0  0.00000000000E+00  0.00000000000E+00  0.32100602651E+03  0.32100602655E+03  0.50400001928E-02 0.  1.
       -1   -1    0    0    0  501  0.00000000000E+00  0.00000000000E+00 -0.13135552069E+04  0.13135552070E+04  0.50400001928E-02 0. -1.
    10030    2    1    2    0    0  0.00000000000E+00  0.00000000000E+00 -0.99254918044E+03  0.16345612335E+04  0.12987057213E+04 0.  0.
        5    1    3    3  502    0 -0.60517471436E+03 -0.16205276171E+03 -0.28142644861E+03  0.68681909442E+03  0.46999998093E+01 0.  1.
       -5    1    3    3    0  502  0.60517471436E+03  0.16205276171E+03 -0.71112273182E+03  0.94774213908E+03  0.46999998093E+01 0. -1.
</event>
<event>
 5   0  0.6671239E-05  0.1302431E+04  0.7818609E-02  0.9027640E-01
        2   -1    0    0  501    0  0.00000000000E+00  0.00000000000E+00  0.11978556174E+04  0.11978556174E+04  0.25500000920E-02 0.  1.
       -2   -1    0    0    0  501  0.00000000000E+00  0.00000000000E+00 -0.35403374562E+03  0.35403374563E+03  0.25500000920E-02 0. -1.
    10030    2    1    2    0    0  0.00000000000E+00  0.00000000000E+00  0.84382187182E+03  0.15518893631E+04  0.13024305140E+04 0.  0.
        1    1    3    3  502    0 -0.44169868053E+02 -0.86336249465E+02  0.11892032469E+04  0.11931509911E+04  0.50400001928E-02 0.  1.
       -1    1    3    3    0  502  0.44169868053E+02  0.86336249465E+02 -0.34538137508E+03  0.35873837193E+03  0.50400001928E-02 0. -1.
</event>
<event>
 5   0  0.6618060E-05  0.1299983E+04  0.7818609E-02  0.9029578E-01
       -2   -1    0    0    0  501  0.00000000000E+00  0.00000000000E+00  0.46725841443E+03  0.46725841443E+03  0.25500000920E-02 0. -1.
        2   -1    0    0  501    0  0.00000000000E+00  0.00000000000E+00 -0.90418739238E+03  0.90418739239E+03  0.25500000920E-02 0.  1.
    10030    2    1    2    0    0  0.00000000000E+00  0.00000000000E+00 -0.43692897796E+03  0.13714458068E+04  0.12999833342E+04 0.  0.
        2    1    3    3  502    0 -0.74260141194E+02  0.54436970872E+03  0.14795597874E+03  0.56898499101E+03  0.25500000920E-02 0. -1.
       -2    1    3    3    0  502  0.74260141194E+02 -0.54436970872E+03 -0.58488495670E+03  0.80246081582E+03  0.25500000920E-02 0.  1.
</event>
<event>
 5   0  0.6618060E-05  0.1300319E+04  0.7818609E-02  0.9029312E-01
       -2   -1    0    0    0  501  0.00000000000E+00  0.00000000000E+00  0.38181104028E+03  0.38181104029E+03  0.25500000920E-02 0.  1.
        2   -1    0    0  501    0  0.00000000000E+00  0.00000000000E+00 -0.11071111062E+04  0.11071111062E+04  0.25500000920E-02 0. -1.
    10030    2    1    2    0    0  0.00000000000E+00  0.00000000000E+00 -0.72530006589E+03  0.14889221465E+04  0.13003187966E+04 0.  0.
        2    1    3    3  502    0 -0.93555837293E+02 -0.80271160562E+02 -0.10936070926E+04  0.11005328832E+04  0.25500000920E-02 0. -1.
       -2    1    3    3    0  502  0.93555837293E+02  0.80271160562E+02  0.36830702672E+03  0.38838926330E+03  0.25500000920E-02 0.  1.
</event>
<event>
 5   0  0.3551277E-05  0.1299708E+04  0.7818609E-02  0.9029797E-01
        1   -1    0    0  501    0  0.00000000000E+00  0.00000000000E+00  0.59491714717E+03  0.59491714719E+03  0.50400001928E-02 0. -1.
       -1   -1    0    0    0  501  0.00000000000E+00  0.00000000000E+00 -0.70986350937E+03  0.70986350939E+03  0.50400001928E-02 0.  1.
    10030    2    1    2    0    0  0.00000000000E+00  0.00000000000E+00 -0.11494636221E+03  0.13047806566E+04  0.12997076193E+04 0.  0.
        4    1    3    3  502    0 -0.64225441578E+02  0.38589676334E+02  0.59056503775E+03  0.59530055197E+03  0.12699999809E+01 0. -1.
       -4    1    3    3    0  502  0.64225441578E+02 -0.38589676334E+02 -0.70551139996E+03  0.70948010461E+03  0.12699999809E+01 0.  1.
</event>
<event>
 5   0  0.3689707E-05  0.1298949E+04  0.7818609E-02  0.9030399E-01
        1   -1    0    0  501    0  0.00000000000E+00  0.00000000000E+00  0.10640441776E+04  0.10640441776E+04  0.50400001928E-02 0.  1.
       -1   -1    0    0    0  501  0.00000000000E+00  0.00000000000E+00 -0.39642839032E+03  0.39642839035E+03  0.50400001928E-02 0. -1.
    10030    2    1    2    0    0  0.00000000000E+00  0.00000000000E+00  0.66761578729E+03  0.14604725680E+04  0.12989492994E+04 0.  0.
        1    1    3    3  502    0 -0.64743225529E+03  0.45874528322E+02  0.30757600506E+03  0.71824508105E+03  0.50400001928E-02 0.  1.
       -1    1    3    3    0  502  0.64743225529E+03 -0.45874528322E+02  0.36003978223E+03  0.74222748693E+03  0.50400001928E-02 0. -1.
</event>
<event>
 5   0  0.6688086E-05  0.1303008E+04  0.7818609E-02  0.9027183E-01
       -2   -1    0    0    0  501  0.00000000000E+00  0.00000000000E+00  0.51264036329E+03  0.51264036330E+03  0.25500000920E-02 0.  1.
        2   -1    0    0  501    0  0.00000000000E+00  0.00000000000E+00 -0.82798301039E+03  0.82798301040E+03  0.25500000920E-02 0. -1.
    10030    2    1    2    0    0  0.00000000000E+00  0.00000000000E+00 -0.31534264710E+03  0.13406233737E+04  0.13030080756E+04 0.  0.
        5    1    3    3  502    0 -0.19285353849E+03 -0.24925738447E+03 -0.74431893736E+03  0.80830347118E+03  0.46999998093E+01 0. -1.
       -5    1    3    3    0  502  0.19285353849E+03  0.24925738447E+03  0.42897629025E+03  0.53231990252E+03  0.46999998093E+01 0.  1.
</event>
<event>
 5   0  0.3552698E-05  0.1300358E+04  0.7818609E-02  0.9029281E-01
        1   -1    0    0  501    0  0.00000000000E+00  0.00000000000E+00  0.63484895760E+03  0.63484895762E+03  0.50400001928E-02 0.  1.
       -1   -1    0    0    0  501  0.00000000000E+00  0.00000000000E+00 -0.66587940087E+03  0.66587940089E+03  0.50400001928E-02 0. -1.
    10030    2    1    2    0    0  0.00000000000E+00  0.00000000000E+00 -0.31030443277E+02  0.13007283585E+04  0.13003581715E+04 0.  0.
        5    1    3    3  502    0  0.24794303275E+03 -0.16107438133E+03  0.56369197634E+03  0.63654649320E+03  0.46999998093E+01 0.  1.
       -5    1    3    3    0  502 -0.24794303275E+03  0.16107438133E+03 -0.59472241962E+03  0.66418186531E+03  0.46999998093E+01 0. -1.
</event>
<event>
 5   0  0.6618060E-05  0.1300055E+04  0.7818609E-02  0.9029521E-01
        2   -1    0    0  501    0  0.00000000000E+00  0.00000000000E+00  0.53660995100E+03  0.53660995101E+03  0.25500000920E-02 0.  1.
       -2   -1    0    0    0  501  0.00000000000E+00  0.00000000000E+00 -0.78741716089E+03  0.78741716090E+03  0.25500000920E-02 0. -1.
    10030    2    1    2    0    0  0.00000000000E+00  0.00000000000E+00 -0.25080720989E+03  0.13240271119E+04  0.13000552052E+04 0.  0.
        2    1    3    3  502    0  0.36089918223E+03  0.29863537387E+02 -0.67516818083E+03  0.76615411179E+03  0.25500000920E-02 0. -1.
       -2    1    3    3    0  502 -0.36089918223E+03 -0.29863537387E+02  0.42436097094E+03  0.55787300012E+03  0.25500000920E-02 0.  1.
</event>
<event>
 5   0  0.6742824E-05  0.1299715E+04  0.7818609E-02  0.9029791E-01
        2   -1    0    0  501    0  0.00000000000E+00  0.00000000000E+00  0.71478845851E+03  0.71478845852E+03  0.25500000920E-02 0.  1.
       -2   -1    0    0    0  501  0.00000000000E+00  0.00000000000E+00 -0.59082515392E+03  0.59082515393E+03  0.25500000920E-02 0. -1.
    10030    2    1    2    0    0  0.00000000000E+00  0.00000000000E+00  0.12396330459E+03  0.13056136124E+04  0.12997153550E+04 0.  0.
        4    1    3    3  502    0 -0.11805363206E+03  0.52735144920E+03 -0.30059563003E+03  0.61838140068E+03  0.12699999809E+01 0. -1.
       -4    1    3    3    0  502  0.11805363206E+03 -0.52735144920E+03  0.42455893461E+03  0.68723221176E+03  0.12699999809E+01 0.  1.
</event>
<event>
 5   0  0.3551277E-05  0.1299666E+04  0.7818609E-02  0.9029830E-01
       -1   -1    0    0    0  501  0.00000000000E+00  0.00000000000E+00  0.65699335406E+03  0.65699335408E+03  0.50400001928E-02 0.  1.
        1   -1    0    0  501    0  0.00000000000E+00  0.00000000000E+00 -0.64275067728E+03  0.64275067730E+03  0.50400001928E-02 0. -1.
    10030    2    1    2    0    0  0.00000000000E+00  0.00000000000E+00  0.14242676783E+02  0.12997440314E+04  0.12996659930E+04 0.  0.
        4    1    3    3  502    0 -0.30725018114E+03 -0.49050724998E+03  0.30257312167E+03  0.65310959490E+03  0.12699999809E+01 0.  1.
       -4    1    3    3    0  502  0.30725018114E+03  0.49050724998E+03 -0.28833044489E+03  0.64663443648E+03  0.12699999809E+01 0. -1.
</event>
<event>
 5   0  0.6688086E-05  0.1300155E+04  0.7818609E-02  0.9029442E-01
        2   -1    0    0  501    0  0.00000000000E+00  0.00000000000E+00  0.34181334025E+03  0.34181334026E+03  0.25500000920E-02 0.  1.
       -2   -1    0    0    0  501  0.00000000000E+00  0.00000000000E+00 -0.12363502432E+04  0.12363502432E+04  0.25500000920E-02 0. -1.
    10030    2    1    2    0    0  0.00000000000E+00  0.00000000000E+00 -0.89453690296E+03  0.15781635835E+04  0.13001553851E+04 0.  0.
        5    1    3    3  502    0  0.58464458112E+03  0.28312688186E+03 -0.47721823515E+03  0.80605797026E+03  0.46999998093E+01 0. -1.
       -5    1    3    3    0  502 -0.58464458112E+03 -0.28312688186E+03 -0.41731866781E+03  0.77210561322E+03  0.46999998093E+01 0.  1.
</event>
<event>
 5   0  0.6458698E-05  0.1299763E+04  0.7818609E-02  0.9029753E-01
        2   -1    0    0  501    0  0.00000000000E+00  0.00000000000E+00  0.72898893125E+03  0.72898893125E+03  0.25500000920E-02 0. -1.
       -2   -1    0    0    0  501  0.00000000000E+00  0.00000000000E+00 -0.57935860716E+03  0.57935860717E+03  0.25500000920E-02 0.  1.
    10030    2    1    2    0    0  0.00000000000E+00  0.00000000000E+00  0.14963032408E+03  0.13083475384E+04  0.12997630736E+04 0.  0.
        3    1    3    3  502    0 -0.11760951930E+03  0.12844587804E+03  0.70506194105E+03  0.72625249984E+03  0.10100000352E+00 0. -1.
       -3    1    3    3    0  502  0.11760951930E+03 -0.12844587804E+03 -0.55543161696E+03  0.58209503858E+03  0.10100000352E+00 0.  1.
</event>
<event>
 5   0  0.6742824E-05  0.1300237E+04  0.7818609E-02  0.9029377E-01
       -2   -1    0    0    0  501  0.00000000000E+00  0.00000000000E+00  0.28506520545E+03  0.28506520546E+03  0.25500000920E-02 0. -1.
        2   -1    0    0  501    0  0.00000000000E+00  0.00000000000E+00 -0.14826569956E+04  0.14826569956E+04  0.25500000920E-02 0.  1.
    10030    2    1    2    0    0  0.00000000000E+00  0.00000000000E+00 -0.11975917901E+04  0.17677222011E+04  0.13002367801E+04 0.  0.
        4    1    3    3  502    0  0.25311982436E+02 -0.63479322315E+03 -0.78643772584E+03  0.10109841948E+04  0.12699999809E+01 0.  1.
       -4    1    3    3    0  502 -0.25311982436E+02  0.63479322315E+03 -0.41115406430E+03  0.75673800625E+03  0.12699999809E+01 0. -1.
</event>
<event>
 5   0  0.3718559E-05  0.1300701E+04  0.7818609E-02  0.9029010E-01
        1   -1    0    0  501    0  0.00000000000E+00  0.00000000000E+00  0.74570391544E+03  0.74570391546E+03  0.50400001928E-02 0.  1.
       -1   -1    0    0    0  501  0.00000000000E+00  0.00000000000E+00 -0.56718973555E+03  0.56718973557E+03  0.50400001928E-02 0. -1.
    10030    2    1    2    0    0  0.00000000000E+00  0.00000000000E+00  0.17851417989E+03  0.13128936510E+04  0.13007007444E+04 0.  0.
        2    1    3    3  502    0  0.14040113817E+03  0.46336283132E+02 -0.55000119588E+03  0.56952686171E+03  0.25500000920E-02 0. -1.
       -2    1    3    3    0  502 -0.14040113817E+03 -0.46336283132E+02  0.72851537577E+03  0.74336678933E+03  0.25500000920E-02 0.  1.
</event>
<event>
 5   0  0.6688086E-05  0.1300321E+04  0.7818609E-02  0.9029310E-01
        2   -1    0    0  501    0  0.00000000000E+00  0.00000000000E+00  0.19532988532E+04  0.19532988532E+04  0.25500000920E-02 0. -1.
       -2   -1    0    0    0  501  0.00000000000E+00  0.00000000000E+00 -0.21640766090E+03  0.21640766092E+03  0.25500000920E-02 0.  1.
    10030    2    1    2    0    0  0.00000000000E+00  0.00000000000E+00  0.17368911923E+04  0.21697065142E+04  0.13003212463E+04 0.  0.
        5    1    3    3  502    0  0.52781112938E+03  0.14480769355E+03  0.14539597120E+04  0.15535684055E+04  0.46999998093E+01 0. -1.
       -5    1    3    3    0  502 -0.52781112938E+03 -0.14480769355E+03  0.28293148036E+03  0.61613810870E+03  0.46999998093E+01 0.  1.
</event>
<event>
 5   0  0.3631841E-05  0.1299657E+04  0.7818609E-02  0.9029838E-01
       -1   -1    0    0    0  501  0.00000000000E+00  0.00000000000E+00  0.52166062762E+03  0.52166062765E+03  0.50400001928E-02 0.  1.
        1   -1    0    0  501    0  0.00000000000E+00  0.00000000000E+00 -0.80948558145E+03  0.80948558147E+03  0.50400001928E-02 0. -1.
    10030    2    1    2    0    0  0.00000000000E+00  0.00000000000E+00 -0.28782495383E+03  0.13311462091E+04  0.12996565031E+04 0.  0.
        3    1    3    3  502    0 -0.81651862853E+02 -0.23871350394E+03  0.46945085425E+03  0.53294960215E+03  0.10100000352E+00 0.  1.
       -3    1    3    3    0  502  0.81651862853E+02  0.23871350394E+03 -0.75727580808E+03  0.79819660697E+03  0.10100000352E+00 0. -1.
</event>
<event>
 5   0  0.6742824E-05  0.1300531E+04  0.7818609E-02  0.9029144E-01
        2   -1    0    0  501    0  0.00000000000E+00  0.00000000000E+00  0.99896366813E+03  0.99896366813E+03  0.25500000920E-02 0. -1.
       -2   -1    0    0    0  501  0.00000000000E+00  0.00000000000E+00 -0.42328371197E+03  0.42328371198E+03  0.25500000920E-02 0.  1.
    10030    2    1    2    0    0  0.00000000000E+00  0.00000000000E+00  0.57567995616E+03  0.14222473801E+04  0.13005307372E+04 0.  0.
        4    1    3    3  502    0  0.18380612835E+03 -0.40809035468E+03  0.80370968894E+03  0.91993114274E+03  0.12699999809E+01 0. -1.
       -4    1    3    3    0  502 -0.18380612835E+03  0.40809035468E+03 -0.22802973278E+03  0.50231623737E+03  0.12699999809E+01 0.  1.
</event>
<event>
 5   0  0.3689707E-05  0.1297612E+04  0.7818609E-02  0.9031461E-01
        1   -1    0    0  501    0  0.00000000000E+00  0.00000000000E+00  0.13363082837E+04  0.13363082837E+04  0.50400001928E-02 0.  1.
       -1   -1    0    0    0  501  0.00000000000E+00  0.00000000000E+00 -0.31500893386E+03  0.31500893390E+03  0.50400001928E-02 0. -1.
    10030    2    1    2    0    0  0.00000000000E+00  0.00000000000E+00  0.10212993498E+04  0.16513172176E+04  0.12976117259E+04 0.  0.
        1    1    3    3  502    0  0.13989065751E+03 -0.63014694545E+03  0.42725448889E+03  0.77408072397E+03  0.50400001928E-02 0. -1.
       -1    1    3    3    0  502 -0.13989065751E+03  0.63014694545E+03  0.59404486091E+03  0.87723649361E+03  0.50400001928E-02 0.  1.
</event>
<event>
 5   0  0.6688086E-05  0.1299584E+04  0.7818609E-02  0.9029895E-01
        2   -1    0    0  501    0  0.00000000000E+00  0.00000000000E+00  0.89875743284E+03  0.89875743285E+03  0.25500000920E-02 0.  1.
       -2   -1    0    0    0  501  0.00000000000E+00  0.00000000000E+00 -0.46979253270E+03  0.46979253271E+03  0.25500000920E-02 0. -1.
    10030    2    1    2    0    0  0.00000000000E+00  0.00000000000E+00  0.42896490014E+03  0.13685499656E+04  0.12995838267E+04 0.  0.
        5    1    3    3  502    0 -0.18688488979E+03 -0.17933945099E+03 -0.41306015582E+03  0.48757500248E+03  0.46999998093E+01 0. -1.
       -5    1    3    3    0  502  0.18688488979E+03  0.17933945099E+03  0.84202505596E+03  0.88097496308E+03  0.46999998093E+01 0.  1.
</event>
<event>
 5   0  0.3552698E-05  0.1308526E+04  0.7818609E-02  0.9022831E-01
       -1   -1    0    0    0  501  0.00000000000E+00  0.00000000000E+00  0.38434814354E+03  0.38434814357E+03  0.50400001928E-02 0.  1.
        1   -1    0    0  501    0  0.00000000000E+00  0.00000000000E+00 -0.11137296314E+04  0.11137296314E+04  0.50400001928E-02 0. -1.
    10030    2    1    2    0    0  0.00000000000E+00  0.00000000000E+00 -0.72938148782E+03  0.14980777749E+04  0.13085257602E+04 0.  0.
        5    1    3    3  502    0 -0.37278410157E+02  0.37621993105E+02  0.38187047740E+03  0.38555446533E+03  0.46999998093E+01 0.  1.
       -5    1    3    3    0  502  0.37278410157E+02 -0.37621993105E+02 -0.11112519652E+04  0.11125233096E+04  0.46999998093E+01 0. -1.
</event>
<event>
 5   0  0.3552698E-05  0.1298974E+04  0.7818609E-02  0.9030379E-01
       -1   -1    0    0    0  501  0.00000000000E+00  0.00000000000E+00  0.24821304640E+03  0.24821304645E+03  0.50400001928E-02 0.  1.
        1   -1    0    0  501    0  0.00000000000E+00  0.00000000000E+00 -0.16994818631E+04  0.16994818631E+04  0.50400001928E-02 0. -1.
    10030    2    1    2    0    0  0.00000000000E+00  0.00000000000E+00 -0.14512688167E+04  0.19476949095E+04  0.12989743194E+04 0.  0.
        5    1    3    3  502    0  0.63433456697E+02 -0.39612428582E+03  0.40200431253E+02  0.40320766104E+03  0.46999998093E+01 0.  1.
       -5    1    3    3    0  502 -0.63433456697E+02  0.39612428582E+03 -0.14914692479E+04  0.15444872485E+04  0.46999998093E+01 0. -1.
</event>
<event>
 5   0  0.6688086E-05  0.1299903E+04  0.7818609E-02  0.9029642E-01
       -2   -1    0    0    0  501  0.00000000000E+00  0.00000000000E+00  0.36877594558E+03  0.36877594559E+03  0.25500000920E-02 0. -1.
        2   -1    0    0  501    0  0.00000000000E+00  0.00000000000E+00 -0.11455109772E+04  0.11455109772E+04  0.25500000920E-02 0.  1.
    10030    2    1    2    0    0  0.00000000000E+00  0.00000000000E+00 -0.77673503163E+03  0.15142869228E+04  0.12999029099E+04 0.  0.
        5    1    3    3  502    0 -0.11974359393E+03  0.11859642625E+03 -0.11195933375E+04  0.11322168396E+04  0.46999998093E+01 0.  1.
       -5    1    3    3    0  502  0.11974359393E+03 -0.11859642625E+03  0.34285830583E+03  0.38207008320E+03  0.46999998093E+01 0. -1.
</event>
<event>
 5   0  0.3551277E-05  0.1299546E+04  0.7818609E-02  0.9029925E-01
        1   -1    0    0  501    0  0.00000000000E+00  0.00000000000E+00  0.69552528156E+03  0.69552528158E+03  0.50400001928E-02 0. -1.
       -1   -1    0    0    0  501  0.00000000000E+00  0.00000000000E+00 -0.60703027786E+03  0.60703027788E+03  0.50400001928E-02 0.  1.
    10030    2    1    2    0    0  0.00000000000E+00  0.00000000000E+00  0.88495003699E+02  0.13025555595E+04  0.12995459283E+04 0.  0.
        4    1    3    3  502    0  0.62834832394E+03  0.10392062065E+03  0.17331754121E+03  0.66004673667E+03  0.12699999809E+01 0. -1.
       -4    1    3    3    0  502 -0.62834832394E+03 -0.10392062065E+03 -0.84822537513E+02  0.64250882279E+03  0.12699999809E+01 0.  1.
</event>
<event>
 5   0  0.3551277E-05  0.1299807E+04  0.7818609E-02  0.9029719E-01
       -1   -1    0    0    0  501  0.00000000000E+00  0.00000000000E+00  0.36451148328E+03  0.36451148332E+03  0.50400001928E-02 0.  1.
        1   -1    0    0  501    0  0.00000000000E+00  0.00000000000E+00 -0.11587408121E+04  0.11587408122E+04  0.50400001928E-02 0. -1.
    10030    2    1    2    0    0  0.00000000000E+00  0.00000000000E+00 -0.79422932886E+03  0.15232522955E+04  0.12998066506E+04 0.  0.
        4    1    3    3  502    0  0.64195505065E+03  0.82925540047E+02 -0.46534528104E+03  0.79720184127E+03  0.12699999809E+01 0. -1.
       -4    1    3    3    0  502 -0.64195505065E+03 -0.82925540047E+02 -0.32888404783E+03  0.72605045421E+03  0.12699999809E+01 0.  1.
</event>
<event>
 5   0  0.3552698E-05  0.1299955E+04  0.7818609E-02  0.9029601E-01
        1   -1    0    0  501    0  0.00000000000E+00  0.00000000000E+00  0.48931814562E+03  0.48931814564E+03  0.50400001928E-02 0. -1.
       -1   -1    0    0    0  501  0.00000000000E+00  0.00000000000E+00 -0.86338704214E+03  0.86338704216E+03  0.50400001928E-02 0.  1.
    10030    2    1    2    0    0  0.00000000000E+00  0.00000000000E+00 -0.37406889653E+03  0.13527051878E+04  0.12999553014E+04 0.  0.
        5    1    3    3  502    0  0.11779481847E+03 -0.53882206142E+03  0.17078532428E+03  0.57740328205E+03  0.46999998093E+01 0. -1.
       -5    1    3    3    0  502 -0.11779481847E+03  0.53882206142E+03 -0.54485422081E+03  0.77530190575E+03  0.46999998093E+01 0.  1.
</event>
<event>
 5   0  0.3551277E-05  0.1299832E+04  0.7818609E-02  0.9029698E-01
       -1   -1    0    0    0  501  0.00000000000E+00  0.00000000000E+00  0.32943983429E+03  0.32943983433E+03  0.50400001928E-02 0.  1.
        1   -1    0    0  501    0  0.00000000000E+00  0.00000000000E+00 -0.12821493597E+04  0.12821493597E+04  0.50400001928E-02 0. -1.
    10030    2    1    2    0    0  0.00000000000E+00  0.00000000000E+00 -0.95270952543E+03  0.16115891940E+04  0.12998324086E+04 0.  0.
        4    1    3    3  502    0 -0.35164910002E+02  0.80177842664E+02  0.32209350080E+03  0.33378270403E+03  0.12699999809E+01 0.  1.
       -4    1    3    3    0  502  0.35164910002E+02 -0.80177842664E+02 -0.12748030262E+04  0.12778064900E+04  0.12699999809E+01 0. -1.
</event>
<event>
 5   0  0.3551277E-05  0.1303295E+04  0.7818609E-02  0.9026956E-01
       -1   -1    0    0    0  501  0.00000000000E+00  0.00000000000E+00  0.36135147896E+03  0.36135147899E+03  0.50400001928E-02 0. -1.
        1   -1    0    0  501    0  0.00000000000E+00  0.00000000000E+00 -0.11751560784E+04  0.11751560784E+04  0.50400001928E-02 0.  1.
    10030    2    1    2    0    0  0.00000000000E+00  0.00000000000E+00 -0.81380459948E+03  0.15365075574E+04  0.13032948814E+04 0.  0.
        4    1    3    3  502    0  0.59310845468E+03  0.15411557549E+02 -0.72462110027E+03  0.93653217082E+03  0.12699999809E+01 0.  1.
       -4    1    3    3    0  502 -0.59310845468E+03 -0.15411557549E+02 -0.89183499208E+02  0.59997538662E+03  0.12699999809E+01 0. -1.
</event>
<event>
 5   0  0.3551277E-05  0.1299728E+04  0.7818609E-02  0.9029781E-01
        1   -1    0    0  501    0  0.00000000000E+00  0.00000000000E+00  0.95159397959E+03  0.95159397960E+03  0.50400001928E-02 0. -1.
       -1   -1    0    0    0  501  0.00000000000E+00  0.00000000000E+00 -0.44380594555E+03  0.44380594558E+03  0.50400001928E-02 0.  1.
    10030    2    1    2    0    0  0.00000000000E+00  0.00000000000E+00  0.50778803404E+03  0.13953999252E+04  0.12997277652E+04 0.  0.
        4    1    3    3  502    0 -0.50093940157E+03  0.15468321661E+03 -0.15836957001E+03  0.54767665201E+03  0.12699999809E+01 0.  1.
       -4    1    3    3    0  502  0.50093940157E+03 -0.15468321661E+03  0.66615760405E+03  0.84772327318E+03  0.12699999809E+01 0. -1.
</event>
<event>
 5   0  0.3689707E-05  0.1299622E+04  0.7818609E-02  0.9029865E-01
        1   -1    0    0  501    0  0.00000000000E+00  0.00000000000E+00  0.14848014408E+04  0.14848014408E+04  0.50400001928E-02 0.  1.
       -1   -1    0    0    0  501  0.00000000000E+00  0.00000000000E+00 -0.28438428576E+03  0.28438428581E+03  0.50400001928E-02 0. -1.
    10030    2    1    2    0    0  0.00000000000E+00  0.00000000000E+00  0.12004171550E+04  0.17691857266E+04  0.12996217870E+04 0.  0.
        1    1    3    3  502    0  0.64697674024E+03  0.44795670710E+02  0.65581668621E+03  0.92232373951E+03  0.50400001928E-02 0.  1.
       -1    1    3    3    0  502 -0.64697674024E+03 -0.44795670710E+02  0.54460046882E+03  0.84686198710E+03  0.50400001928E-02 0. -1.
</event>
<event>
 5   0  0.6618060E-05  0.1299718E+04  0.7818609E-02  0.9029789E-01
       -2   -1    0    0    0  501  0.00000000000E+00  0.00000000000E+00  0.44380457319E+03  0.44380457320E+03  0.25500000920E-02 0.  1.
        2   -1    0    0  501    0  0.00000000000E+00  0.00000000000E+00 -0.95158227234E+03  0.95158227234E+03  0.25500000920E-02 0. -1.
    10030    2    1    2    0    0  0.00000000000E+00  0.00000000000E+00 -0.50777769915E+03  0.13953868455E+04  0.12997177605E+04 0.  0.
        2    1    3    3  502    0 -0.35389918769E+03 -0.20055955437E+03  0.29021712067E+03  0.49969465380E+03  0.25500000920E-02 0.  1.
       -2    1    3    3    0  502  0.35389918769E+03  0.20055955437E+03 -0.79799481981E+03  0.89569219174E+03  0.25500000920E-02 0. -1.
</event>
<event>
 5   0  0.3689707E-05  0.1299654E+04  0.7818609E-02  0.9029839E-01
        1   -1    0    0  501    0  0.00000000000E+00  0.00000000000E+00  0.99783319520E+03  0.99783319521E+03  0.50400001928E-02 0.  1.
       -1   -1    0    0    0  501  0.00000000000E+00  0.00000000000E+00 -0.42319242510E+03  0.42319242513E+03  0.50400001928E-02 0. -1.
    10030    2    1    2    0    0  0.00000000000E+00  0.00000000000E+00  0.57464077010E+03  0.14210256203E+04  0.12996544922E+04 0.  0.
        1    1    3    3  502    0  0.19756651909E+03  0.61792531938E+03  0.24624597392E+03  0.69390295395E+03  0.50400001928E-02 0.  1.
       -1    1    3    3    0  502 -0.19756651909E+03 -0.61792531938E+03  0.32839479618E+03  0.72712266639E+03  0.50400001928E-02 0. -1.
</event>
<event>
 5   0  0.3551277E-05  0.1299757E+04  0.7818609E-02  0.9029758E-01
        1   -1    0    0  501    0  0.00000000000E+00  0.00000000000E+00  0.19344057617E+04  0.19344057618E+04  0.50400001928E-02 0.  1.
       -1   -1    0    0    0  501  0.00000000000E+00  0.00000000000E+00 -0.21833170343E+03  0.21833170349E+03  0.50400001928E-02 0. -1.
    10030    2    1    2    0    0  0.00000000000E+00  0.00000000000E+00  0.17160740583E+04  0.21527374652E+04  0.12997570621E+04 0.  0.
        4    1    3    3  502    0  0.27587885168E+03 -0.53484471813E+01  0.18325646151E+04  0.18532221745E+04  0.12699999809E+01 0.  1.
       -4    1    3    3    0  502 -0.27587885168E+03  0.53484471813E+01 -0.11649055674E+03  0.29951529076E+03  0.12699999809E+01 0. -1.
</event>
<event>
 5   0  0.6688086E-05  0.1300469E+04  0.7818609E-02  0.9029194E-01
       -2   -1    0    0    0  501  0.00000000000E+00  0.00000000000E+00  0.29622293505E+03  0.29622293506E+03  0.25500000920E-02 0. -1.
        2   -1    0    0  501    0  0.00000000000E+00  0.00000000000E+00 -0.14273188913E+04  0.14273188913E+04  0.25500000920E-02 0.  1.
    10030    2    1    2    0    0  0.00000000000E+00  0.00000000000E+00 -0.11310959563E+04  0.17235418264E+04  0.13004685175E+04 0.  0.
        5    1    3    3  502    0 -0.11859458391E+03 -0.59401540888E+03 -0.87879440991E+03  0.10673428157E+04  0.46999998093E+01 0.  1.
       -5    1    3    3    0  502  0.11859458391E+03  0.59401540888E+03 -0.25230154634E+03  0.65619901067E+03  0.46999998093E+01 0. -1.
</event>
<event>
 5   0  0.2512000E-05  0.1300315E+04  0.7818609E-02  0.9029315E-01
        4   -1    0    0  501    0  0.00000000000E+00  0.00000000000E+00  0.18574285747E+04  0.18574290089E+04  0.12699999809E+01 0. -1.
       -4   -1    0    0    0  501  0.00000000000E+00  0.00000000000E+00 -0.22757304979E+03  0.22757659346E+03  0.12699999809E+01 0.  1.
    10030    2    1    2    0    0  0.00000000000E+00  0.00000000000E+00  0.16298555249E+04  0.20850056023E+04  0.13003150886E+04 0.  0.
        4    1    3    3  502    0  0.36473951438E+03  0.53381752005E+03  0.70491624075E+03  0.95650644402E+03  0.12699999809E+01 0. -1.
       -4    1    3    3    0  502 -0.36473951438E+03 -0.53381752005E+03  0.92493928414E+03  0.11284991583E+04  0.12699999809E+01 0.  1.
</event>
<event>
 5   0  0.3631841E-05  0.1299800E+04  0.7818609E-02  0.9029723E-01
        1   -1    0    0  501    0  0.00000000000E+00  0.00000000000E+00  0.50904320006E+03  0.50904320009E+03  0.50400001928E-02 0. -1.
       -1   -1    0    0    0  501  0.00000000000E+00  0.00000000000E+00 -0.82973358086E+03  0.82973358087E+03  0.50400001928E-02 0.  1.
    10030    2    1    2    0    0  0.00000000000E+00  0.00000000000E+00 -0.32069038079E+03  0.13387767810E+04  0.12998003496E+04 0.  0.
        3    1    3    3  502    0  0.18391569537E+03  0.70303018460E+02  0.47758384058E+03  0.51657897014E+03  0.10100000352E+00 0. -1.
       -3    1    3    3    0  502 -0.18391569537E+03 -0.70303018460E+02 -0.79827422137E+03  0.82219781082E+03  0.10100000352E+00 0.  1.
</event>
<event>
 5   0  0.3551277E-05  0.1301699E+04  0.7818609E-02  0.9028219E-01
        1   -1    0    0  501    0  0.00000000000E+00  0.00000000000E+00  0.93622513397E+03  0.93622513399E+03  0.50400001928E-02 0.  1.
       -1   -1    0    0    0  501  0.00000000000E+00  0.00000000000E+00 -0.45246037943E+03  0.45246037946E+03  0.50400001928E-02 0. -1.
    10030    2    1    2    0    0  0.00000000000E+00  0.00000000000E+00  0.48376475454E+03  0.13886855134E+04  0.13016985509E+04 0.  0.
        4    1    3    3  502    0  0.18619457095E+03 -0.52576393675E+03  0.59971778834E+03  0.81899888522E+03  0.12699999809E+01 0.  1.
       -4    1    3    3    0  502 -0.18619457095E+03  0.52576393675E+03 -0.11595303379E+03  0.56968662823E+03  0.12699999809E+01 0. -1.
</event>
<event>
 5   0  0.3551277E-05  0.1300067E+04  0.7818609E-02  0.9029512E-01
       -1   -1    0    0    0  501  0.00000000000E+00  0.00000000000E+00  0.50235531243E+03  0.50235531246E+03  0.50400001928E-02 0.  1.
        1   -1    0    0  501    0  0.00000000000E+00  0.00000000000E+00 -0.84112501925E+03  0.84112501927E+03  0.50400001928E-02 0. -1.
    10030    2    1    2    0    0  0.00000000000E+00  0.00000000000E+00 -0.33876970682E+03  0.13434803317E+04  0.13000671088E+04 0.  0.
        4    1    3    3  502    0 -0.98614666814E+02  0.48057469327E+03 -0.61008201099E+03  0.78286560875E+03  0.12699999809E+01 0. -1.
       -4    1    3    3    0  502  0.98614666814E+02 -0.48057469327E+03  0.27131230417E+03  0.56061472298E+03  0.12699999809E+01 0.  1.
</event>
<event>
 5   0  0.6742824E-05  0.1300889E+04  0.7818609E-02  0.9028861E-01
       -2   -1    0    0    0  501  0.00000000000E+00  0.00000000000E+00  0.24112963337E+03  0.24112963338E+03  0.25500000920E-02 0. -1.
        2   -1    0    0  501    0  0.00000000000E+00  0.00000000000E+00 -0.17545659542E+04  0.17545659542E+04  0.25500000920E-02 0.  1.
    10030    2    1    2    0    0  0.00000000000E+00  0.00000000000E+00 -0.15134363208E+04  0.19956955876E+04  0.13008886890E+04 0.  0.
        4    1    3    3  502    0 -0.26419756919E+03 -0.16502264272E+03 -0.16326934776E+04  0.16621439266E+04  0.12699999809E+01 0.  1.
       -4    1    3    3    0  502  0.26419756919E+03  0.16502264272E+03  0.11925715677E+03  0.33355166094E+03  0.12699999809E+01 0. -1.
</event>
<event>
 5   0  0.3552698E-05  0.1299265E+04  0.7818609E-02  0.9030148E-01
        1   -1    0    0  501    0  0.00000000000E+00  0.00000000000E+00  0.68394707858E+03  0.68394707860E+03  0.50400001928E-02 0.  1.
       -1   -1    0    0    0  501  0.00000000000E+00  0.00000000000E+00 -0.61703980354E+03  0.61703980356E+03  0.50400001928E-02 0. -1.
    10030    2    1    2    0    0  0.00000000000E+00  0.00000000000E+00  0.66907275041E+02  0.13009868822E+04  0.12992652863E+04 0.  0.
        5    1    3    3  502    0 -0.19421585720E+03  0.48414192115E+03 -0.35421214960E+03  0.63055652873E+03  0.46999998093E+01 0. -1.
       -5    1    3    3    0  502  0.19421585720E+03 -0.48414192115E+03  0.42111942464E+03  0.67043035343E+03  0.46999998093E+01 0.  1.
</event>
<event>
 5   0  0.3631841E-05  0.1299627E+04  0.7818609E-02  0.9029861E-01
       -1   -1    0    0    0  501  0.00000000000E+00  0.00000000000E+00  0.15748936187E+04  0.15748936187E+04  0.50400001928E-02 0.  1.
        1   -1    0    0  501    0  0.00000000000E+00  0.00000000000E+00 -0.26811801479E+03  0.26811801483E+03  0.50400001928E-02 0. -1.
    10030    2    1    2    0    0  0.00000000000E+00  0.00000000000E+00  0.13067756039E+04  0.18430116336E+04  0.12996266396E+04 0.  0.
        3    1    3    3  502    0 -0.64357862561E+03 -0.86950734652E+02  0.68520728841E+03  0.94406722001E+03  0.10100000352E+00 0. -1.
       -3    1    3    3    0  502  0.64357862561E+03  0.86950734652E+02  0.62156831552E+03  0.89894441355E+03  0.10100000352E+00 0.  1.
</event>
<event>
 5   0  0.6618060E-05  0.1300334E+04  0.7818609E-02  0.9029300E-01
        2   -1    0    0  501    0  0.00000000000E+00  0.00000000000E+00  0.14989100746E+04  0.14989100746E+04  0.25500000920E-02 0.  1.
       -2   -1    0    0    0  501  0.00000000000E+00  0.00000000000E+00 -0.28201642848E+03  0.28201642849E+03  0.25500000920E-02 0. -1.
    10030    2    1    2    0    0  0.00000000000E+00  0.00000000000E+00  0.12168936462E+04  0.17809265031E+04  0.13003342122E+04 0.  0.
        2    1    3    3  502    0  0.44584331722E+03  0.47260855911E+03  0.57540155480E+03  0.86788366901E+03  0.25500000920E-02 0. -1.
       -2    1    3    3    0  502 -0.44584331722E+03 -0.47260855911E+03  0.64149209135E+03  0.91304283412E+03  0.25500000920E-02 0.  1.
</event>
<event>
 5   0  0.6688086E-05  0.1300161E+04  0.7818609E-02  0.9029437E-01
        2   -1    0    0  501    0  0.00000000000E+00  0.00000000000E+00  0.13516304123E+04  0.13516304123E+04  0.25500000920E-02 0.  1.
       -2   -1    0    0    0  501  0.00000000000E+00  0.00000000000E+00 -0.31266306390E+03  0.31266306391E+03  0.25500000920E-02 0. -1.
    10030    2    1    2    0    0  0.00000000000E+00  0.00000000000E+00  0.10389673484E+04  0.16642934763E+04  0.13001613838E+04 0.  0.
        5    1    3    3  502    0 -0.23361458864E+03 -0.38304364218E+02 -0.25550120044E+03  0.34834746126E+03  0.46999998093E+01 0. -1.
       -5    1    3    3    0  502  0.23361458864E+03  0.38304364218E+02  0.12944685489E+04  0.13159460150E+04  0.46999998093E+01 0.  1.
</event>
<event>
 5   0  0.6458698E-05  0.1299886E+04  0.7818609E-02  0.9029655E-01
        2   -1    0    0  501    0  0.00000000000E+00  0.00000000000E+00  0.16725654570E+04  0.16725654570E+04  0.25500000920E-02 0.  1.
       -2   -1    0    0    0  501  0.00000000000E+00  0.00000000000E+00 -0.25256169549E+03  0.25256169550E+03  0.25500000920E-02 0. -1.
    10030    2    1    2    0    0  0.00000000000E+00  0.00000000000E+00  0.14200037615E+04  0.19251271525E+04  0.12998860991E+04 0.  0.
        3    1    3    3  502    0  0.31419878675E+03  0.19437335369E+03 -0.81914790268E+02  0.37843350973E+03  0.10100000352E+00 0. -1.
       -3    1    3    3    0  502 -0.31419878675E+03 -0.19437335369E+03  0.15019185518E+04  0.15466936428E+04  0.10100000352E+00 0.  1.
</event>
<event>
 5   0  0.3718559E-05  0.1298799E+04  0.7818609E-02  0.9030518E-01
        1   -1    0    0  501    0  0.00000000000E+00  0.00000000000E+00  0.75858546063E+03  0.75858546064E+03  0.50400001928E-02 0.  1.
       -1   -1    0    0    0  501  0.00000000000E+00  0.00000000000E+00 -0.55592943459E+03  0.55592943461E+03  0.50400001928E-02 0. -1.
    10030    2    1    2    0    0  0.00000000000E+00  0.00000000000E+00  0.20265602604E+03  0.13145148953E+04  0.12987994245E+04 0.  0.
        2    1    3    3  502    0  0.28295280217E+03  0.45895032823E+03  0.46767786798E+03  0.71373684243E+03  0.25500000920E-02 0.  1.
       -2    1    3    3    0  502 -0.28295280217E+03 -0.45895032823E+03 -0.26502184194E+03  0.60077805282E+03  0.25500000920E-02 0. -1.
</event>
<event>
 5   0  0.6458698E-05  0.1300262E+04  0.7818609E-02  0.9029357E-01
       -2   -1    0    0    0  501  0.00000000000E+00  0.00000000000E+00  0.74586596558E+03  0.74586596558E+03  0.25500000920E-02 0.  1.
        2   -1    0    0  501    0  0.00000000000E+00  0.00000000000E+00 -0.56668434480E+03  0.56668434480E+03  0.25500000920E-02 0. -1.
    10030    2    1    2    0    0  0.00000000000E+00  0.00000000000E+00  0.17918162078E+03  0.13125503104E+04  0.13002623828E+04 0.  0.
        3    1    3    3  502    0 -0.16201847338E+03  0.47391505157E+03 -0.32884443219E+03  0.59915284578E+03  0.10100000352E+00 0. -1.
       -3    1    3    3    0  502  0.16201847338E+03 -0.47391505157E+03  0.50802605297E+03  0.71339746461E+03  0.10100000352E+00 0.  1.
</event>
<event>
 5   0  0.3552698E-05  0.1299584E+04  0.7818609E-02  0.9029895E-01
       -1   -1    0    0    0  501  0.00000000000E+00  0.00000000000E+00  0.49059973517E+03  0.49059973520E+03  0.50400001928E-02 0. -1.
        1   -1    0    0  501    0  0.00000000000E+00  0.00000000000E+00 -0.86063978150E+03  0.86063978151E+03  0.50400001928E-02 0.  1.
    10030    2    1    2    0    0  0.00000000000E+00  0.00000000000E+00 -0.37004004633E+03  0.13512395167E+04  0.12995840087E+04 0.  0.
        5    1    3    3  502    0 -0.26304395433E+03  0.18061435742E+03  0.40351199124E+03  0.51444891397E+03  0.46999998093E+01 0. -1.
       -5    1    3    3    0  502  0.26304395433E+03 -0.18061435742E+03 -0.77355203757E+03  0.83679060274E+03  0.46999998093E+01 0.  1.
</event>
<event>
 5   0  0.3631841E-05  0.1299844E+04  0.7818609E-02  0.9029689E-01
       -1   -1    0    0    0  501  0.00000000000E+00  0.00000000000E+00  0.81615899380E+03  0.81615899382E+03  0.50400001928E-02 0.  1.
        1   -1    0    0  501    0  0.00000000000E+00  0.00000000000E+00 -0.51754463342E+03  0.51754463344E+03  0.50400001928E-02 0. -1.
    10030    2    1    2    0    0  0.00000000000E+00  0.00000000000E+00  0.29861436039E+03  0.13337036273E+04  0.12998441557E+04 0.  0.
        3    1    3    3  502    0 -0.19905728022E+03  0.55466113668E+03 -0.13192366199E+03  0.60388462486E+03  0.10100000352E+00 0. -1.
       -3    1    3    3    0  502  0.19905728022E+03 -0.55466113668E+03  0.43053802238E+03  0.72981900240E+03  0.10100000352E+00 0.  1.
</event>
<event>
 5   0  0.2512000E-05  0.1300056E+04  0.7818609E-02  0.9029521E-01
       -3   -1    0    0    0  501  0.00000000000E+00  0.00000000000E+00  0.10030796659E+04  0.10030796710E+04  0.10100000352E+00 0. -1.
        3   -1    0    0  501    0  0.00000000000E+00  0.00000000000E+00 -0.42123929506E+03  0.42123930717E+03  0.10100000352E+00 0.  1.
    10030    2    1    2    0    0  0.00000000000E+00  0.00000000000E+00  0.58184037087E+03  0.14243189782E+04  0.13000562813E+04 0.  0.
        5    1    3    3  502    0  0.55844367694E+03  0.43206222429E+01 -0.73493176506E+02  0.56329507816E+03  0.46999998093E+01 0. -1.
       -5    1    3    3    0  502 -0.55844367694E+03 -0.43206222429E+01  0.65533354738E+03  0.86102390002E+03  0.46999998093E+01 0.  1.
</event>
<event>
 5   0  0.3551277E-05  0.1299564E+04  0.7818609E-02  0.9029911E-01
        1   -1    0    0  501    0  0.00000000000E+00  0.00000000000E+00  0.73255679630E+03  0.73255679632E+03  0.50400001928E-02 0.  1.
       -1   -1    0    0    0  501  0.00000000000E+00  0.00000000000E+00 -0.57635989626E+03  0.57635989628E+03  0.50400001928E-02 0. -1.
    10030    2    1    2    0    0  0.00000000000E+00  0.00000000000E+00  0.15619690004E+03  0.13089166926E+04  0.12995635562E+04 0.  0.
        4    1    3    3  502    0 -0.22517613048E+03 -0.42391932057E+03 -0.36300659887E+03  0.60181997625E+03  0.12699999809E+01 0. -1.
       -4    1    3    3    0  502  0.22517613048E+03  0.42391932057E+03  0.51920349891E+03  0.70709671635E+03  0.12699999809E+01 0.  1.
</event>
<event>
 5   0  0.6742824E-05  0.1298373E+04  0.7818609E-02  0.9030856E-01
        2   -1    0    0  501    0  0.00000000000E+00  0.00000000000E+00  0.13539572104E+04  0.13539572104E+04  0.25500000920E-02 0. -1.
       -2   -1    0    0    0  501  0.00000000000E+00  0.00000000000E+00 -0.31126763538E+03  0.31126763539E+03  0.25500000920E-02 0.  1.
    10030    2    1    2    0    0  0.00000000000E+00  0.00000000000E+00  0.10426895750E+04  0.16652248458E+04  0.12983729192E+04 0.  0.
        4    1    3    3  502    0 -0.55279596622E+03  0.13794451852E+03  0.92044044285E+03  0.10825083335E+04  0.12699999809E+01 0. -1.
       -4    1    3    3    0  502  0.55279596622E+03 -0.13794451852E+03  0.12224913220E+03  0.58271651228E+03  0.12699999809E+01 0.  1.
</event>
<event>
 5   0  0.3551277E-05  0.1300600E+04  0.7818609E-02  0.9029089E-01
        1   -1    0    0  501    0  0.00000000000E+00  0.00000000000E+00  0.38493032569E+03  0.38493032572E+03  0.50400001928E-02 0. -1.
       -1   -1    0    0    0  501  0.00000000000E+00  0.00000000000E+00 -0.10986149825E+04  0.10986149825E+04  0.50400001928E-02 0.  1.
    10030    2    1    2    0    0  0.00000000000E+00  0.00000000000E+00 -0.71368465679E+03  0.14835453082E+04  0.13006002046E+04 0.  0.
        4    1    3    3  502    0 -0.46274205188E+03  0.39537165625E+03 -0.95634061539E+02  0.61611398278E+03  0.12699999809E+01 0.  1.
       -4    1    3    3    0  502  0.46274205188E+03 -0.39537165625E+03 -0.61805059525E+03  0.86743132543E+03  0.12699999809E+01 0. -1.
</event>
<event>
 5   0  0.6688086E-05  0.1300452E+04  0.7818609E-02  0.9029207E-01
        2   -1    0    0  501    0  0.00000000000E+00  0.00000000000E+00  0.56645265352E+03  0.56645265352E+03  0.25500000920E-02 0.  1.
       -2   -1    0    0    0  501  0.00000000000E+00  0.00000000000E+00 -0.74638905641E+03  0.74638905641E+03  0.25500000920E-02 0. -1.
    10030    2    1    2    0    0  0.00000000000E+00  0.00000000000E+00 -0.17993640289E+03  0.13128417099E+04  0.13004523237E+04 0.  0.
        5    1    3    3  502    0  0.59362009586E+03  0.15702388879E+03  0.12591638020E+03  0.62683199077E+03  0.46999998093E+01 0. -1.
       -5    1    3    3    0  502 -0.59362009586E+03 -0.15702388879E+03 -0.30585278309E+03  0.68600971916E+03  0.46999998093E+01 0.  1.
</event>
<event>
 5   0  0.3631841E-05  0.1299891E+04  0.7818609E-02  0.9029652E-01
       -1   -1    0    0    0  501  0.00000000000E+00  0.00000000000E+00  0.73726690599E+03  0.73726690601E+03  0.50400001928E-02 0. -1.
        1   -1    0    0  501    0  0.00000000000E+00  0.00000000000E+00 -0.57296605090E+03  0.57296605093E+03  0.50400001928E-02 0.  1.
    10030    2    1    2    0    0  0.00000000000E+00  0.00000000000E+00  0.16430085508E+03  0.13102329569E+04  0.12998906225E+04 0.  0.
        3    1    3    3  502    0  0.11832492787E+03  0.32702932751E+03 -0.47129003779E+03  0.58571604001E+03  0.10100000352E+00 0.  1.
       -3    1    3    3    0  502 -0.11832492787E+03 -0.32702932751E+03  0.63559089287E+03  0.72451691692E+03  0.10100000352E+00 0. -1.
</event>
<event>
 5   0  0.6618060E-05  0.1299833E+04  0.7818609E-02  0.9029698E-01
       -2   -1    0    0    0  501  0.00000000000E+00  0.00000000000E+00  0.34906270251E+03  0.34906270252E+03  0.25500000920E-02 0.  1.
        2   -1    0    0  501    0  0.00000000000E+00  0.00000000000E+00 -0.12100727257E+04  0.12100727257E+04  0.25500000920E-02 0. -1.
    10030    2    1    2    0    0  0.00000000000E+00  0.00000000000E+00 -0.86101002319E+03  0.15591354282E+04  0.12998326906E+04 0.  0.
        2    1    3    3  502    0 -0.66457806802E+02 -0.61192672989E+02 -0.12025048286E+04  0.12058934638E+04  0.25500000920E-02 0. -1.
       -2    1    3    3    0  502  0.66457806802E+02  0.61192672989E+02  0.34149480539E+03  0.35324196442E+03  0.25500000920E-02 0.  1.
</event>
<event>
 5   0  0.6742824E-05  0.1299556E+04  0.7818609E-02  0.9029917E-01
        2   -1    0    0  501    0  0.00000000000E+00  0.00000000000E+00  0.15653055668E+04  0.15653055668E+04  0.25500000920E-02 0. -1.
       -2   -1    0    0    0  501  0.00000000000E+00  0.00000000000E+00 -0.26973110932E+03  0.26973110934E+03  0.25500000920E-02 0.  1.
    10030    2    1    2    0    0  0.00000000000E+00  0.00000000000E+00  0.12955744575E+04  0.18350366761E+04  0.12995562427E+04 0.  0.
        4    1    3    3  502    0  0.64514840095E+03 -0.77392399336E+02  0.65059409918E+03  0.91950004758E+03  0.12699999809E+01 0.  1.
       -4    1    3    3    0  502 -0.64514840095E+03  0.77392399336E+02  0.64498035828E+03  0.91553662854E+03  0.12699999809E+01 0. -1.
</event>
<event>
 5   0  0.6618060E-05  0.1299791E+04  0.7818609E-02  0.9029731E-01
        2   -1    0    0  501    0  0.00000000000E+00  0.00000000000E+00  0.12089258108E+04  0.12089258108E+04  0.25500000920E-02 0. -1.
       -2   -1    0    0    0  501  0.00000000000E+00  0.00000000000E+00 -0.34937165129E+03  0.34937165130E+03  0.25500000920E-02 0.  1.
    10030    2    1    2    0    0  0.00000000000E+00  0.00000000000E+00  0.85955415947E+03  0.15582974621E+04  0.12997913783E+04 0.  0.
        2    1    3    3  502    0  0.54277143505E+03 -0.73754286234E+02  0.10469862308E+02  0.54785960196E+03  0.25500000920E-02 0. -1.
       -2    1    3    3    0  502 -0.54277143505E+03  0.73754286234E+02  0.84908429716E+03  0.10104378601E+04  0.25500000920E-02 0.  1.
</event>
<event>
 5   0  0.3551277E-05  0.1300108E+04  0.7818609E-02  0.9029480E-01
        1   -1    0    0  501    0  0.00000000000E+00  0.00000000000E+00  0.54656291838E+03  0.54656291840E+03  0.50400001928E-02 0. -1.
       -1   -1    0    0    0  501  0.00000000000E+00  0.00000000000E+00 -0.77314093702E+03  0.77314093704E+03  0.50400001928E-02 0.  1.
    10030    2    1    2    0    0  0.00000000000E+00  0.00000000000E+00 -0.22657801864E+03  0.13197038554E+04  0.13001079446E+04 0.  0.
        4    1    3    3  502    0 -0.48910757873E+03  0.13197079713E+03  0.30019083719E+03  0.58886217954E+03  0.12699999809E+01 0. -1.
       -4    1    3    3    0  502  0.48910757873E+03 -0.13197079713E+03 -0.52676885583E+03  0.73084167590E+03  0.12699999809E+01 0.  1.
</event>
<event>
 5   0  0.6688086E-05  0.1300258E+04  0.7818609E-02  0.9029361E-01
       -2   -1    0    0    0  501  0.00000000000E+00  0.00000000000E+00  0.35429364730E+03  0.35429364731E+03  0.25500000920E-02 0.  1.
        2   -1    0    0  501    0  0.00000000000E+00  0.00000000000E+00 -0.11929864210E+04  0.11929864210E+04  0.25500000920E-02 0. -1.
    10030    2    1    2    0    0  0.00000000000E+00  0.00000000000E+00 -0.83869277369E+03  0.15472800683E+04  0.13002576826E+04 0.  0.
        5    1    3    3  502    0  0.25170335701E+03  0.23205423360E+03 -0.10770097477E+04  0.11301220438E+04  0.46999998093E+01 0. -1.
       -5    1    3    3    0  502 -0.25170335701E+03 -0.23205423360E+03  0.23831697404E+03  0.41715802447E+03  0.46999998093E+01 0.  1.
</event>
<event>
 5   0  0.3718559E-05  0.1299967E+04  0.7818609E-02  0.9029592E-01
        1   -1    0    0  501    0  0.00000000000E+00  0.00000000000E+00  0.13925545093E+04  0.13925545093E+04  0.50400001928E-02 0. -1.
       -1   -1    0    0    0  501  0.00000000000E+00  0.00000000000E+00 -0.30338368880E+03  0.30338368884E+03  0.50400001928E-02 0.  1.
    10030    2    1    2    0    0  0.00000000000E+00  0.00000000000E+00  0.10891708205E+04  0.16959381982E+04  0.12999666518E+04 0.  0.
        2    1    3    3  502    0 -0.60271489798E+03 -0.62019452546E+02  0.85155968774E+03  0.10451150954E+04  0.25500000920E-02 0. -1.
       -2    1    3    3    0  502  0.60271489798E+03  0.62019452546E+02  0.23761113278E+03  0.65082310282E+03  0.25500000920E-02 0.  1.
</event>
<event>
 5   0  0.3689707E-05  0.1299880E+04  0.7818609E-02  0.9029660E-01
       -1   -1    0    0    0  501  0.00000000000E+00  0.00000000000E+00  0.81964971816E+03  0.81964971817E+03  0.50400001928E-02 0.  1.
        1   -1    0    0  501    0  0.00000000000E+00  0.00000000000E+00 -0.51536919072E+03  0.51536919074E+03  0.50400001928E-02 0. -1.
    10030    2    1    2    0    0  0.00000000000E+00  0.00000000000E+00  0.30428052744E+03  0.13350189089E+04  0.12998803206E+04 0.  0.
        1    1    3    3  502    0  0.23093749654E+03 -0.19961756093E+03 -0.43716764097E+03  0.53319306473E+03  0.50400001928E-02 0. -1.
       -1    1    3    3    0  502 -0.23093749654E+03  0.19961756093E+03  0.74144816841E+03  0.80182584419E+03  0.50400001928E-02 0.  1.
</event>
<event>
 5   0  0.3552698E-05  0.1299992E+04  0.7818609E-02  0.9029571E-01
        1   -1    0    0  501    0  0.00000000000E+00  0.00000000000E+00  0.82555091043E+03  0.82555091044E+03  0.50400001928E-02 0. -1.
       -1   -1    0    0    0  501  0.00000000000E+00  0.00000000000E+00 -0.51177329078E+03  0.51177329081E+03  0.50400001928E-02 0.  1.
    10030    2    1    2    0    0  0.00000000000E+00  0.00000000000E+00  0.31377761964E+03  0.13373242012E+04  0.12999921633E+04 0.  0.
        5    1    3    3  502    0  0.52667504106E+03 -0.72917500677E+02  0.54148218187E+03  0.75889960078E+03  0.46999998093E+01 0. -1.
       -5    1    3    3    0  502 -0.52667504106E+03  0.72917500677E+02 -0.22770456223E+03  0.57842460047E+03  0.46999998093E+01 0.  1.
</event>
<event>
 5   0  0.3551277E-05  0.1299765E+04  0.7818609E-02  0.9029752E-01
       -1   -1    0    0    0  501  0.00000000000E+00  0.00000000000E+00  0.12653708310E+04  0.12653708311E+04  0.50400001928E-02 0.  1.
        1   -1    0    0  501    0  0.00000000000E+00  0.00000000000E+00 -0.33377340717E+03  0.33377340721E+03  0.50400001928E-02 0. -1.
    10030    2    1    2    0    0  0.00000000000E+00  0.00000000000E+00  0.93159742387E+03  0.15991442383E+04  0.12997647997E+04 0.  0.
        4    1    3    3  502    0  0.27209450269E+02  0.24605870998E+02 -0.33249694904E+03  0.33451702063E+03  0.12699999809E+01 0. -1.
       -4    1    3    3    0  502 -0.27209450269E+02 -0.24605870998E+02  0.12640943729E+04  0.12646272176E+04  0.12699999809E+01 0.  1.
</event>
<event>
 5   0  0.6671239E-05  0.1299349E+04  0.7818609E-02  0.9030082E-01
        2   -1    0    0  501    0  0.00000000000E+00  0.00000000000E+00  0.19139712829E+04  0.19139712829E+04  0.25500000920E-02 0.  1.
       -2   -1    0    0    0  501  0.00000000000E+00  0.00000000000E+00 -0.22052408125E+03  0.22052408126E+03  0.25500000920E-02 0. -1.
    10030    2    1    2    0    0  0.00000000000E+00  0.00000000000E+00  0.16934472016E+04  0.21344953641E+04  0.12993486964E+04 0.  0.
        1    1    3    3  502    0 -0.17214351470E+03  0.61424617644E+03  0.10488877738E+04  0.12276389196E+04  0.50400001928E-02 0.  1.
       -1    1    3    3    0  502  0.17214351470E+03 -0.61424617644E+03  0.64455942780E+03  0.90685644449E+03  0.50400001928E-02 0. -1.
</event>
<event>
 5   0  0.3689707E-05  0.1300264E+04  0.7818609E-02  0.9029355E-01
       -1   -1    0    0    0  501  0.00000000000E+00  0.00000000000E+00  0.72682139163E+03  0.72682139165E+03  0.50400001928E-02 0.  1.
        1   -1    0    0  501    0  0.00000000000E+00  0.00000000000E+00 -0.58153477663E+03  0.58153477666E+03  0.50400001928E-02 0. -1.
    10030    2    1    2    0    0  0.00000000000E+00  0.00000000000E+00  0.14528661500E+03  0.13083561683E+04  0.13002644587E+04 0.  0.
        1    1    3    3  502    0 -0.29898388834E+03  0.11417348523E+03 -0.49678027577E+03  0.59094635344E+03  0.50400001928E-02 0. -1.
       -1    1    3    3    0  502  0.29898388834E+03 -0.11417348523E+03  0.64206689077E+03  0.71740981487E+03  0.50400001928E-02 0.  1.
</event>
<event>
 5   0  0.6458698E-05  0.1299230E+04  0.7818609E-02  0.9030176E-01
       -2   -1    0    0    0  501  0.00000000000E+00  0.00000000000E+00  0.83037749027E+03  0.83037749027E+03  0.25500000920E-02 0. -1.
        2   -1    0    0  501    0  0.00000000000E+00  0.00000000000E+00 -0.50820200164E+03  0.50820200164E+03  0.25500000920E-02 0.  1.
    10030    2    1    2    0    0  0.00000000000E+00  0.00000000000E+00  0.32217548863E+03  0.13385794919E+04  0.12992297759E+04 0.  0.
        3    1    3    3  502    0 -0.62034123049E+02  0.64308683559E+03  0.91281853479E+02  0.65248854205E+03  0.10100000352E+00 0. -1.
       -3    1    3    3    0  502  0.62034123049E+02 -0.64308683559E+03  0.23089363515E+03  0.68609094986E+03  0.10100000352E+00 0.  1.
</event>
<event>
 5   0  0.6671239E-05  0.1299901E+04  0.7818609E-02  0.9029644E-01
       -2   -1    0    0    0  501  0.00000000000E+00  0.00000000000E+00  0.26338708109E+03  0.26338708110E+03  0.25500000920E-02 0. -1.
        2   -1    0    0  501    0  0.00000000000E+00  0.00000000000E+00 -0.16038578966E+04  0.16038578966E+04  0.25500000920E-02 0.  1.
    10030    2    1    2    0    0  0.00000000000E+00  0.00000000000E+00 -0.13404708155E+04  0.18672449777E+04  0.12999006883E+04 0.  0.
        1    1    3    3  502    0  0.19491500329E+03 -0.51546715574E+03 -0.17525896190E+03  0.57828535422E+03  0.50400001928E-02 0. -1.
       -1    1    3    3    0  502 -0.19491500329E+03  0.51546715574E+03 -0.11652118536E+04  0.12889596235E+04  0.50400001928E-02 0.  1.
</event>
<event>
 5   0  0.6671239E-05  0.1299475E+04  0.7818609E-02  0.9029982E-01
        2   -1    0    0  501    0  0.00000000000E+00  0.00000000000E+00  0.13345448253E+04  0.13345448253E+04  0.25500000920E-02 0.  1.
       -2   -1    0    0    0  501  0.00000000000E+00  0.00000000000E+00 -0.31633165586E+03  0.31633165587E+03  0.25500000920E-02 0. -1.
    10030    2    1    2    0    0  0.00000000000E+00  0.00000000000E+00  0.10182131694E+04  0.16508764812E+04  0.12994749315E+04 0.  0.
        1    1    3    3  502    0  0.21161502840E+03  0.27470087016E+03 -0.18895005792E+03  0.39489696470E+03  0.50400001928E-02 0. -1.
       -1    1    3    3    0  502 -0.21161502840E+03 -0.27470087016E+03  0.12071632273E+04  0.12559795165E+04  0.50400001928E-02 0.  1.
</event>
<event>
 5   0  0.6688086E-05  0.1299540E+04  0.7818609E-02  0.9029930E-01
        2   -1    0    0  501    0  0.00000000000E+00  0.00000000000E+00  0.84260963422E+03  0.84260963422E+03  0.25500000920E-02 0.  1.
       -2   -1    0    0    0  501  0.00000000000E+00  0.00000000000E+00 -0.50106374473E+03  0.50106374473E+03  0.25500000920E-02 0. -1.
    10030    2    1    2    0    0  0.00000000000E+00  0.00000000000E+00  0.34154588949E+03  0.13436733790E+04  0.12995401320E+04 0.  0.
        5    1    3    3  502    0 -0.21866165236E+02  0.29847505720E+03 -0.42553966381E+03  0.52026107334E+03  0.46999998093E+01 0. -1.
       -5    1    3    3    0  502  0.21866165236E+02 -0.29847505720E+03  0.76708555330E+03  0.82341230562E+03  0.46999998093E+01 0.  1.
</event>
<event>
 5   0  0.3552698E-05  0.1300026E+04  0.7818609E-02  0.9029545E-01
        1   -1    0    0  501    0  0.00000000000E+00  0.00000000000E+00  0.30498100801E+03  0.30498100805E+03  0.50400001928E-02 0. -1.
       -1   -1    0    0    0  501  0.00000000000E+00  0.00000000000E+00 -0.13853872014E+04  0.13853872014E+04  0.50400001928E-02 0.  1.
    10030    2    1    2    0    0  0.00000000000E+00  0.00000000000E+00 -0.10804061934E+04  0.16903682094E+04  0.13000258231E+04 0.  0.
        5    1    3    3  502    0 -0.62387126755E+02  0.89813366224E+02  0.29291201858E+03  0.31269495513E+03  0.46999998093E+01 0. -1.
       -5    1    3    3    0  502  0.62387126755E+02 -0.89813366224E+02 -0.13733182119E+04  0.13776732543E+04  0.46999998093E+01 0.  1.
</event>
<event>
 5   0  0.6458698E-05  0.1298499E+04  0.7818609E-02  0.9030756E-01
        2   -1    0    0  501    0  0.00000000000E+00  0.00000000000E+00  0.11293427312E+04  0.11293427312E+04  0.25500000920E-02 0. -1.
       -2   -1    0    0    0  501  0.00000000000E+00  0.00000000000E+00 -0.37324818615E+03  0.37324818616E+03  0.25500000920E-02 0.  1.
    10030    2    1    2    0    0  0.00000000000E+00  0.00000000000E+00  0.75609454509E+03  0.15025909174E+04  0.12984993277E+04 0.  0.
        3    1    3    3  502    0  0.38373209010E+03 -0.31204948450E+03  0.86474895340E+03  0.99620076308E+03  0.10100000352E+00 0. -1.
       -3    1    3    3    0  502 -0.38373209010E+03  0.31204948450E+03 -0.10865440831E+03  0.50639015432E+03  0.10100000352E+00 0.  1.
</event>
<event>
 5   0  0.3718559E-05  0.1299763E+04  0.7818609E-02  0.9029753E-01
       -1   -1    0    0    0  501  0.00000000000E+00  0.00000000000E+00  0.16627677735E+04  0.16627677735E+04  0.50400001928E-02 0. -1.
        1   -1    0    0  501    0  0.00000000000E+00  0.00000000000E+00 -0.25400167523E+03  0.25400167528E+03  0.50400001928E-02 0.  1.
    10030    2    1    2    0    0  0.00000000000E+00  0.00000000000E+00  0.14087660983E+04  0.19167694488E+04  0.12997627477E+04 0.  0.
        2    1    3    3  502    0  0.90923797471E+02 -0.44774905098E+03  0.22820280348E+02  0.45745722729E+03  0.25500000920E-02 0.  1.
       -2    1    3    3    0  502 -0.90923797471E+02  0.44774905098E+03  0.13859458179E+04  0.14593122215E+04  0.25500000920E-02 0. -1.
</event>
<event>
 5   0  0.3689707E-05  0.1303888E+04  0.7818609E-02  0.9026487E-01
        1   -1    0    0  501    0  0.00000000000E+00  0.00000000000E+00  0.11318941540E+04  0.11318941540E+04  0.50400001928E-02 0. -1.
       -1   -1    0    0    0  501  0.00000000000E+00  0.00000000000E+00 -0.37550439415E+03  0.37550439418E+03  0.50400001928E-02 0.  1.
    10030    2    1    2    0    0  0.00000000000E+00  0.00000000000E+00  0.75638975987E+03  0.15073985482E+04  0.13038883826E+04 0.  0.
        1    1    3    3  502    0  0.13053214563E+02 -0.64835581501E+03  0.30068081589E+03  0.71480389082E+03  0.50400001928E-02 0.  1.
       -1    1    3    3    0  502 -0.13053214563E+02  0.64835581501E+03  0.45570894398E+03  0.79259465738E+03  0.50400001928E-02 0. -1.
</event>
<event>
 5   0  0.3631841E-05  0.1300064E+04  0.7818609E-02  0.9029515E-01
        1   -1    0    0  501    0  0.00000000000E+00  0.00000000000E+00  0.11774015357E+04  0.11774015357E+04  0.50400001928E-02 0. -1.
       -1   -1    0    0    0  501  0.00000000000E+00  0.00000000000E+00 -0.35887612759E+03  0.35887612763E+03  0.50400001928E-02 0.  1.
    10030    2    1    2    0    0  0.00000000000E+00  0.00000000000E+00  0.81852540812E+03  0.15362776633E+04  0.13000635427E+04 0.  0.
        3    1    3    3  502    0 -0.54212047852E+03 -0.75019782458E+02  0.82373043681E+03  0.98896634105E+03  0.10100000352E+00 0. -1.
       -3    1    3    3    0  502  0.54212047852E+03  0.75019782458E+02 -0.52050286965E+01  0.54731132230E+03  0.10100000352E+00 0.  1.
</event>
<event>
 5   0  0.3631841E-05  0.1299387E+04  0.7818609E-02  0.9030052E-01
        1   -1    0    0  501    0  0.00000000000E+00  0.00000000000E+00  0.19410082920E+04  0.19410082920E+04  0.50400001928E-02 0.  1.
       -1   -1    0    0    0  501  0.00000000000E+00  0.00000000000E+00 -0.21746506843E+03  0.21746506849E+03  0.50400001928E-02 0. -1.
    10030    2    1    2    0    0  0.00000000000E+00  0.00000000000E+00  0.17235432235E+04  0.21584733604E+04  0.12993867801E+04 0.  0.
        3    1    3    3  502    0 -0.24037937263E+02 -0.32012593572E+03 -0.76509331606E+02  0.33001837096E+03  0.10100000352E+00 0. -1.
       -3    1    3    3    0  502  0.24037937263E+02  0.32012593572E+03  0.18000525551E+04  0.18284549895E+04  0.10100000352E+00 0.  1.
</event>
<event>
 5   0  0.6618060E-05  0.1300486E+04  0.7818609E-02  0.9029180E-01
       -2   -1    0    0    0  501  0.00000000000E+00  0.00000000000E+00  0.79436408267E+03  0.79436408267E+03  0.25500000920E-02 0.  1.
        2   -1    0    0  501    0  0.00000000000E+00  0.00000000000E+00 -0.53227009186E+03  0.53227009187E+03  0.25500000920E-02 0. -1.
    10030    2    1    2    0    0  0.00000000000E+00  0.00000000000E+00  0.26209399081E+03  0.13266341745E+04  0.13004864371E+04 0.  0.
        2    1    3    3  502    0  0.55249784210E+03 -0.32503427928E+03  0.19695998777E+02  0.64131823661E+03  0.25500000920E-02 0. -1.
       -2    1    3    3    0  502 -0.55249784210E+03  0.32503427928E+03  0.24239799203E+03  0.68531593793E+03  0.25500000920E-02 0.  1.
</event>
<event>
 5   0  0.3552698E-05  0.1299887E+04  0.7818609E-02  0.9029655E-01
       -1   -1    0    0    0  501  0.00000000000E+00  0.00000000000E+00  0.12010704372E+04  0.12010704372E+04  0.50400001928E-02 0.  1.
        1   -1    0    0  501    0  0.00000000000E+00  0.00000000000E+00 -0.35170822973E+03  0.35170822976E+03  0.50400001928E-02 0. -1.
    10030    2    1    2    0    0  0.00000000000E+00  0.00000000000E+00  0.84936220747E+03  0.15527786670E+04  0.12998866986E+04 0.  0.
        5    1    3    3  502    0 -0.53911893387E+03 -0.13544755073E+03  0.82696053098E+03  0.99643417929E+03  0.46999998093E+01 0.  1.
       -5    1    3    3    0  502  0.53911893387E+03  0.13544755073E+03  0.22401676486E+02  0.55634448768E+03  0.46999998093E+01 0. -1.
</event>
<event>
 5   0  0.6688086E-05  0.1301162E+04  0.7818609E-02  0.9028644E-01
        2   -1    0    0  501    0  0.00000000000E+00  0.00000000000E+00  0.12227518608E+04  0.12227518608E+04  0.25500000920E-02 0.  1.
       -2   -1    0    0    0  501  0.00000000000E+00  0.00000000000E+00 -0.34614996602E+03  0.34614996603E+03  0.25500000920E-02 0. -1.
    10030    2    1    2    0    0  0.00000000000E+00  0.00000000000E+00  0.87660189477E+03  0.15689018268E+04  0.13011618117E+04 0.  0.
        5    1    3    3  502    0  0.40318362866E+02 -0.10123336131E+03  0.12116495605E+04  0.12165486062E+04  0.46999998093E+01 0.  1.
       -5    1    3    3    0  502 -0.40318362866E+02  0.10123336131E+03 -0.33504766568E+03  0.35235322065E+03  0.46999998093E+01 0. -1.
</event>
<event>
 5   0  0.3718559E-05  0.1299821E+04  0.7818609E-02  0.9029707E-01
       -1   -1    0    0    0  501  0.00000000000E+00  0.00000000000E+00  0.43775432220E+03  0.43775432223E+03  0.50400001928E-02 0. -1.
        1   -1    0    0  501    0  0.00000000000E+00  0.00000000000E+00 -0.96488749188E+03  0.96488749189E+03  0.50400001928E-02 0.  1.
    10030    2    1    2    0    0  0.00000000000E+00  0.00000000000E+00 -0.52713316968E+03  0.14026418141E+04  0.12998210185E+04 0.  0.
        2    1    3    3  502    0  0.58291570027E+03 -0.25923914875E+03 -0.39742774958E+03  0.75162787734E+03  0.25500000920E-02 0.  1.
       -2    1    3    3    0  502 -0.58291570027E+03  0.25923914875E+03 -0.12970542010E+03  0.65101393677E+03  0.25500000920E-02 0. -1.
</event>
<event>
 5   0  0.2512000E-05  0.1299826E+04  0.7818609E-02  0.9029703E-01
        4   -1    0    0  501    0  0.00000000000E+00  0.00000000000E+00  0.39498126709E+03  0.39498330883E+03  0.12699999809E+01 0. -1.
       -4   -1    0    0    0  501  0.00000000000E+00  0.00000000000E+00 -0.10693789601E+04  0.10693797142E+04  0.12699999809E+01 0.  1.
    10030    2    1    2    0    0  0.00000000000E+00  0.00000000000E+00 -0.67439769300E+03  0.14643630230E+04  0.12998256864E+04 0.  0.
        1    1    3    3  502    0 -0.63963927719E+03 -0.27308503309E+02 -0.21123009002E+03  0.67416786503E+03  0.50400001928E-02 0. -1.
       -1    1    3    3    0  502  0.63963927719E+03  0.27308503309E+02 -0.46316760298E+03  0.79019515802E+03  0.50400001928E-02 0.  1.
</event>
<event>
 5   0  0.3689707E-05  0.1300284E+04  0.7818609E-02  0.9029340E-01
        1   -1    0    0  501    0  0.00000000000E+00  0.00000000000E+00  0.89802003652E+03  0.89802003653E+03  0.50400001928E-02 0.  1.
       -1   -1    0    0    0  501  0.00000000000E+00  0.00000000000E+00 -0.47068521495E+03  0.47068521498E+03  0.50400001928E-02 0. -1.
    10030    2    1    2    0    0  0.00000000000E+00  0.00000000000E+00  0.42733482157E+03  0.13687052515E+04  0.13002842058E+04 0.  0.
        1    1    3    3  502    0 -0.45722561331E+01 -0.64655019609E+03  0.28534374500E+03  0.70673128870E+03  0.50400001928E-02 0. -1.
       -1    1    3    3    0  502  0.45722561331E+01  0.64655019609E+03  0.14199107656E+03  0.66197396281E+03  0.50400001928E-02 0.  1.
</event>
<event>
 5   0  0.3718559E-05  0.1300262E+04  0.7818609E-02  0.9029357E-01
        1   -1    0    0  501    0  0.00000000000E+00  0.00000000000E+00  0.47046902383E+03  0.47046902386E+03  0.50400001928E-02 0. -1.
       -1   -1    0    0    0  501  0.00000000000E+00  0.00000000000E+00 -0.89840210167E+03  0.89840210168E+03  0.50400001928E-02 0.  1.
    10030    2    1    2    0    0  0.00000000000E+00  0.00000000000E+00 -0.42793307783E+03  0.13688711255E+04  0.13002620656E+04 0.  0.
        2    1    3    3  502    0 -0.60745444450E+03 -0.20759793252E+03 -0.32221498457E+03  0.71827592192E+03  0.25500000920E-02 0.  1.
       -2    1    3    3    0  502  0.60745444450E+03  0.20759793252E+03 -0.10571809327E+03  0.65059520362E+03  0.25500000920E-02 0. -1.
</event>
<event>
 5   0  0.6671239E-05  0.1299089E+04  0.7818609E-02  0.9030288E-01
        2   -1    0    0  501    0  0.00000000000E+00  0.00000000000E+00  0.24871172080E+04  0.24871172080E+04  0.25500000920E-02 0. -1.
       -2   -1    0    0    0  501  0.00000000000E+00  0.00000000000E+00 -0.16963733078E+03  0.16963733080E+03  0.25500000920E-02 0.  1.
    10030    2    1    2    0    0  0.00000000000E+00  0.00000000000E+00  0.23174798772E+04  0.26567545388E+04  0.12990887953E+04 0.  0.
        1    1    3    3  502    0 -0.54548660693E+03 -0.22521723135E+02  0.18784406549E+04  0.19561702789E+04  0.50400001928E-02 0. -1.
       -1    1    3    3    0  502  0.54548660693E+03  0.22521723135E+02  0.43903922232E+03  0.70058425983E+03  0.50400001928E-02 0.  1.
</event>
<event>
 5   0  0.6671239E-05  0.1300127E+04  0.7818609E-02  0.9029465E-01
        2   -1    0    0  501    0  0.00000000000E+00  0.00000000000E+00  0.11355718779E+04  0.11355718779E+04  0.25500000920E-02 0.  1.
       -2   -1    0    0    0  501  0.00000000000E+00  0.00000000000E+00 -0.37213182417E+03  0.37213182418E+03  0.25500000920E-02 0. -1.
    10030    2    1    2    0    0  0.00000000000E+00  0.00000000000E+00  0.76344005372E+03  0.15077037021E+04  0.13001268160E+04 0.  0.
        1    1    3    3  502    0 -0.47002642750E+03 -0.29569341007E+03  0.77364872480E+03  0.95230866042E+03  0.50400001928E-02 0.  1.
       -1    1    3    3    0  502  0.47002642750E+03  0.29569341007E+03 -0.10208671084E+02  0.55539504165E+03  0.50400001928E-02 0. -1.
</event>
<event>
 5   0  0.2512000E-05  0.1302165E+04  0.7818609E-02  0.9027850E-01
       -3   -1    0    0    0  501  0.00000000000E+00  0.00000000000E+00  0.52367868726E+03  0.52367869700E+03  0.10100000352E+00 0.  1.
        3   -1    0    0  501    0  0.00000000000E+00  0.00000000000E+00 -0.80948128220E+03  0.80948128850E+03  0.10100000352E+00 0. -1.
    10030    2    1    2    0    0  0.00000000000E+00  0.00000000000E+00 -0.28580259494E+03  0.13331599855E+04  0.13021645148E+04 0.  0.
        2    1    3    3  502    0 -0.36070420647E+03 -0.29734191485E+03  0.32108412350E+03  0.56711088269E+03  0.25500000920E-02 0.  1.
       -2    1    3    3    0  502  0.36070420647E+03  0.29734191485E+03 -0.60688671844E+03  0.76604910281E+03  0.25500000920E-02 0. -1.
</event>
<event>
 5   0  0.3551277E-05  0.1300968E+04  0.7818609E-02  0.9028798E-01
       -1   -1    0    0    0  501  0.00000000000E+00  0.00000000000E+00  0.56756241039E+03  0.56756241041E+03  0.50400001928E-02 0. -1.
        1   -1    0    0  501    0  0.00000000000E+00  0.00000000000E+00 -0.74552053312E+03  0.74552053314E+03  0.50400001928E-02 0.  1.
    10030    2    1    2    0    0  0.00000000000E+00  0.00000000000E+00 -0.17795812273E+03  0.13130829436E+04  0.13009679947E+04 0.  0.
        4    1    3    3  502    0  0.53931117775E+02 -0.86113362942E+01  0.56524301876E+03  0.56787675048E+03  0.12699999809E+01 0. -1.
       -4    1    3    3    0  502 -0.53931117775E+02  0.86113362942E+01 -0.74320114149E+03  0.74520619307E+03  0.12699999809E+01 0.  1.
</event>
<event>
 5   0  0.6688086E-05  0.1300067E+04  0.7818609E-02  0.9029512E-01
       -2   -1    0    0    0  501  0.00000000000E+00  0.00000000000E+00  0.63168568350E+03  0.63168568350E+03  0.25500000920E-02 0. -1.
        2   -1    0    0  501    0  0.00000000000E+00  0.00000000000E+00 -0.66891471140E+03  0.66891471140E+03  0.25500000920E-02 0.  1.
    10030    2    1    2    0    0  0.00000000000E+00  0.00000000000E+00 -0.37229027905E+02  0.13006003949E+04  0.13000674547E+04 0.  0.
        5    1    3    3  502    0  0.59934936107E+03 -0.22126574495E+03  0.10119922644E+03  0.64687058979E+03  0.46999998093E+01 0. -1.
       -5    1    3    3    0  502 -0.59934936107E+03  0.22126574495E+03 -0.13842825435E+03  0.65372980512E+03  0.46999998093E+01 0.  1.
</event>
<event>
 5   0  0.3552698E-05  0.1300219E+04  0.7818609E-02  0.9029391E-01
        1   -1    0    0  501    0  0.00000000000E+00  0.00000000000E+00  0.58273262314E+03  0.58273262316E+03  0.50400001928E-02 0. -1.
       -1   -1    0    0    0  501  0.00000000000E+00  0.00000000000E+00 -0.72527678981E+03  0.72527678983E+03  0.50400001928E-02 0.  1.
    10030    2    1    2    0    0  0.00000000000E+00  0.00000000000E+00 -0.14254416667E+03  0.13080094130E+04  0.13002191296E+04 0.  0.
        5    1    3    3  502    0 -0.20411101801E+03  0.36538108206E+03  0.42915759832E+03  0.59946891245E+03  0.46999998093E+01 0. -1.
       -5    1    3    3    0  502  0.20411101801E+03 -0.36538108206E+03 -0.57170176499E+03  0.70854050053E+03  0.46999998093E+01 0.  1.
</event>
<event>
 5   0  0.3718559E-05  0.1300346E+04  0.7818609E-02  0.9029291E-01
       -1   -1    0    0    0  501  0.00000000000E+00  0.00000000000E+00  0.33070428596E+03  0.33070428600E+03  0.50400001928E-02 0. -1.
        1   -1    0    0  501    0  0.00000000000E+00  0.00000000000E+00 -0.12782566280E+04  0.12782566280E+04  0.50400001928E-02 0.  1.
    10030    2    1    2    0    0  0.00000000000E+00  0.00000000000E+00 -0.94755234207E+03  0.16089609140E+04  0.13003460239E+04 0.  0.
        2    1    3    3  502    0 -0.58740022024E+02 -0.43112841691E+03  0.12400142096E+03  0.45243613302E+03  0.25500000920E-02 0. -1.
       -2    1    3    3    0  502  0.58740022024E+02  0.43112841691E+03 -0.10715537630E+04  0.11565247810E+04  0.25500000920E-02 0.  1.
</event>
<event>
 5   0  0.6688086E-05  0.1299758E+04  0.7818609E-02  0.9029757E-01
        2   -1    0    0  501    0  0.00000000000E+00  0.00000000000E+00  0.51579000873E+03  0.51579000874E+03  0.25500000920E-02 0. -1.
       -2   -1    0    0    0  501  0.00000000000E+00  0.00000000000E+00 -0.81882625481E+03  0.81882625481E+03  0.25500000920E-02 0.  1.
    10030    2    1    2    0    0  0.00000000000E+00  0.00000000000E+00 -0.30303624608E+03  0.13346162635E+04  0.12997575176E+04 0.  0.
        5    1    3    3  502    0  0.29985301235E+03 -0.31216446398E+03 -0.64924687885E+03  0.78032178060E+03  0.46999998093E+01 0.  1.
       -5    1    3    3    0  502 -0.29985301235E+03  0.31216446398E+03  0.34621063277E+03  0.55429448295E+03  0.46999998093E+01 0. -1.
</event>
<event>
 5   0  0.6671239E-05  0.1300947E+04  0.7818609E-02  0.9028815E-01
        2   -1    0    0  501    0  0.00000000000E+00  0.00000000000E+00  0.11074698717E+04  0.11074698717E+04  0.25500000920E-02 0.  1.
       -2   -1    0    0    0  501  0.00000000000E+00  0.00000000000E+00 -0.38205617879E+03  0.38205617880E+03  0.25500000920E-02 0. -1.
    10030    2    1    2    0    0  0.00000000000E+00  0.00000000000E+00  0.72541369288E+03  0.14895260505E+04  0.13009468971E+04 0.  0.
        1    1    3    3  502    0  0.62860303874E+03 -0.84864204669E+02  0.52772344267E+03  0.82512771467E+03  0.50400001928E-02 0. -1.
       -1    1    3    3    0  502 -0.62860303874E+03  0.84864204669E+02  0.19769025020E+03  0.66439833579E+03  0.50400001928E-02 0.  1.
</event>
<event>
 5   0  0.3718559E-05  0.1300428E+04  0.7818609E-02  0.9029226E-01
       -1   -1    0    0    0  501  0.00000000000E+00  0.00000000000E+00  0.30642604336E+03  0.30642604340E+03  0.50400001928E-02 0. -1.
        1   -1    0    0  501    0  0.00000000000E+00  0.00000000000E+00 -0.13797067993E+04  0.13797067994E+04  0.50400001928E-02 0.  1.
    10030    2    1    2    0    0  0.00000000000E+00  0.00000000000E+00 -0.10732807560E+04  0.16861328427E+04  0.13004277689E+04 0.  0.
        2    1    3    3  502    0 -0.10654414991E+03 -0.56259020853E+03 -0.93610786432E+03  0.10973410282E+04  0.25500000920E-02 0.  1.
       -2    1    3    3    0  502  0.10654414991E+03  0.56259020853E+03 -0.13717289167E+03  0.58879181451E+03  0.25500000920E-02 0. -1.
</event>
<event>
 5   0  0.3552698E-05  0.1300872E+04  0.7818609E-02  0.9028874E-01
        1   -1    0    0  501    0  0.00000000000E+00  0.00000000000E+00  0.14932315857E+04  0.14932315857E+04  0.50400001928E-02 0.  1.
       -1   -1    0    0    0  501  0.00000000000E+00  0.00000000000E+00 -0.28332321653E+03  0.28332321657E+03  0.50400001928E-02 0. -1.
    10030    2    1    2    0    0  0.00000000000E+00  0.00000000000E+00  0.12099083692E+04  0.17765548023E+04  0.13008722857E+04 0.  0.
        5    1    3    3  502    0 -0.51993635644E+03  0.16087966417E+03  0.10913090221E+04  0.12195054542E+04  0.46999998093E+01 0.  1.
       -5    1    3    3    0  502  0.51993635644E+03 -0.16087966417E+03  0.11859934708E+03  0.55704934810E+03  0.46999998093E+01 0. -1.
</event>
<event>
 5   0  0.3631841E-05  0.1300117E+04  0.7818609E-02  0.9029472E-01
        1   -1    0    0  501    0  0.00000000000E+00  0.00000000000E+00  0.94096984991E+03  0.94096984992E+03  0.50400001928E-02 0. -1.
       -1   -1    0    0    0  501  0.00000000000E+00  0.00000000000E+00 -0.44908577331E+03  0.44908577333E+03  0.50400001928E-02 0.  1.
    10030    2    1    2    0    0  0.00000000000E+00  0.00000000000E+00  0.49188407660E+03  0.13900556233E+04  0.13001171835E+04 0.  0.
        3    1    3    3  502    0  0.11733086709E+03 -0.50101752444E+03  0.67065047840E+03  0.84531483280E+03  0.10100000352E+00 0. -1.
       -3    1    3    3    0  502 -0.11733086709E+03  0.50101752444E+03 -0.17876640180E+03  0.54474079046E+03  0.10100000352E+00 0.  1.
</event>
<event>
 5   0  0.3631841E-05  0.1300394E+04  0.7818609E-02  0.9029253E-01
       -1   -1    0    0    0  501  0.00000000000E+00  0.00000000000E+00  0.47440256784E+03  0.47440256787E+03  0.50400001928E-02 0.  1.
        1   -1    0    0  501    0  0.00000000000E+00  0.00000000000E+00 -0.89113342250E+03  0.89113342251E+03  0.50400001928E-02 0. -1.
    10030    2    1    2    0    0  0.00000000000E+00  0.00000000000E+00 -0.41673085465E+03  0.13655359904E+04  0.13003937618E+04 0.  0.
        3    1    3    3  502    0  0.21822903227E+03  0.52692279456E+03 -0.53623106767E+03  0.78282521043E+03  0.10100000352E+00 0. -1.
       -3    1    3    3    0  502 -0.21822903227E+03 -0.52692279456E+03  0.11950021301E+03  0.58271077995E+03  0.10100000352E+00 0.  1.
</event>
<event>
 5   0  0.3552698E-05  0.1300444E+04  0.7818609E-02  0.9029213E-01
       -1   -1    0    0    0  501  0.00000000000E+00  0.00000000000E+00  0.23875522350E+03  0.23875522355E+03  0.50400001928E-02 0.  1.
        1   -1    0    0  501    0  0.00000000000E+00  0.00000000000E+00 -0.17708033154E+04  0.17708033154E+04  0.50400001928E-02 0. -1.
    10030    2    1    2    0    0  0.00000000000E+00  0.00000000000E+00 -0.15320480919E+04  0.20095585390E+04  0.13004438341E+04 0.  0.
        5    1    3    3  502    0 -0.57644332449E+03 -0.32065040690E+02 -0.30385316411E+03  0.65242923641E+03  0.46999998093E+01 0.  1.
       -5    1    3    3    0  502  0.57644332449E+03  0.32065040690E+02 -0.12281949278E+04  0.13571293026E+04  0.46999998093E+01 0. -1.
</event>
<event>
 5   0  0.3551277E-05  0.1300090E+04  0.7818609E-02  0.9029494E-01
        1   -1    0    0  501    0  0.00000000000E+00  0.00000000000E+00  0.52433833276E+03  0.52433833278E+03  0.50400001928E-02 0.  1.
       -1   -1    0    0    0  501  0.00000000000E+00  0.00000000000E+00 -0.80588864556E+03  0.80588864557E+03  0.50400001928E-02 0. -1.
    10030    2    1    2    0    0  0.00000000000E+00  0.00000000000E+00 -0.28155031280E+03  0.13302269784E+04  0.13000897028E+04 0.  0.
        4    1    3    3  502    0  0.20334869624E+03  0.32063913416E+02  0.49010355392E+03  0.53158432376E+03  0.12699999809E+01 0.  1.
       -4    1    3    3    0  502 -0.20334869624E+03 -0.32063913416E+02 -0.77165386672E+03  0.79864265459E+03  0.12699999809E+01 0. -1.
</event>
<event>
 5   0  0.3552698E-05  0.1299286E+04  0.7818609E-02  0.9030132E-01
       -1   -1    0    0    0  501  0.00000000000E+00  0.00000000000E+00  0.30330607607E+03  0.30330607612E+03  0.50400001928E-02 0. -1.
        1   -1    0    0  501    0  0.00000000000E+00  0.00000000000E+00 -0.13914524311E+04  0.13914524311E+04  0.50400001928E-02 0.  1.
    10030    2    1    2    0    0  0.00000000000E+00  0.00000000000E+00 -0.10881463550E+04  0.16947585072E+04  0.12992859223E+04 0.  0.
        5    1    3    3  502    0 -0.44477931098E+02  0.34883574588E+03  0.16839512139E+03  0.38992777647E+03  0.46999998093E+01 0. -1.
       -5    1    3    3    0  502  0.44477931098E+02 -0.34883574588E+03 -0.12565414764E+04  0.13048307308E+04  0.46999998093E+01 0.  1.
</event>
<event>
 5   0  0.6742824E-05  0.1297283E+04  0.7818609E-02  0.9031722E-01
        2   -1    0    0  501    0  0.00000000000E+00  0.00000000000E+00  0.98032369402E+03  0.98032369402E+03  0.25500000920E-02 0.  1.
       -2   -1    0    0    0  501  0.00000000000E+00  0.00000000000E+00 -0.42918073312E+03  0.42918073313E+03  0.25500000920E-02 0. -1.
    10030    2    1    2    0    0  0.00000000000E+00  0.00000000000E+00  0.55114296090E+03  0.14095044272E+04  0.12972833795E+04 0.  0.
        4    1    3    3  502    0  0.54295396489E+03  0.34195731970E+03  0.17249309243E+03  0.66444660908E+03  0.12699999809E+01 0. -1.
       -4    1    3    3    0  502 -0.54295396489E+03 -0.34195731970E+03  0.37864986847E+03  0.74505781807E+03  0.12699999809E+01 0.  1.
</event>
<event>
 5   0  0.3631841E-05  0.1299619E+04  0.7818609E-02  0.9029867E-01
       -1   -1    0    0    0  501  0.00000000000E+00  0.00000000000E+00  0.70079828213E+03  0.70079828215E+03  0.50400001928E-02 0.  1.
        1   -1    0    0  501    0  0.00000000000E+00  0.00000000000E+00 -0.60253091168E+03  0.60253091170E+03  0.50400001928E-02 0. -1.
    10030    2    1    2    0    0  0.00000000000E+00  0.00000000000E+00  0.98267370450E+02  0.13033291939E+04  0.12996193718E+04 0.  0.
        3    1    3    3  502    0  0.10211631269E+03  0.47991991701E+02  0.69089920162E+03  0.70005191921E+03  0.10100000352E+00 0.  1.
       -3    1    3    3    0  502 -0.10211631269E+03 -0.47991991701E+02 -0.59263183117E+03  0.60327727465E+03  0.10100000352E+00 0. -1.
</event>
<event>
 5   0  0.6458698E-05  0.1300559E+04  0.7818609E-02  0.9029122E-01
        2   -1    0    0  501    0  0.00000000000E+00  0.00000000000E+00  0.58547022650E+03  0.58547022650E+03  0.25500000920E-02 0.  1.
       -2   -1    0    0    0  501  0.00000000000E+00  0.00000000000E+00 -0.72226237869E+03  0.72226237869E+03  0.25500000920E-02 0. -1.
    10030    2    1    2    0    0  0.00000000000E+00  0.00000000000E+00 -0.13679215219E+03  0.13077326052E+04  0.13005585238E+04 0.  0.
        3    1    3    3  502    0 -0.20138655925E+03  0.36319941787E+03 -0.57154890954E+03  0.70649736700E+03  0.10100000352E+00 0. -1.
       -3    1    3    3    0  502  0.20138655925E+03 -0.36319941787E+03  0.43475675735E+03  0.60123523820E+03  0.10100000352E+00 0.  1.
</event>
<event>
 5   0  0.6458698E-05  0.1299927E+04  0.7818609E-02  0.9029623E-01
       -2   -1    0    0    0  501  0.00000000000E+00  0.00000000000E+00  0.36636439682E+03  0.36636439682E+03  0.25500000920E-02 0. -1.
        2   -1    0    0  501    0  0.00000000000E+00  0.00000000000E+00 -0.11530945093E+04  0.11530945093E+04  0.25500000920E-02 0.  1.
    10030    2    1    2    0    0  0.00000000000E+00  0.00000000000E+00 -0.78673011245E+03  0.15194589061E+04  0.12999273431E+04 0.  0.
        3    1    3    3  502    0  0.51362605163E+03 -0.35437452941E+03 -0.18083538437E+03  0.64968798238E+03  0.10100000352E+00 0. -1.
       -3    1    3    3    0  502 -0.51362605163E+03  0.35437452941E+03 -0.60589472808E+03  0.86977092371E+03  0.10100000352E+00 0.  1.
</event>
<event>
 5   0  0.2512000E-05  0.1299896E+04  0.7818609E-02  0.9029648E-01
       -4   -1    0    0    0  501  0.00000000000E+00  0.00000000000E+00  0.11260454327E+04  0.11260461489E+04  0.12699999809E+01 0.  1.
        4   -1    0    0  501    0  0.00000000000E+00  0.00000000000E+00 -0.37514467195E+03  0.37514682165E+03  0.12699999809E+01 0. -1.
    10030    2    1    2    0    0  0.00000000000E+00  0.00000000000E+00  0.75090076074E+03  0.15011929705E+04  0.12998955274E+04 0.  0.
        1    1    3    3  502    0 -0.49635085242E+03  0.38298488208E+03  0.17746568890E+03  0.65156401018E+03  0.50400001928E-02 0. -1.
       -1    1    3    3    0  502  0.49635085242E+03 -0.38298488208E+03  0.57343507184E+03  0.84962896034E+03  0.50400001928E-02 0.  1.
</event>
<event>
 5   0  0.6688086E-05  0.1300211E+04  0.7818609E-02  0.9029398E-01
        2   -1    0    0  501    0  0.00000000000E+00  0.00000000000E+00  0.76829648245E+03  0.76829648246E+03  0.25500000920E-02 0.  1.
       -2   -1    0    0    0  501  0.00000000000E+00  0.00000000000E+00 -0.55009605762E+03  0.55009605762E+03  0.25500000920E-02 0. -1.
    10030    2    1    2    0    0  0.00000000000E+00  0.00000000000E+00  0.21820042484E+03  0.13183925401E+04  0.13002105462E+04 0.  0.
        5    1    3    3  502    0  0.32680711690E+03 -0.23799086660E+02  0.67841896913E+03  0.75342131365E+03  0.46999998093E+01 0.  1.
       -5    1    3    3    0  502 -0.32680711690E+03  0.23799086660E+02 -0.46021854429E+03  0.56497122643E+03  0.46999998093E+01 0. -1.
</event>
<event>
 5   0  0.3552698E-05  0.1300274E+04  0.7818609E-02  0.9029348E-01
       -1   -1    0    0    0  501  0.00000000000E+00  0.00000000000E+00  0.74183779288E+03  0.74183779290E+03  0.50400001928E-02 0.  1.
        1   -1    0    0  501    0  0.00000000000E+00  0.00000000000E+00 -0.56977141920E+03  0.56977141923E+03  0.50400001928E-02 0. -1.
    10030    2    1    2    0    0  0.00000000000E+00  0.00000000000E+00  0.17206637368E+03  0.13116092121E+04  0.13002737744E+04 0.  0.
        5    1    3    3  502    0 -0.40402513696E+03  0.14109001168E+02 -0.42754235477E+03  0.58843005560E+03  0.46999998093E+01 0. -1.
       -5    1    3    3    0  502  0.40402513696E+03 -0.14109001168E+02  0.59960872845E+03  0.72317915653E+03  0.46999998093E+01 0.  1.
</event>
<event>
 5   0  0.3718559E-05  0.1298621E+04  0.7818609E-02  0.9030659E-01
        1   -1    0    0  501    0  0.00000000000E+00  0.00000000000E+00  0.58043645315E+03  0.58043645317E+03  0.50400001928E-02 0. -1.
       -1   -1    0    0    0  501  0.00000000000E+00  0.00000000000E+00 -0.72635742145E+03  0.72635742147E+03  0.50400001928E-02 0.  1.
    10030    2    1    2    0    0  0.00000000000E+00  0.00000000000E+00 -0.14592096830E+03  0.13067938746E+04  0.12986213081E+04 0.  0.
        2    1    3    3  502    0  0.41334175997E+03  0.15076180440E+03  0.40756303449E+03  0.59974007644E+03  0.25500000920E-02 0. -1.
       -2    1    3    3    0  502 -0.41334175997E+03 -0.15076180440E+03 -0.55348400279E+03  0.70705379820E+03  0.25500000920E-02 0.  1.
</event>
<event>
 5   0  0.6688086E-05  0.1299800E+04  0.7818609E-02  0.9029724E-01
       -2   -1    0    0    0  501  0.00000000000E+00  0.00000000000E+00  0.55877913599E+03  0.55877913599E+03  0.25500000920E-02 0. -1.
        2   -1    0    0  501    0  0.00000000000E+00  0.00000000000E+00 -0.75588032401E+03  0.75588032401E+03  0.25500000920E-02 0.  1.
    10030    2    1    2    0    0  0.00000000000E+00  0.00000000000E+00 -0.19710118802E+03  0.13146594600E+04  0.12998002221E+04 0.  0.
        5    1    3    3  502    0  0.34741840857E+03  0.40616281094E+03  0.27537879636E+03  0.60126811913E+03  0.46999998093E+01 0. -1.
       -5    1    3    3    0  502 -0.34741840857E+03 -0.40616281094E+03 -0.47247998437E+03  0.71339134087E+03  0.46999998093E+01 0.  1.
</event>
<event>
 5   0  0.6671239E-05  0.1300916E+04  0.7818609E-02  0.9028839E-01
        2   -1    0    0  501    0  0.00000000000E+00  0.00000000000E+00  0.11958863127E+04  0.11958863127E+04  0.25500000920E-02 0. -1.
       -2   -1    0    0    0  501  0.00000000000E+00  0.00000000000E+00 -0.35379263629E+03  0.35379263630E+03  0.25500000920E-02 0.  1.
    10030    2    1    2    0    0  0.00000000000E+00  0.00000000000E+00  0.84209367641E+03  0.15496789490E+04  0.13009162483E+04 0.  0.
        1    1    3    3  502    0  0.13893327494E+03 -0.45178163209E+03 -0.11126599503E+03  0.48558132136E+03  0.50400001928E-02 0.  1.
       -1    1    3    3    0  502 -0.13893327494E+03  0.45178163209E+03  0.95335967144E+03  0.10640976276E+04  0.50400001928E-02 0. -1.
</event>
<event>
 5   0  0.3718559E-05  0.1300574E+04  0.7818609E-02  0.9029110E-01
       -1   -1    0    0    0  501  0.00000000000E+00  0.00000000000E+00  0.42142557212E+03  0.42142557215E+03  0.50400001928E-02 0. -1.
        1   -1    0    0  501    0  0.00000000000E+00  0.00000000000E+00 -0.10034349578E+04  0.10034349578E+04  0.50400001928E-02 0.  1.
    10030    2    1    2    0    0  0.00000000000E+00  0.00000000000E+00 -0.58200938568E+03  0.14248605300E+04  0.13005739521E+04 0.  0.
        2    1    3    3  502    0 -0.36348365907E+03  0.15208525585E+03  0.27575493295E+03  0.48092731105E+03  0.25500000920E-02 0. -1.
       -2    1    3    3    0  502  0.36348365907E+03 -0.15208525585E+03 -0.85776431863E+03  0.94393321892E+03  0.25500000920E-02 0.  1.
</event>
<event>
 5   0  0.6671239E-05  0.1300525E+04  0.7818609E-02  0.9029149E-01
        2   -1    0    0  501    0  0.00000000000E+00  0.00000000000E+00  0.62479103322E+03  0.62479103322E+03  0.25500000920E-02 0.  1.
       -2   -1    0    0    0  501  0.00000000000E+00  0.00000000000E+00 -0.67677261320E+03  0.67677261320E+03  0.25500000920E-02 0. -1.
    10030    2    1    2    0    0  0.00000000000E+00  0.00000000000E+00 -0.51981579981E+02  0.13015636464E+04  0.13005252174E+04 0.  0.
        1    1    3    3  502    0  0.44791653012E+03 -0.32570662355E+03 -0.36703764895E+03  0.66440248220E+03  0.50400001928E-02 0. -1.
       -1    1    3    3    0  502 -0.44791653012E+03  0.32570662355E+03  0.31505606897E+03  0.63716116423E+03  0.50400001928E-02 0.  1.
</event>
<event>
 5   0  0.3551277E-05  0.1300157E+04  0.7818609E-02  0.9029440E-01
       -1   -1    0    0    0  501  0.00000000000E+00  0.00000000000E+00  0.86464207688E+03  0.86464207690E+03  0.50400001928E-02 0.  1.
        1   -1    0    0  501    0  0.00000000000E+00  0.00000000000E+00 -0.48875972409E+03  0.48875972412E+03  0.50400001928E-02 0. -1.
    10030    2    1    2    0    0  0.00000000000E+00  0.00000000000E+00  0.37588235279E+03  0.13534018010E+04  0.13001572566E+04 0.  0.
        4    1    3    3  502    0 -0.31462472786E+03 -0.23526434056E+03 -0.35121044419E+03  0.52696149606E+03  0.12699999809E+01 0. -1.
       -4    1    3    3    0  502  0.31462472786E+03  0.23526434056E+03  0.72709279698E+03  0.82644030495E+03  0.12699999809E+01 0.  1.
</event>
<event>
 5   0  0.2512000E-05  0.1299940E+04  0.7818609E-02  0.9029613E-01
        3   -1    0    0  501    0  0.00000000000E+00  0.00000000000E+00  0.14747243370E+04  0.14747243405E+04  0.10100000352E+00 0.  1.
       -3   -1    0    0    0  501  0.00000000000E+00  0.00000000000E+00 -0.28646756006E+03  0.28646757787E+03  0.10100000352E+00 0. -1.
    10030    2    1    2    0    0  0.00000000000E+00  0.00000000000E+00  0.11882567770E+04  0.17611919184E+04  0.12999395391E+04 0.  0.
        5    1    3    3  502    0 -0.25933344672E+03  0.58956479486E+03  0.71222483125E+03  0.96027432756E+03  0.46999998093E+01 0.  1.
       -5    1    3    3    0  502  0.25933344672E+03 -0.58956479486E+03  0.47603194573E+03  0.80091759081E+03  0.46999998093E+01 0. -1.
</event>
<event>
 5   0  0.6458698E-05  0.1300221E+04  0.7818609E-02  0.9029390E-01
        2   -1    0    0  501    0  0.00000000000E+00  0.00000000000E+00  0.15698759289E+04  0.15698759289E+04  0.25500000920E-02 0.  1.
       -2   -1    0    0    0  501  0.00000000000E+00  0.00000000000E+00 -0.26922093819E+03  0.26922093820E+03  0.25500000920E-02 0. -1.
    10030    2    1    2    0    0  0.00000000000E+00  0.00000000000E+00  0.13006549907E+04  0.18390968671E+04  0.13002207050E+04 0.  0.
        3    1    3    3  502    0 -0.62415235560E+02 -0.57078673419E+03  0.21909355857E+03  0.61456908087E+03  0.10100000352E+00 0. -1.
       -3    1    3    3    0  502  0.62415235560E+02  0.57078673419E+03  0.10815614321E+04  0.12245277862E+04  0.10100000352E+00 0.  1.
</event>
<event>
 5   0  0.3551277E-05  0.1299288E+04  0.7818609E-02  0.9030130E-01
        1   -1    0    0  501    0  0.00000000000E+00  0.00000000000E+00  0.24464993472E+04  0.24464993472E+04  0.50400001928E-02 0.  1.
       -1   -1    0    0    0  501  0.00000000000E+00  0.00000000000E+00 -0.17250649358E+03  0.17250649365E+03  0.50400001928E-02 0. -1.
    10030    2    1    2    0    0  0.00000000000E+00  0.00000000000E+00  0.22739928536E+04  0.26190058409E+04  0.12992875341E+04 0.  0.
        4    1    3    3  502    0 -0.43473856494E+03 -0.31919020221E+03  0.40699401734E+03  0.67566689136E+03  0.12699999809E+01 0.  1.
       -4    1    3    3    0  502  0.43473856494E+03  0.31919020221E+03  0.18669988363E+04  0.19433389495E+04  0.12699999809E+01 0. -1.
</event>
<event>
 5   0  0.6458698E-05  0.1300473E+04  0.7818609E-02  0.9029190E-01
       -2   -1    0    0    0  501  0.00000000000E+00  0.00000000000E+00  0.30944961363E+03  0.30944961364E+03  0.25500000920E-02 0. -1.
        2   -1    0    0  501    0  0.00000000000E+00  0.00000000000E+00 -0.13663220456E+04  0.13663220456E+04  0.25500000920E-02 0.  1.
    10030    2    1    2    0    0  0.00000000000E+00  0.00000000000E+00 -0.10568724320E+04  0.16757716593E+04  0.13004734970E+04 0.  0.
        3    1    3    3  502    0 -0.19427858461E+03  0.47341696893E+03 -0.10453824387E+04  0.11639124745E+04  0.10100000352E+00 0.  1.
       -3    1    3    3    0  502  0.19427858461E+03 -0.47341696893E+03 -0.11489993299E+02  0.51185918479E+03  0.10100000352E+00 0. -1.
</event>
<event>
 5   0  0.6742824E-05  0.1300582E+04  0.7818609E-02  0.9029104E-01
        2   -1    0    0  501    0  0.00000000000E+00  0.00000000000E+00  0.59104651212E+03  0.59104651212E+03  0.25500000920E-02 0. -1.
       -2   -1    0    0    0  501  0.00000000000E+00  0.00000000000E+00 -0.71547361129E+03  0.71547361130E+03  0.25500000920E-02 0.  1.
    10030    2    1    2    0    0  0.00000000000E+00  0.00000000000E+00 -0.12442709917E+03  0.13065201234E+04  0.13005816891E+04 0.  0.
        4    1    3    3  502    0 -0.56494162939E+03 -0.11800335931E+03  0.23880902167E+03  0.62459202617E+03  0.12699999809E+01 0. -1.
       -4    1    3    3    0  502  0.56494162939E+03  0.11800335931E+03 -0.36323612084E+03  0.68192809725E+03  0.12699999809E+01 0.  1.
</event>
<event>
 5   0  0.6618060E-05  0.1300127E+04  0.7818609E-02  0.9029464E-01
       -2   -1    0    0    0  501  0.00000000000E+00  0.00000000000E+00  0.31450621360E+03  0.31450621361E+03  0.25500000920E-02 0. -1.
        2   -1    0    0  501    0  0.00000000000E+00  0.00000000000E+00 -0.13436383259E+04  0.13436383259E+04  0.25500000920E-02 0.  1.
    10030    2    1    2    0    0  0.00000000000E+00  0.00000000000E+00 -0.10291321123E+04  0.16581445396E+04  0.13001270743E+04 0.  0.
        2    1    3    3  502    0 -0.55405644494E+03  0.33149437744E+03 -0.61098559741E+03  0.88891533157E+03  0.25500000920E-02 0.  1.
       -2    1    3    3    0  502  0.55405644494E+03 -0.33149437744E+03 -0.41814651493E+03  0.76922920798E+03  0.25500000920E-02 0. -1.
</event>
<event>
 5   0  0.6618060E-05  0.1300108E+04  0.7818609E-02  0.9029480E-01
       -2   -1    0    0    0  501  0.00000000000E+00  0.00000000000E+00  0.54747656116E+03  0.54747656116E+03  0.25500000920E-02 0.  1.
        2   -1    0    0  501    0  0.00000000000E+00  0.00000000000E+00 -0.77185063094E+03  0.77185063095E+03  0.25500000920E-02 0. -1.
    10030    2    1    2    0    0  0.00000000000E+00  0.00000000000E+00 -0.22437406979E+03  0.13193271921E+04  0.13001078865E+04 0.  0.
        2    1    3    3  502    0  0.17907654402E+03 -0.60218029588E+03  0.57256214214E+02  0.63084688430E+03  0.25500000920E-02 0. -1.
       -2    1    3    3    0  502 -0.17907654402E+03  0.60218029588E+03 -0.28163028400E+03  0.68848030781E+03  0.25500000920E-02 0.  1.
</event>
<event>
 5   0  0.3551277E-05  0.1300291E+04  0.7818609E-02  0.9029335E-01
        1   -1    0    0  501    0  0.00000000000E+00  0.00000000000E+00  0.63216959127E+03  0.63216959129E+03  0.50400001928E-02 0. -1.
       -1   -1    0    0    0  501  0.00000000000E+00  0.00000000000E+00 -0.66863240817E+03  0.66863240819E+03  0.50400001928E-02 0.  1.
    10030    2    1    2    0    0  0.00000000000E+00  0.00000000000E+00 -0.36462816904E+02  0.13008019995E+04  0.13002908539E+04 0.  0.
        4    1    3    3  502    0 -0.90546247042E+02 -0.25302395949E+01 -0.66228759331E+03  0.66845455651E+03  0.12699999809E+01 0.  1.
       -4    1    3    3    0  502  0.90546247042E+02  0.25302395949E+01  0.62582477641E+03  0.63234744297E+03  0.12699999809E+01 0. -1.
</event>
<event>
 5   0  0.6618060E-05  0.1297751E+04  0.7818609E-02  0.9031350E-01
        2   -1    0    0  501    0  0.00000000000E+00  0.00000000000E+00  0.12665156245E+04  0.12665156246E+04  0.25500000920E-02 0.  1.
       -2   -1    0    0    0  501  0.00000000000E+00  0.00000000000E+00 -0.33243926739E+03  0.33243926739E+03  0.25500000920E-02 0. -1.
    10030    2    1    2    0    0  0.00000000000E+00  0.00000000000E+00  0.93407635716E+03  0.15989548919E+04  0.12977511724E+04 0.  0.
        2    1    3    3  502    0 -0.12544210459E+03  0.42966734310E+03 -0.11177164326E+03  0.46134872665E+03  0.25500000920E-02 0. -1.
       -2    1    3    3    0  502  0.12544210459E+03 -0.42966734310E+03  0.10458480004E+04  0.11376061653E+04  0.25500000920E-02 0.  1.
</event>
<event>
 5   0  0.6688086E-05  0.1300423E+04  0.7818609E-02  0.9029229E-01
        2   -1    0    0  501    0  0.00000000000E+00  0.00000000000E+00  0.70660837048E+03  0.70660837048E+03  0.25500000920E-02 0.  1.
       -2   -1    0    0    0  501  0.00000000000E+00  0.00000000000E+00 -0.59831622717E+03  0.59831622718E+03  0.25500000920E-02 0. -1.
    10030    2    1    2    0    0  0.00000000000E+00  0.00000000000E+00  0.10829214330E+03  0.13049245977E+04  0.13004233992E+04 0.  0.
        5    1    3    3  502    0  0.18793347212E+03 -0.60123423969E+02 -0.56752988887E+03  0.60087110166E+03  0.46999998093E+01 0. -1.
       -5    1    3    3    0  502 -0.18793347212E+03  0.60123423969E+02  0.67582203217E+03  0.70405349600E+03  0.46999998093E+01 0.  1.
</event>
<event>
 5   0  0.6688086E-05  0.1302527E+04  0.7818609E-02  0.9027563E-01
        2   -1    0    0  501    0  0.00000000000E+00  0.00000000000E+00  0.14557817243E+04  0.14557817243E+04  0.25500000920E-02 0.  1.
       -2   -1    0    0    0  501  0.00000000000E+00  0.00000000000E+00 -0.29135165576E+03  0.29135165578E+03  0.25500000920E-02 0. -1.
    10030    2    1    2    0    0  0.00000000000E+00  0.00000000000E+00  0.11644300686E+04  0.17471333801E+04  0.13025274136E+04 0.  0.
        5    1    3    3  502    0  0.15570116436E+03 -0.46330856602E+03  0.49322908693E+01  0.48881908455E+03  0.46999998093E+01 0. -1.
       -5    1    3    3    0  502 -0.15570116436E+03  0.46330856602E+03  0.11594977777E+04  0.12583142956E+04  0.46999998093E+01 0.  1.
</event>
<event>
 5   0  0.6458698E-05  0.1299663E+04  0.7818609E-02  0.9029833E-01
       -2   -1    0    0    0  501  0.00000000000E+00  0.00000000000E+00  0.16460828669E+03  0.16460828671E+03  0.25500000920E-02 0. -1.
        2   -1    0    0  501    0  0.00000000000E+00  0.00000000000E+00 -0.25653670039E+04  0.25653670039E+04  0.25500000920E-02 0.  1.
    10030    2    1    2    0    0  0.00000000000E+00  0.00000000000E+00 -0.24007587172E+04  0.27299752906E+04  0.12996625212E+04 0.  0.
        3    1    3    3  502    0 -0.12795487070E+03 -0.42676806456E+03 -0.21940353719E+04  0.22388154576E+04  0.10100000352E+00 0.  1.
       -3    1    3    3    0  502  0.12795487070E+03  0.42676806456E+03 -0.20672334531E+03  0.49115983301E+03  0.10100000352E+00 0. -1.
</event>
<event>
 5   0  0.3552698E-05  0.1300179E+04  0.7818609E-02  0.9029424E-01
       -1   -1    0    0    0  501  0.00000000000E+00  0.00000000000E+00  0.60487634575E+03  0.60487634577E+03  0.50400001928E-02 0.  1.
        1   -1    0    0  501    0  0.00000000000E+00  0.00000000000E+00 -0.69868180369E+03  0.69868180371E+03  0.50400001928E-02 0. -1.
    10030    2    1    2    0    0  0.00000000000E+00  0.00000000000E+00 -0.93805457941E+02  0.13035581495E+04  0.13001785974E+04 0.  0.
        5    1    3    3  502    0 -0.21388813058E+02 -0.31911164804E+03 -0.61432812310E+03  0.69261162138E+03  0.46999998093E+01 0. -1.
       -5    1    3    3    0  502  0.21388813058E+02  0.31911164804E+03  0.52052266516E+03  0.61094652809E+03  0.46999998093E+01 0.  1.
</event>
<event>
 5   0  0.3689707E-05  0.1300038E+04  0.7818609E-02  0.9029535E-01
        1   -1    0    0  501    0  0.00000000000E+00  0.00000000000E+00  0.14237772008E+04  0.14237772008E+04  0.50400001928E-02 0.  1.
       -1   -1    0    0    0  501  0.00000000000E+00  0.00000000000E+00 -0.29676310055E+03  0.29676310060E+03  0.50400001928E-02 0. -1.
    10030    2    1    2    0    0  0.00000000000E+00  0.00000000000E+00  0.11270141003E+04  0.17205403014E+04  0.13000377482E+04 0.  0.
        1    1    3    3  502    0 -0.35579951515E+03  0.18969240852E+03 -0.11125733799E+03  0.41827586605E+03  0.50400001928E-02 0. -1.
       -1    1    3    3    0  502  0.35579951515E+03 -0.18969240852E+03  0.12382714382E+04  0.13022644354E+04  0.50400001928E-02 0.  1.
</event>
<event>
 5   0  0.6458698E-05  0.1300862E+04  0.7818609E-02  0.9028882E-01
        2   -1    0    0  501    0  0.00000000000E+00  0.00000000000E+00  0.11481920980E+04  0.11481920980E+04  0.25500000920E-02 0. -1.
       -2   -1    0    0    0  501  0.00000000000E+00  0.00000000000E+00 -0.36845794663E+03  0.36845794664E+03  0.25500000920E-02 0.  1.
    10030    2    1    2    0    0  0.00000000000E+00  0.00000000000E+00  0.77973415133E+03  0.15166500446E+04  0.13008620261E+04 0.  0.
        3    1    3    3  502    0  0.41195738892E+02  0.42420100952E+03 -0.18297905884E+03  0.46381562237E+03  0.10100000352E+00 0.  1.
       -3    1    3    3    0  502 -0.41195738892E+02 -0.42420100952E+03  0.96271321017E+03  0.10528344222E+04  0.10100000352E+00 0. -1.
</event>
<event>
 5   0  0.3718559E-05  0.1299352E+04  0.7818609E-02  0.9030079E-01
        1   -1    0    0  501    0  0.00000000000E+00  0.00000000000E+00  0.14395456138E+04  0.14395456138E+04  0.50400001928E-02 0.  1.
       -1   -1    0    0    0  501  0.00000000000E+00  0.00000000000E+00 -0.29320307092E+03  0.29320307096E+03  0.50400001928E-02 0. -1.
    10030    2    1    2    0    0  0.00000000000E+00  0.00000000000E+00  0.11463425428E+04  0.17327486847E+04  0.12993524460E+04 0.  0.
        2    1    3    3  502    0 -0.54361596273E+03  0.28520826185E+03  0.85674114704E+03  0.10539769735E+04  0.25500000920E-02 0.  1.
       -2    1    3    3    0  502  0.54361596273E+03 -0.28520826185E+03  0.28960139580E+03  0.67877171127E+03  0.25500000920E-02 0. -1.
</event>
<event>
 5   0  0.6742824E-05  0.1300640E+04  0.7818609E-02  0.9029057E-01
        2   -1    0    0  501    0  0.00000000000E+00  0.00000000000E+00  0.49067363408E+03  0.49067363408E+03  0.25500000920E-02 0. -1.
       -2   -1    0    0    0  501  0.00000000000E+00  0.00000000000E+00 -0.86190975110E+03  0.86190975110E+03  0.25500000920E-02 0.  1.
    10030    2    1    2    0    0  0.00000000000E+00  0.00000000000E+00 -0.37123611702E+03  0.13525833852E+04  0.13006404420E+04 0.  0.
        4    1    3    3  502    0  0.16037752643E+03 -0.40162791960E+02  0.46845217295E+03  0.49677263621E+03  0.12699999809E+01 0. -1.
       -4    1    3    3    0  502 -0.16037752643E+03  0.40162791960E+02 -0.83968828997E+03  0.85581074897E+03  0.12699999809E+01 0.  1.
</event>
<event>
 5   0  0.2512000E-05  0.1300164E+04  0.7818609E-02  0.9029435E-01
       -3   -1    0    0    0  501  0.00000000000E+00  0.00000000000E+00  0.90963987295E+03  0.90963987856E+03  0.10100000352E+00 0.  1.
        3   -1    0    0  501    0  0.00000000000E+00  0.00000000000E+00 -0.46458687376E+03  0.46458688474E+03  0.10100000352E+00 0. -1.
    10030    2    1    2    0    0  0.00000000000E+00  0.00000000000E+00  0.44505299919E+03  0.13742267633E+04  0.13001642300E+04 0.  0.
        1    1    3    3  502    0  0.50365140681E+02  0.29408963208E+03 -0.38793896546E+03  0.48940984874E+03  0.50400001928E-02 0. -1.
       -1    1    3    3    0  502 -0.50365140681E+02 -0.29408963208E+03  0.83299196465E+03  0.88481691456E+03  0.50400001928E-02 0.  1.
</event>
<event>
 5   0  0.3551277E-05  0.1299974E+04  0.7818609E-02  0.9029586E-01
       -1   -1    0    0    0  501  0.00000000000E+00  0.00000000000E+00  0.48357158722E+03  0.48357158724E+03  0.50400001928E-02 0.  1.
        1   -1    0    0  501    0  0.00000000000E+00  0.00000000000E+00 -0.87367195548E+03  0.87367195549E+03  0.50400001928E-02 0. -1.
    10030    2    1    2    0    0  0.00000000000E+00  0.00000000000E+00 -0.39010036826E+03  0.13572435427E+04  0.12999737447E+04 0.  0.
        4    1    3    3  502    0  0.32750211653E+03 -0.83413413982E+02  0.38462663997E+03  0.51201044817E+03  0.12699999809E+01 0.  1.
       -4    1    3    3    0  502 -0.32750211653E+03  0.83413413982E+02 -0.77472700823E+03  0.84523309456E+03  0.12699999809E+01 0. -1.
</event>
<event>
 5   0  0.6742824E-05  0.1298721E+04  0.7818609E-02  0.9030580E-01
       -2   -1    0    0    0  501  0.00000000000E+00  0.00000000000E+00  0.48731375866E+03  0.48731375867E+03  0.25500000920E-02 0.  1.
        2   -1    0    0  501    0  0.00000000000E+00  0.00000000000E+00 -0.86529287375E+03  0.86529287376E+03  0.25500000920E-02 0. -1.
    10030    2    1    2    0    0  0.00000000000E+00  0.00000000000E+00 -0.37797911509E+03  0.13526066324E+04  0.12987210981E+04 0.  0.
        4    1    3    3  502    0 -0.14592481835E+03  0.62767238475E+03 -0.10566482691E+03  0.65301863965E+03  0.12699999809E+01 0.  1.
       -4    1    3    3    0  502  0.14592481835E+03 -0.62767238475E+03 -0.27231428818E+03  0.69958799277E+03  0.12699999809E+01 0. -1.
</event>
<event>
 5   0  0.6671239E-05  0.1299787E+04  0.7818609E-02  0.9029734E-01
        2   -1    0    0  501    0  0.00000000000E+00  0.00000000000E+00  0.10672536862E+04  0.10672536862E+04  0.25500000920E-02 0.  1.
       -2   -1    0    0    0  501  0.00000000000E+00  0.00000000000E+00 -0.39574643944E+03  0.39574643945E+03  0.25500000920E-02 0. -1.
    10030    2    1    2    0    0  0.00000000000E+00  0.00000000000E+00  0.67150724678E+03  0.14630001257E+04  0.12997874385E+04 0.  0.
        1    1    3    3  502    0 -0.63656749156E+03  0.10529213850E+02  0.18885585880E+03  0.66407497399E+03  0.50400001928E-02 0. -1.
       -1    1    3    3    0  502  0.63656749156E+03 -0.10529213850E+02  0.48265138798E+03  0.79892515169E+03  0.50400001928E-02 0.  1.
</event>
<event>
 5   0  0.6618060E-05  0.1299937E+04  0.7818609E-02  0.9029616E-01
        2   -1    0    0  501    0  0.00000000000E+00  0.00000000000E+00  0.12297300206E+04  0.12297300206E+04  0.25500000920E-02 0. -1.
       -2   -1    0    0    0  501  0.00000000000E+00  0.00000000000E+00 -0.34353778395E+03  0.34353778396E+03  0.25500000920E-02 0.  1.
    10030    2    1    2    0    0  0.00000000000E+00  0.00000000000E+00  0.88619223669E+03  0.15732678046E+04  0.12999365002E+04 0.  0.
        2    1    3    3  502    0 -0.13445511620E+03 -0.11292051704E+03  0.12004837676E+04  0.12132561550E+04  0.25500000920E-02 0. -1.
       -2    1    3    3    0  502  0.13445511620E+03  0.11292051704E+03 -0.31429153090E+03  0.36001164959E+03  0.25500000920E-02 0.  1.
</event>
<event>
 5   0  0.3631841E-05  0.1299848E+04  0.7818609E-02  0.9029686E-01
       -1   -1    0    0    0  501  0.00000000000E+00  0.00000000000E+00  0.64730655463E+03  0.64730655465E+03  0.50400001928E-02 0. -1.
        1   -1    0    0  501    0  0.00000000000E+00  0.00000000000E+00 -0.65255206512E+03  0.65255206513E+03  0.50400001928E-02 0.  1.
    10030    2    1    2    0    0  0.00000000000E+00  0.00000000000E+00 -0.52455104876E+01  0.12998586198E+04  0.12998480357E+04 0.  0.
        3    1    3    3  502    0  0.85412995090E+02  0.50490537996E+03 -0.40284644876E+03  0.65154439137E+03  0.10100000352E+00 0.  1.
       -3    1    3    3    0  502 -0.85412995090E+02 -0.50490537996E+03  0.39760093827E+03  0.64831422841E+03  0.10100000352E+00 0. -1.
</event>
<event>
 5   0  0.2512000E-05  0.1299692E+04  0.7818609E-02  0.9029809E-01
       -3   -1    0    0    0  501  0.00000000000E+00  0.00000000000E+00  0.15496626840E+04  0.15496626873E+04  0.10100000352E+00 0. -1.
        3   -1    0    0  501    0  0.00000000000E+00  0.00000000000E+00 -0.27251090329E+03  0.27251092200E+03  0.10100000352E+00 0.  1.
    10030    2    1    2    0    0  0.00000000000E+00  0.00000000000E+00  0.12771517807E+04  0.18221736093E+04  0.12996922680E+04 0.  0.
        1    1    3    3  502    0  0.44674555012E+03 -0.22361329730E+03  0.12212354550E+04  0.13194697912E+04  0.50400001928E-02 0. -1.
       -1    1    3    3    0  502 -0.44674555012E+03  0.22361329730E+03  0.55916325774E+02  0.50270381817E+03  0.50400001928E-02 0.  1.
</event>
<event>
 5   0  0.3689707E-05  0.1299889E+04  0.7818609E-02  0.9029654E-01
        1   -1    0    0  501    0  0.00000000000E+00  0.00000000000E+00  0.50840440624E+03  0.50840440627E+03  0.50400001928E-02 0. -1.
       -1   -1    0    0    0  501  0.00000000000E+00  0.00000000000E+00 -0.83088889926E+03  0.83088889928E+03  0.50400001928E-02 0.  1.
    10030    2    1    2    0    0  0.00000000000E+00  0.00000000000E+00 -0.32248449302E+03  0.13392933055E+04  0.12998885760E+04 0.  0.
        1    1    3    3  502    0  0.11136128203E+03 -0.13284236435E+03 -0.80663269132E+03  0.82504831836E+03  0.50400001928E-02 0.  1.
       -1    1    3    3    0  502 -0.11136128203E+03  0.13284236435E+03  0.48414819830E+03  0.51424498718E+03  0.50400001928E-02 0. -1.
</event>
<event>
 5   0  0.3718559E-05  0.1300718E+04  0.7818609E-02  0.9028996E-01
        1   -1    0    0  501    0  0.00000000000E+00  0.00000000000E+00  0.39181844256E+03  0.39181844259E+03  0.50400001928E-02 0.  1.
       -1   -1    0    0    0  501  0.00000000000E+00  0.00000000000E+00 -0.10794969450E+04  0.10794969450E+04  0.50400001928E-02 0. -1.
    10030    2    1    2    0    0  0.00000000000E+00  0.00000000000E+00 -0.68767850247E+03  0.14713153876E+04  0.13007179737E+04 0.  0.
        2    1    3    3  502    0 -0.44901030675E+03 -0.20106109834E+03  0.13730922686E+03  0.51077357471E+03  0.25500000920E-02 0.  1.
       -2    1    3    3    0  502  0.44901030675E+03  0.20106109834E+03 -0.82498772933E+03  0.96054181293E+03  0.25500000920E-02 0. -1.
</event>
<event>
 5   0  0.6618060E-05  0.1299550E+04  0.7818609E-02  0.9029922E-01
        2   -1    0    0  501    0  0.00000000000E+00  0.00000000000E+00  0.45818426806E+03  0.45818426807E+03  0.25500000920E-02 0.  1.
       -2   -1    0    0    0  501  0.00000000000E+00  0.00000000000E+00 -0.92147995978E+03  0.92147995978E+03  0.25500000920E-02 0. -1.
    10030    2    1    2    0    0  0.00000000000E+00  0.00000000000E+00 -0.46329569172E+03  0.13796642279E+04  0.12995501082E+04 0.  0.
        2    1    3    3  502    0  0.44332997547E+03  0.22637803529E+02  0.27210777217E+03  0.52066935475E+03  0.25500000920E-02 0.  1.
       -2    1    3    3    0  502 -0.44332997547E+03 -0.22637803529E+02 -0.73540346389E+03  0.85899487310E+03  0.25500000920E-02 0. -1.
</event>
<event>
 5   0  0.6688086E-05  0.1299220E+04  0.7818609E-02  0.9030184E-01
       -2   -1    0    0    0  501  0.00000000000E+00  0.00000000000E+00  0.48187952216E+03  0.48187952216E+03  0.25500000920E-02 0.  1.
        2   -1    0    0  501    0  0.00000000000E+00  0.00000000000E+00 -0.87572374234E+03  0.87572374234E+03  0.25500000920E-02 0. -1.
    10030    2    1    2    0    0  0.00000000000E+00  0.00000000000E+00 -0.39384422018E+03  0.13576032645E+04  0.12992202870E+04 0.  0.
        5    1    3    3  502    0  0.22560754577E+02  0.61365204742E+03 -0.41832406584E+03  0.74303091255E+03  0.46999998093E+01 0. -1.
       -5    1    3    3    0  502 -0.22560754577E+02 -0.61365204742E+03  0.24479845655E+02  0.61457235196E+03  0.46999998093E+01 0.  1.
</event>
<event>
 5   0  0.3689707E-05  0.1299913E+04  0.7818609E-02  0.9029634E-01
       -1   -1    0    0    0  501  0.00000000000E+00  0.00000000000E+00  0.24208957867E+03  0.24208957872E+03  0.50400001928E-02 0.  1.
        1   -1    0    0  501    0  0.00000000000E+00  0.00000000000E+00 -0.17449880173E+04  0.17449880173E+04  0.50400001928E-02 0. -1.
    10030    2    1    2    0    0  0.00000000000E+00  0.00000000000E+00 -0.15028984386E+04  0.19870775960E+04  0.12999129416E+04 0.  0.
        1    1    3    3  502    0 -0.17617591061E+01 -0.21195113610E+03 -0.16906724608E+04  0.17039072033E+04  0.50400001928E-02 0. -1.
       -1    1    3    3    0  502  0.17617591061E+01  0.21195113610E+03  0.18777402214E+03  0.28317039271E+03  0.50400001928E-02 0.  1.
</event>
<event>
 5   0  0.6671239E-05  0.1300212E+04  0.7818609E-02  0.9029397E-01
       -2   -1    0    0    0  501  0.00000000000E+00  0.00000000000E+00  0.52487876014E+03  0.52487876015E+03  0.25500000920E-02 0.  1.
        2   -1    0    0  501    0  0.00000000000E+00  0.00000000000E+00 -0.80521023567E+03  0.80521023568E+03  0.25500000920E-02 0. -1.
    10030    2    1    2    0    0  0.00000000000E+00  0.00000000000E+00 -0.28033147553E+03  0.13300889958E+04  0.13002119061E+04 0.  0.
        1    1    3    3  502    0 -0.50914824210E+02  0.64191294983E+03 -0.48706667216E+02  0.64576845226E+03  0.50400001928E-02 0.  1.
       -1    1    3    3    0  502  0.50914824210E+02 -0.64191294983E+03 -0.23162480831E+03  0.68432054356E+03  0.50400001928E-02 0. -1.
</event>
<event>
 5   0  0.3689707E-05  0.1300044E+04  0.7818609E-02  0.9029530E-01
        1   -1    0    0  501    0  0.00000000000E+00  0.00000000000E+00  0.96176274465E+03  0.96176274466E+03  0.50400001928E-02 0.  1.
       -1   -1    0    0    0  501  0.00000000000E+00  0.00000000000E+00 -0.43932745246E+03  0.43932745249E+03  0.50400001928E-02 0. -1.
    10030    2    1    2    0    0  0.00000000000E+00  0.00000000000E+00  0.52243529219E+03  0.14010901972E+04  0.13000442708E+04 0.  0.
        1    1    3    3  502    0 -0.56850887543E+03 -0.17998388148E+03 -0.17603446263E+02  0.59657893055E+03  0.50400001928E-02 0. -1.
       -1    1    3    3    0  502  0.56850887543E+03  0.17998388148E+03  0.54003873846E+03  0.80451126660E+03  0.50400001928E-02 0.  1.
</event>
<event>
 5   0  0.6688086E-05  0.1299864E+04  0.7818609E-02  0.9029673E-01
        2   -1    0    0  501    0  0.00000000000E+00  0.00000000000E+00  0.93800757610E+03  0.93800757610E+03  0.25500000920E-02 0. -1.
       -2   -1    0    0    0  501  0.00000000000E+00  0.00000000000E+00 -0.45032841821E+03  0.45032841822E+03  0.25500000920E-02 0.  1.
    10030    2    1    2    0    0  0.00000000000E+00  0.00000000000E+00  0.48767915788E+03  0.13883359943E+04  0.12998637898E+04 0.  0.
        5    1    3    3  502    0 -0.42921466762E+01  0.73181855531E+02  0.93355949942E+03  0.93644510542E+03  0.46999998093E+01 0. -1.
       -5    1    3    3    0  502  0.42921466762E+01 -0.73181855531E+02 -0.44588034154E+03  0.45189088890E+03  0.46999998093E+01 0.  1.
</event>
<event>
 5   0  0.6671239E-05  0.1299098E+04  0.7818609E-02  0.9030281E-01
       -2   -1    0    0    0  501  0.00000000000E+00  0.00000000000E+00  0.28061803054E+03  0.28061803055E+03  0.25500000920E-02 0.  1.
        2   -1    0    0  501    0  0.00000000000E+00  0.00000000000E+00 -0.15035157801E+04  0.15035157801E+04  0.25500000920E-02 0. -1.
    10030    2    1    2    0    0  0.00000000000E+00  0.00000000000E+00 -0.12228977496E+04  0.17841338107E+04  0.12990975900E+04 0.  0.
        1    1    3    3  502    0  0.44686761991E+00  0.40109892113E+03 -0.13131197187E+04  0.13730127239E+04  0.50400001928E-02 0. -1.
       -1    1    3    3    0  502 -0.44686761991E+00 -0.40109892113E+03  0.90221969184E+02  0.41112108675E+03  0.50400001928E-02 0.  1.
</event>
<event>
 5   0  0.6688086E-05  0.1299413E+04  0.7818609E-02  0.9030030E-01
        2   -1    0    0  501    0  0.00000000000E+00  0.00000000000E+00  0.11390132744E+04  0.11390132744E+04  0.25500000920E-02 0.  1.
       -2   -1    0    0    0  501  0.00000000000E+00  0.00000000000E+00 -0.37060042267E+03  0.37060042268E+03  0.25500000920E-02 0. -1.
    10030    2    1    2    0    0  0.00000000000E+00  0.00000000000E+00  0.76841285175E+03  0.15096136971E+04  0.12994134076E+04 0.  0.
        5    1    3    3  502    0 -0.62111819315E+03 -0.13030856462E+02  0.60506137593E+03  0.86722486803E+03  0.46999998093E+01 0. -1.
       -5    1    3    3    0  502  0.62111819315E+03  0.13030856462E+02  0.16335147582E+03  0.64238882909E+03  0.46999998093E+01 0.  1.
</event>
<event>
 5   0  0.6688086E-05  0.1301118E+04  0.7818609E-02  0.9028679E-01
        2   -1    0    0  501    0  0.00000000000E+00  0.00000000000E+00  0.86932411301E+03  0.86932411301E+03  0.25500000920E-02 0.  1.
       -2   -1    0    0    0  501  0.00000000000E+00  0.00000000000E+00 -0.48684592366E+03  0.48684592367E+03  0.25500000920E-02 0. -1.
    10030    2    1    2    0    0  0.00000000000E+00  0.00000000000E+00  0.38247818935E+03  0.13561700367E+04  0.13011178283E+04 0.  0.
        5    1    3    3  502    0 -0.46699051196E+03  0.17661457966E+03  0.62593666822E+03  0.80068199095E+03  0.46999998093E+01 0.  1.
       -5    1    3    3    0  502  0.46699051196E+03 -0.17661457966E+03 -0.24345847888E+03  0.55548804573E+03  0.46999998093E+01 0. -1.
</event>
<event>
 5   0  0.2512000E-05  0.1300253E+04  0.7818609E-02  0.9029365E-01
        4   -1    0    0  501    0  0.00000000000E+00  0.00000000000E+00  0.14700895996E+04  0.14700901482E+04  0.12699999809E+01 0. -1.
       -4   -1    0    0    0  501  0.00000000000E+00  0.00000000000E+00 -0.28750733840E+03  0.28751014336E+03  0.12699999809E+01 0.  1.
    10030    2    1    2    0    0  0.00000000000E+00  0.00000000000E+00  0.11825822612E+04  0.17576002915E+04  0.13002530447E+04 0.  0.
        1    1    3    3  502    0 -0.59445747154E+03  0.19960543560E+03  0.35934911425E+03  0.72274047993E+03  0.50400001928E-02 0.  1.
       -1    1    3    3    0  502  0.59445747154E+03 -0.19960543560E+03  0.82323314696E+03  0.10348598116E+04  0.50400001928E-02 0. -1.
</event>
<event>
 5   0  0.6458698E-05  0.1300292E+04  0.7818609E-02  0.9029333E-01
        2   -1    0    0  501    0  0.00000000000E+00  0.00000000000E+00  0.36228350170E+03  0.36228350171E+03  0.25500000920E-02 0. -1.
       -2   -1    0    0    0  501  0.00000000000E+00  0.00000000000E+00 -0.11667384432E+04  0.11667384432E+04  0.25500000920E-02 0.  1.
    10030    2    1    2    0    0  0.00000000000E+00  0.00000000000E+00 -0.80445494149E+03  0.15290219449E+04  0.13002924114E+04 0.  0.
        3    1    3    3  502    0  0.51672301987E+02 -0.52413030829E+03  0.46018777987E+02  0.52867792179E+03  0.10100000352E+00 0. -1.
       -3    1    3    3    0  502 -0.51672301987E+02  0.52413030829E+03 -0.85047371948E+03  0.10003440231E+04  0.10100000352E+00 0.  1.
</event>
<event>
 5   0  0.3718559E-05  0.1300047E+04  0.7818609E-02  0.9029528E-01
        1   -1    0    0  501    0  0.00000000000E+00  0.00000000000E+00  0.87792752181E+03  0.87792752183E+03  0.50400001928E-02 0. -1.
       -1   -1    0    0    0  501  0.00000000000E+00  0.00000000000E+00 -0.48128158010E+03  0.48128158013E+03  0.50400001928E-02 0.  1.
    10030    2    1    2    0    0  0.00000000000E+00  0.00000000000E+00  0.39664594171E+03  0.13592091020E+04  0.13000466837E+04 0.  0.
        2    1    3    3  502    0 -0.24578653734E+02  0.24199341750E+03 -0.43190710416E+03  0.49569009569E+03  0.25500000920E-02 0.  1.
       -2    1    3    3    0  502  0.24578653734E+02 -0.24199341750E+03  0.82855304588E+03  0.86351900626E+03  0.25500000920E-02 0. -1.
</event>
<event>
 5   0  0.6742824E-05  0.1301178E+04  0.7818609E-02  0.9028631E-01
        2   -1    0    0  501    0  0.00000000000E+00  0.00000000000E+00  0.17482256223E+04  0.17482256223E+04  0.25500000920E-02 0.  1.
       -2   -1    0    0    0  501  0.00000000000E+00  0.00000000000E+00 -0.24211190089E+03  0.24211190090E+03  0.25500000920E-02 0. -1.
    10030    2    1    2    0    0  0.00000000000E+00  0.00000000000E+00  0.15061137214E+04  0.19903375232E+04  0.13011782793E+04 0.  0.
        4    1    3    3  502    0  0.35273085339E+03  0.54317841468E+03  0.84738472228E+03  0.10665478543E+04  0.12699999809E+01 0.  1.
       -4    1    3    3    0  502 -0.35273085339E+03 -0.54317841468E+03  0.65872899909E+03  0.92378966884E+03  0.12699999809E+01 0. -1.
</event>
<event>
 5   0  0.3631841E-05  0.1299611E+04  0.7818609E-02  0.9029874E-01
        1   -1    0    0  501    0  0.00000000000E+00  0.00000000000E+00  0.53992485611E+03  0.53992485614E+03  0.50400001928E-02 0.  1.
       -1   -1    0    0    0  501  0.00000000000E+00  0.00000000000E+00 -0.78204758889E+03  0.78204758891E+03  0.50400001928E-02 0. -1.
    10030    2    1    2    0    0  0.00000000000E+00  0.00000000000E+00 -0.24212273278E+03  0.13219724450E+04  0.12996106062E+04 0.  0.
        3    1    3    3  502    0 -0.21885826941E+03 -0.11019453062E+03  0.49112896099E+03  0.54886195276E+03  0.10100000352E+00 0.  1.
       -3    1    3    3    0  502  0.21885826941E+03  0.11019453062E+03 -0.73325169377E+03  0.77311049228E+03  0.10100000352E+00 0. -1.
</event>
<event>
 5   0  0.6458698E-05  0.1299474E+04  0.7818609E-02  0.9029982E-01
       -2   -1    0    0    0  501  0.00000000000E+00  0.00000000000E+00  0.66258728610E+03  0.66258728611E+03  0.25500000920E-02 0. -1.
        2   -1    0    0  501    0  0.00000000000E+00  0.00000000000E+00 -0.63713583081E+03  0.63713583081E+03  0.25500000920E-02 0.  1.
    10030    2    1    2    0    0  0.00000000000E+00  0.00000000000E+00  0.25451455299E+02  0.12997231169E+04  0.12994738951E+04 0.  0.
        3    1    3    3  502    0 -0.30334958341E+03 -0.38678744144E+03 -0.41224703659E+03  0.64153965115E+03  0.10100000352E+00 0.  1.
       -3    1    3    3    0  502  0.30334958341E+03  0.38678744144E+03  0.43769849189E+03  0.65818346577E+03  0.10100000352E+00 0. -1.
</event>
<event>
 5   0  0.3551277E-05  0.1300359E+04  0.7818609E-02  0.9029280E-01
        1   -1    0    0  501    0  0.00000000000E+00  0.00000000000E+00  0.12881484960E+04  0.12881484960E+04  0.50400001928E-02 0. -1.
       -1   -1    0    0    0  501  0.00000000000E+00  0.00000000000E+00 -0.32817140182E+03  0.32817140186E+03  0.50400001928E-02 0.  1.
    10030    2    1    2    0    0  0.00000000000E+00  0.00000000000E+00  0.95997709421E+03  0.16163198979E+04  0.13003591777E+04 0.  0.
        4    1    3    3  502    0  0.45150754697E+03  0.32863013943E+03  0.89387471183E+03  0.10539783901E+04  0.12699999809E+01 0. -1.
       -4    1    3    3    0  502 -0.45150754697E+03 -0.32863013943E+03  0.66102382384E+02  0.56234150778E+03  0.12699999809E+01 0.  1.
</event>
<event>
 5   0  0.6671239E-05  0.1300596E+04  0.7818609E-02  0.9029093E-01
        2   -1    0    0  501    0  0.00000000000E+00  0.00000000000E+00  0.22282842138E+04  0.22282842138E+04  0.25500000920E-02 0.  1.
       -2   -1    0    0    0  501  0.00000000000E+00  0.00000000000E+00 -0.18978168998E+03  0.18978168999E+03  0.25500000920E-02 0. -1.
    10030    2    1    2    0    0  0.00000000000E+00  0.00000000000E+00  0.20385025238E+04  0.24180659038E+04  0.13005960847E+04 0.  0.
        1    1    3    3  502    0  0.88968946112E+02  0.26822356968E+03 -0.69655250198E+02  0.29105190363E+03  0.50400001928E-02 0. -1.
       -1    1    3    3    0  502 -0.88968946112E+02 -0.26822356968E+03  0.21081577740E+04  0.21270140002E+04  0.50400001928E-02 0.  1.
</event>
<event>
 5   0  0.3552698E-05  0.1299184E+04  0.7818609E-02  0.9030213E-01
       -1   -1    0    0    0  501  0.00000000000E+00  0.00000000000E+00  0.25568591267E+03  0.25568591272E+03  0.50400001928E-02 0.  1.
        1   -1    0    0  501    0  0.00000000000E+00  0.00000000000E+00 -0.16503433337E+04  0.16503433337E+04  0.50400001928E-02 0. -1.
    10030    2    1    2    0    0  0.00000000000E+00  0.00000000000E+00 -0.13946574210E+04  0.19060292464E+04  0.12991836538E+04 0.  0.
        5    1    3    3  502    0  0.30042345396E+03 -0.14017709089E+02 -0.15420211747E+04  0.15710831108E+04  0.46999998093E+01 0. -1.
       -5    1    3    3    0  502 -0.30042345396E+03  0.14017709089E+02  0.14736375368E+03  0.33494613561E+03  0.46999998093E+01 0.  1.
</event>
<event>
 5   0  0.3551277E-05  0.1300258E+04  0.7818609E-02  0.9029361E-01
        1   -1    0    0  501    0  0.00000000000E+00  0.00000000000E+00  0.16285077706E+04  0.16285077706E+04  0.50400001928E-02 0.  1.
       -1   -1    0    0    0  501  0.00000000000E+00  0.00000000000E+00 -0.25954289218E+03  0.25954289223E+03  0.50400001928E-02 0. -1.
    10030    2    1    2    0    0  0.00000000000E+00  0.00000000000E+00  0.13689648784E+04  0.18880506628E+04  0.13002578464E+04 0.  0.
        4    1    3    3  502    0  0.45641266690E+03 -0.27882783173E+02  0.13555409938E+04  0.14305883303E+04  0.12699999809E+01 0.  1.
       -4    1    3    3    0  502 -0.45641266690E+03  0.27882783173E+02  0.13423884634E+02  0.45746233253E+03  0.12699999809E+01 0. -1.
</event>
<event>
 5   0  0.6458698E-05  0.1299607E+04  0.7818609E-02  0.9029877E-01
       -2   -1    0    0    0  501  0.00000000000E+00  0.00000000000E+00  0.27134366972E+03  0.27134366973E+03  0.25500000920E-02 0. -1.
        2   -1    0    0  501    0  0.00000000000E+00  0.00000000000E+00 -0.15561249815E+04  0.15561249815E+04  0.25500000920E-02 0.  1.
    10030    2    1    2    0    0  0.00000000000E+00  0.00000000000E+00 -0.12847813118E+04  0.18274686512E+04  0.12996071145E+04 0.  0.
        3    1    3    3  502    0  0.16807384598E+02 -0.22107993843E+03  0.21650860740E+03  0.30989484447E+03  0.10100000352E+00 0. -1.
       -3    1    3    3    0  502 -0.16807384598E+02  0.22107993843E+03 -0.15012899192E+04  0.15175738068E+04  0.10100000352E+00 0.  1.
</event>
<event>
 5   0  0.3552698E-05  0.1299881E+04  0.7818609E-02  0.9029660E-01
       -1   -1    0    0    0  501  0.00000000000E+00  0.00000000000E+00  0.35772548934E+03  0.35772548937E+03  0.50400001928E-02 0. -1.
        1   -1    0    0  501    0  0.00000000000E+00  0.00000000000E+00 -0.11808569902E+04  0.11808569903E+04  0.50400001928E-02 0.  1.
    10030    2    1    2    0    0  0.00000000000E+00  0.00000000000E+00 -0.82313150090E+03  0.15385824796E+04  0.12998809864E+04 0.  0.
        5    1    3    3  502    0 -0.33907954715E+03  0.33930219304E+03 -0.93061243801E+03  0.10469778017E+04  0.46999998093E+01 0.  1.
       -5    1    3    3    0  502  0.33907954715E+03 -0.33930219304E+03  0.10748093711E+03  0.49160467791E+03  0.46999998093E+01 0. -1.
</event>
<event>
 5   0  0.3631841E-05  0.1299654E+04  0.7818609E-02  0.9029839E-01
        1   -1    0    0  501    0  0.00000000000E+00  0.00000000000E+00  0.96073008856E+03  0.96073008857E+03  0.50400001928E-02 0.  1.
       -1   -1    0    0    0  501  0.00000000000E+00  0.00000000000E+00 -0.43953574003E+03  0.43953574006E+03  0.50400001928E-02 0. -1.
    10030    2    1    2    0    0  0.00000000000E+00  0.00000000000E+00  0.52119434853E+03  0.14002658286E+04  0.12996541240E+04 0.  0.
        3    1    3    3  502    0 -0.10011336193E+03 -0.15668239771E+03 -0.41026354170E+03  0.45043117436E+03  0.10100000352E+00 0. -1.
       -3    1    3    3    0  502  0.10011336193E+03  0.15668239771E+03  0.93145789023E+03  0.94983465427E+03  0.10100000352E+00 0.  1.
</event>
<event>
 5   0  0.3718559E-05  0.1299940E+04  0.7818609E-02  0.9029613E-01
        1   -1    0    0  501    0  0.00000000000E+00  0.00000000000E+00  0.82367589168E+03  0.82367589169E+03  0.50400001928E-02 0.  1.
       -1   -1    0    0    0  501  0.00000000000E+00  0.00000000000E+00 -0.51289713763E+03  0.51289713765E+03  0.50400001928E-02 0. -1.
    10030    2    1    2    0    0  0.00000000000E+00  0.00000000000E+00  0.31077875405E+03  0.13365730293E+04  0.12999400097E+04 0.  0.
        2    1    3    3  502    0  0.58721065455E+03  0.26987571810E+03  0.22671095810E+03  0.68487014431E+03  0.25500000920E-02 0.  1.
       -2    1    3    3    0  502 -0.58721065455E+03 -0.26987571810E+03  0.84067795941E+02  0.65170288503E+03  0.25500000920E-02 0. -1.
</event>
<event>
 5   0  0.6618060E-05  0.1302612E+04  0.7818609E-02  0.9027496E-01
       -2   -1    0    0    0  501  0.00000000000E+00  0.00000000000E+00  0.81948228734E+03  0.81948228734E+03  0.25500000920E-02 0. -1.
        2   -1    0    0  501    0  0.00000000000E+00  0.00000000000E+00 -0.51764322824E+03  0.51764322825E+03  0.25500000920E-02 0.  1.
    10030    2    1    2    0    0  0.00000000000E+00  0.00000000000E+00  0.30183905910E+03  0.13371255156E+04  0.13026119249E+04 0.  0.
        2    1    3    3  502    0  0.13985579366E+03 -0.43576548212E+03  0.62660726221E+03  0.77594320636E+03  0.25500000920E-02 0. -1.
       -2    1    3    3    0  502 -0.13985579366E+03  0.43576548212E+03 -0.32476820312E+03  0.56118230923E+03  0.25500000920E-02 0.  1.
</event>
<event>
 5   0  0.3718559E-05  0.1295786E+04  0.7818609E-02  0.9032914E-01
       -1   -1    0    0    0  501  0.00000000000E+00  0.00000000000E+00  0.20837047615E+03  0.20837047621E+03  0.50400001928E-02 0.  1.
        1   -1    0    0  501    0  0.00000000000E+00  0.00000000000E+00 -0.20145137017E+04  0.20145137017E+04  0.50400001928E-02 0. -1.
    10030    2    1    2    0    0  0.00000000000E+00  0.00000000000E+00 -0.18061432255E+04  0.22228841779E+04  0.12957857528E+04 0.  0.
        2    1    3    3  502    0  0.46174360426E+03  0.18960492073E+03 -0.19450068994E+03  0.53571232992E+03  0.25500000920E-02 0.  1.
       -2    1    3    3    0  502 -0.46174360426E+03 -0.18960492073E+03 -0.16116425356E+04  0.16871718480E+04  0.25500000920E-02 0. -1.
</event>
<event>
 5   0  0.3718559E-05  0.1300352E+04  0.7818609E-02  0.9029286E-01
       -1   -1    0    0    0  501  0.00000000000E+00  0.00000000000E+00  0.68523835334E+03  0.68523835336E+03  0.50400001928E-02 0.  1.
        1   -1    0    0  501    0  0.00000000000E+00  0.00000000000E+00 -0.61690781447E+03  0.61690781450E+03  0.50400001928E-02 0. -1.
    10030    2    1    2    0    0  0.00000000000E+00  0.00000000000E+00  0.68330538867E+02  0.13021461679E+04  0.13003520984E+04 0.  0.
        2    1    3    3  502    0  0.50887907530E+03  0.39660434907E+03 -0.46419182279E+02  0.64684438891E+03  0.25500000920E-02 0. -1.
       -2    1    3    3    0  502 -0.50887907530E+03 -0.39660434907E+03  0.11474972115E+03  0.65530177894E+03  0.25500000920E-02 0.  1.
</event>
<event>
 5   0  0.3631841E-05  0.1299742E+04  0.7818609E-02  0.9029769E-01
       -1   -1    0    0    0  501  0.00000000000E+00  0.00000000000E+00  0.42136882224E+03  0.42136882227E+03  0.50400001928E-02 0. -1.
        1   -1    0    0  501    0  0.00000000000E+00  0.00000000000E+00 -0.10022873148E+04  0.10022873148E+04  0.50400001928E-02 0.  1.
    10030    2    1    2    0    0  0.00000000000E+00  0.00000000000E+00 -0.58091849257E+03  0.14236561371E+04  0.12997424751E+04 0.  0.
        3    1    3    3  502    0 -0.12969394778E+03  0.31118914128E+03  0.31809234889E+03  0.46351046845E+03  0.10100000352E+00 0. -1.
       -3    1    3    3    0  502  0.12969394778E+03 -0.31118914128E+03 -0.89901084146E+03  0.96014566864E+03  0.10100000352E+00 0.  1.
</event>
<event>
 5   0  0.6671239E-05  0.1300103E+04  0.7818609E-02  0.9029483E-01
       -2   -1    0    0    0  501  0.00000000000E+00  0.00000000000E+00  0.22854081624E+03  0.22854081626E+03  0.25500000920E-02 0. -1.
        2   -1    0    0  501    0  0.00000000000E+00  0.00000000000E+00 -0.18489780656E+04  0.18489780656E+04  0.25500000920E-02 0.  1.
    10030    2    1    2    0    0  0.00000000000E+00  0.00000000000E+00 -0.16204372494E+04  0.20775188819E+04  0.13001030057E+04 0.  0.
        1    1    3    3  502    0  0.60221009396E+03 -0.10463161551E+03 -0.45663055067E+03  0.76296541996E+03  0.50400001928E-02 0. -1.
       -1    1    3    3    0  502 -0.60221009396E+03  0.10463161551E+03 -0.11638066987E+04  0.13145534619E+04  0.50400001928E-02 0.  1.
</event>
<event>
 5   0  0.6742824E-05  0.1295091E+04  0.7818609E-02  0.9033467E-01
        2   -1    0    0  501    0  0.00000000000E+00  0.00000000000E+00  0.47689900115E+03  0.47689900116E+03  0.25500000920E-02 0.  1.
       -2   -1    0    0    0  501  0.00000000000E+00  0.00000000000E+00 -0.87925300011E+03  0.87925300012E+03  0.25500000920E-02 0. -1.
    10030    2    1    2    0    0  0.00000000000E+00  0.00000000000E+00 -0.40235399896E+03  0.13561520013E+04  0.12950905413E+04 0.  0.
        4    1    3    3  502    0  0.59325735570E+03  0.79621463015E+02  0.57490696089E+02  0.60133240433E+03  0.12699999809E+01 0.  1.
       -4    1    3    3    0  502 -0.59325735570E+03 -0.79621463015E+02 -0.45984469505E+03  0.75481959694E+03  0.12699999809E+01 0. -1.
</event>
<event>
 5   0  0.3689707E-05  0.1299748E+04  0.7818609E-02  0.9029765E-01
        1   -1    0    0  501    0  0.00000000000E+00  0.00000000000E+00  0.10184763851E+04  0.10184763851E+04  0.50400001928E-02 0. -1.
       -1   -1    0    0    0  501  0.00000000000E+00  0.00000000000E+00 -0.41467470881E+03  0.41467470884E+03  0.50400001928E-02 0.  1.
    10030    2    1    2    0    0  0.00000000000E+00  0.00000000000E+00  0.60380167632E+03  0.14331510940E+04  0.12997482810E+04 0.  0.
        1    1    3    3  502    0  0.62564945379E+03 -0.21644395886E+02  0.10955244921E+03  0.63553714136E+03  0.50400001928E-02 0.  1.
       -1    1    3    3    0  502 -0.62564945379E+03  0.21644395886E+02  0.49424922710E+03  0.79761395262E+03  0.50400001928E-02 0. -1.
</event>
<event>
 5   0  0.6671239E-05  0.1299256E+04  0.7818609E-02  0.9030156E-01
        2   -1    0    0  501    0  0.00000000000E+00  0.00000000000E+00  0.21857312696E+04  0.21857312696E+04  0.25500000920E-02 0.  1.
       -2   -1    0    0    0  501  0.00000000000E+00  0.00000000000E+00 -0.19307782645E+03  0.19307782647E+03  0.25500000920E-02 0. -1.
    10030    2    1    2    0    0  0.00000000000E+00  0.00000000000E+00  0.19926534432E+04  0.23788090961E+04  0.12992555449E+04 0.  0.
        1    1    3    3  502    0  0.69917750891E+02 -0.50315546665E+02  0.21752284814E+04  0.21769334148E+04  0.50400001928E-02 0.  1.
       -1    1    3    3    0  502 -0.69917750891E+02  0.50315546665E+02 -0.18257503818E+03  0.20187568135E+03  0.50400001928E-02 0. -1.
</event>
<event>
 5   0  0.6742824E-05  0.1298126E+04  0.7818609E-02  0.9031053E-01
       -2   -1    0    0    0  501  0.00000000000E+00  0.00000000000E+00  0.43526704376E+03  0.43526704376E+03  0.25500000920E-02 0.  1.
        2   -1    0    0  501    0  0.00000000000E+00  0.00000000000E+00 -0.96787130223E+03  0.96787130223E+03  0.25500000920E-02 0. -1.
    10030    2    1    2    0    0  0.00000000000E+00  0.00000000000E+00 -0.53260425847E+03  0.14031383460E+04  0.12981255416E+04 0.  0.
        4    1    3    3  502    0  0.59521876283E+02 -0.15876193123E+03 -0.94350953490E+03  0.95862404514E+03  0.12699999809E+01 0. -1.
       -4    1    3    3    0  502 -0.59521876283E+02  0.15876193123E+03  0.41090527643E+03  0.44451430086E+03  0.12699999809E+01 0.  1.
</event>
<event>
 5   0  0.6688086E-05  0.1299049E+04  0.7818609E-02  0.9030319E-01
        2   -1    0    0  501    0  0.00000000000E+00  0.00000000000E+00  0.23122362657E+04  0.23122362657E+04  0.25500000920E-02 0. -1.
       -2   -1    0    0    0  501  0.00000000000E+00  0.00000000000E+00 -0.18245643787E+03  0.18245643789E+03  0.25500000920E-02 0.  1.
    10030    2    1    2    0    0  0.00000000000E+00  0.00000000000E+00  0.21297798278E+04  0.24946927036E+04  0.12990494872E+04 0.  0.
        5    1    3    3  502    0  0.38784366066E+02  0.34390400481E+03  0.93935534767E+01  0.34624344098E+03  0.46999998093E+01 0.  1.
       -5    1    3    3    0  502 -0.38784366066E+02 -0.34390400481E+03  0.21203862743E+04  0.21484492626E+04  0.46999998093E+01 0. -1.
</event>
<event>
 5   0  0.6671239E-05  0.1302823E+04  0.7818609E-02  0.9027329E-01
        2   -1    0    0  501    0  0.00000000000E+00  0.00000000000E+00  0.21461189629E+04  0.21461189629E+04  0.25500000920E-02 0. -1.
       -2   -1    0    0    0  501  0.00000000000E+00  0.00000000000E+00 -0.19772299193E+03  0.19772299195E+03  0.25500000920E-02 0.  1.
    10030    2    1    2    0    0  0.00000000000E+00  0.00000000000E+00  0.19483959710E+04  0.23438419549E+04  0.13028231843E+04 0.  0.
        1    1    3    3  502    0  0.20228545889E+03 -0.81475436309E+02  0.20784963415E+04  0.20899054273E+04  0.50400001928E-02 0. -1.
       -1    1    3    3    0  502 -0.20228545889E+03  0.81475436309E+02 -0.13010037048E+03  0.25393652755E+03  0.50400001928E-02 0.  1.
</event>
<event>
 5   0  0.6688086E-05  0.1300677E+04  0.7818609E-02  0.9029028E-01
        2   -1    0    0  501    0  0.00000000000E+00  0.00000000000E+00  0.37378479465E+03  0.37378479466E+03  0.25500000920E-02 0. -1.
       -2   -1    0    0    0  501  0.00000000000E+00  0.00000000000E+00 -0.11315080099E+04  0.11315080099E+04  0.25500000920E-02 0.  1.
    10030    2    1    2    0    0  0.00000000000E+00  0.00000000000E+00 -0.75772321528E+03  0.15052928046E+04  0.13006774991E+04 0.  0.
        5    1    3    3  502    0  0.36067106941E+03  0.53869389787E+03 -0.31935647561E+03  0.72269314680E+03  0.46999998093E+01 0.  1.
       -5    1    3    3    0  502 -0.36067106941E+03 -0.53869389787E+03 -0.43836673967E+03  0.78259965778E+03  0.46999998093E+01 0. -1.
</event>
<event>
 5   0  0.6671239E-05  0.1299884E+04  0.7818609E-02  0.9029657E-01
        2   -1    0    0  501    0  0.00000000000E+00  0.00000000000E+00  0.20964575854E+04  0.20964575854E+04  0.25500000920E-02 0.  1.
       -2   -1    0    0    0  501  0.00000000000E+00  0.00000000000E+00 -0.20149457304E+03  0.20149457306E+03  0.25500000920E-02 0. -1.
    10030    2    1    2    0    0  0.00000000000E+00  0.00000000000E+00  0.18949630124E+04  0.22979521585E+04  0.12998843427E+04 0.  0.
        1    1    3    3  502    0  0.46863630902E+03  0.26492283534E+03  0.30369484715E+03  0.61808952348E+03  0.50400001928E-02 0. -1.
       -1    1    3    3    0  502 -0.46863630902E+03 -0.26492283534E+03  0.15912681652E+04  0.16798626350E+04  0.50400001928E-02 0.  1.
</event>
<event>
 5   0  0.3551277E-05  0.1299741E+04  0.7818609E-02  0.9029770E-01
       -1   -1    0    0    0  501  0.00000000000E+00  0.00000000000E+00  0.22588863298E+03  0.22588863304E+03  0.50400001928E-02 0. -1.
        1   -1    0    0  501    0  0.00000000000E+00  0.00000000000E+00 -0.18696461964E+04  0.18696461964E+04  0.50400001928E-02 0.  1.
    10030    2    1    2    0    0  0.00000000000E+00  0.00000000000E+00 -0.16437575634E+04  0.20955348295E+04  0.12997412412E+04 0.  0.
        4    1    3    3  502    0  0.61806391707E+02 -0.40445982461E+03 -0.78457843827E+01  0.40923214562E+03  0.12699999809E+01 0. -1.
       -4    1    3    3    0  502 -0.61806391707E+02  0.40445982461E+03 -0.16359117790E+04  0.16863026838E+04  0.12699999809E+01 0.  1.
</event>
<event>
 5   0  0.3631841E-05  0.1300356E+04  0.7818609E-02  0.9029283E-01
        1   -1    0    0  501    0  0.00000000000E+00  0.00000000000E+00  0.14771659790E+04  0.14771659790E+04  0.50400001928E-02 0. -1.
       -1   -1    0    0    0  501  0.00000000000E+00  0.00000000000E+00 -0.28617728656E+03  0.28617728660E+03  0.50400001928E-02 0.  1.
    10030    2    1    2    0    0  0.00000000000E+00  0.00000000000E+00  0.11909886924E+04  0.17633432656E+04  0.13003558770E+04 0.  0.
        3    1    3    3  502    0 -0.54806140937E+03 -0.33131329723E+03  0.44332964133E+03  0.77889729133E+03  0.10100000352E+00 0.  1.
       -3    1    3    3    0  502  0.54806140937E+03  0.33131329723E+03  0.74765905110E+03  0.98444597427E+03  0.10100000352E+00 0. -1.
</event>
<event>
 5   0  0.6671239E-05  0.1299973E+04  0.7818609E-02  0.9029587E-01
       -2   -1    0    0    0  501  0.00000000000E+00  0.00000000000E+00  0.28359969938E+03  0.28359969939E+03  0.25500000920E-02 0.  1.
        2   -1    0    0  501    0  0.00000000000E+00  0.00000000000E+00 -0.14897139178E+04  0.14897139178E+04  0.25500000920E-02 0. -1.
    10030    2    1    2    0    0  0.00000000000E+00  0.00000000000E+00 -0.12061142184E+04  0.17733136171E+04  0.12999729524E+04 0.  0.
        1    1    3    3  502    0 -0.12211094424E+03  0.63840737933E+03 -0.59935773111E+03  0.88414068708E+03  0.50400001928E-02 0. -1.
       -1    1    3    3    0  502  0.12211094424E+03 -0.63840737933E+03 -0.60675648727E+03  0.88917293007E+03  0.50400001928E-02 0.  1.
</event>
<event>
 5   0  0.3718559E-05  0.1300115E+04  0.7818609E-02  0.9029474E-01
        1   -1    0    0  501    0  0.00000000000E+00  0.00000000000E+00  0.72725369842E+03  0.72725369844E+03  0.50400001928E-02 0. -1.
       -1   -1    0    0    0  501  0.00000000000E+00  0.00000000000E+00 -0.58105521553E+03  0.58105521555E+03  0.50400001928E-02 0.  1.
    10030    2    1    2    0    0  0.00000000000E+00  0.00000000000E+00  0.14619848289E+03  0.13083089140E+04  0.13001146942E+04 0.  0.
        2    1    3    3  502    0  0.21175357317E+03 -0.58779713002E+03  0.25375653638E+03  0.67434221400E+03  0.25500000920E-02 0. -1.
       -2    1    3    3    0  502 -0.21175357317E+03  0.58779713002E+03 -0.10755805348E+03  0.63396669999E+03  0.25500000920E-02 0.  1.
</event>
<event>
 5   0  0.6618060E-05  0.1299813E+04  0.7818609E-02  0.9029713E-01
       -2   -1    0    0    0  501  0.00000000000E+00  0.00000000000E+00  0.57809071479E+03  0.57809071480E+03  0.25500000920E-02 0. -1.
        2   -1    0    0  501    0  0.00000000000E+00  0.00000000000E+00 -0.73064393553E+03  0.73064393553E+03  0.25500000920E-02 0.  1.
    10030    2    1    2    0    0  0.00000000000E+00  0.00000000000E+00 -0.15255322073E+03  0.13087346503E+04  0.12998130249E+04 0.  0.
        2    1    3    3  502    0 -0.33926965403E+03  0.42891819745E+03 -0.42983314677E+03  0.69557979580E+03  0.25500000920E-02 0. -1.
       -2    1    3    3    0  502  0.33926965403E+03 -0.42891819745E+03  0.27727992604E+03  0.61315485454E+03  0.25500000920E-02 0.  1.
</event>
<event>
 5   0  0.3551277E-05  0.1300225E+04  0.7818609E-02  0.9029387E-01
        1   -1    0    0  501    0  0.00000000000E+00  0.00000000000E+00  0.95371008213E+03  0.95371008214E+03  0.50400001928E-02 0.  1.
       -1   -1    0    0    0  501  0.00000000000E+00  0.00000000000E+00 -0.44316020296E+03  0.44316020299E+03  0.50400001928E-02 0. -1.
    10030    2    1    2    0    0  0.00000000000E+00  0.00000000000E+00  0.51054987916E+03  0.13968702851E+04  0.13002251399E+04 0.  0.
        4    1    3    3  502    0  0.10747385864E+03 -0.88080359182E+02  0.93756806015E+03  0.94781024487E+03  0.12699999809E+01 0.  1.
       -4    1    3    3    0  502 -0.10747385864E+03  0.88080359182E+02 -0.42701818099E+03  0.44906004026E+03  0.12699999809E+01 0. -1.
</event>
<event>
 5   0  0.6688086E-05  0.1299784E+04  0.7818609E-02  0.9029737E-01
       -2   -1    0    0    0  501  0.00000000000E+00  0.00000000000E+00  0.30702325401E+03  0.30702325402E+03  0.25500000920E-02 0. -1.
        2   -1    0    0  501    0  0.00000000000E+00  0.00000000000E+00 -0.13756598000E+04  0.13756598000E+04  0.25500000920E-02 0.  1.
    10030    2    1    2    0    0  0.00000000000E+00  0.00000000000E+00 -0.10686365460E+04  0.16826830540E+04  0.12997839024E+04 0.  0.
        5    1    3    3  502    0  0.21287252226E+03 -0.50413122280E+03 -0.98811564249E+03  0.11295386729E+04  0.46999998093E+01 0.  1.
       -5    1    3    3    0  502 -0.21287252226E+03  0.50413122280E+03 -0.80520903505E+02  0.55314438118E+03  0.46999998093E+01 0. -1.
</event>
<event>
 5   0  0.3551277E-05  0.1300484E+04  0.7818609E-02  0.9029181E-01
        1   -1    0    0  501    0  0.00000000000E+00  0.00000000000E+00  0.11650073807E+04  0.11650073807E+04  0.50400001928E-02 0. -1.
       -1   -1    0    0    0  501  0.00000000000E+00  0.00000000000E+00 -0.36292877019E+03  0.36292877022E+03  0.50400001928E-02 0.  1.
    10030    2    1    2    0    0  0.00000000000E+00  0.00000000000E+00  0.80207861052E+03  0.15279361509E+04  0.13004840575E+04 0.  0.
        4    1    3    3  502    0  0.40474591950E+03  0.49971127841E+03  0.28784312742E+03  0.70454659180E+03  0.12699999809E+01 0. -1.
       -4    1    3    3    0  502 -0.40474591950E+03 -0.49971127841E+03  0.51423548309E+03  0.82338955913E+03  0.12699999809E+01 0.  1.
</event>
<event>
 5   0  0.6671239E-05  0.1305499E+04  0.7818609E-02  0.9025216E-01
        2   -1    0    0  501    0  0.00000000000E+00  0.00000000000E+00  0.81596856268E+03  0.81596856269E+03  0.25500000920E-02 0.  1.
       -2   -1    0    0    0  501  0.00000000000E+00  0.00000000000E+00 -0.52217902415E+03  0.52217902416E+03  0.25500000920E-02 0. -1.
    10030    2    1    2    0    0  0.00000000000E+00  0.00000000000E+00  0.29378953853E+03  0.13381475868E+04  0.13054986294E+04 0.  0.
        1    1    3    3  502    0 -0.70405497360E+02 -0.61841078370E+03  0.34851907185E+03  0.71334029392E+03  0.50400001928E-02 0.  1.
       -1    1    3    3    0  502  0.70405497360E+02  0.61841078370E+03 -0.54729533324E+02  0.62480729293E+03  0.50400001928E-02 0. -1.
</event>
<event>
 5   0  0.3718559E-05  0.1300242E+04  0.7818609E-02  0.9029373E-01
        1   -1    0    0  501    0  0.00000000000E+00  0.00000000000E+00  0.12966209944E+04  0.12966209944E+04  0.50400001928E-02 0.  1.
       -1   -1    0    0    0  501  0.00000000000E+00  0.00000000000E+00 -0.32596825118E+03  0.32596825122E+03  0.50400001928E-02 0. -1.
    10030    2    1    2    0    0  0.00000000000E+00  0.00000000000E+00  0.97065274326E+03  0.16225892457E+04  0.13002419437E+04 0.  0.
        2    1    3    3  502    0 -0.62063936241E+03  0.18308571196E+03  0.40695898544E+03  0.76441429339E+03  0.25500000920E-02 0. -1.
       -2    1    3    3    0  502  0.62063936241E+03 -0.18308571196E+03  0.56369375782E+03  0.85817495227E+03  0.25500000920E-02 0.  1.
</event>
<event>
 5   0  0.3718559E-05  0.1300256E+04  0.7818609E-02  0.9029362E-01
       -1   -1    0    0    0  501  0.00000000000E+00  0.00000000000E+00  0.37952568210E+03  0.37952568214E+03  0.50400001928E-02 0.  1.
        1   -1    0    0  501    0  0.00000000000E+00  0.00000000000E+00 -0.11136708251E+04  0.11136708251E+04  0.50400001928E-02 0. -1.
    10030    2    1    2    0    0  0.00000000000E+00  0.00000000000E+00 -0.73414514299E+03  0.14931965072E+04  0.13002564048E+04 0.  0.
        2    1    3    3  502    0  0.14084964373E+03  0.56306219405E+03 -0.30712973475E+02  0.58122366026E+03  0.25500000920E-02 0.  1.
       -2    1    3    3    0  502 -0.14084964373E+03 -0.56306219405E+03 -0.70343216951E+03  0.91197284697E+03  0.25500000920E-02 0. -1.
</event>
<event>
 5   0  0.3631841E-05  0.1299783E+04  0.7818609E-02  0.9029737E-01
       -1   -1    0    0    0  501  0.00000000000E+00  0.00000000000E+00  0.10815734230E+04  0.10815734230E+04  0.50400001928E-02 0.  1.
        1   -1    0    0  501    0  0.00000000000E+00  0.00000000000E+00 -0.39050437926E+03  0.39050437929E+03  0.50400001928E-02 0. -1.
    10030    2    1    2    0    0  0.00000000000E+00  0.00000000000E+00  0.69106904376E+03  0.14720778023E+04  0.12997833023E+04 0.  0.
        3    1    3    3  502    0 -0.16310767213E+03  0.57503183803E+03  0.63448828668E+03  0.87168866207E+03  0.10100000352E+00 0.  1.
       -3    1    3    3    0  502  0.16310767213E+03 -0.57503183803E+03  0.56580757077E+02  0.60038914025E+03  0.10100000352E+00 0. -1.
</event>
<event>
 5   0  0.3552698E-05  0.1300134E+04  0.7818609E-02  0.9029459E-01
       -1   -1    0    0    0  501  0.00000000000E+00  0.00000000000E+00  0.68587986746E+03  0.68587986748E+03  0.50400001928E-02 0. -1.
        1   -1    0    0  501    0  0.00000000000E+00  0.00000000000E+00 -0.61612399373E+03  0.61612399375E+03  0.50400001928E-02 0.  1.
    10030    2    1    2    0    0  0.00000000000E+00  0.00000000000E+00  0.69755873727E+02  0.13020038612E+04  0.13001339057E+04 0.  0.
        5    1    3    3  502    0  0.48512886108E+02 -0.59026615160E+03 -0.23345767587E+03  0.63662564059E+03  0.46999998093E+01 0.  1.
       -5    1    3    3    0  502 -0.48512886108E+02  0.59026615160E+03  0.30321354960E+03  0.66537822064E+03  0.46999998093E+01 0. -1.
</event>
<event>
 5   0  0.3551277E-05  0.1299920E+04  0.7818609E-02  0.9029629E-01
        1   -1    0    0  501    0  0.00000000000E+00  0.00000000000E+00  0.90759272352E+03  0.90759272353E+03  0.50400001928E-02 0. -1.
       -1   -1    0    0    0  501  0.00000000000E+00  0.00000000000E+00 -0.46545966587E+03  0.46545966589E+03  0.50400001928E-02 0.  1.
    10030    2    1    2    0    0  0.00000000000E+00  0.00000000000E+00  0.44213305765E+03  0.13730523894E+04  0.12999196988E+04 0.  0.
        4    1    3    3  502    0 -0.73970382033E+02  0.59871522807E+03 -0.34440524580E+02  0.60425102762E+03  0.12699999809E+01 0. -1.
       -4    1    3    3    0  502  0.73970382033E+02 -0.59871522807E+03  0.47657358223E+03  0.76880136181E+03  0.12699999809E+01 0.  1.
</event>
<event>
 5   0  0.6742824E-05  0.1299538E+04  0.7818609E-02  0.9029932E-01
        2   -1    0    0  501    0  0.00000000000E+00  0.00000000000E+00  0.20078704113E+04  0.20078704113E+04  0.25500000920E-02 0. -1.
       -2   -1    0    0    0  501  0.00000000000E+00  0.00000000000E+00 -0.21027242654E+03  0.21027242656E+03  0.25500000920E-02 0.  1.
    10030    2    1    2    0    0  0.00000000000E+00  0.00000000000E+00  0.17975979847E+04  0.22181428378E+04  0.12995380465E+04 0.  0.
        4    1    3    3  502    0 -0.36260265501E+03  0.17818522559E+03  0.30192339476E+02  0.40514670220E+03  0.12699999809E+01 0.  1.
       -4    1    3    3    0  502  0.36260265501E+03 -0.17818522559E+03  0.17674056452E+04  0.18129961356E+04  0.12699999809E+01 0. -1.
</event>
<event>
 5   0  0.6671239E-05  0.1300774E+04  0.7818609E-02  0.9028951E-01
        2   -1    0    0  501    0  0.00000000000E+00  0.00000000000E+00  0.84357993315E+03  0.84357993316E+03  0.25500000920E-02 0. -1.
       -2   -1    0    0    0  501  0.00000000000E+00  0.00000000000E+00 -0.50143862868E+03  0.50143862868E+03  0.25500000920E-02 0.  1.
    10030    2    1    2    0    0  0.00000000000E+00  0.00000000000E+00  0.34214130448E+03  0.13450185618E+04  0.13007744845E+04 0.  0.
        1    1    3    3  502    0  0.49528853834E+03  0.18006765896E+03 -0.22303434792E+03  0.57225817460E+03  0.50400001928E-02 0.  1.
       -1    1    3    3    0  502 -0.49528853834E+03 -0.18006765896E+03  0.56517565239E+03  0.77276038725E+03  0.50400001928E-02 0. -1.
</event>
<event>
 5   0  0.6688086E-05  0.1300030E+04  0.7818609E-02  0.9029541E-01
       -2   -1    0    0    0  501  0.00000000000E+00  0.00000000000E+00  0.34400830642E+03  0.34400830642E+03  0.25500000920E-02 0. -1.
        2   -1    0    0  501    0  0.00000000000E+00  0.00000000000E+00 -0.12282255582E+04  0.12282255582E+04  0.25500000920E-02 0.  1.
    10030    2    1    2    0    0  0.00000000000E+00  0.00000000000E+00 -0.88421725182E+03  0.15722338647E+04  0.13000304523E+04 0.  0.
        5    1    3    3  502    0  0.64881630025E+02  0.27143526120E+03 -0.11520592980E+04  0.11853899961E+04  0.46999998093E+01 0.  1.
       -5    1    3    3    0  502 -0.64881630025E+02 -0.27143526120E+03  0.26784204614E+03  0.38684386852E+03  0.46999998093E+01 0. -1.
</event>
<event>
 5   0  0.6618060E-05  0.1299650E+04  0.7818609E-02  0.9029843E-01
       -2   -1    0    0    0  501  0.00000000000E+00  0.00000000000E+00  0.40233566011E+03  0.40233566012E+03  0.25500000920E-02 0. -1.
        2   -1    0    0  501    0  0.00000000000E+00  0.00000000000E+00 -0.10495529169E+04  0.10495529169E+04  0.25500000920E-02 0.  1.
    10030    2    1    2    0    0  0.00000000000E+00  0.00000000000E+00 -0.64721725683E+03  0.14518885771E+04  0.12996500539E+04 0.  0.
        2    1    3    3  502    0  0.62239556427E+03  0.10164314491E+03 -0.49870019508E+03  0.80399592780E+03  0.25500000920E-02 0.  1.
       -2    1    3    3    0  502 -0.62239556427E+03 -0.10164314491E+03 -0.14851706175E+03  0.64789264927E+03  0.25500000920E-02 0. -1.
</event>
<event>
 5   0  0.3718559E-05  0.1300206E+04  0.7818609E-02  0.9029402E-01
       -1   -1    0    0    0  501  0.00000000000E+00  0.00000000000E+00  0.25344787807E+03  0.25344787812E+03  0.50400001928E-02 0. -1.
        1   -1    0    0  501    0  0.00000000000E+00  0.00000000000E+00 -0.16675373440E+04  0.16675373440E+04  0.50400001928E-02 0.  1.
    10030    2    1    2    0    0  0.00000000000E+00  0.00000000000E+00 -0.14140894659E+04  0.19209852221E+04  0.13002058322E+04 0.  0.
        2    1    3    3  502    0  0.29664204768E+03 -0.41813824688E+03 -0.11643964911E+03  0.52573214649E+03  0.25500000920E-02 0. -1.
       -2    1    3    3    0  502 -0.29664204768E+03  0.41813824688E+03 -0.12976498168E+04  0.13952530756E+04  0.25500000920E-02 0.  1.
</event>
<event>
 5   0  0.3689707E-05  0.1300153E+04  0.7818609E-02  0.9029444E-01
       -1   -1    0    0    0  501  0.00000000000E+00  0.00000000000E+00  0.32802044010E+03  0.32802044014E+03  0.50400001928E-02 0.  1.
        1   -1    0    0  501    0  0.00000000000E+00  0.00000000000E+00 -0.12883330474E+04  0.12883330474E+04  0.50400001928E-02 0. -1.
    10030    2    1    2    0    0  0.00000000000E+00  0.00000000000E+00 -0.96031260730E+03  0.16163534876E+04  0.13001531806E+04 0.  0.
        1    1    3    3  502    0 -0.53342730194E+01 -0.29913867766E+03  0.23734182781E+03  0.38189467945E+03  0.50400001928E-02 0.  1.
       -1    1    3    3    0  502  0.53342730194E+01  0.29913867766E+03 -0.11976544351E+04  0.12344588081E+04  0.50400001928E-02 0. -1.
</event>
<event>
 5   0  0.6688086E-05  0.1300089E+04  0.7818609E-02  0.9029494E-01
        2   -1    0    0  501    0  0.00000000000E+00  0.00000000000E+00  0.20915876204E+04  0.20915876204E+04  0.25500000920E-02 0. -1.
       -2   -1    0    0    0  501  0.00000000000E+00  0.00000000000E+00 -0.20202736458E+03  0.20202736460E+03  0.25500000920E-02 0.  1.
    10030    2    1    2    0    0  0.00000000000E+00  0.00000000000E+00  0.18895602559E+04  0.22936149850E+04  0.13000891274E+04 0.  0.
        5    1    3    3  502    0  0.49966802959E+03 -0.15703519326E+03  0.16239567147E+04  0.17063369224E+04  0.46999998093E+01 0. -1.
       -5    1    3    3    0  502 -0.49966802959E+03  0.15703519326E+03  0.26560354117E+03  0.58727806259E+03  0.46999998093E+01 0.  1.
</event>
<event>
 5   0  0.6671239E-05  0.1299804E+04  0.7818609E-02  0.9029721E-01
       -2   -1    0    0    0  501  0.00000000000E+00  0.00000000000E+00  0.39275397368E+03  0.39275397369E+03  0.25500000920E-02 0. -1.
        2   -1    0    0  501    0  0.00000000000E+00  0.00000000000E+00 -0.10754128964E+04  0.10754128964E+04  0.25500000920E-02 0.  1.
    10030    2    1    2    0    0  0.00000000000E+00  0.00000000000E+00 -0.68265892270E+03  0.14681668701E+04  0.12998041213E+04 0.  0.
        1    1    3    3  502    0 -0.31198401443E+03 -0.51056514333E+02  0.30005215579E+03  0.43585787722E+03  0.50400001928E-02 0. -1.
       -1    1    3    3    0  502  0.31198401443E+03  0.51056514333E+02 -0.98271107849E+03  0.10323089929E+04  0.50400001928E-02 0.  1.
</event>
<event>
 5   0  0.3552698E-05  0.1299643E+04  0.7818609E-02  0.9029849E-01
       -1   -1    0    0    0  501  0.00000000000E+00  0.00000000000E+00  0.42725697929E+03  0.42725697932E+03  0.50400001928E-02 0. -1.
        1   -1    0    0  501    0  0.00000000000E+00  0.00000000000E+00 -0.98832272784E+03  0.98832272785E+03  0.50400001928E-02 0.  1.
    10030    2    1    2    0    0  0.00000000000E+00  0.00000000000E+00 -0.56106574855E+03  0.14155797072E+04  0.12996426944E+04 0.  0.
        5    1    3    3  502    0  0.24481141611E+03  0.11753788795E+03 -0.92353209494E+03  0.96264292702E+03  0.46999998093E+01 0.  1.
       -5    1    3    3    0  502 -0.24481141611E+03 -0.11753788795E+03  0.36246634639E+03  0.45293678016E+03  0.46999998093E+01 0. -1.
</event>
<event>
 5   0  0.3631841E-05  0.1299520E+04  0.7818609E-02  0.9029946E-01
        1   -1    0    0  501    0  0.00000000000E+00  0.00000000000E+00  0.55163592252E+03  0.55163592254E+03  0.50400001928E-02 0.  1.
       -1   -1    0    0    0  501  0.00000000000E+00  0.00000000000E+00 -0.76533833352E+03  0.76533833354E+03  0.50400001928E-02 0. -1.
    10030    2    1    2    0    0  0.00000000000E+00  0.00000000000E+00 -0.21370241100E+03  0.13169742561E+04  0.12995200925E+04 0.  0.
        3    1    3    3  502    0 -0.52493622664E+03 -0.17128913825E+03 -0.45392750528E+03  0.71480640818E+03  0.10100000352E+00 0. -1.
       -3    1    3    3    0  502  0.52493622664E+03  0.17128913825E+03  0.24022509428E+03  0.60216784790E+03  0.10100000352E+00 0.  1.
</event>
<event>
 5   0  0.6688086E-05  0.1300126E+04  0.7818609E-02  0.9029465E-01
       -2   -1    0    0    0  501  0.00000000000E+00  0.00000000000E+00  0.78263478397E+03  0.78263478397E+03  0.25500000920E-02 0. -1.
        2   -1    0    0  501    0  0.00000000000E+00  0.00000000000E+00 -0.53994810744E+03  0.53994810745E+03  0.25500000920E-02 0.  1.
    10030    2    1    2    0    0  0.00000000000E+00  0.00000000000E+00  0.24268667653E+03  0.13225828914E+04  0.13001264099E+04 0.  0.
        5    1    3    3  502    0  0.25780486749E+03  0.56405823142E+03  0.31947669915E+03  0.69764782622E+03  0.46999998093E+01 0.  1.
       -5    1    3    3    0  502 -0.25780486749E+03 -0.56405823142E+03 -0.76790022621E+02  0.62493506519E+03  0.46999998093E+01 0. -1.
</event>
<event>
 5   0  0.3631841E-05  0.1299837E+04  0.7818609E-02  0.9029694E-01
       -1   -1    0    0    0  501  0.00000000000E+00  0.00000000000E+00  0.59444432763E+03  0.59444432765E+03  0.50400001928E-02 0. -1.
        1   -1    0    0  501    0  0.00000000000E+00  0.00000000000E+00 -0.71056954826E+03  0.71056954828E+03  0.50400001928E-02 0.  1.
    10030    2    1    2    0    0  0.00000000000E+00  0.00000000000E+00 -0.11612522063E+03  0.13050138759E+04  0.12998369704E+04 0.  0.
        3    1    3    3  502    0 -0.39175055511E+00  0.38652958108E+03  0.46650156150E+03  0.60582917361E+03  0.10100000352E+00 0. -1.
       -3    1    3    3    0  502  0.39175055511E+00 -0.38652958108E+03 -0.58262678212E+03  0.69918470232E+03  0.10100000352E+00 0.  1.
</event>
<event>
 5   0  0.6688086E-05  0.1300744E+04  0.7818609E-02  0.9028975E-01
        2   -1    0    0  501    0  0.00000000000E+00  0.00000000000E+00  0.14012814093E+04  0.14012814093E+04  0.25500000920E-02 0. -1.
       -2   -1    0    0    0  501  0.00000000000E+00  0.00000000000E+00 -0.30185515600E+03  0.30185515601E+03  0.25500000920E-02 0.  1.
    10030    2    1    2    0    0  0.00000000000E+00  0.00000000000E+00  0.10994262533E+04  0.17031365653E+04  0.13007444306E+04 0.  0.
        5    1    3    3  502    0  0.36206550197E+03  0.27363448644E+03  0.11596459843E+04  0.12452984215E+04  0.46999998093E+01 0. -1.
       -5    1    3    3    0  502 -0.36206550197E+03 -0.27363448644E+03 -0.60219730976E+02  0.45783814376E+03  0.46999998093E+01 0.  1.
</event>
<event>
 5   0  0.3718559E-05  0.1299551E+04  0.7818609E-02  0.9029921E-01
        1   -1    0    0  501    0  0.00000000000E+00  0.00000000000E+00  0.25252379839E+04  0.25252379839E+04  0.50400001928E-02 0.  1.
       -1   -1    0    0    0  501  0.00000000000E+00  0.00000000000E+00 -0.16719546188E+03  0.16719546195E+03  0.50400001928E-02 0. -1.
    10030    2    1    2    0    0  0.00000000000E+00  0.00000000000E+00  0.23580425220E+04  0.26924334459E+04  0.12995512013E+04 0.  0.
        2    1    3    3  502    0  0.56234585366E+03 -0.49253918243E+02  0.51232866155E+03  0.76232503897E+03  0.25500000920E-02 0. -1.
       -2    1    3    3    0  502 -0.56234585366E+03  0.49253918243E+02  0.18457138605E+04  0.19301084069E+04  0.25500000920E-02 0.  1.
</event>
<event>
 5   0  0.6671239E-05  0.1299738E+04  0.7818609E-02  0.9029773E-01
        2   -1    0    0  501    0  0.00000000000E+00  0.00000000000E+00  0.75706535193E+03  0.75706535194E+03  0.25500000920E-02 0. -1.
       -2   -1    0    0    0  501  0.00000000000E+00  0.00000000000E+00 -0.55785118639E+03  0.55785118639E+03  0.25500000920E-02 0.  1.
    10030    2    1    2    0    0  0.00000000000E+00  0.00000000000E+00  0.19921416554E+03  0.13149165383E+04  0.12997381348E+04 0.  0.
        1    1    3    3  502    0 -0.33474725073E+02  0.14991227422E+03  0.73843635676E+03  0.75424299811E+03  0.50400001928E-02 0. -1.
       -1    1    3    3    0  502  0.33474725073E+02 -0.14991227422E+03 -0.53922219122E+03  0.56067354022E+03  0.50400001928E-02 0.  1.
</event>
<event>
 5   0  0.3718559E-05  0.1298593E+04  0.7818609E-02  0.9030682E-01
        1   -1    0    0  501    0  0.00000000000E+00  0.00000000000E+00  0.44719104145E+03  0.44719104148E+03  0.50400001928E-02 0.  1.
       -1   -1    0    0    0  501  0.00000000000E+00  0.00000000000E+00 -0.94274244920E+03  0.94274244921E+03  0.50400001928E-02 0. -1.
    10030    2    1    2    0    0  0.00000000000E+00  0.00000000000E+00 -0.49555140775E+03  0.13899334907E+04  0.12985930505E+04 0.  0.
        2    1    3    3  502    0 -0.47414788620E+03 -0.44349454981E+03 -0.23806307228E+03  0.69150391184E+03  0.25500000920E-02 0. -1.
       -2    1    3    3    0  502  0.47414788620E+03  0.44349454981E+03 -0.25748833547E+03  0.69842957885E+03  0.25500000920E-02 0.  1.
</event>
<event>
 5   0  0.6742824E-05  0.1299674E+04  0.7818609E-02  0.9029823E-01
       -2   -1    0    0    0  501  0.00000000000E+00  0.00000000000E+00  0.91066303737E+03  0.91066303738E+03  0.25500000920E-02 0. -1.
        2   -1    0    0  501    0  0.00000000000E+00  0.00000000000E+00 -0.46371536481E+03  0.46371536482E+03  0.25500000920E-02 0.  1.
    10030    2    1    2    0    0  0.00000000000E+00  0.00000000000E+00  0.44694767256E+03  0.13743784022E+04  0.12996744863E+04 0.  0.
        4    1    3    3  502    0 -0.28360825037E+03 -0.49743944863E+03 -0.10144452360E+03  0.58152579393E+03  0.12699999809E+01 0. -1.
       -4    1    3    3    0  502  0.28360825037E+03  0.49743944863E+03  0.54839219616E+03  0.79285260827E+03  0.12699999809E+01 0.  1.
</event>
<event>
 5   0  0.3551277E-05  0.1300032E+04  0.7818609E-02  0.9029540E-01
       -1   -1    0    0    0  501  0.00000000000E+00  0.00000000000E+00  0.44085976277E+03  0.44085976280E+03  0.50400001928E-02 0.  1.
        1   -1    0    0  501    0  0.00000000000E+00  0.00000000000E+00 -0.95840174459E+03  0.95840174460E+03  0.50400001928E-02 0. -1.
    10030    2    1    2    0    0  0.00000000000E+00  0.00000000000E+00 -0.51754198182E+03  0.13992615074E+04  0.13000319470E+04 0.  0.
        4    1    3    3  502    0  0.15230137975E+03  0.39717153481E+03  0.27025102485E+03  0.50396246653E+03  0.12699999809E+01 0.  1.
       -4    1    3    3    0  502 -0.15230137975E+03 -0.39717153481E+03 -0.78779300667E+03  0.89529904087E+03  0.12699999809E+01 0. -1.
</event>
<event>
 5   0  0.2512000E-05  0.1300084E+04  0.7818609E-02  0.9029498E-01
       -4   -1    0    0    0  501  0.00000000000E+00  0.00000000000E+00  0.45208735115E+03  0.45208913498E+03  0.12699999809E+01 0.  1.
        4   -1    0    0  501    0  0.00000000000E+00  0.00000000000E+00 -0.93467094770E+03  0.93467181051E+03  0.12699999809E+01 0. -1.
    10030    2    1    2    0    0  0.00000000000E+00  0.00000000000E+00 -0.48258359655E+03  0.13867609455E+04  0.13000842251E+04 0.  0.
        3    1    3    3  502    0  0.56067671039E+03 -0.32168583182E+03 -0.16805116776E+03  0.66789321987E+03  0.10100000352E+00 0.  1.
       -3    1    3    3    0  502 -0.56067671039E+03  0.32168583182E+03 -0.31453242879E+03  0.71886772562E+03  0.10100000352E+00 0. -1.
</event>
<event>
 5   0  0.3631841E-05  0.1301581E+04  0.7818609E-02  0.9028313E-01
       -1   -1    0    0    0  501  0.00000000000E+00  0.00000000000E+00  0.29596253026E+03  0.29596253031E+03  0.50400001928E-02 0.  1.
        1   -1    0    0  501    0  0.00000000000E+00  0.00000000000E+00 -0.14310190256E+04  0.14310190256E+04  0.50400001928E-02 0. -1.
    10030    2    1    2    0    0  0.00000000000E+00  0.00000000000E+00 -0.11350564953E+04  0.17269815559E+04  0.13015805956E+04 0.  0.
        3    1    3    3  502    0  0.47883883058E+03 -0.31456237293E+03 -0.15794271991E+03  0.59429119555E+03  0.10100000352E+00 0.  1.
       -3    1    3    3    0  502 -0.47883883058E+03  0.31456237293E+03 -0.97711377541E+03  0.11326903603E+04  0.10100000352E+00 0. -1.
</event>
<event>
 5   0  0.3718559E-05  0.1299865E+04  0.7818609E-02  0.9029672E-01
       -1   -1    0    0    0  501  0.00000000000E+00  0.00000000000E+00  0.83764809940E+03  0.83764809941E+03  0.50400001928E-02 0. -1.
        1   -1    0    0  501    0  0.00000000000E+00  0.00000000000E+00 -0.50428393340E+03  0.50428393342E+03  0.50400001928E-02 0.  1.
    10030    2    1    2    0    0  0.00000000000E+00  0.00000000000E+00  0.33336416600E+03  0.13419320328E+04  0.12998653444E+04 0.  0.
        2    1    3    3  502    0  0.39131490930E+03  0.47661561484E+03  0.37856216417E+03  0.72360148888E+03  0.25500000920E-02 0. -1.
       -2    1    3    3    0  502 -0.39131490930E+03 -0.47661561484E+03 -0.45197998175E+02  0.61833054396E+03  0.25500000920E-02 0.  1.
</event>
<event>
 5   0  0.3631841E-05  0.1301798E+04  0.7818609E-02  0.9028140E-01
        1   -1    0    0  501    0  0.00000000000E+00  0.00000000000E+00  0.78297920553E+03  0.78297920555E+03  0.50400001928E-02 0.  1.
       -1   -1    0    0    0  501  0.00000000000E+00  0.00000000000E+00 -0.54109970813E+03  0.54109970815E+03  0.50400001928E-02 0. -1.
    10030    2    1    2    0    0  0.00000000000E+00  0.00000000000E+00  0.24187949741E+03  0.13240789137E+04  0.13017984784E+04 0.  0.
        3    1    3    3  502    0  0.25105304466E+03 -0.46876876297E+02  0.72988915810E+03  0.77328084553E+03  0.10100000352E+00 0.  1.
       -3    1    3    3    0  502 -0.25105304466E+03  0.46876876297E+02 -0.48800966069E+03  0.55079806816E+03  0.10100000352E+00 0. -1.
</event>
<event>
 5   0  0.3552698E-05  0.1300481E+04  0.7818609E-02  0.9029183E-01
        1   -1    0    0  501    0  0.00000000000E+00  0.00000000000E+00  0.18087003396E+04  0.18087003397E+04  0.50400001928E-02 0.  1.
       -1   -1    0    0    0  501  0.00000000000E+00  0.00000000000E+00 -0.23376620178E+03  0.23376620184E+03  0.50400001928E-02 0. -1.
    10030    2    1    2    0    0  0.00000000000E+00  0.00000000000E+00  0.15749341379E+04  0.20424665415E+04  0.13004814626E+04 0.  0.
        5    1    3    3  502    0 -0.81977892453E+02  0.64049761933E+03  0.66751449897E+03  0.92873853778E+03  0.46999998093E+01 0. -1.
       -5    1    3    3    0  502  0.81977892453E+02 -0.64049761933E+03  0.90741963889E+03  0.11137280037E+04  0.46999998093E+01 0.  1.
</event>
<event>
 5   0  0.3552698E-05  0.1309832E+04  0.7818609E-02  0.9021804E-01
        1   -1    0    0  501    0  0.00000000000E+00  0.00000000000E+00  0.88410185154E+03  0.88410185156E+03  0.50400001928E-02 0. -1.
       -1   -1    0    0    0  501  0.00000000000E+00  0.00000000000E+00 -0.48514209153E+03  0.48514209156E+03  0.50400001928E-02 0.  1.
    10030    2    1    2    0    0  0.00000000000E+00  0.00000000000E+00  0.39895976001E+03  0.13692439431E+04  0.13098320830E+04 0.  0.
        5    1    3    3  502    0 -0.61891663280E+03 -0.20213731913E+03  0.12574218445E+03  0.66313684944E+03  0.46999998093E+01 0. -1.
       -5    1    3    3    0  502  0.61891663280E+03  0.20213731913E+03  0.27321757556E+03  0.70610709367E+03  0.46999998093E+01 0.  1.
</event>
<event>
 5   0  0.3552698E-05  0.1302182E+04  0.7818609E-02  0.9027837E-01
       -1   -1    0    0    0  501  0.00000000000E+00  0.00000000000E+00  0.35438948603E+03  0.35438948607E+03  0.50400001928E-02 0.  1.
        1   -1    0    0  501    0  0.00000000000E+00  0.00000000000E+00 -0.11961961692E+04  0.11961961692E+04  0.50400001928E-02 0. -1.
    10030    2    1    2    0    0  0.00000000000E+00  0.00000000000E+00 -0.84180668315E+03  0.15505856553E+04  0.13021817778E+04 0.  0.
        5    1    3    3  502    0 -0.58266430428E+01 -0.68286177354E+01 -0.11961022787E+04  0.11961451965E+04  0.46999998093E+01 0. -1.
       -5    1    3    3    0  502  0.58266430428E+01  0.68286177354E+01  0.35429559559E+03  0.35444045881E+03  0.46999998093E+01 0.  1.
</event>
<event>
 5   0  0.6742824E-05  0.1298080E+04  0.7818609E-02  0.9031089E-01
        2   -1    0    0  501    0  0.00000000000E+00  0.00000000000E+00  0.31803168892E+03  0.31803168893E+03  0.25500000920E-02 0.  1.
       -2   -1    0    0    0  501  0.00000000000E+00  0.00000000000E+00 -0.13245633923E+04  0.13245633923E+04  0.25500000920E-02 0. -1.
    10030    2    1    2    0    0  0.00000000000E+00  0.00000000000E+00 -0.10065317033E+04  0.16425950812E+04  0.12980803253E+04 0.  0.
        4    1    3    3  502    0  0.37161113743E+03  0.40414399927E+03 -0.94129339436E+03  0.10897073354E+04  0.12699999809E+01 0. -1.
       -4    1    3    3    0  502 -0.37161113743E+03 -0.40414399927E+03 -0.65238308974E+02  0.55288774581E+03  0.12699999809E+01 0.  1.
</event>
<event>
 5   0  0.3551277E-05  0.1299969E+04  0.7818609E-02  0.9029589E-01
        1   -1    0    0  501    0  0.00000000000E+00  0.00000000000E+00  0.72676816911E+03  0.72676816913E+03  0.50400001928E-02 0.  1.
       -1   -1    0    0    0  501  0.00000000000E+00  0.00000000000E+00 -0.58131341210E+03  0.58131341212E+03  0.50400001928E-02 0. -1.
    10030    2    1    2    0    0  0.00000000000E+00  0.00000000000E+00  0.14545475701E+03  0.13080815812E+04  0.12999693600E+04 0.  0.
        4    1    3    3  502    0  0.62445542990E+03 -0.95841590672E+02 -0.81027580477E+02  0.63694369934E+03  0.12699999809E+01 0. -1.
       -4    1    3    3    0  502 -0.62445542990E+03  0.95841590672E+02  0.22648233749E+03  0.67113788191E+03  0.12699999809E+01 0.  1.
</event>
<event>
 5   0  0.6458698E-05  0.1299605E+04  0.7818609E-02  0.9029879E-01
       -2   -1    0    0    0  501  0.00000000000E+00  0.00000000000E+00  0.22087123849E+03  0.22087123851E+03  0.25500000920E-02 0. -1.
        2   -1    0    0  501    0  0.00000000000E+00  0.00000000000E+00 -0.19117161399E+04  0.19117161399E+04  0.25500000920E-02 0.  1.
    10030    2    1    2    0    0  0.00000000000E+00  0.00000000000E+00 -0.16908449014E+04  0.21325873784E+04  0.12996047268E+04 0.  0.
        3    1    3    3  502    0 -0.16800194786E+03 -0.34482214125E+03  0.15281081439E+02  0.38387561167E+03  0.10100000352E+00 0. -1.
       -3    1    3    3    0  502  0.16800194786E+03  0.34482214125E+03 -0.17061259829E+04  0.17487117668E+04  0.10100000352E+00 0.  1.
</event>
<event>
 5   0  0.6671239E-05  0.1300402E+04  0.7818609E-02  0.9029246E-01
        2   -1    0    0  501    0  0.00000000000E+00  0.00000000000E+00  0.51632456820E+03  0.51632456821E+03  0.25500000920E-02 0. -1.
       -2   -1    0    0    0  501  0.00000000000E+00  0.00000000000E+00 -0.81879030003E+03  0.81879030003E+03  0.25500000920E-02 0.  1.
    10030    2    1    2    0    0  0.00000000000E+00  0.00000000000E+00 -0.30246573183E+03  0.13351148682E+04  0.13004023195E+04 0.  0.
        1    1    3    3  502    0  0.32934297907E+03  0.22470502043E+03  0.37609445330E+03  0.54809322373E+03  0.50400001928E-02 0. -1.
       -1    1    3    3    0  502 -0.32934297907E+03 -0.22470502043E+03 -0.67856018513E+03  0.78702164451E+03  0.50400001928E-02 0.  1.
</event>
<event>
 5   0  0.3551277E-05  0.1299866E+04  0.7818609E-02  0.9029671E-01
       -1   -1    0    0    0  501  0.00000000000E+00  0.00000000000E+00  0.57377732276E+03  0.57377732278E+03  0.50400001928E-02 0.  1.
        1   -1    0    0  501    0  0.00000000000E+00  0.00000000000E+00 -0.73619689467E+03  0.73619689469E+03  0.50400001928E-02 0. -1.
    10030    2    1    2    0    0  0.00000000000E+00  0.00000000000E+00 -0.16241957192E+03  0.13099742175E+04  0.12998662751E+04 0.  0.
        4    1    3    3  502    0 -0.64378378059E+03  0.28778277396E+01  0.86216422571E+01  0.64384919325E+03  0.12699999809E+01 0.  1.
       -4    1    3    3    0  502  0.64378378059E+03 -0.28778277396E+01 -0.17104121417E+03  0.66612502421E+03  0.12699999809E+01 0. -1.
</event>
<event>
 5   0  0.6671239E-05  0.1299488E+04  0.7818609E-02  0.9029971E-01
        2   -1    0    0  501    0  0.00000000000E+00  0.00000000000E+00  0.18729844949E+04  0.18729844949E+04  0.25500000920E-02 0. -1.
       -2   -1    0    0    0  501  0.00000000000E+00  0.00000000000E+00 -0.22539810674E+03  0.22539810675E+03  0.25500000920E-02 0.  1.
    10030    2    1    2    0    0  0.00000000000E+00  0.00000000000E+00  0.16475863881E+04  0.20983826016E+04  0.12994878362E+04 0.  0.
        1    1    3    3  502    0  0.49932821083E+03 -0.25655435706E+03  0.29554064503E+03  0.63442341787E+03  0.50400001928E-02 0. -1.
       -1    1    3    3    0  502 -0.49932821083E+03  0.25655435706E+03  0.13520457431E+04  0.14639591837E+04  0.50400001928E-02 0.  1.
</event>
<event>
 5   0  0.6458698E-05  0.1299493E+04  0.7818609E-02  0.9029967E-01
        2   -1    0    0  501    0  0.00000000000E+00  0.00000000000E+00  0.10422428291E+04  0.10422428291E+04  0.25500000920E-02 0.  1.
       -2   -1    0    0    0  501  0.00000000000E+00  0.00000000000E+00 -0.40505950661E+03  0.40505950662E+03  0.25500000920E-02 0. -1.
    10030    2    1    2    0    0  0.00000000000E+00  0.00000000000E+00  0.63718332245E+03  0.14473023357E+04  0.12994927720E+04 0.  0.
        3    1    3    3  502    0 -0.50147415705E+03  0.29229266845E+03 -0.66121055408E+01  0.58047830653E+03  0.10100000352E+00 0.  1.
       -3    1    3    3    0  502  0.50147415705E+03 -0.29229266845E+03  0.64379542799E+03  0.86682402915E+03  0.10100000352E+00 0. -1.
</event>
<event>
 5   0  0.3718559E-05  0.1299862E+04  0.7818609E-02  0.9029675E-01
       -1   -1    0    0    0  501  0.00000000000E+00  0.00000000000E+00  0.45304821562E+03  0.45304821565E+03  0.50400001928E-02 0. -1.
        1   -1    0    0  501    0  0.00000000000E+00  0.00000000000E+00 -0.93237358891E+03  0.93237358893E+03  0.50400001928E-02 0.  1.
    10030    2    1    2    0    0  0.00000000000E+00  0.00000000000E+00 -0.47932537329E+03  0.13854218046E+04  0.12998618246E+04 0.  0.
        2    1    3    3  502    0 -0.12810621089E+03 -0.54979853566E+03  0.10359261609E+03  0.57395214191E+03  0.25500000920E-02 0. -1.
       -2    1    3    3    0  502  0.12810621089E+03  0.54979853566E+03 -0.58291798938E+03  0.81146966267E+03  0.25500000920E-02 0.  1.
</event>
<event>
 5   0  0.6458698E-05  0.1299614E+04  0.7818609E-02  0.9029871E-01
       -2   -1    0    0    0  501  0.00000000000E+00  0.00000000000E+00  0.40945520690E+03  0.40945520691E+03  0.25500000920E-02 0. -1.
        2   -1    0    0  501    0  0.00000000000E+00  0.00000000000E+00 -0.10312466763E+04  0.10312466763E+04  0.25500000920E-02 0.  1.
    10030    2    1    2    0    0  0.00000000000E+00  0.00000000000E+00 -0.62179146944E+03  0.14407018833E+04  0.12996142831E+04 0.  0.
        3    1    3    3  502    0  0.39758354128E+03 -0.14929395848E+03 -0.85610944398E+03  0.95565932664E+03  0.10100000352E+00 0.  1.
       -3    1    3    3    0  502 -0.39758354128E+03  0.14929395848E+03  0.23431797454E+03  0.48504255661E+03  0.10100000352E+00 0. -1.
</event>
<event>
 5   0  0.3551277E-05  0.1299824E+04  0.7818609E-02  0.9029705E-01
        1   -1    0    0  501    0  0.00000000000E+00  0.00000000000E+00  0.21058581793E+04  0.21058581793E+04  0.50400001928E-02 0.  1.
       -1   -1    0    0    0  501  0.00000000000E+00  0.00000000000E+00 -0.20057654407E+03  0.20057654414E+03  0.50400001928E-02 0. -1.
    10030    2    1    2    0    0  0.00000000000E+00  0.00000000000E+00  0.19052816352E+04  0.23064347234E+04  0.12998242281E+04 0.  0.
        4    1    3    3  502    0  0.37675421991E+03  0.43995350578E+03  0.14756625433E+04  0.15852710759E+04  0.12699999809E+01 0.  1.
       -4    1    3    3    0  502 -0.37675421991E+03 -0.43995350578E+03  0.42961909187E+03  0.72116364749E+03  0.12699999809E+01 0. -1.
</event>
<event>
 5   0  0.3718559E-05  0.1301879E+04  0.7818609E-02  0.9028076E-01
       -1   -1    0    0    0  501  0.00000000000E+00  0.00000000000E+00  0.31489202941E+03  0.31489202945E+03  0.50400001928E-02 0.  1.
        1   -1    0    0  501    0  0.00000000000E+00  0.00000000000E+00 -0.13456110256E+04  0.13456110256E+04  0.50400001928E-02 0. -1.
    10030    2    1    2    0    0  0.00000000000E+00  0.00000000000E+00 -0.10307189962E+04  0.16605030551E+04  0.13018789294E+04 0.  0.
        2    1    3    3  502    0  0.24869503993E+03 -0.59642637662E+03 -0.61537219070E+03  0.89233210113E+03  0.25500000920E-02 0. -1.
       -2    1    3    3    0  502 -0.24869503993E+03  0.59642637662E+03 -0.41534680549E+03  0.76817095392E+03  0.25500000920E-02 0.  1.
</event>
<event>
 5   0  0.3551277E-05  0.1299978E+04  0.7818609E-02  0.9029583E-01
       -1   -1    0    0    0  501  0.00000000000E+00  0.00000000000E+00  0.29386486693E+03  0.29386486697E+03  0.50400001928E-02 0.  1.
        1   -1    0    0  501    0  0.00000000000E+00  0.00000000000E+00 -0.14376872019E+04  0.14376872019E+04  0.50400001928E-02 0. -1.
    10030    2    1    2    0    0  0.00000000000E+00  0.00000000000E+00 -0.11438223350E+04  0.17315520689E+04  0.12999780895E+04 0.  0.
        4    1    3    3  502    0  0.34817140732E+02  0.39446233523E+03  0.11463841506E+03  0.41225762129E+03  0.12699999809E+01 0.  1.
       -4    1    3    3    0  502 -0.34817140732E+02 -0.39446233523E+03 -0.12584607500E+04  0.13192944476E+04  0.12699999809E+01 0. -1.
</event>
<event>
 5   0  0.6671239E-05  0.1299408E+04  0.7818609E-02  0.9030035E-01
        2   -1    0    0  501    0  0.00000000000E+00  0.00000000000E+00  0.89071812593E+03  0.89071812594E+03  0.25500000920E-02 0. -1.
       -2   -1    0    0    0  501  0.00000000000E+00  0.00000000000E+00 -0.47390448674E+03  0.47390448675E+03  0.25500000920E-02 0.  1.
    10030    2    1    2    0    0  0.00000000000E+00  0.00000000000E+00  0.41681363919E+03  0.13646226127E+04  0.12994080442E+04 0.  0.
        1    1    3    3  502    0  0.10401201882E+03  0.62272014369E+03  0.36945387582E+03  0.73150190963E+03  0.50400001928E-02 0. -1.
       -1    1    3    3    0  502 -0.10401201882E+03 -0.62272014369E+03  0.47359763379E+02  0.63312070305E+03  0.50400001928E-02 0.  1.
</event>
<event>
 5   0  0.3689707E-05  0.1300060E+04  0.7818609E-02  0.9029518E-01
        1   -1    0    0  501    0  0.00000000000E+00  0.00000000000E+00  0.18140894241E+04  0.18140894241E+04  0.50400001928E-02 0. -1.
       -1   -1    0    0    0  501  0.00000000000E+00  0.00000000000E+00 -0.23292068232E+03  0.23292068237E+03  0.50400001928E-02 0.  1.
    10030    2    1    2    0    0  0.00000000000E+00  0.00000000000E+00  0.15811687418E+04  0.20470101065E+04  0.13000599163E+04 0.  0.
        1    1    3    3  502    0  0.23846589224E+03  0.28580596097E+02 -0.16049646955E+03  0.28886320118E+03  0.50400001928E-02 0.  1.
       -1    1    3    3    0  502 -0.23846589224E+03 -0.28580596097E+02  0.17416652113E+04  0.17581469053E+04  0.50400001928E-02 0. -1.
</event>
<event>
 5   0  0.3718559E-05  0.1300550E+04  0.7818609E-02  0.9029129E-01
        1   -1    0    0  501    0  0.00000000000E+00  0.00000000000E+00  0.11493700789E+04  0.11493700789E+04  0.50400001928E-02 0.  1.
       -1   -1    0    0    0  501  0.00000000000E+00  0.00000000000E+00 -0.36790394632E+03  0.36790394635E+03  0.50400001928E-02 0. -1.
    10030    2    1    2    0    0  0.00000000000E+00  0.00000000000E+00  0.78146613253E+03  0.15172740252E+04  0.13005503263E+04 0.  0.
        2    1    3    3  502    0  0.54663430845E+02 -0.54730589052E+03 -0.13951393221E+02  0.55020584316E+03  0.25500000920E-02 0.  1.
       -2    1    3    3    0  502 -0.54663430845E+02  0.54730589052E+03  0.79541752576E+03  0.96706818206E+03  0.25500000920E-02 0. -1.
</event>
<event>
 5   0  0.6618060E-05  0.1299703E+04  0.7818609E-02  0.9029800E-01
       -2   -1    0    0    0  501  0.00000000000E+00  0.00000000000E+00  0.30377656594E+03  0.30377656595E+03  0.25500000920E-02 0. -1.
        2   -1    0    0  501    0  0.00000000000E+00  0.00000000000E+00 -0.13901904402E+04  0.13901904402E+04  0.25500000920E-02 0.  1.
    10030    2    1    2    0    0  0.00000000000E+00  0.00000000000E+00 -0.10864138743E+04  0.16939670062E+04  0.12997034707E+04 0.  0.
        2    1    3    3  502    0 -0.22977922906E+03  0.43912589713E+03  0.46295573817E+01  0.49563240456E+03  0.25500000920E-02 0. -1.
       -2    1    3    3    0  502  0.22977922906E+03 -0.43912589713E+03 -0.10910434317E+04  0.11983346016E+04  0.25500000920E-02 0.  1.
</event>
<event>
 5   0  0.6618060E-05  0.1300026E+04  0.7818609E-02  0.9029544E-01
        2   -1    0    0  501    0  0.00000000000E+00  0.00000000000E+00  0.11732809397E+04  0.11732809397E+04  0.25500000920E-02 0.  1.
       -2   -1    0    0    0  501  0.00000000000E+00  0.00000000000E+00 -0.36011581237E+03  0.36011581238E+03  0.25500000920E-02 0. -1.
    10030    2    1    2    0    0  0.00000000000E+00  0.00000000000E+00  0.81316512730E+03  0.15333967521E+04  0.13000261824E+04 0.  0.
        2    1    3    3  502    0 -0.13963025816E+03  0.19981639760E+03  0.11173243782E+04  0.11436069989E+04  0.25500000920E-02 0.  1.
       -2    1    3    3    0  502  0.13963025816E+03 -0.19981639760E+03 -0.30415925092E+03  0.38978975316E+03  0.25500000920E-02 0. -1.
</event>
<event>
 5   0  0.2512000E-05  0.1300871E+04  0.7818609E-02  0.9028875E-01
       -4   -1    0    0    0  501  0.00000000000E+00  0.00000000000E+00  0.11444891945E+04  0.11444898991E+04  0.12699999809E+01 0.  1.
        4   -1    0    0  501    0  0.00000000000E+00  0.00000000000E+00 -0.36965306324E+03  0.36965524487E+03  0.12699999809E+01 0. -1.
    10030    2    1    2    0    0  0.00000000000E+00  0.00000000000E+00  0.77483613123E+03  0.15141451440E+04  0.13008706649E+04 0.  0.
        2    1    3    3  502    0  0.16688891989E+03  0.15819830509E+03 -0.32076292742E+03  0.39467387921E+03  0.25500000920E-02 0. -1.
       -2    1    3    3    0  502 -0.16688891989E+03 -0.15819830509E+03  0.10955990586E+04  0.11194712648E+04  0.25500000920E-02 0.  1.
</event>
<event>
 5   0  0.6671239E-05  0.1300736E+04  0.7818609E-02  0.9028982E-01
        2   -1    0    0  501    0  0.00000000000E+00  0.00000000000E+00  0.10134888498E+04  0.10134888498E+04  0.25500000920E-02 0.  1.
       -2   -1    0    0    0  501  0.00000000000E+00  0.00000000000E+00 -0.41734896350E+03  0.41734896350E+03  0.25500000920E-02 0. -1.
    10030    2    1    2    0    0  0.00000000000E+00  0.00000000000E+00  0.59613988634E+03  0.14308378133E+04  0.13007359778E+04 0.  0.
        1    1    3    3  502    0 -0.15247502646E+03 -0.16081996086E+03  0.97067437169E+03  0.99565075673E+03  0.50400001928E-02 0.  1.
       -1    1    3    3    0  502  0.15247502646E+03  0.16081996086E+03 -0.37453448535E+03  0.43518705661E+03  0.50400001928E-02 0. -1.
</event>
<event>
 5   0  0.3631841E-05  0.1299844E+04  0.7818609E-02  0.9029689E-01
       -1   -1    0    0    0  501  0.00000000000E+00  0.00000000000E+00  0.24334808800E+03  0.24334808805E+03  0.50400001928E-02 0.  1.
        1   -1    0    0  501    0  0.00000000000E+00  0.00000000000E+00 -0.17357788565E+04  0.17357788565E+04  0.50400001928E-02 0. -1.
    10030    2    1    2    0    0  0.00000000000E+00  0.00000000000E+00 -0.14924307685E+04  0.19791269445E+04  0.12998437844E+04 0.  0.
        3    1    3    3  502    0  0.26089215098E+02  0.11689908994E+03 -0.17188292664E+04  0.17229974178E+04  0.10100000352E+00 0. -1.
       -3    1    3    3    0  502 -0.26089215098E+02 -0.11689908994E+03  0.22639849797E+03  0.25612952672E+03  0.10100000352E+00 0.  1.
</event>
<event>
 5   0  0.6742824E-05  0.1299358E+04  0.7818609E-02  0.9030074E-01
        2   -1    0    0  501    0  0.00000000000E+00  0.00000000000E+00  0.22415588169E+04  0.22415588169E+04  0.25500000920E-02 0.  1.
       -2   -1    0    0    0  501  0.00000000000E+00  0.00000000000E+00 -0.18829876759E+03  0.18829876761E+03  0.25500000920E-02 0. -1.
    10030    2    1    2    0    0  0.00000000000E+00  0.00000000000E+00  0.20532600493E+04  0.24298575845E+04  0.12993579379E+04 0.  0.
        4    1    3    3  502    0 -0.40031870619E+03  0.51156158904E+03  0.10480192755E+04  0.12330029768E+04  0.12699999809E+01 0. -1.
       -4    1    3    3    0  502  0.40031870619E+03 -0.51156158904E+03  0.10052407738E+04  0.11968546077E+04  0.12699999809E+01 0.  1.
</event>
<event>
 5   0  0.6688086E-05  0.1299726E+04  0.7818609E-02  0.9029783E-01
       -2   -1    0    0    0  501  0.00000000000E+00  0.00000000000E+00  0.37005238137E+03  0.37005238138E+03  0.25500000920E-02 0.  1.
        2   -1    0    0  501    0  0.00000000000E+00  0.00000000000E+00 -0.11412488218E+04  0.11412488218E+04  0.25500000920E-02 0. -1.
    10030    2    1    2    0    0  0.00000000000E+00  0.00000000000E+00 -0.77119644043E+03  0.15113012032E+04  0.12997258853E+04 0.  0.
        5    1    3    3  502    0 -0.29327597043E+03  0.54523312792E+03 -0.61525860984E+03  0.87284317354E+03  0.46999998093E+01 0. -1.
       -5    1    3    3    0  502  0.29327597043E+03 -0.54523312792E+03 -0.15593783059E+03  0.63845802965E+03  0.46999998093E+01 0.  1.
</event>
<event>
 5   0  0.6458698E-05  0.1301188E+04  0.7818609E-02  0.9028623E-01
        2   -1    0    0  501    0  0.00000000000E+00  0.00000000000E+00  0.20099968525E+04  0.20099968525E+04  0.25500000920E-02 0. -1.
       -2   -1    0    0    0  501  0.00000000000E+00  0.00000000000E+00 -0.21058379523E+03  0.21058379525E+03  0.25500000920E-02 0.  1.
    10030    2    1    2    0    0  0.00000000000E+00  0.00000000000E+00  0.17994130573E+04  0.22205806478E+04  0.13011883271E+04 0.  0.
        3    1    3    3  502    0  0.20429116983E+03 -0.19741496335E+02 -0.15388749441E+03  0.25652676251E+03  0.10100000352E+00 0.  1.
       -3    1    3    3    0  502 -0.20429116983E+03  0.19741496335E+02  0.19533005517E+04  0.19640538853E+04  0.10100000352E+00 0. -1.
</event>
<event>
 5   0  0.3689707E-05  0.1299552E+04  0.7818609E-02  0.9029920E-01
        1   -1    0    0  501    0  0.00000000000E+00  0.00000000000E+00  0.19178252258E+04  0.19178252258E+04  0.50400001928E-02 0. -1.
       -1   -1    0    0    0  501  0.00000000000E+00  0.00000000000E+00 -0.22014988158E+03  0.22014988164E+03  0.50400001928E-02 0.  1.
    10030    2    1    2    0    0  0.00000000000E+00  0.00000000000E+00  0.16976753442E+04  0.21379751074E+04  0.12995522251E+04 0.  0.
        1    1    3    3  502    0 -0.47039250971E+03 -0.35512548290E+03  0.12988604725E+04  0.14263315705E+04  0.50400001928E-02 0. -1.
       -1    1    3    3    0  502  0.47039250971E+03  0.35512548290E+03  0.39881487168E+03  0.71164353695E+03  0.50400001928E-02 0.  1.
</event>
<event>
 5   0  0.2512000E-05  0.1300360E+04  0.7818609E-02  0.9029280E-01
       -4   -1    0    0    0  501  0.00000000000E+00  0.00000000000E+00  0.41332933069E+03  0.41333128179E+03  0.12699999809E+01 0. -1.
        4   -1    0    0  501    0  0.00000000000E+00  0.00000000000E+00 -0.10227487691E+04  0.10227495576E+04  0.12699999809E+01 0.  1.
    10030    2    1    2    0    0  0.00000000000E+00  0.00000000000E+00 -0.60941943843E+03  0.14360808394E+04  0.13003599984E+04 0.  0.
        5    1    3    3  502    0 -0.20998706506E+02 -0.36768593670E+03 -0.89642839748E+03  0.96914387762E+03  0.46999998093E+01 0.  1.
       -5    1    3    3    0  502  0.20998706506E+02  0.36768593670E+03  0.28700895906E+03  0.46693696180E+03  0.46999998093E+01 0. -1.
</event>
<event>
 5   0  0.3718559E-05  0.1299957E+04  0.7818609E-02  0.9029599E-01
       -1   -1    0    0    0  501  0.00000000000E+00  0.00000000000E+00  0.49704299194E+03  0.49704299196E+03  0.50400001928E-02 0. -1.
        1   -1    0    0  501    0  0.00000000000E+00  0.00000000000E+00 -0.84997089541E+03  0.84997089542E+03  0.50400001928E-02 0.  1.
    10030    2    1    2    0    0  0.00000000000E+00  0.00000000000E+00 -0.35292790347E+03  0.13470138874E+04  0.12999570407E+04 0.  0.
        2    1    3    3  502    0  0.19833891201E+03 -0.61428244856E+03 -0.25531606593E+03  0.69416679851E+03  0.25500000920E-02 0.  1.
       -2    1    3    3    0  502 -0.19833891201E+03  0.61428244856E+03 -0.97611837535E+02  0.65284708887E+03  0.25500000920E-02 0. -1.
</event>
<event>
 5   0  0.6618060E-05  0.1299880E+04  0.7818609E-02  0.9029660E-01
        2   -1    0    0  501    0  0.00000000000E+00  0.00000000000E+00  0.14647781363E+04  0.14647781363E+04  0.25500000920E-02 0. -1.
       -2   -1    0    0    0  501  0.00000000000E+00  0.00000000000E+00 -0.28838649911E+03  0.28838649913E+03  0.25500000920E-02 0.  1.
    10030    2    1    2    0    0  0.00000000000E+00  0.00000000000E+00  0.11763916372E+04  0.17531646354E+04  0.12998803618E+04 0.  0.
        2    1    3    3  502    0  0.50498693962E+03  0.39476693307E+03  0.44312616363E+03  0.77923907598E+03  0.25500000920E-02 0. -1.
       -2    1    3    3    0  502 -0.50498693962E+03 -0.39476693307E+03  0.73326547356E+03  0.97392555945E+03  0.25500000920E-02 0.  1.
</event>
<event>
 5   0  0.6742824E-05  0.1299766E+04  0.7818609E-02  0.9029751E-01
       -2   -1    0    0    0  501  0.00000000000E+00  0.00000000000E+00  0.59535664549E+03  0.59535664549E+03  0.25500000920E-02 0.  1.
        2   -1    0    0  501    0  0.00000000000E+00  0.00000000000E+00 -0.70940271273E+03  0.70940271274E+03  0.25500000920E-02 0. -1.
    10030    2    1    2    0    0  0.00000000000E+00  0.00000000000E+00 -0.11404606724E+03  0.13047593582E+04  0.12997655471E+04 0.  0.
        4    1    3    3  502    0 -0.28544689793E+03  0.43945271936E+02 -0.64144097077E+03  0.70346233044E+03  0.12699999809E+01 0. -1.
       -4    1    3    3    0  502  0.28544689793E+03 -0.43945271936E+02  0.52739490353E+03  0.60129702779E+03  0.12699999809E+01 0.  1.
</event>
<event>
 5   0  0.6688086E-05  0.1300027E+04  0.7818609E-02  0.9029544E-01
       -2   -1    0    0    0  501  0.00000000000E+00  0.00000000000E+00  0.48731526756E+03  0.48731526757E+03  0.25500000920E-02 0. -1.
        2   -1    0    0  501    0  0.00000000000E+00  0.00000000000E+00 -0.86703077729E+03  0.86703077730E+03  0.25500000920E-02 0.  1.
    10030    2    1    2    0    0  0.00000000000E+00  0.00000000000E+00 -0.37971550973E+03  0.13543460449E+04  0.13000266693E+04 0.  0.
        5    1    3    3  502    0  0.26361868758E+03  0.55504209709E+02 -0.80611436176E+03  0.84995175391E+03  0.46999998093E+01 0.  1.
       -5    1    3    3    0  502 -0.26361868758E+03 -0.55504209709E+02  0.42639885203E+03  0.50439429096E+03  0.46999998093E+01 0. -1.
</event>
<event>
 5   0  0.3551277E-05  0.1300051E+04  0.7818609E-02  0.9029525E-01
        1   -1    0    0  501    0  0.00000000000E+00  0.00000000000E+00  0.11098205686E+04  0.11098205686E+04  0.50400001928E-02 0.  1.
       -1   -1    0    0    0  501  0.00000000000E+00  0.00000000000E+00 -0.38072203134E+03  0.38072203138E+03  0.50400001928E-02 0. -1.
    10030    2    1    2    0    0  0.00000000000E+00  0.00000000000E+00  0.72909853726E+03  0.14905426000E+04  0.13000509857E+04 0.  0.
        4    1    3    3  502    0  0.15397149501E+03  0.35347036746E+03 -0.23547187056E+03  0.45177111093E+03  0.12699999809E+01 0. -1.
       -4    1    3    3    0  502 -0.15397149501E+03 -0.35347036746E+03  0.96457040782E+03  0.10387714891E+04  0.12699999809E+01 0.  1.
</event>
<event>
 5   0  0.3551277E-05  0.1299798E+04  0.7818609E-02  0.9029725E-01
       -1   -1    0    0    0  501  0.00000000000E+00  0.00000000000E+00  0.26969933752E+03  0.26969933757E+03  0.50400001928E-02 0.  1.
        1   -1    0    0  501    0  0.00000000000E+00  0.00000000000E+00 -0.15660724807E+04  0.15660724807E+04  0.50400001928E-02 0. -1.
    10030    2    1    2    0    0  0.00000000000E+00  0.00000000000E+00 -0.12963731432E+04  0.18357718183E+04  0.12997980006E+04 0.  0.
        4    1    3    3  502    0  0.89394496296E+02  0.94331320158E+02  0.25115800420E+03  0.28279273312E+03  0.12699999809E+01 0.  1.
       -4    1    3    3    0  502 -0.89394496296E+02 -0.94331320158E+02 -0.15475311474E+04  0.15529790852E+04  0.12699999809E+01 0. -1.
</event>
<event>
 5   0  0.6618060E-05  0.1300311E+04  0.7818609E-02  0.9029319E-01
       -2   -1    0    0    0  501  0.00000000000E+00  0.00000000000E+00  0.16221720218E+04  0.16221720218E+04  0.25500000920E-02 0. -1.
        2   -1    0    0  501    0  0.00000000000E+00  0.00000000000E+00 -0.26057787161E+03  0.26057787162E+03  0.25500000920E-02 0.  1.
    10030    2    1    2    0    0  0.00000000000E+00  0.00000000000E+00  0.13615941502E+04  0.18827498934E+04  0.13003109364E+04 0.  0.
        2    1    3    3  502    0 -0.28316504677E+03  0.13547201846E+03 -0.14358745156E+03  0.34518468644E+03  0.25500000920E-02 0.  1.
       -2    1    3    3    0  502  0.28316504677E+03 -0.13547201846E+03  0.15051816017E+04  0.15375652070E+04  0.25500000920E-02 0. -1.
</event>
<event>
 5   0  0.6671239E-05  0.1299616E+04  0.7818609E-02  0.9029869E-01
        2   -1    0    0  501    0  0.00000000000E+00  0.00000000000E+00  0.87428526965E+03  0.87428526966E+03  0.25500000920E-02 0.  1.
       -2   -1    0    0    0  501  0.00000000000E+00  0.00000000000E+00 -0.48296665189E+03  0.48296665190E+03  0.25500000920E-02 0. -1.
    10030    2    1    2    0    0  0.00000000000E+00  0.00000000000E+00  0.39131861777E+03  0.13572519216E+04  0.12996162964E+04 0.  0.
        1    1    3    3  502    0  0.29775821292E+03 -0.44693504188E+03 -0.18640622875E+03  0.56847002310E+03  0.50400001928E-02 0. -1.
       -1    1    3    3    0  502 -0.29775821292E+03  0.44693504188E+03  0.57772484651E+03  0.78878189845E+03  0.50400001928E-02 0.  1.
</event>
<event>
 5   0  0.6671239E-05  0.1299822E+04  0.7818609E-02  0.9029706E-01
        2   -1    0    0  501    0  0.00000000000E+00  0.00000000000E+00  0.11597158139E+04  0.11597158139E+04  0.25500000920E-02 0.  1.
       -2   -1    0    0    0  501  0.00000000000E+00  0.00000000000E+00 -0.36421364326E+03  0.36421364327E+03  0.25500000920E-02 0. -1.
    10030    2    1    2    0    0  0.00000000000E+00  0.00000000000E+00  0.79550217063E+03  0.15239294572E+04  0.12998220213E+04 0.  0.
        1    1    3    3  502    0  0.61501855955E+02  0.59411973308E+03  0.69808954805E+03  0.91874357284E+03  0.50400001928E-02 0.  1.
       -1    1    3    3    0  502 -0.61501855955E+02 -0.59411973308E+03  0.97412622581E+02  0.60518588432E+03  0.50400001928E-02 0. -1.
</event>
<event>
 5   0  0.3718559E-05  0.1299868E+04  0.7818609E-02  0.9029670E-01
        1   -1    0    0  501    0  0.00000000000E+00  0.00000000000E+00  0.37441198038E+03  0.37441198042E+03  0.50400001928E-02 0.  1.
       -1   -1    0    0    0  501  0.00000000000E+00  0.00000000000E+00 -0.11282067983E+04  0.11282067983E+04  0.50400001928E-02 0. -1.
    10030    2    1    2    0    0  0.00000000000E+00  0.00000000000E+00 -0.75379481793E+03  0.15026187787E+04  0.12998679036E+04 0.  0.
        2    1    3    3  502    0 -0.29926946271E+03 -0.39351475860E+03  0.11080761854E+03  0.50665017999E+03  0.25500000920E-02 0.  1.
       -2    1    3    3    0  502  0.29926946271E+03  0.39351475860E+03 -0.86460243648E+03  0.99596859876E+03  0.25500000920E-02 0. -1.
</event>
<event>
 5   0  0.6688086E-05  0.1299637E+04  0.7818609E-02  0.9029853E-01
        2   -1    0    0  501    0  0.00000000000E+00  0.00000000000E+00  0.36238956285E+03  0.36238956286E+03  0.25500000920E-02 0.  1.
       -2   -1    0    0    0  501  0.00000000000E+00  0.00000000000E+00 -0.11652216527E+04  0.11652216527E+04  0.25500000920E-02 0. -1.
    10030    2    1    2    0    0  0.00000000000E+00  0.00000000000E+00 -0.80283208985E+03  0.15276112156E+04  0.12996371268E+04 0.  0.
        5    1    3    3  502    0  0.53589594552E+03 -0.18803862960E+03 -0.77255480674E+03  0.95885661601E+03  0.46999998093E+01 0. -1.
       -5    1    3    3    0  502 -0.53589594552E+03  0.18803862960E+03 -0.30277283114E+02  0.56875459956E+03  0.46999998093E+01 0.  1.
</event>
<event>
 5   0  0.3551277E-05  0.1299506E+04  0.7818609E-02  0.9029957E-01
       -1   -1    0    0    0  501  0.00000000000E+00  0.00000000000E+00  0.96507635816E+03  0.96507635817E+03  0.50400001928E-02 0.  1.
        1   -1    0    0  501    0  0.00000000000E+00  0.00000000000E+00 -0.43745660522E+03  0.43745660525E+03  0.50400001928E-02 0. -1.
    10030    2    1    2    0    0  0.00000000000E+00  0.00000000000E+00  0.52761975294E+03  0.14025329634E+04  0.12995061022E+04 0.  0.
        4    1    3    3  502    0  0.55547022522E+03 -0.31680104290E+03  0.13949396262E+03  0.65450000031E+03  0.12699999809E+01 0. -1.
       -4    1    3    3    0  502 -0.55547022522E+03  0.31680104290E+03  0.38812579032E+03  0.74803296311E+03  0.12699999809E+01 0.  1.
</event>
<event>
 5   0  0.3689707E-05  0.1300155E+04  0.7818609E-02  0.9029442E-01
        1   -1    0    0  501    0  0.00000000000E+00  0.00000000000E+00  0.70185844232E+03  0.70185844234E+03  0.50400001928E-02 0.  1.
       -1   -1    0    0    0  501  0.00000000000E+00  0.00000000000E+00 -0.60211664428E+03  0.60211664431E+03  0.50400001928E-02 0. -1.
    10030    2    1    2    0    0  0.00000000000E+00  0.00000000000E+00  0.99741798034E+02  0.13039750866E+04  0.13001548371E+04 0.  0.
        1    1    3    3  502    0 -0.62081888277E+03  0.80970450518E+02  0.22539470425E+03  0.66541345928E+03  0.50400001928E-02 0.  1.
       -1    1    3    3    0  502  0.62081888277E+03 -0.80970450518E+02 -0.12565290622E+03  0.63856162736E+03  0.50400001928E-02 0. -1.
</event>
<event>
 5   0  0.3689707E-05  0.1299938E+04  0.7818609E-02  0.9029615E-01
       -1   -1    0    0    0  501  0.00000000000E+00  0.00000000000E+00  0.10068056058E+04  0.10068056059E+04  0.50400001928E-02 0. -1.
        1   -1    0    0  501    0  0.00000000000E+00  0.00000000000E+00 -0.41960380445E+03  0.41960380448E+03  0.50400001928E-02 0.  1.
    10030    2    1    2    0    0  0.00000000000E+00  0.00000000000E+00  0.58720180140E+03  0.14264094103E+04  0.12999376332E+04 0.  0.
        1    1    3    3  502    0 -0.45971245586E+03  0.43049334401E+03  0.46984983188E+03  0.78576009434E+03  0.50400001928E-02 0. -1.
       -1    1    3    3    0  502  0.45971245586E+03 -0.43049334401E+03  0.11735196952E+03  0.64064931600E+03  0.50400001928E-02 0.  1.
</event>
<event>
 5   0  0.3718559E-05  0.1299924E+04  0.7818609E-02  0.9029625E-01
       -1   -1    0    0    0  501  0.00000000000E+00  0.00000000000E+00  0.12862731429E+04  0.12862731430E+04  0.50400001928E-02 0.  1.
        1   -1    0    0  501    0  0.00000000000E+00  0.00000000000E+00 -0.32843006619E+03  0.32843006622E+03  0.50400001928E-02 0. -1.
    10030    2    1    2    0    0  0.00000000000E+00  0.00000000000E+00  0.95784307676E+03  0.16147032092E+04  0.12999242647E+04 0.  0.
        2    1    3    3  502    0 -0.24230048824E+03  0.16543876577E+03 -0.24149570635E+03  0.37999958948E+03  0.25500000920E-02 0. -1.
       -2    1    3    3    0  502  0.24230048824E+03 -0.16543876577E+03  0.11993387831E+04  0.12347036197E+04  0.25500000920E-02 0.  1.
</event>
<event>
 5   0  0.3689707E-05  0.1299096E+04  0.7818609E-02  0.9030282E-01
       -1   -1    0    0    0  501  0.00000000000E+00  0.00000000000E+00  0.12126777302E+04  0.12126777302E+04  0.50400001928E-02 0. -1.
        1   -1    0    0  501    0  0.00000000000E+00  0.00000000000E+00 -0.34791811449E+03  0.34791811452E+03  0.50400001928E-02 0.  1.
    10030    2    1    2    0    0  0.00000000000E+00  0.00000000000E+00  0.86475961574E+03  0.15605958448E+04  0.12990959155E+04 0.  0.
        1    1    3    3  502    0 -0.16273072175E+03  0.16791855124E+03 -0.29560285758E+03  0.37690711998E+03  0.50400001928E-02 0.  1.
       -1    1    3    3    0  502  0.16273072175E+03 -0.16791855124E+03  0.11603624733E+04  0.11836887248E+04  0.50400001928E-02 0. -1.
</event>
<event>
 5   0  0.6458698E-05  0.1299381E+04  0.7818609E-02  0.9030056E-01
       -2   -1    0    0    0  501  0.00000000000E+00  0.00000000000E+00  0.55633095110E+03  0.55633095111E+03  0.25500000920E-02 0.  1.
        2   -1    0    0  501    0  0.00000000000E+00  0.00000000000E+00 -0.75871747131E+03  0.75871747132E+03  0.25500000920E-02 0. -1.
    10030    2    1    2    0    0  0.00000000000E+00  0.00000000000E+00 -0.20238652021E+03  0.13150484224E+04  0.12993814104E+04 0.  0.
        3    1    3    3  502    0  0.29988506100E+03  0.92835043727E+02 -0.67686493694E+03  0.74612033092E+03  0.10100000352E+00 0. -1.
       -3    1    3    3    0  502 -0.29988506100E+03 -0.92835043727E+02  0.47447841673E+03  0.56892809150E+03  0.10100000352E+00 0.  1.
</event>
<event>
 5   0  0.3631841E-05  0.1300534E+04  0.7818609E-02  0.9029142E-01
       -1   -1    0    0    0  501  0.00000000000E+00  0.00000000000E+00  0.52053310341E+03  0.52053310344E+03  0.50400001928E-02 0.  1.
        1   -1    0    0  501    0  0.00000000000E+00  0.00000000000E+00 -0.81233451833E+03  0.81233451834E+03  0.50400001928E-02 0. -1.
    10030    2    1    2    0    0  0.00000000000E+00  0.00000000000E+00 -0.29180141491E+03  0.13328676218E+04  0.13005337487E+04 0.  0.
        3    1    3    3  502    0  0.35113639763E+03  0.48101204294E+03 -0.41350087522E+03  0.72501885438E+03  0.10100000352E+00 0. -1.
       -3    1    3    3    0  502 -0.35113639763E+03 -0.48101204294E+03  0.12169946031E+03  0.60784876740E+03  0.10100000352E+00 0.  1.
</event>
<event>
 5   0  0.6742824E-05  0.1299933E+04  0.7818609E-02  0.9029619E-01
       -2   -1    0    0    0  501  0.00000000000E+00  0.00000000000E+00  0.11483900966E+04  0.11483900966E+04  0.25500000920E-02 0. -1.
        2   -1    0    0  501    0  0.00000000000E+00  0.00000000000E+00 -0.36786823379E+03  0.36786823380E+03  0.25500000920E-02 0.  1.
    10030    2    1    2    0    0  0.00000000000E+00  0.00000000000E+00  0.78052186282E+03  0.15162583304E+04  0.12999326699E+04 0.  0.
        4    1    3    3  502    0 -0.30178564946E+03 -0.49602281942E+03  0.49513772571E+02  0.58272329813E+03  0.12699999809E+01 0.  1.
       -4    1    3    3    0  502  0.30178564946E+03  0.49602281942E+03  0.73100809024E+03  0.93353503229E+03  0.12699999809E+01 0. -1.
</event>
<event>
 5   0  0.6458698E-05  0.1299476E+04  0.7818609E-02  0.9029980E-01
        2   -1    0    0  501    0  0.00000000000E+00  0.00000000000E+00  0.17191563629E+04  0.17191563629E+04  0.25500000920E-02 0.  1.
       -2   -1    0    0    0  501  0.00000000000E+00  0.00000000000E+00 -0.24556217390E+03  0.24556217391E+03  0.25500000920E-02 0. -1.
    10030    2    1    2    0    0  0.00000000000E+00  0.00000000000E+00  0.14735941890E+04  0.19647185368E+04  0.12994764696E+04 0.  0.
        3    1    3    3  502    0 -0.23304804286E+03  0.41357513584E+03  0.66065349345E+02  0.47929158542E+03  0.10100000352E+00 0. -1.
       -3    1    3    3    0  502  0.23304804286E+03 -0.41357513584E+03  0.14075288397E+04  0.14854269514E+04  0.10100000352E+00 0.  1.
</event>
<event>
 5   0  0.6618060E-05  0.1300083E+04  0.7818609E-02  0.9029500E-01
       -2   -1    0    0    0  501  0.00000000000E+00  0.00000000000E+00  0.44661082588E+03  0.44661082588E+03  0.25500000920E-02 0.  1.
        2   -1    0    0  501    0  0.00000000000E+00  0.00000000000E+00 -0.94613415399E+03  0.94613415399E+03  0.25500000920E-02 0. -1.
    10030    2    1    2    0    0  0.00000000000E+00  0.00000000000E+00 -0.49952332811E+03  0.13927449799E+04  0.13000826988E+04 0.  0.
        2    1    3    3  502    0 -0.26313397089E+03  0.49662445048E+03 -0.59965761708E+03  0.82186652759E+03  0.25500000920E-02 0. -1.
       -2    1    3    3    0  502  0.26313397089E+03 -0.49662445048E+03  0.10013428896E+03  0.57087845229E+03  0.25500000920E-02 0.  1.
</event>
<event>
 5   0  0.3552698E-05  0.1305069E+04  0.7818609E-02  0.9025555E-01
       -1   -1    0    0    0  501  0.00000000000E+00  0.00000000000E+00  0.44687821369E+03  0.44687821371E+03  0.50400001928E-02 0. -1.
        1   -1    0    0  501    0  0.00000000000E+00  0.00000000000E+00 -0.95283550192E+03  0.95283550194E+03  0.50400001928E-02 0.  1.
    10030    2    1    2    0    0  0.00000000000E+00  0.00000000000E+00 -0.50595728824E+03  0.13997137157E+04  0.13050692350E+04 0.  0.
        5    1    3    3  502    0  0.51802419204E+03 -0.31564253419E+03 -0.51083024165E+03  0.79306298533E+03  0.46999998093E+01 0.  1.
       -5    1    3    3    0  502 -0.51802419204E+03  0.31564253419E+03  0.48729534103E+01  0.60665073032E+03  0.46999998093E+01 0. -1.
</event>
<event>
 5   0  0.3689707E-05  0.1300961E+04  0.7818609E-02  0.9028803E-01
        1   -1    0    0  501    0  0.00000000000E+00  0.00000000000E+00  0.45775267914E+03  0.45775267916E+03  0.50400001928E-02 0. -1.
       -1   -1    0    0    0  501  0.00000000000E+00  0.00000000000E+00 -0.92435328456E+03  0.92435328458E+03  0.50400001928E-02 0.  1.
    10030    2    1    2    0    0  0.00000000000E+00  0.00000000000E+00 -0.46660060543E+03  0.13821059637E+04  0.13009614791E+04 0.  0.
        1    1    3    3  502    0 -0.20835533460E+03  0.86346027222E+02  0.41488427882E+03  0.47222510173E+03  0.50400001928E-02 0. -1.
       -1    1    3    3    0  502  0.20835533460E+03 -0.86346027222E+02 -0.88148488424E+03  0.90988086201E+03  0.50400001928E-02 0.  1.
</event>
<event>
 5   0  0.6671239E-05  0.1300350E+04  0.7818609E-02  0.9029288E-01
       -2   -1    0    0    0  501  0.00000000000E+00  0.00000000000E+00  0.26501048367E+03  0.26501048368E+03  0.25500000920E-02 0.  1.
        2   -1    0    0  501    0  0.00000000000E+00  0.00000000000E+00 -0.15951344794E+04  0.15951344794E+04  0.25500000920E-02 0. -1.
    10030    2    1    2    0    0  0.00000000000E+00  0.00000000000E+00 -0.13301239957E+04  0.18601449631E+04  0.13003497374E+04 0.  0.
        1    1    3    3  502    0 -0.39727698170E+03 -0.38688950219E+03 -0.11506197460E+04  0.12772776859E+04  0.50400001928E-02 0. -1.
       -1    1    3    3    0  502  0.39727698170E+03  0.38688950219E+03 -0.17950424976E+03  0.58286727717E+03  0.50400001928E-02 0.  1.
</event>
<event>
 5   0  0.6742824E-05  0.1300334E+04  0.7818609E-02  0.9029300E-01
       -2   -1    0    0    0  501  0.00000000000E+00  0.00000000000E+00  0.21569439657E+03  0.21569439659E+03  0.25500000920E-02 0.  1.
        2   -1    0    0  501    0  0.00000000000E+00  0.00000000000E+00 -0.19597972186E+04  0.19597972186E+04  0.25500000920E-02 0. -1.
    10030    2    1    2    0    0  0.00000000000E+00  0.00000000000E+00 -0.17441028220E+04  0.21754916152E+04  0.13003342316E+04 0.  0.
        4    1    3    3  502    0  0.22857802242E+03 -0.89656617742E+02  0.13514496541E+03  0.28027129002E+03  0.12699999809E+01 0.  1.
       -4    1    3    3    0  502 -0.22857802242E+03  0.89656617742E+02 -0.18792477874E+04  0.18952203252E+04  0.12699999809E+01 0. -1.
</event>
<event>
 5   0  0.6688086E-05  0.1299818E+04  0.7818609E-02  0.9029710E-01
       -2   -1    0    0    0  501  0.00000000000E+00  0.00000000000E+00  0.58681628924E+03  0.58681628925E+03  0.25500000920E-02 0.  1.
        2   -1    0    0  501    0  0.00000000000E+00  0.00000000000E+00 -0.71978512742E+03  0.71978512743E+03  0.25500000920E-02 0. -1.
    10030    2    1    2    0    0  0.00000000000E+00  0.00000000000E+00 -0.13296883818E+03  0.13066014167E+04  0.12998178911E+04 0.  0.
        5    1    3    3  502    0 -0.10299202985E+03  0.26744263599E+03  0.51984915532E+03  0.59363133007E+03  0.46999998093E+01 0.  1.
       -5    1    3    3    0  502  0.10299202985E+03 -0.26744263599E+03 -0.65281799350E+03  0.71297008660E+03  0.46999998093E+01 0. -1.
</event>
<event>
 5   0  0.6458698E-05  0.1300588E+04  0.7818609E-02  0.9029099E-01
        2   -1    0    0  501    0  0.00000000000E+00  0.00000000000E+00  0.20230172033E+04  0.20230172033E+04  0.25500000920E-02 0. -1.
       -2   -1    0    0    0  501  0.00000000000E+00  0.00000000000E+00 -0.20903539664E+03  0.20903539665E+03  0.25500000920E-02 0.  1.
    10030    2    1    2    0    0  0.00000000000E+00  0.00000000000E+00  0.18139818067E+04  0.22320526000E+04  0.13005878725E+04 0.  0.
        3    1    3    3  502    0 -0.24472353798E+03  0.27073383233E+03  0.18307012446E+04  0.18667226562E+04  0.10100000352E+00 0. -1.
       -3    1    3    3    0  502  0.24472353798E+03 -0.27073383233E+03 -0.16719437918E+02  0.36532994377E+03  0.10100000352E+00 0.  1.
</event>
<event>
 5   0  0.6742824E-05  0.1298254E+04  0.7818609E-02  0.9030951E-01
       -2   -1    0    0    0  501  0.00000000000E+00  0.00000000000E+00  0.39648796046E+03  0.39648796047E+03  0.25500000920E-02 0. -1.
        2   -1    0    0  501    0  0.00000000000E+00  0.00000000000E+00 -0.10627463252E+04  0.10627463252E+04  0.25500000920E-02 0.  1.
    10030    2    1    2    0    0  0.00000000000E+00  0.00000000000E+00 -0.66625836469E+03  0.14592342856E+04  0.12982544018E+04 0.  0.
        4    1    3    3  502    0 -0.27257718852E+03  0.57412208011E+03 -0.18465079933E+03  0.66182476318E+03  0.12699999809E+01 0. -1.
       -4    1    3    3    0  502  0.27257718852E+03 -0.57412208011E+03 -0.48160756537E+03  0.79740952245E+03  0.12699999809E+01 0.  1.
</event>
<event>
 5   0  0.3552698E-05  0.1299544E+04  0.7818609E-02  0.9029927E-01
       -1   -1    0    0    0  501  0.00000000000E+00  0.00000000000E+00  0.35215588276E+03  0.35215588279E+03  0.50400001928E-02 0. -1.
        1   -1    0    0  501    0  0.00000000000E+00  0.00000000000E+00 -0.11989116274E+04  0.11989116274E+04  0.50400001928E-02 0.  1.
    10030    2    1    2    0    0  0.00000000000E+00  0.00000000000E+00 -0.84675574465E+03  0.15510675102E+04  0.12995442009E+04 0.  0.
        5    1    3    3  502    0 -0.10115853793E+03 -0.63520246528E+03 -0.53320025296E+03  0.83548777457E+03  0.46999998093E+01 0. -1.
       -5    1    3    3    0  502  0.10115853793E+03  0.63520246528E+03 -0.31355549169E+03  0.71557973564E+03  0.46999998093E+01 0.  1.
</event>
<event>
 5   0  0.3718559E-05  0.1300132E+04  0.7818609E-02  0.9029460E-01
        1   -1    0    0  501    0  0.00000000000E+00  0.00000000000E+00  0.66333583888E+03  0.66333583890E+03  0.50400001928E-02 0.  1.
       -1   -1    0    0    0  501  0.00000000000E+00  0.00000000000E+00 -0.63706186858E+03  0.63706186860E+03  0.50400001928E-02 0. -1.
    10030    2    1    2    0    0  0.00000000000E+00  0.00000000000E+00  0.26273970302E+02  0.13003977075E+04  0.13001322533E+04 0.  0.
        2    1    3    3  502    0  0.54121396017E+03  0.32834988390E+02 -0.34553807540E+03  0.64295198009E+03  0.25500000920E-02 0. -1.
       -2    1    3    3    0  502 -0.54121396017E+03 -0.32834988390E+02  0.37181204570E+03  0.65744572741E+03  0.25500000920E-02 0.  1.
</event>
<event>
 5   0  0.2512000E-05  0.1300025E+04  0.7818609E-02  0.9029545E-01
       -3   -1    0    0    0  501  0.00000000000E+00  0.00000000000E+00  0.36774572545E+03  0.36774573932E+03  0.10100000352E+00 0. -1.
        3   -1    0    0  501    0  0.00000000000E+00  0.00000000000E+00 -0.11489359676E+04  0.11489359721E+04  0.10100000352E+00 0.  1.
    10030    2    1    2    0    0  0.00000000000E+00  0.00000000000E+00 -0.78119024217E+03  0.15166817114E+04  0.13000250840E+04 0.  0.
        5    1    3    3  502    0  0.57968566896E+03 -0.12959481443E+03 -0.82668891131E+02  0.59973871501E+03  0.46999998093E+01 0. -1.
       -5    1    3    3    0  502 -0.57968566896E+03  0.12959481443E+03 -0.69852135104E+03  0.91694299637E+03  0.46999998093E+01 0.  1.
</event>
<event>
 5   0  0.6742824E-05  0.1299871E+04  0.7818609E-02  0.9029667E-01
       -2   -1    0    0    0  501  0.00000000000E+00  0.00000000000E+00  0.34958224203E+03  0.34958224204E+03  0.25500000920E-02 0. -1.
        2   -1    0    0  501    0  0.00000000000E+00  0.00000000000E+00 -0.12083461094E+04  0.12083461094E+04  0.25500000920E-02 0.  1.
    10030    2    1    2    0    0  0.00000000000E+00  0.00000000000E+00 -0.85876386741E+03  0.15579283515E+04  0.12998712892E+04 0.  0.
        4    1    3    3  502    0 -0.26510394012E+03 -0.13951359326E+03  0.26189860711E+03  0.39791536170E+03  0.12699999809E+01 0. -1.
       -4    1    3    3    0  502  0.26510394012E+03  0.13951359326E+03 -0.11206624745E+04  0.11600129898E+04  0.12699999809E+01 0.  1.
</event>
<event>
 5   0  0.6458698E-05  0.1300346E+04  0.7818609E-02  0.9029291E-01
       -2   -1    0    0    0  501  0.00000000000E+00  0.00000000000E+00  0.28438592113E+03  0.28438592114E+03  0.25500000920E-02 0. -1.
        2   -1    0    0  501    0  0.00000000000E+00  0.00000000000E+00 -0.14864490275E+04  0.14864490275E+04  0.25500000920E-02 0.  1.
    10030    2    1    2    0    0  0.00000000000E+00  0.00000000000E+00 -0.12020631064E+04  0.17708349487E+04  0.13003463784E+04 0.  0.
        3    1    3    3  502    0 -0.53694769949E+03 -0.53025270003E+02 -0.10700754310E+03  0.55006830096E+03  0.10100000352E+00 0. -1.
       -3    1    3    3    0  502  0.53694769949E+03  0.53025270003E+02 -0.10950555633E+04  0.12207666477E+04  0.10100000352E+00 0.  1.
</event>
<event>
 5   0  0.3552698E-05  0.1303922E+04  0.7818609E-02  0.9026461E-01
       -1   -1    0    0    0  501  0.00000000000E+00  0.00000000000E+00  0.52171626753E+03  0.52171626756E+03  0.50400001928E-02 0.  1.
        1   -1    0    0  501    0  0.00000000000E+00  0.00000000000E+00 -0.81472101635E+03  0.81472101636E+03  0.50400001928E-02 0. -1.
    10030    2    1    2    0    0  0.00000000000E+00  0.00000000000E+00 -0.29300474881E+03  0.13364372839E+04  0.13039220955E+04 0.  0.
        5    1    3    3  502    0  0.17921295253E+02 -0.45292484060E+03  0.33376433496E+03  0.56292344537E+03  0.46999998093E+01 0.  1.
       -5    1    3    3    0  502 -0.17921295253E+02  0.45292484060E+03 -0.62676908378E+03  0.77351383855E+03  0.46999998093E+01 0. -1.
</event>
<event>
 5   0  0.6618060E-05  0.1299886E+04  0.7818609E-02  0.9029656E-01
        2   -1    0    0  501    0  0.00000000000E+00  0.00000000000E+00  0.22974035933E+04  0.22974035933E+04  0.25500000920E-02 0. -1.
       -2   -1    0    0    0  501  0.00000000000E+00  0.00000000000E+00 -0.18387094139E+03  0.18387094141E+03  0.25500000920E-02 0.  1.
    10030    2    1    2    0    0  0.00000000000E+00  0.00000000000E+00  0.21135326519E+04  0.24812745347E+04  0.12998857819E+04 0.  0.
        2    1    3    3  502    0  0.63304464517E+03 -0.11322688775E+03  0.12364399362E+04  0.13936820178E+04  0.25500000920E-02 0.  1.
       -2    1    3    3    0  502 -0.63304464517E+03  0.11322688775E+03  0.87709271571E+03  0.10875925169E+04  0.25500000920E-02 0. -1.
</event>
<event>
 5   0  0.6742824E-05  0.1299699E+04  0.7818609E-02  0.9029804E-01
       -2   -1    0    0    0  501  0.00000000000E+00  0.00000000000E+00  0.38034476589E+03  0.38034476590E+03  0.25500000920E-02 0. -1.
        2   -1    0    0  501    0  0.00000000000E+00  0.00000000000E+00 -0.11103195955E+04  0.11103195955E+04  0.25500000920E-02 0.  1.
    10030    2    1    2    0    0  0.00000000000E+00  0.00000000000E+00 -0.72997482959E+03  0.14906643614E+04  0.12996988061E+04 0.  0.
        4    1    3    3  502    0  0.20646357824E+03  0.22279210244E+03  0.29391310179E+03  0.42267014840E+03  0.12699999809E+01 0. -1.
       -4    1    3    3    0  502 -0.20646357824E+03 -0.22279210244E+03 -0.10238879314E+04  0.10679942130E+04  0.12699999809E+01 0.  1.
</event>
<event>
 5   0  0.3689707E-05  0.1300407E+04  0.7818609E-02  0.9029242E-01
        1   -1    0    0  501    0  0.00000000000E+00  0.00000000000E+00  0.37118210538E+03  0.37118210542E+03  0.50400001928E-02 0. -1.
       -1   -1    0    0    0  501  0.00000000000E+00  0.00000000000E+00 -0.11389688394E+04  0.11389688395E+04  0.50400001928E-02 0.  1.
    10030    2    1    2    0    0  0.00000000000E+00  0.00000000000E+00 -0.76778673407E+03  0.15101509449E+04  0.13004074005E+04 0.  0.
        1    1    3    3  502    0  0.38184006296E+03  0.51792573921E+03 -0.27547616099E+03  0.69995429874E+03  0.50400001928E-02 0. -1.
       -1    1    3    3    0  502 -0.38184006296E+03 -0.51792573921E+03 -0.49231057308E+03  0.81019664614E+03  0.50400001928E-02 0.  1.
</event>
<event>
 5   0  0.6618060E-05  0.1300214E+04  0.7818609E-02  0.9029396E-01
        2   -1    0    0  501    0  0.00000000000E+00  0.00000000000E+00  0.96670516138E+03  0.96670516139E+03  0.25500000920E-02 0.  1.
       -2   -1    0    0    0  501  0.00000000000E+00  0.00000000000E+00 -0.43719520014E+03  0.43719520015E+03  0.25500000920E-02 0. -1.
    10030    2    1    2    0    0  0.00000000000E+00  0.00000000000E+00  0.52950996124E+03  0.14039003615E+04  0.13002136079E+04 0.  0.
        2    1    3    3  502    0 -0.40241449287E+03 -0.50848709703E+03  0.31473106061E+03  0.72079968954E+03  0.25500000920E-02 0. -1.
       -2    1    3    3    0  502  0.40241449287E+03  0.50848709703E+03  0.21477890063E+03  0.68310067200E+03  0.25500000920E-02 0.  1.
</event>
<event>
 5   0  0.3552698E-05  0.1300548E+04  0.7818609E-02  0.9029131E-01
       -1   -1    0    0    0  501  0.00000000000E+00  0.00000000000E+00  0.28212952201E+03  0.28212952205E+03  0.50400001928E-02 0.  1.
        1   -1    0    0  501    0  0.00000000000E+00  0.00000000000E+00 -0.14988010793E+04  0.14988010793E+04  0.50400001928E-02 0. -1.
    10030    2    1    2    0    0  0.00000000000E+00  0.00000000000E+00 -0.12166715573E+04  0.17809306013E+04  0.13005476264E+04 0.  0.
        5    1    3    3  502    0  0.25680228200E+03 -0.58811930510E+02  0.20575159650E+03  0.33430833773E+03  0.46999998093E+01 0.  1.
       -5    1    3    3    0  502 -0.25680228200E+03  0.58811930510E+02 -0.14224231538E+04  0.14466222636E+04  0.46999998093E+01 0. -1.
</event>
<event>
 5   0  0.2512000E-05  0.1299845E+04  0.7818609E-02  0.9029688E-01
        3   -1    0    0  501    0  0.00000000000E+00  0.00000000000E+00  0.23908988972E+03  0.23908991105E+03  0.10100000352E+00 0.  1.
       -3   -1    0    0    0  501  0.00000000000E+00  0.00000000000E+00 -0.17666973025E+04  0.17666973054E+04  0.10100000352E+00 0. -1.
    10030    2    1    2    0    0  0.00000000000E+00  0.00000000000E+00 -0.15276074128E+04  0.20057872165E+04  0.12998453562E+04 0.  0.
        1    1    3    3  502    0  0.33648123738E+03  0.51854748877E+03 -0.10735335124E+04  0.12387838082E+04  0.50400001928E-02 0. -1.
       -1    1    3    3    0  502 -0.33648123738E+03 -0.51854748877E+03 -0.45407390039E+03  0.76700340824E+03  0.50400001928E-02 0.  1.
</event>
<event>
 5   0  0.3689707E-05  0.1300150E+04  0.7818609E-02  0.9029446E-01
       -1   -1    0    0    0  501  0.00000000000E+00  0.00000000000E+00  0.89623019937E+03  0.89623019939E+03  0.50400001928E-02 0.  1.
        1   -1    0    0  501    0  0.00000000000E+00  0.00000000000E+00 -0.47152809017E+03  0.47152809020E+03  0.50400001928E-02 0. -1.
    10030    2    1    2    0    0  0.00000000000E+00  0.00000000000E+00  0.42470210920E+03  0.13677582896E+04  0.13001503210E+04 0.  0.
        1    1    3    3  502    0  0.58414927485E+03  0.23876524136E+03  0.48163193623E+02  0.63289723418E+03  0.50400001928E-02 0. -1.
       -1    1    3    3    0  502 -0.58414927485E+03 -0.23876524136E+03  0.37653891557E+03  0.73486105541E+03  0.50400001928E-02 0.  1.
</event>
<event>
 5   0  0.6688086E-05  0.1300305E+04  0.7818609E-02  0.9029323E-01
        2   -1    0    0  501    0  0.00000000000E+00  0.00000000000E+00  0.40233803547E+03  0.40233803547E+03  0.25500000920E-02 0. -1.
       -2   -1    0    0    0  501  0.00000000000E+00  0.00000000000E+00 -0.10506047368E+04  0.10506047368E+04  0.25500000920E-02 0.  1.
    10030    2    1    2    0    0  0.00000000000E+00  0.00000000000E+00 -0.64826670131E+03  0.14529427723E+04  0.13003049579E+04 0.  0.
        5    1    3    3  502    0  0.44263463419E+03  0.38292810380E+03 -0.78581805567E+01  0.58535732084E+03  0.46999998093E+01 0. -1.
       -5    1    3    3    0  502 -0.44263463419E+03 -0.38292810380E+03 -0.64040852075E+03  0.86758545142E+03  0.46999998093E+01 0.  1.
</event>
<event>
 5   0  0.3552698E-05  0.1303514E+04  0.7818609E-02  0.9026783E-01
        1   -1    0    0  501    0  0.00000000000E+00  0.00000000000E+00  0.10159543953E+04  0.10159543953E+04  0.50400001928E-02 0.  1.
       -1   -1    0    0    0  501  0.00000000000E+00  0.00000000000E+00 -0.41811637847E+03  0.41811637850E+03  0.50400001928E-02 0. -1.
    10030    2    1    2    0    0  0.00000000000E+00  0.00000000000E+00  0.59783801682E+03  0.14340707738E+04  0.13035139776E+04 0.  0.
        5    1    3    3  502    0 -0.78243365655E+02 -0.21926466372E+03 -0.37079242864E+03  0.43784487226E+03  0.46999998093E+01 0. -1.
       -5    1    3    3    0  502  0.78243365655E+02  0.21926466372E+03  0.96863044546E+03  0.99622590154E+03  0.46999998093E+01 0.  1.
</event>
<event>
 5   0  0.6458698E-05  0.1297474E+04  0.7818609E-02  0.9031570E-01
       -2   -1    0    0    0  501  0.00000000000E+00  0.00000000000E+00  0.57489480348E+03  0.57489480348E+03  0.25500000920E-02 0. -1.
        2   -1    0    0  501    0  0.00000000000E+00  0.00000000000E+00 -0.73206430130E+03  0.73206430130E+03  0.25500000920E-02 0.  1.
    10030    2    1    2    0    0  0.00000000000E+00  0.00000000000E+00 -0.15716949782E+03  0.13069591048E+04  0.12974744123E+04 0.  0.
        3    1    3    3  502    0  0.15366602176E+03 -0.58587969380E+03 -0.31264445745E+03  0.68162660513E+03  0.10100000352E+00 0.  1.
       -3    1    3    3    0  502 -0.15366602176E+03  0.58587969380E+03  0.15547495962E+03  0.62533249966E+03  0.10100000352E+00 0. -1.
</event>
<event>
 5   0  0.3689707E-05  0.1299834E+04  0.7818609E-02  0.9029696E-01
        1   -1    0    0  501    0  0.00000000000E+00  0.00000000000E+00  0.29406711985E+04  0.29406711985E+04  0.50400001928E-02 0. -1.
       -1   -1    0    0    0  501  0.00000000000E+00  0.00000000000E+00 -0.14363809388E+03  0.14363809397E+03  0.50400001928E-02 0.  1.
    10030    2    1    2    0    0  0.00000000000E+00  0.00000000000E+00  0.27970331046E+04  0.30843092925E+04  0.12998344600E+04 0.  0.
        1    1    3    3  502    0  0.27677191373E+03 -0.15558694034E+03  0.27441166929E+04  0.27624240103E+04  0.50400001928E-02 0. -1.
       -1    1    3    3    0  502 -0.27677191373E+03  0.15558694034E+03  0.52916411699E+02  0.32188528219E+03  0.50400001928E-02 0.  1.
</event>
<event>
 5   0  0.3631841E-05  0.1298755E+04  0.7818609E-02  0.9030553E-01
       -1   -1    0    0    0  501  0.00000000000E+00  0.00000000000E+00  0.43382712958E+03  0.43382712961E+03  0.50400001928E-02 0. -1.
        1   -1    0    0  501    0  0.00000000000E+00  0.00000000000E+00 -0.97202517814E+03  0.97202517815E+03  0.50400001928E-02 0.  1.
    10030    2    1    2    0    0  0.00000000000E+00  0.00000000000E+00 -0.53819804856E+03  0.14058523078E+04  0.12987546234E+04 0.  0.
        3    1    3    3  502    0 -0.67046854504E+02  0.50807040289E+02  0.42790406343E+03  0.43609463852E+03  0.10100000352E+00 0. -1.
       -3    1    3    3    0  502  0.67046854504E+02 -0.50807040289E+02 -0.96610211200E+03  0.96975766924E+03  0.10100000352E+00 0.  1.
</event>
<event>
 5   0  0.6458698E-05  0.1300674E+04  0.7818609E-02  0.9029031E-01
        2   -1    0    0  501    0  0.00000000000E+00  0.00000000000E+00  0.80685350506E+03  0.80685350507E+03  0.25500000920E-02 0. -1.
       -2   -1    0    0    0  501  0.00000000000E+00  0.00000000000E+00 -0.52418250421E+03  0.52418250422E+03  0.25500000920E-02 0.  1.
    10030    2    1    2    0    0  0.00000000000E+00  0.00000000000E+00  0.28267100085E+03  0.13310360093E+04  0.13006744263E+04 0.  0.
        3    1    3    3  502    0 -0.36385935329E+03 -0.56050246056E+02 -0.40727866811E+03  0.54900927384E+03  0.10100000352E+00 0.  1.
       -3    1    3    3    0  502  0.36385935329E+03  0.56050246056E+02  0.68994966896E+03  0.78202673545E+03  0.10100000352E+00 0. -1.
</event>
<event>
 5   0  0.6688086E-05  0.1298210E+04  0.7818609E-02  0.9030986E-01
        2   -1    0    0  501    0  0.00000000000E+00  0.00000000000E+00  0.83026346307E+03  0.83026346307E+03  0.25500000920E-02 0. -1.
       -2   -1    0    0    0  501  0.00000000000E+00  0.00000000000E+00 -0.50747394929E+03  0.50747394930E+03  0.25500000920E-02 0.  1.
    10030    2    1    2    0    0  0.00000000000E+00  0.00000000000E+00  0.32278951377E+03  0.13377374124E+04  0.12982096573E+04 0.  0.
        5    1    3    3  502    0  0.17910709209E+03  0.47103215978E+03  0.58295292206E+03  0.77058863560E+03  0.46999998093E+01 0. -1.
       -5    1    3    3    0  502 -0.17910709209E+03 -0.47103215978E+03 -0.26016340828E+03  0.56714877677E+03  0.46999998093E+01 0.  1.
</event>
<event>
 5   0  0.6688086E-05  0.1299934E+04  0.7818609E-02  0.9029617E-01
        2   -1    0    0  501    0  0.00000000000E+00  0.00000000000E+00  0.79937622085E+03  0.79937622086E+03  0.25500000920E-02 0. -1.
       -2   -1    0    0    0  501  0.00000000000E+00  0.00000000000E+00 -0.52848347825E+03  0.52848347826E+03  0.25500000920E-02 0.  1.
    10030    2    1    2    0    0  0.00000000000E+00  0.00000000000E+00  0.27089274261E+03  0.13278596991E+04  0.12999340378E+04 0.  0.
        5    1    3    3  502    0  0.21850221723E+03 -0.54532867623E+03  0.41946338845E+03  0.72187132393E+03  0.46999998093E+01 0. -1.
       -5    1    3    3    0  502 -0.21850221723E+03  0.54532867623E+03 -0.14857064585E+03  0.60598837519E+03  0.46999998093E+01 0.  1.
</event>
<event>
 5   0  0.3551277E-05  0.1299346E+04  0.7818609E-02  0.9030084E-01
        1   -1    0    0  501    0  0.00000000000E+00  0.00000000000E+00  0.11018136067E+04  0.11018136067E+04  0.50400001928E-02 0. -1.
       -1   -1    0    0    0  501  0.00000000000E+00  0.00000000000E+00 -0.38307308656E+03  0.38307308660E+03  0.50400001928E-02 0.  1.
    10030    2    1    2    0    0  0.00000000000E+00  0.00000000000E+00  0.71874052010E+03  0.14848866933E+04  0.12993462035E+04 0.  0.
        4    1    3    3  502    0  0.85250479628E+02  0.63478446175E+03  0.48379631160E+03  0.80267019452E+03  0.12699999809E+01 0.  1.
       -4    1    3    3    0  502 -0.85250479628E+02 -0.63478446175E+03  0.23494420849E+03  0.68221649874E+03  0.12699999809E+01 0. -1.
</event>
<event>
 5   0  0.3552698E-05  0.1300761E+04  0.7818609E-02  0.9028962E-01
       -1   -1    0    0    0  501  0.00000000000E+00  0.00000000000E+00  0.56417613957E+03  0.56417613959E+03  0.50400001928E-02 0.  1.
        1   -1    0    0  501    0  0.00000000000E+00  0.00000000000E+00 -0.74975699707E+03  0.74975699708E+03  0.50400001928E-02 0. -1.
    10030    2    1    2    0    0  0.00000000000E+00  0.00000000000E+00 -0.18558085750E+03  0.13139331367E+04  0.13007613282E+04 0.  0.
        5    1    3    3  502    0 -0.23724823165E+03  0.92601849512E+02  0.51169318874E+03  0.57158886917E+03  0.46999998093E+01 0.  1.
       -5    1    3    3    0  502  0.23724823165E+03 -0.92601849512E+02 -0.69727404624E+03  0.74234426751E+03  0.46999998093E+01 0. -1.
</event>
<event>
 5   0  0.3551277E-05  0.1300616E+04  0.7818609E-02  0.9029077E-01
        1   -1    0    0  501    0  0.00000000000E+00  0.00000000000E+00  0.14292876459E+04  0.14292876459E+04  0.50400001928E-02 0. -1.
       -1   -1    0    0    0  501  0.00000000000E+00  0.00000000000E+00 -0.29588188866E+03  0.29588188870E+03  0.50400001928E-02 0.  1.
    10030    2    1    2    0    0  0.00000000000E+00  0.00000000000E+00  0.11334057572E+04  0.17251695346E+04  0.13006157436E+04 0.  0.
        4    1    3    3  502    0  0.22334054434E+03 -0.30997171353E+03  0.12647293544E+04  0.13211757698E+04  0.12699999809E+01 0. -1.
       -4    1    3    3    0  502 -0.22334054434E+03  0.30997171353E+03 -0.13132359716E+03  0.40399376481E+03  0.12699999809E+01 0.  1.
</event>
<event>
 5   0  0.3689707E-05  0.1301165E+04  0.7818609E-02  0.9028641E-01
        1   -1    0    0  501    0  0.00000000000E+00  0.00000000000E+00  0.12121292116E+04  0.12121292116E+04  0.50400001928E-02 0. -1.
       -1   -1    0    0    0  501  0.00000000000E+00  0.00000000000E+00 -0.34918546122E+03  0.34918546126E+03  0.50400001928E-02 0.  1.
    10030    2    1    2    0    0  0.00000000000E+00  0.00000000000E+00  0.86294375039E+03  0.15613146729E+04  0.13011654743E+04 0.  0.
        1    1    3    3  502    0  0.64464881316E+03  0.87497392289E+02  0.43804549223E+03  0.78429059618E+03  0.50400001928E-02 0. -1.
       -1    1    3    3    0  502 -0.64464881316E+03 -0.87497392289E+02  0.42489825816E+03  0.77702407671E+03  0.50400001928E-02 0.  1.
</event>
<event>
 5   0  0.2512000E-05  0.1299635E+04  0.7818609E-02  0.9029855E-01
        3   -1    0    0  501    0  0.00000000000E+00  0.00000000000E+00  0.90056835552E+03  0.90056836118E+03  0.10100000352E+00 0.  1.
       -3   -1    0    0    0  501  0.00000000000E+00  0.00000000000E+00 -0.46888472034E+03  0.46888473122E+03  0.10100000352E+00 0. -1.
    10030    2    1    2    0    0  0.00000000000E+00  0.00000000000E+00  0.43168363518E+03  0.13694530924E+04  0.12996349531E+04 0.  0.
        5    1    3    3  502    0 -0.53618457758E+03 -0.30093681859E+03  0.43733342504E+03  0.75454587977E+03  0.46999998093E+01 0.  1.
       -5    1    3    3    0  502  0.53618457758E+03  0.30093681859E+03 -0.56497898627E+01  0.61490721263E+03  0.46999998093E+01 0. -1.
</event>
<event>
 5   0  0.3551277E-05  0.1300137E+04  0.7818609E-02  0.9029457E-01
       -1   -1    0    0    0  501  0.00000000000E+00  0.00000000000E+00  0.66473325751E+03  0.66473325753E+03  0.50400001928E-02 0.  1.
        1   -1    0    0  501    0  0.00000000000E+00  0.00000000000E+00 -0.63572693551E+03  0.63572693553E+03  0.50400001928E-02 0. -1.
    10030    2    1    2    0    0  0.00000000000E+00  0.00000000000E+00  0.29006322000E+02  0.13004601931E+04  0.13001366647E+04 0.  0.
        4    1    3    3  502    0 -0.47395345012E+03  0.43095479395E+03  0.12513500823E+03  0.65269770223E+03  0.12699999809E+01 0.  1.
       -4    1    3    3    0  502  0.47395345012E+03 -0.43095479395E+03 -0.96128686232E+02  0.64776249083E+03  0.12699999809E+01 0. -1.
</event>
<event>
 5   0  0.6458698E-05  0.1300278E+04  0.7818609E-02  0.9029345E-01
       -2   -1    0    0    0  501  0.00000000000E+00  0.00000000000E+00  0.37179016849E+03  0.37179016849E+03  0.25500000920E-02 0.  1.
        2   -1    0    0  501    0  0.00000000000E+00  0.00000000000E+00 -0.11368801547E+04  0.11368801547E+04  0.25500000920E-02 0. -1.
    10030    2    1    2    0    0  0.00000000000E+00  0.00000000000E+00 -0.76508998617E+03  0.15086703231E+04  0.13002782229E+04 0.  0.
        3    1    3    3  502    0  0.60924149708E+03  0.19906268296E+03 -0.25608277200E+03  0.69020254261E+03  0.10100000352E+00 0.  1.
       -3    1    3    3    0  502 -0.60924149708E+03 -0.19906268296E+03 -0.50900721416E+03  0.81846778054E+03  0.10100000352E+00 0. -1.
</event>
<event>
 5   0  0.6688086E-05  0.1299499E+04  0.7818609E-02  0.9029962E-01
        2   -1    0    0  501    0  0.00000000000E+00  0.00000000000E+00  0.15731025384E+04  0.15731025384E+04  0.25500000920E-02 0. -1.
       -2   -1    0    0    0  501  0.00000000000E+00  0.00000000000E+00 -0.26837063703E+03  0.26837063704E+03  0.25500000920E-02 0.  1.
    10030    2    1    2    0    0  0.00000000000E+00  0.00000000000E+00  0.13047319014E+04  0.18414731755E+04  0.12994991810E+04 0.  0.
        5    1    3    3  502    0  0.47362568448E+03  0.32156262664E+03  0.10878188914E+04  0.12292663838E+04  0.46999998093E+01 0. -1.
       -5    1    3    3    0  502 -0.47362568448E+03 -0.32156262664E+03  0.21691300995E+03  0.61220679164E+03  0.46999998093E+01 0.  1.
</event>
<event>
 5   0  0.6688086E-05  0.1299745E+04  0.7818609E-02  0.9029767E-01
        2   -1    0    0  501    0  0.00000000000E+00  0.00000000000E+00  0.62154624733E+03  0.62154624733E+03  0.25500000920E-02 0. -1.
       -2   -1    0    0    0  501  0.00000000000E+00  0.00000000000E+00 -0.67949018657E+03  0.67949018657E+03  0.25500000920E-02 0.  1.
    10030    2    1    2    0    0  0.00000000000E+00  0.00000000000E+00 -0.57943939237E+02  0.13010364339E+04  0.12997454760E+04 0.  0.
        5    1    3    3  502    0 -0.45653116983E+03  0.41472931625E+03 -0.23384907522E+03  0.65964277815E+03  0.46999998093E+01 0.  1.
       -5    1    3    3    0  502  0.45653116983E+03 -0.41472931625E+03  0.17590513598E+03  0.64139365576E+03  0.46999998093E+01 0. -1.
</event>
<event>
 5   0  0.3689707E-05  0.1299632E+04  0.7818609E-02  0.9029857E-01
       -1   -1    0    0    0  501  0.00000000000E+00  0.00000000000E+00  0.49346462675E+03  0.49346462677E+03  0.50400001928E-02 0.  1.
        1   -1    0    0  501    0  0.00000000000E+00  0.00000000000E+00 -0.85570704062E+03  0.85570704064E+03  0.50400001928E-02 0. -1.
    10030    2    1    2    0    0  0.00000000000E+00  0.00000000000E+00 -0.36224241387E+03  0.13491716674E+04  0.12996324949E+04 0.  0.
        1    1    3    3  502    0  0.90495383932E+02  0.38255957287E+03  0.35601816794E+03  0.53036796400E+03  0.50400001928E-02 0.  1.
       -1    1    3    3    0  502 -0.90495383932E+02 -0.38255957287E+03 -0.71826058182E+03  0.81880370341E+03  0.50400001928E-02 0. -1.
</event>
<event>
 5   0  0.6671239E-05  0.1300042E+04  0.7818609E-02  0.9029532E-01
        2   -1    0    0  501    0  0.00000000000E+00  0.00000000000E+00  0.88223127371E+03  0.88223127371E+03  0.25500000920E-02 0. -1.
       -2   -1    0    0    0  501  0.00000000000E+00  0.00000000000E+00 -0.47893034070E+03  0.47893034071E+03  0.25500000920E-02 0.  1.
    10030    2    1    2    0    0  0.00000000000E+00  0.00000000000E+00  0.40330093301E+03  0.13611616144E+04  0.13000420370E+04 0.  0.
        1    1    3    3  502    0 -0.11402208648E+02  0.54338763947E+02 -0.47644307533E+03  0.47966729687E+03  0.50400001928E-02 0.  1.
       -1    1    3    3    0  502  0.11402208648E+02 -0.54338763947E+02  0.87974400834E+03  0.88149431755E+03  0.50400001928E-02 0. -1.
</event>
<event>
 5   0  0.6671239E-05  0.1300290E+04  0.7818609E-02  0.9029335E-01
        2   -1    0    0  501    0  0.00000000000E+00  0.00000000000E+00  0.12063613727E+04  0.12063613727E+04  0.25500000920E-02 0. -1.
       -2   -1    0    0    0  501  0.00000000000E+00  0.00000000000E+00 -0.35038318089E+03  0.35038318090E+03  0.25500000920E-02 0.  1.
    10030    2    1    2    0    0  0.00000000000E+00  0.00000000000E+00  0.85597819178E+03  0.15567445536E+04  0.13002903292E+04 0.  0.
        1    1    3    3  502    0 -0.14027480352E+03  0.25855568970E+03  0.11221345321E+04  0.11600491254E+04  0.50400001928E-02 0. -1.
       -1    1    3    3    0  502  0.14027480352E+03 -0.25855568970E+03 -0.26615634036E+03  0.39669542815E+03  0.50400001928E-02 0.  1.
</event>
<event>
 5   0  0.3631841E-05  0.1300293E+04  0.7818609E-02  0.9029333E-01
        1   -1    0    0  501    0  0.00000000000E+00  0.00000000000E+00  0.11305962008E+04  0.11305962009E+04  0.50400001928E-02 0. -1.
       -1   -1    0    0    0  501  0.00000000000E+00  0.00000000000E+00 -0.37386515533E+03  0.37386515537E+03  0.50400001928E-02 0.  1.
    10030    2    1    2    0    0  0.00000000000E+00  0.00000000000E+00  0.75673104552E+03  0.15044613562E+04  0.13002930812E+04 0.  0.
        3    1    3    3  502    0  0.49936387114E+03 -0.23710372167E+03  0.77430899274E+03  0.95138681779E+03  0.10100000352E+00 0. -1.
       -3    1    3    3    0  502 -0.49936387114E+03  0.23710372167E+03 -0.17577947224E+02  0.55307453843E+03  0.10100000352E+00 0.  1.
</event>
<event>
 5   0  0.6742824E-05  0.1300221E+04  0.7818609E-02  0.9029390E-01
       -2   -1    0    0    0  501  0.00000000000E+00  0.00000000000E+00  0.20297798801E+03  0.20297798803E+03  0.25500000920E-02 0. -1.
        2   -1    0    0  501    0  0.00000000000E+00  0.00000000000E+00 -0.20822136547E+04  0.20822136547E+04  0.25500000920E-02 0.  1.
    10030    2    1    2    0    0  0.00000000000E+00  0.00000000000E+00 -0.18792356667E+04  0.22851916427E+04  0.13002208093E+04 0.  0.
        4    1    3    3  502    0 -0.64455006543E+03 -0.65385137100E+02 -0.10346213871E+04  0.12207223396E+04  0.12699999809E+01 0.  1.
       -4    1    3    3    0  502  0.64455006543E+03  0.65385137100E+02 -0.84461427963E+03  0.10644693031E+04  0.12699999809E+01 0. -1.
</event>
<event>
 5   0  0.3718559E-05  0.1299630E+04  0.7818609E-02  0.9029859E-01
        1   -1    0    0  501    0  0.00000000000E+00  0.00000000000E+00  0.15435405237E+04  0.15435405237E+04  0.50400001928E-02 0. -1.
       -1   -1    0    0    0  501  0.00000000000E+00  0.00000000000E+00 -0.27356538629E+03  0.27356538633E+03  0.50400001928E-02 0.  1.
    10030    2    1    2    0    0  0.00000000000E+00  0.00000000000E+00  0.12699751374E+04  0.18171059100E+04  0.12996295775E+04 0.  0.
        2    1    3    3  502    0  0.51549638518E+03 -0.22116928809E+03  0.10936368096E+04  0.12291028633E+04  0.25500000920E-02 0. -1.
       -2    1    3    3    0  502 -0.51549638518E+03  0.22116928809E+03  0.17633832775E+03  0.58800304673E+03  0.25500000920E-02 0.  1.
</event>
<event>
 5   0  0.6618060E-05  0.1300525E+04  0.7818609E-02  0.9029149E-01
       -2   -1    0    0    0  501  0.00000000000E+00  0.00000000000E+00  0.53394995953E+03  0.53394995953E+03  0.25500000920E-02 0. -1.
        2   -1    0    0  501    0  0.00000000000E+00  0.00000000000E+00 -0.79191248229E+03  0.79191248229E+03  0.25500000920E-02 0.  1.
    10030    2    1    2    0    0  0.00000000000E+00  0.00000000000E+00 -0.25796252276E+03  0.13258624418E+04  0.13005254905E+04 0.  0.
        2    1    3    3  502    0  0.64736142929E+03 -0.82298695735E+01 -0.19096951962E+03  0.67499178389E+03  0.25500000920E-02 0.  1.
       -2    1    3    3    0  502 -0.64736142929E+03  0.82298695735E+01 -0.66993003143E+02  0.65087065794E+03  0.25500000920E-02 0. -1.
</event>
<event>
 5   0  0.3689707E-05  0.1300175E+04  0.7818609E-02  0.9029426E-01
       -1   -1    0    0    0  501  0.00000000000E+00  0.00000000000E+00  0.39783439642E+03  0.39783439645E+03  0.50400001928E-02 0. -1.
        1   -1    0    0  501    0  0.00000000000E+00  0.00000000000E+00 -0.10622862218E+04  0.10622862218E+04  0.50400001928E-02 0.  1.
    10030    2    1    2    0    0  0.00000000000E+00  0.00000000000E+00 -0.66445182534E+03  0.14601206182E+04  0.13001753695E+04 0.  0.
        1    1    3    3  502    0  0.47929045791E+03  0.41321485831E+03 -0.16509553797E+03  0.65400489207E+03  0.50400001928E-02 0. -1.
       -1    1    3    3    0  502 -0.47929045791E+03 -0.41321485831E+03 -0.49935628737E+03  0.80611572614E+03  0.50400001928E-02 0.  1.
</event>
<event>
 5   0  0.6618060E-05  0.1299959E+04  0.7818609E-02  0.9029598E-01
        2   -1    0    0  501    0  0.00000000000E+00  0.00000000000E+00  0.27263027459E+04  0.27263027459E+04  0.25500000920E-02 0.  1.
       -2   -1    0    0    0  501  0.00000000000E+00  0.00000000000E+00 -0.15496201315E+03  0.15496201317E+03  0.25500000920E-02 0. -1.
    10030    2    1    2    0    0  0.00000000000E+00  0.00000000000E+00  0.25713407327E+04  0.28812647591E+04  0.12999590178E+04 0.  0.
        2    1    3    3  502    0  0.59484582413E+03  0.92612410588E+02  0.18288296215E+04  0.19253665619E+04  0.25500000920E-02 0.  1.
       -2    1    3    3    0  502 -0.59484582413E+03 -0.92612410588E+02  0.74251111126E+03  0.95589819721E+03  0.25500000920E-02 0. -1.
</event>
<event>
 5   0  0.6688086E-05  0.1299794E+04  0.7818609E-02  0.9029729E-01
       -2   -1    0    0    0  501  0.00000000000E+00  0.00000000000E+00  0.51041860817E+03  0.51041860817E+03  0.25500000920E-02 0. -1.
        2   -1    0    0  501    0  0.00000000000E+00  0.00000000000E+00 -0.82748940359E+03  0.82748940360E+03  0.25500000920E-02 0.  1.
    10030    2    1    2    0    0  0.00000000000E+00  0.00000000000E+00 -0.31707079543E+03  0.13379080118E+04  0.12997938139E+04 0.  0.
        5    1    3    3  502    0  0.18527987862E+03 -0.44929512493E+03  0.28556618974E+03  0.56370637873E+03  0.46999998093E+01 0. -1.
       -5    1    3    3    0  502 -0.18527987862E+03  0.44929512493E+03 -0.60263698517E+03  0.77420163303E+03  0.46999998093E+01 0.  1.
</event>
<event>
 5   0  0.6688086E-05  0.1299996E+04  0.7818609E-02  0.9029568E-01
        2   -1    0    0  501    0  0.00000000000E+00  0.00000000000E+00  0.10651900678E+04  0.10651900678E+04  0.25500000920E-02 0. -1.
       -2   -1    0    0    0  501  0.00000000000E+00  0.00000000000E+00 -0.39664058056E+03  0.39664058057E+03  0.25500000920E-02 0.  1.
    10030    2    1    2    0    0  0.00000000000E+00  0.00000000000E+00  0.66854948728E+03  0.14618306484E+04  0.12999963183E+04 0.  0.
        5    1    3    3  502    0  0.25695360019E+03  0.36601493139E+03  0.86467506734E+03  0.97348710558E+03  0.46999998093E+01 0. -1.
       -5    1    3    3    0  502 -0.25695360019E+03 -0.36601493139E+03 -0.19612558007E+03  0.48834354282E+03  0.46999998093E+01 0.  1.
</event>
<event>
 5   0  0.2512000E-05  0.1299711E+04  0.7818609E-02  0.9029794E-01
        4   -1    0    0  501    0  0.00000000000E+00  0.00000000000E+00  0.94463937855E+03  0.94464023227E+03  0.12699999809E+01 0.  1.
       -4   -1    0    0    0  501  0.00000000000E+00  0.00000000000E+00 -0.44706006162E+03  0.44706186551E+03  0.12699999809E+01 0. -1.
    10030    2    1    2    0    0  0.00000000000E+00  0.00000000000E+00  0.49757931694E+03  0.13917020978E+04  0.12997113342E+04 0.  0.
        2    1    3    3  502    0  0.34715294505E+03 -0.54606490719E+03  0.31312850996E+03  0.71885430643E+03  0.25500000920E-02 0. -1.
       -2    1    3    3    0  502 -0.34715294505E+03  0.54606490719E+03  0.18445080697E+03  0.67284779135E+03  0.25500000920E-02 0.  1.
</event>
<event>
 5   0  0.3689707E-05  0.1300314E+04  0.7818609E-02  0.9029316E-01
       -1   -1    0    0    0  501  0.00000000000E+00  0.00000000000E+00  0.12161032659E+04  0.12161032659E+04  0.50400001928E-02 0. -1.
        1   -1    0    0  501    0  0.00000000000E+00  0.00000000000E+00 -0.34758912505E+03  0.34758912509E+03  0.50400001928E-02 0.  1.
    10030    2    1    2    0    0  0.00000000000E+00  0.00000000000E+00  0.86851414083E+03  0.15636923910E+04  0.13003142239E+04 0.  0.
        1    1    3    3  502    0 -0.88871919254E+02  0.10036398873E+03  0.11993027785E+04  0.12067718520E+04  0.50400001928E-02 0. -1.
       -1    1    3    3    0  502  0.88871919254E+02 -0.10036398873E+03 -0.33078863770E+03  0.35692053894E+03  0.50400001928E-02 0.  1.
</event>
<event>
 5   0  0.3631841E-05  0.1300132E+04  0.7818609E-02  0.9029461E-01
        1   -1    0    0  501    0  0.00000000000E+00  0.00000000000E+00  0.24220377747E+04  0.24220377747E+04  0.50400001928E-02 0.  1.
       -1   -1    0    0    0  501  0.00000000000E+00  0.00000000000E+00 -0.17447520086E+03  0.17447520093E+03  0.50400001928E-02 0. -1.
    10030    2    1    2    0    0  0.00000000000E+00  0.00000000000E+00  0.22475625738E+04  0.25965129756E+04  0.13001315739E+04 0.  0.
        3    1    3    3  502    0 -0.52245505017E+02  0.20598354317E+03  0.23507104922E+04  0.23602963037E+04  0.10100000352E+00 0.  1.
       -3    1    3    3    0  502  0.52245505017E+02 -0.20598354317E+03 -0.10314791836E+03  0.23621667196E+03  0.10100000352E+00 0. -1.
</event>
<event>
 5   0  0.3631841E-05  0.1300164E+04  0.7818609E-02  0.9029435E-01
       -1   -1    0    0    0  501  0.00000000000E+00  0.00000000000E+00  0.18337237018E+03  0.18337237025E+03  0.50400001928E-02 0.  1.
        1   -1    0    0  501    0  0.00000000000E+00  0.00000000000E+00 -0.23046371102E+04  0.23046371102E+04  0.50400001928E-02 0. -1.
    10030    2    1    2    0    0  0.00000000000E+00  0.00000000000E+00 -0.21212647400E+04  0.24880094805E+04  0.13001642502E+04 0.  0.
        3    1    3    3  502    0  0.54682311150E+03 -0.27372650181E+03 -0.14827780801E+04  0.16039241123E+04  0.10100000352E+00 0. -1.
       -3    1    3    3    0  502 -0.54682311150E+03  0.27372650181E+03 -0.63848665997E+03  0.88408536818E+03  0.10100000352E+00 0.  1.
</event>
<event>
 5   0  0.6671239E-05  0.1300989E+04  0.7818609E-02  0.9028781E-01
        2   -1    0    0  501    0  0.00000000000E+00  0.00000000000E+00  0.48249959897E+03  0.48249959897E+03  0.25500000920E-02 0. -1.
       -2   -1    0    0    0  501  0.00000000000E+00  0.00000000000E+00 -0.87698105216E+03  0.87698105217E+03  0.25500000920E-02 0.  1.
    10030    2    1    2    0    0  0.00000000000E+00  0.00000000000E+00 -0.39448145320E+03  0.13594806511E+04  0.13009888639E+04 0.  0.
        1    1    3    3  502    0  0.51940760099E+03 -0.13103714560E+03  0.18838757442E+03  0.56784229123E+03  0.50400001928E-02 0. -1.
       -1    1    3    3    0  502 -0.51940760099E+03  0.13103714560E+03 -0.58286902762E+03  0.79163835991E+03  0.50400001928E-02 0.  1.
</event>
<event>
 5   0  0.3552698E-05  0.1299969E+04  0.7818609E-02  0.9029590E-01
        1   -1    0    0  501    0  0.00000000000E+00  0.00000000000E+00  0.81716357030E+03  0.81716357032E+03  0.50400001928E-02 0. -1.
       -1   -1    0    0    0  501  0.00000000000E+00  0.00000000000E+00 -0.51700780025E+03  0.51700780027E+03  0.50400001928E-02 0.  1.
    10030    2    1    2    0    0  0.00000000000E+00  0.00000000000E+00  0.30015577005E+03  0.13341713706E+04  0.12999691380E+04 0.  0.
        5    1    3    3  502    0  0.37524504764E+03 -0.55086060736E+02  0.69180485290E+03  0.78896093969E+03  0.46999998093E+01 0. -1.
       -5    1    3    3    0  502 -0.37524504764E+03  0.55086060736E+02 -0.39164908285E+03  0.54521043090E+03  0.46999998093E+01 0.  1.
</event>
<event>
 5   0  0.6671239E-05  0.1299911E+04  0.7818609E-02  0.9029635E-01
        2   -1    0    0  501    0  0.00000000000E+00  0.00000000000E+00  0.14642665207E+04  0.14642665207E+04  0.25500000920E-02 0.  1.
       -2   -1    0    0    0  501  0.00000000000E+00  0.00000000000E+00 -0.28850105956E+03  0.28850105957E+03  0.25500000920E-02 0. -1.
    10030    2    1    2    0    0  0.00000000000E+00  0.00000000000E+00  0.11757654611E+04  0.17527675803E+04  0.12999114473E+04 0.  0.
        1    1    3    3  502    0 -0.48415041607E+03 -0.31481344603E+03  0.98999080644E+03  0.11461199449E+04  0.50400001928E-02 0.  1.
       -1    1    3    3    0  502  0.48415041607E+03  0.31481344603E+03  0.18577465471E+03  0.60664763541E+03  0.50400001928E-02 0. -1.
</event>
<event>
 5   0  0.6458698E-05  0.1304850E+04  0.7818609E-02  0.9025728E-01
       -2   -1    0    0    0  501  0.00000000000E+00  0.00000000000E+00  0.27203443085E+03  0.27203443086E+03  0.25500000920E-02 0.  1.
        2   -1    0    0  501    0  0.00000000000E+00  0.00000000000E+00 -0.15647212828E+04  0.15647212828E+04  0.25500000920E-02 0. -1.
    10030    2    1    2    0    0  0.00000000000E+00  0.00000000000E+00 -0.12926868520E+04  0.18367557137E+04  0.13048495141E+04 0.  0.
        3    1    3    3  502    0 -0.43462847610E+03  0.47273091534E+03 -0.80856796304E+03  0.10325495589E+04  0.10100000352E+00 0. -1.
       -3    1    3    3    0  502  0.43462847610E+03 -0.47273091534E+03 -0.48411888892E+03  0.80420615477E+03  0.10100000352E+00 0.  1.
</event>
<event>
 5   0  0.6618060E-05  0.1299897E+04  0.7818609E-02  0.9029647E-01
       -2   -1    0    0    0  501  0.00000000000E+00  0.00000000000E+00  0.22298431369E+03  0.22298431370E+03  0.25500000920E-02 0.  1.
        2   -1    0    0  501    0  0.00000000000E+00  0.00000000000E+00 -0.18944519321E+04  0.18944519321E+04  0.25500000920E-02 0. -1.
    10030    2    1    2    0    0  0.00000000000E+00  0.00000000000E+00 -0.16714676184E+04  0.21174362458E+04  0.12998970173E+04 0.  0.
        2    1    3    3  502    0  0.28694556804E+03  0.29918383596E+03 -0.20319446868E+02  0.41504410205E+03  0.25500000920E-02 0.  1.
       -2    1    3    3    0  502 -0.28694556804E+03 -0.29918383596E+03 -0.16511481715E+04  0.17023921437E+04  0.25500000920E-02 0. -1.
</event>
<event>
 5   0  0.3718559E-05  0.1301692E+04  0.7818609E-02  0.9028225E-01
        1   -1    0    0  501    0  0.00000000000E+00  0.00000000000E+00  0.73301484688E+03  0.73301484690E+03  0.50400001928E-02 0.  1.
       -1   -1    0    0    0  501  0.00000000000E+00  0.00000000000E+00 -0.57788798530E+03  0.57788798532E+03  0.50400001928E-02 0. -1.
    10030    2    1    2    0    0  0.00000000000E+00  0.00000000000E+00  0.15512686158E+03  0.13109028322E+04  0.13016919345E+04 0.  0.
        2    1    3    3  502    0  0.46138270830E+02  0.18251457534E+03  0.70499702567E+03  0.72969933291E+03  0.25500000920E-02 0.  1.
       -2    1    3    3    0  502 -0.46138270830E+02 -0.18251457534E+03 -0.54987016408E+03  0.58120349930E+03  0.25500000920E-02 0. -1.
</event>
<event>
 5   0  0.6688086E-05  0.1303898E+04  0.7818609E-02  0.9026479E-01
        2   -1    0    0  501    0  0.00000000000E+00  0.00000000000E+00  0.81585632548E+03  0.81585632549E+03  0.25500000920E-02 0. -1.
       -2   -1    0    0    0  501  0.00000000000E+00  0.00000000000E+00 -0.52097141469E+03  0.52097141469E+03  0.25500000920E-02 0.  1.
    10030    2    1    2    0    0  0.00000000000E+00  0.00000000000E+00  0.29488491080E+03  0.13368277402E+04  0.13038984992E+04 0.  0.
        5    1    3    3  502    0  0.79504119830E+02 -0.38458319549E+03 -0.38607477699E+03  0.55072766659E+03  0.46999998093E+01 0.  1.
       -5    1    3    3    0  502 -0.79504119830E+02  0.38458319549E+03  0.68095968778E+03  0.78610007359E+03  0.46999998093E+01 0. -1.
</event>
<event>
 5   0  0.2512000E-05  0.1300148E+04  0.7818609E-02  0.9029448E-01
        3   -1    0    0  501    0  0.00000000000E+00  0.00000000000E+00  0.19748346400E+04  0.19748346426E+04  0.10100000352E+00 0. -1.
       -3   -1    0    0    0  501  0.00000000000E+00  0.00000000000E+00 -0.21399058567E+03  0.21399060951E+03  0.10100000352E+00 0.  1.
    10030    2    1    2    0    0  0.00000000000E+00  0.00000000000E+00  0.17608440544E+04  0.21888252521E+04  0.13001477610E+04 0.  0.
        2    1    3    3  502    0  0.92001936128E+02 -0.57934907225E+03  0.40877681044E+03  0.71498824083E+03  0.25500000920E-02 0. -1.
       -2    1    3    3    0  502 -0.92001936128E+02  0.57934907225E+03  0.13520672439E+04  0.14738370113E+04  0.25500000920E-02 0.  1.
</event>
<event>
 5   0  0.6688086E-05  0.1300140E+04  0.7818609E-02  0.9029454E-01
        2   -1    0    0  501    0  0.00000000000E+00  0.00000000000E+00  0.13321880463E+04  0.13321880463E+04  0.25500000920E-02 0. -1.
       -2   -1    0    0    0  501  0.00000000000E+00  0.00000000000E+00 -0.31721577302E+03  0.31721577303E+03  0.25500000920E-02 0.  1.
    10030    2    1    2    0    0  0.00000000000E+00  0.00000000000E+00  0.10149722733E+04  0.16494038193E+04  0.13001400862E+04 0.  0.
        5    1    3    3  502    0 -0.61389262357E+03 -0.11548759426E+03  0.73572572610E+03  0.96515075079E+03  0.46999998093E+01 0. -1.
       -5    1    3    3    0  502  0.61389262357E+03  0.11548759426E+03  0.27924654719E+03  0.68425306855E+03  0.46999998093E+01 0.  1.
</event>
<event>
 5   0  0.6671239E-05  0.1300383E+04  0.7818609E-02  0.9029262E-01
        2   -1    0    0  501    0  0.00000000000E+00  0.00000000000E+00  0.25488162345E+04  0.25488162345E+04  0.25500000920E-02 0.  1.
       -2   -1    0    0    0  501  0.00000000000E+00  0.00000000000E+00 -0.16586088488E+03  0.16586088490E+03  0.25500000920E-02 0. -1.
    10030    2    1    2    0    0  0.00000000000E+00  0.00000000000E+00  0.23829553496E+04  0.27146771194E+04  0.13003828914E+04 0.  0.
        1    1    3    3  502    0 -0.61247712406E+03  0.20515264040E+03  0.10361923136E+04  0.12210283962E+04  0.50400001928E-02 0. -1.
       -1    1    3    3    0  502  0.61247712406E+03 -0.20515264040E+03  0.13467630360E+04  0.14936487232E+04  0.50400001928E-02 0.  1.
</event>
<event>
 5   0  0.6742824E-05  0.1300204E+04  0.7818609E-02  0.9029403E-01
        2   -1    0    0  501    0  0.00000000000E+00  0.00000000000E+00  0.93507662408E+03  0.93507662408E+03  0.25500000920E-02 0. -1.
       -2   -1    0    0    0  501  0.00000000000E+00  0.00000000000E+00 -0.45197662312E+03  0.45197662313E+03  0.25500000920E-02 0.  1.
    10030    2    1    2    0    0  0.00000000000E+00  0.00000000000E+00  0.48310000096E+03  0.13870532472E+04  0.13002042531E+04 0.  0.
        4    1    3    3  502    0  0.42004609538E+02  0.71663122326E+02 -0.44629066151E+03  0.45395699992E+03  0.12699999809E+01 0.  1.
       -4    1    3    3    0  502 -0.42004609538E+02 -0.71663122326E+02  0.92939066247E+03  0.93309624729E+03  0.12699999809E+01 0. -1.
</event>
<event>
 5   0  0.3718559E-05  0.1302600E+04  0.7818609E-02  0.9027506E-01
       -1   -1    0    0    0  501  0.00000000000E+00  0.00000000000E+00  0.43056907665E+03  0.43056907668E+03  0.50400001928E-02 0.  1.
        1   -1    0    0  501    0  0.00000000000E+00  0.00000000000E+00 -0.98518832323E+03  0.98518832324E+03  0.50400001928E-02 0. -1.
    10030    2    1    2    0    0  0.00000000000E+00  0.00000000000E+00 -0.55461924657E+03  0.14157573999E+04  0.13025999028E+04 0.  0.
        2    1    3    3  502    0 -0.14432572407E+03  0.49387625672E+03 -0.71130717123E+03  0.87789610059E+03  0.25500000920E-02 0. -1.
       -2    1    3    3    0  502  0.14432572407E+03 -0.49387625672E+03  0.15668792466E+03  0.53786129933E+03  0.25500000920E-02 0.  1.
</event>
<event>
 5   0  0.3718559E-05  0.1300085E+04  0.7818609E-02  0.9029498E-01
       -1   -1    0    0    0  501  0.00000000000E+00  0.00000000000E+00  0.83428519623E+03  0.83428519624E+03  0.50400001928E-02 0. -1.
        1   -1    0    0  501    0  0.00000000000E+00  0.00000000000E+00 -0.50648799329E+03  0.50648799331E+03  0.50400001928E-02 0.  1.
    10030    2    1    2    0    0  0.00000000000E+00  0.00000000000E+00  0.32779720294E+03  0.13407731896E+04  0.13000852817E+04 0.  0.
        2    1    3    3  502    0  0.46408892900E+03  0.31386842749E+03 -0.17605945859E+03  0.58727238719E+03  0.25500000920E-02 0.  1.
       -2    1    3    3    0  502 -0.46408892900E+03 -0.31386842749E+03  0.50385666153E+03  0.75350080237E+03  0.25500000920E-02 0. -1.
</event>
<event>
 5   0  0.6688086E-05  0.1300154E+04  0.7818609E-02  0.9029443E-01
        2   -1    0    0  501    0  0.00000000000E+00  0.00000000000E+00  0.21903199174E+04  0.21903199174E+04  0.25500000920E-02 0. -1.
       -2   -1    0    0    0  501  0.00000000000E+00  0.00000000000E+00 -0.19294000224E+03  0.19294000225E+03  0.25500000920E-02 0.  1.
    10030    2    1    2    0    0  0.00000000000E+00  0.00000000000E+00  0.19973799152E+04  0.23832599197E+04  0.13001543444E+04 0.  0.
        5    1    3    3  502    0  0.13825232249E+03  0.76526862622E+02 -0.15716715579E+03  0.22292077120E+03  0.46999998093E+01 0.  1.
       -5    1    3    3    0  502 -0.13825232249E+03 -0.76526862622E+02  0.21545470710E+04  0.21603391485E+04  0.46999998093E+01 0. -1.
</event>
<event>
 5   0  0.6458698E-05  0.1300550E+04  0.7818609E-02  0.9029130E-01
       -2   -1    0    0    0  501  0.00000000000E+00  0.00000000000E+00  0.40952002672E+03  0.40952002673E+03  0.25500000920E-02 0. -1.
        2   -1    0    0  501    0  0.00000000000E+00  0.00000000000E+00 -0.10325679583E+04  0.10325679583E+04  0.25500000920E-02 0.  1.
    10030    2    1    2    0    0  0.00000000000E+00  0.00000000000E+00 -0.62304793160E+03  0.14420879851E+04  0.13005495114E+04 0.  0.
        3    1    3    3  502    0 -0.51614351697E+03 -0.38726795098E+03 -0.22228795642E+03  0.68248995724E+03  0.10100000352E+00 0. -1.
       -3    1    3    3    0  502  0.51614351697E+03  0.38726795098E+03 -0.40075997518E+03  0.75959802782E+03  0.10100000352E+00 0.  1.
</event>
<event>
 5   0  0.3718559E-05  0.1299802E+04  0.7818609E-02  0.9029722E-01
       -1   -1    0    0    0  501  0.00000000000E+00  0.00000000000E+00  0.64996507083E+03  0.64996507085E+03  0.50400001928E-02 0. -1.
        1   -1    0    0  501    0  0.00000000000E+00  0.00000000000E+00 -0.64983733334E+03  0.64983733336E+03  0.50400001928E-02 0.  1.
    10030    2    1    2    0    0  0.00000000000E+00  0.00000000000E+00  0.12773749449E+00  0.12998024042E+04  0.12998023979E+04 0.  0.
        2    1    3    3  502    0 -0.59452510508E+03  0.72271564186E+02 -0.25230152005E+03  0.64987640101E+03  0.25500000920E-02 0.  1.
       -2    1    3    3    0  502  0.59452510508E+03 -0.72271564186E+02  0.25242925754E+03  0.64992600320E+03  0.25500000920E-02 0. -1.
</event>
<event>
 5   0  0.6742824E-05  0.1300122E+04  0.7818609E-02  0.9029468E-01
       -2   -1    0    0    0  501  0.00000000000E+00  0.00000000000E+00  0.44153601217E+03  0.44153601218E+03  0.25500000920E-02 0. -1.
        2   -1    0    0  501    0  0.00000000000E+00  0.00000000000E+00 -0.95706660533E+03  0.95706660533E+03  0.25500000920E-02 0.  1.
    10030    2    1    2    0    0  0.00000000000E+00  0.00000000000E+00 -0.51553059316E+03  0.13986026175E+04  0.13001221055E+04 0.  0.
        4    1    3    3  502    0 -0.13472666573E+03 -0.61630362578E+03 -0.89053553404E+02  0.63711347646E+03  0.12699999809E+01 0.  1.
       -4    1    3    3    0  502  0.13472666573E+03  0.61630362578E+03 -0.42647703975E+03  0.76148914106E+03  0.12699999809E+01 0. -1.
</event>
<event>
 5   0  0.3551277E-05  0.1300392E+04  0.7818609E-02  0.9029254E-01
        1   -1    0    0  501    0  0.00000000000E+00  0.00000000000E+00  0.59807574309E+03  0.59807574311E+03  0.50400001928E-02 0.  1.
       -1   -1    0    0    0  501  0.00000000000E+00  0.00000000000E+00 -0.70685874202E+03  0.70685874203E+03  0.50400001928E-02 0. -1.
    10030    2    1    2    0    0  0.00000000000E+00  0.00000000000E+00 -0.10878299892E+03  0.13049344851E+04  0.13003923522E+04 0.  0.
        4    1    3    3  502    0 -0.30560524642E+03 -0.78846724924E+02  0.51604993180E+03  0.60491364482E+03  0.12699999809E+01 0.  1.
       -4    1    3    3    0  502  0.30560524642E+03  0.78846724924E+02 -0.62483293073E+03  0.70002084033E+03  0.12699999809E+01 0. -1.
</event>
<event>
 5   0  0.3631841E-05  0.1299428E+04  0.7818609E-02  0.9030019E-01
        1   -1    0    0  501    0  0.00000000000E+00  0.00000000000E+00  0.73338242899E+03  0.73338242901E+03  0.50400001928E-02 0.  1.
       -1   -1    0    0    0  501  0.00000000000E+00  0.00000000000E+00 -0.57559079957E+03  0.57559079959E+03  0.50400001928E-02 0. -1.
    10030    2    1    2    0    0  0.00000000000E+00  0.00000000000E+00  0.15779162942E+03  0.13089732286E+04  0.12994278413E+04 0.  0.
        3    1    3    3  502    0 -0.31413381485E+03  0.19254122003E+03  0.61796797165E+03  0.71946966526E+03  0.10100000352E+00 0.  1.
       -3    1    3    3    0  502  0.31413381485E+03 -0.19254122003E+03 -0.46017634222E+03  0.58950356334E+03  0.10100000352E+00 0. -1.
</event>
<event>
 5   0  0.6671239E-05  0.1300282E+04  0.7818609E-02  0.9029342E-01
        2   -1    0    0  501    0  0.00000000000E+00  0.00000000000E+00  0.97353348140E+03  0.97353348141E+03  0.25500000920E-02 0.  1.
       -2   -1    0    0    0  501  0.00000000000E+00  0.00000000000E+00 -0.43417416472E+03  0.43417416473E+03  0.25500000920E-02 0. -1.
    10030    2    1    2    0    0  0.00000000000E+00  0.00000000000E+00  0.53935931668E+03  0.14077076461E+04  0.13002816405E+04 0.  0.
        1    1    3    3  502    0  0.32227267723E+03 -0.34194660818E+03  0.75613033908E+03  0.89023606478E+03  0.50400001928E-02 0.  1.
       -1    1    3    3    0  502 -0.32227267723E+03  0.34194660818E+03 -0.21677102240E+03  0.51747158136E+03  0.50400001928E-02 0. -1.
</event>
<event>
 5   0  0.3718559E-05  0.1299057E+04  0.7818609E-02  0.9030313E-01
       -1   -1    0    0    0  501  0.00000000000E+00  0.00000000000E+00  0.20492493305E+04  0.20492493305E+04  0.50400001928E-02 0.  1.
        1   -1    0    0  501    0  0.00000000000E+00  0.00000000000E+00 -0.20587412133E+03  0.20587412139E+03  0.50400001928E-02 0. -1.
    10030    2    1    2    0    0  0.00000000000E+00  0.00000000000E+00  0.18433752091E+04  0.22551234519E+04  0.12990572049E+04 0.  0.
        2    1    3    3  502    0 -0.38957835397E+03 -0.19145949883E+03  0.82908309153E+02  0.44192965651E+03  0.25500000920E-02 0.  1.
       -2    1    3    3    0  502  0.38957835397E+03  0.19145949883E+03  0.17604669000E+04  0.18131937953E+04  0.25500000920E-02 0. -1.
</event>
<event>
 5   0  0.6671239E-05  0.1299888E+04  0.7818609E-02  0.9029654E-01
        2   -1    0    0  501    0  0.00000000000E+00  0.00000000000E+00  0.40770117756E+03  0.40770117757E+03  0.25500000920E-02 0.  1.
       -2   -1    0    0    0  501  0.00000000000E+00  0.00000000000E+00 -0.10361190508E+04  0.10361190508E+04  0.25500000920E-02 0. -1.
    10030    2    1    2    0    0  0.00000000000E+00  0.00000000000E+00 -0.62841787319E+03  0.14438202283E+04  0.12998876214E+04 0.  0.
        1    1    3    3  502    0  0.26380860851E+02  0.52071449638E+03 -0.74523314317E+03  0.90951194289E+03  0.50400001928E-02 0. -1.
       -1    1    3    3    0  502 -0.26380860851E+02 -0.52071449638E+03  0.11681526998E+03  0.53430828543E+03  0.50400001928E-02 0.  1.
</event>
<event>
 5   0  0.6458698E-05  0.1300478E+04  0.7818609E-02  0.9029186E-01
       -2   -1    0    0    0  501  0.00000000000E+00  0.00000000000E+00  0.77944799959E+03  0.77944799959E+03  0.25500000920E-02 0.  1.
        2   -1    0    0  501    0  0.00000000000E+00  0.00000000000E+00 -0.54244881531E+03  0.54244881532E+03  0.25500000920E-02 0. -1.
    10030    2    1    2    0    0  0.00000000000E+00  0.00000000000E+00  0.23699918428E+03  0.13218968149E+04  0.13004778260E+04 0.  0.
        3    1    3    3  502    0 -0.14317602710E+03  0.31640635542E+03 -0.44028007767E+03  0.56076636265E+03  0.10100000352E+00 0. -1.
       -3    1    3    3    0  502  0.14317602710E+03 -0.31640635542E+03  0.67727926195E+03  0.76113045226E+03  0.10100000352E+00 0.  1.
</event>
<event>
 5   0  0.3689707E-05  0.1299852E+04  0.7818609E-02  0.9029682E-01
        1   -1    0    0  501    0  0.00000000000E+00  0.00000000000E+00  0.23319579332E+04  0.23319579332E+04  0.50400001928E-02 0.  1.
       -1   -1    0    0    0  501  0.00000000000E+00  0.00000000000E+00 -0.18113706882E+03  0.18113706889E+03  0.50400001928E-02 0. -1.
    10030    2    1    2    0    0  0.00000000000E+00  0.00000000000E+00  0.21508208643E+04  0.25130950021E+04  0.12998523373E+04 0.  0.
        1    1    3    3  502    0  0.51445318071E+03 -0.31121729292E+03  0.15524701020E+04  0.16648368377E+04  0.50400001928E-02 0. -1.
       -1    1    3    3    0  502 -0.51445318071E+03  0.31121729292E+03  0.59835076230E+03  0.84825816431E+03  0.50400001928E-02 0.  1.
</event>
<event>
 5   0  0.3689707E-05  0.1300383E+04  0.7818609E-02  0.9029261E-01
        1   -1    0    0  501    0  0.00000000000E+00  0.00000000000E+00  0.54694134360E+03  0.54694134362E+03  0.50400001928E-02 0. -1.
       -1   -1    0    0    0  501  0.00000000000E+00  0.00000000000E+00 -0.77293296878E+03  0.77293296880E+03  0.50400001928E-02 0.  1.
    10030    2    1    2    0    0  0.00000000000E+00  0.00000000000E+00 -0.22599162518E+03  0.13198743124E+04  0.13003830151E+04 0.  0.
        1    1    3    3  502    0  0.58928061692E+03 -0.24301561191E+03 -0.24313925118E+03  0.68222058647E+03  0.50400001928E-02 0. -1.
       -1    1    3    3    0  502 -0.58928061692E+03  0.24301561191E+03  0.17147625995E+02  0.63765372595E+03  0.50400001928E-02 0.  1.
</event>
<event>
 5   0  0.6671239E-05  0.1297183E+04  0.7818609E-02  0.9031802E-01
       -2   -1    0    0    0  501  0.00000000000E+00  0.00000000000E+00  0.28488862403E+03  0.28488862404E+03  0.25500000920E-02 0.  1.
        2   -1    0    0  501    0  0.00000000000E+00  0.00000000000E+00 -0.14766160131E+04  0.14766160131E+04  0.25500000920E-02 0. -1.
    10030    2    1    2    0    0  0.00000000000E+00  0.00000000000E+00 -0.11917273891E+04  0.17615046371E+04  0.12971832626E+04 0.  0.
        1    1    3    3  502    0 -0.17894936421E+03  0.12624317896E+03  0.23316296178E+03  0.31988307544E+03  0.50400001928E-02 0.  1.
       -1    1    3    3    0  502  0.17894936421E+03 -0.12624317896E+03 -0.14248903509E+04  0.14416215617E+04  0.50400001928E-02 0. -1.
</event>
<event>
 5   0  0.3718559E-05  0.1299797E+04  0.7818609E-02  0.9029726E-01
        1   -1    0    0  501    0  0.00000000000E+00  0.00000000000E+00  0.13272450336E+04  0.13272450336E+04  0.50400001928E-02 0. -1.
       -1   -1    0    0    0  501  0.00000000000E+00  0.00000000000E+00 -0.31822938747E+03  0.31822938751E+03  0.50400001928E-02 0.  1.
    10030    2    1    2    0    0  0.00000000000E+00  0.00000000000E+00  0.10090156461E+04  0.16454744211E+04  0.12997974828E+04 0.  0.
        2    1    3    3  502    0  0.40197761875E+03  0.29819050725E+03 -0.20310391260E+02  0.50091525889E+03  0.25500000920E-02 0.  1.
       -2    1    3    3    0  502 -0.40197761875E+03 -0.29819050725E+03  0.10293260374E+04  0.11445591622E+04  0.25500000920E-02 0. -1.
</event>
<event>
 5   0  0.3689707E-05  0.1299578E+04  0.7818609E-02  0.9029900E-01
       -1   -1    0    0    0  501  0.00000000000E+00  0.00000000000E+00  0.82795341046E+03  0.82795341048E+03  0.50400001928E-02 0.  1.
        1   -1    0    0  501    0  0.00000000000E+00  0.00000000000E+00 -0.50996303492E+03  0.50996303494E+03  0.50400001928E-02 0. -1.
    10030    2    1    2    0    0  0.00000000000E+00  0.00000000000E+00  0.31799037554E+03  0.13379164454E+04  0.12995778299E+04 0.  0.
        1    1    3    3  502    0 -0.25509970373E+03  0.28254012996E+03  0.70114331203E+03  0.79781371755E+03  0.50400001928E-02 0.  1.
       -1    1    3    3    0  502  0.25509970373E+03 -0.28254012996E+03 -0.38315293649E+03  0.54010272787E+03  0.50400001928E-02 0. -1.
</event>
<event>
 5   0  0.6458698E-05  0.1296530E+04  0.7818609E-02  0.9032322E-01
        2   -1    0    0  501    0  0.00000000000E+00  0.00000000000E+00  0.93909835013E+03  0.93909835013E+03  0.25500000920E-02 0. -1.
       -2   -1    0    0    0  501  0.00000000000E+00  0.00000000000E+00 -0.44750092102E+03  0.44750092102E+03  0.25500000920E-02 0.  1.
    10030    2    1    2    0    0  0.00000000000E+00  0.00000000000E+00  0.49159742912E+03  0.13865992712E+04  0.12965297939E+04 0.  0.
        3    1    3    3  502    0  0.56195837493E+03 -0.49404852718E+02 -0.95778092970E+02  0.57219883600E+03  0.10100000352E+00 0.  1.
       -3    1    3    3    0  502 -0.56195837493E+03  0.49404852718E+02  0.58737552209E+03  0.81440043515E+03  0.10100000352E+00 0. -1.
</event>
<event>
 5   0  0.3551277E-05  0.1300229E+04  0.7818609E-02  0.9029384E-01
       -1   -1    0    0    0  501  0.00000000000E+00  0.00000000000E+00  0.79683552836E+03  0.79683552838E+03  0.50400001928E-02 0. -1.
        1   -1    0    0  501    0  0.00000000000E+00  0.00000000000E+00 -0.53040908972E+03  0.53040908974E+03  0.50400001928E-02 0.  1.
    10030    2    1    2    0    0  0.00000000000E+00  0.00000000000E+00  0.26642643865E+03  0.13272446181E+04  0.13002289141E+04 0.  0.
        4    1    3    3  502    0  0.12769000887E+03 -0.15187100910E+03 -0.49874432446E+03  0.53676536387E+03  0.12699999809E+01 0.  1.
       -4    1    3    3    0  502 -0.12769000887E+03  0.15187100910E+03  0.76517076311E+03  0.79047925425E+03  0.12699999809E+01 0. -1.
</event>
<event>
 5   0  0.3551277E-05  0.1298480E+04  0.7818609E-02  0.9030771E-01
       -1   -1    0    0    0  501  0.00000000000E+00  0.00000000000E+00  0.37211487843E+03  0.37211487847E+03  0.50400001928E-02 0.  1.
        1   -1    0    0  501    0  0.00000000000E+00  0.00000000000E+00 -0.11327486062E+04  0.11327486062E+04  0.50400001928E-02 0. -1.
    10030    2    1    2    0    0  0.00000000000E+00  0.00000000000E+00 -0.76063372775E+03  0.15048634847E+04  0.12984800498E+04 0.  0.
        4    1    3    3  502    0 -0.95589835714E+01  0.44957460357E+03  0.16241261927E+03  0.47810895217E+03  0.12699999809E+01 0.  1.
       -4    1    3    3    0  502  0.95589835714E+01 -0.44957460357E+03 -0.92304634702E+03  0.10267545325E+04  0.12699999809E+01 0. -1.
</event>
<event>
 5   0  0.3551277E-05  0.1300034E+04  0.7818609E-02  0.9029539E-01
        1   -1    0    0  501    0  0.00000000000E+00  0.00000000000E+00  0.50959454539E+03  0.50959454541E+03  0.50400001928E-02 0. -1.
       -1   -1    0    0    0  501  0.00000000000E+00  0.00000000000E+00 -0.82913324908E+03  0.82913324910E+03  0.50400001928E-02 0.  1.
    10030    2    1    2    0    0  0.00000000000E+00  0.00000000000E+00 -0.31953870369E+03  0.13387277945E+04  0.13000335090E+04 0.  0.
        4    1    3    3  502    0 -0.53624656075E+03 -0.53261253706E+02  0.21453683136E+03  0.58002137889E+03  0.12699999809E+01 0. -1.
       -4    1    3    3    0  502  0.53624656075E+03  0.53261253706E+02 -0.53407553505E+03  0.75870641562E+03  0.12699999809E+01 0.  1.
</event>
<event>
 5   0  0.6618060E-05  0.1299939E+04  0.7818609E-02  0.9029614E-01
       -2   -1    0    0    0  501  0.00000000000E+00  0.00000000000E+00  0.58510559038E+03  0.58510559038E+03  0.25500000920E-02 0. -1.
        2   -1    0    0  501    0  0.00000000000E+00  0.00000000000E+00 -0.72202362367E+03  0.72202362367E+03  0.25500000920E-02 0.  1.
    10030    2    1    2    0    0  0.00000000000E+00  0.00000000000E+00 -0.13691803329E+03  0.13071292141E+04  0.12999385502E+04 0.  0.
        2    1    3    3  502    0  0.13853289851E+03  0.56755954767E+03 -0.35489408707E+03  0.68356785849E+03  0.25500000920E-02 0.  1.
       -2    1    3    3    0  502 -0.13853289851E+03 -0.56755954767E+03  0.21797605379E+03  0.62356135556E+03  0.25500000920E-02 0. -1.
</event>
<event>
 5   0  0.6742824E-05  0.1299114E+04  0.7818609E-02  0.9030268E-01
        2   -1    0    0  501    0  0.00000000000E+00  0.00000000000E+00  0.56194522112E+03  0.56194522113E+03  0.25500000920E-02 0. -1.
       -2   -1    0    0    0  501  0.00000000000E+00  0.00000000000E+00 -0.75082842447E+03  0.75082842447E+03  0.25500000920E-02 0.  1.
    10030    2    1    2    0    0  0.00000000000E+00  0.00000000000E+00 -0.18888320335E+03  0.13127736456E+04  0.12991142290E+04 0.  0.
        4    1    3    3  502    0 -0.39808831523E+02  0.54693213247E+03  0.25736160092E+03  0.60576902127E+03  0.12699999809E+01 0. -1.
       -4    1    3    3    0  502  0.39808831523E+02 -0.54693213247E+03 -0.44624480427E+03  0.70700462434E+03  0.12699999809E+01 0.  1.
</event>
<event>
 5   0  0.6458698E-05  0.1300689E+04  0.7818609E-02  0.9029019E-01
        2   -1    0    0  501    0  0.00000000000E+00  0.00000000000E+00  0.33012758544E+03  0.33012758545E+03  0.25500000920E-02 0. -1.
       -2   -1    0    0    0  501  0.00000000000E+00  0.00000000000E+00 -0.12811643248E+04  0.12811643248E+04  0.25500000920E-02 0.  1.
    10030    2    1    2    0    0  0.00000000000E+00  0.00000000000E+00 -0.95103673933E+03  0.16112919102E+04  0.13006885639E+04 0.  0.
        3    1    3    3  502    0 -0.25408088182E+03 -0.47489048403E+03 -0.23960170256E+02  0.53912166186E+03  0.10100000352E+00 0. -1.
       -3    1    3    3    0  502  0.25408088182E+03  0.47489048403E+03 -0.92707656907E+03  0.10721702484E+04  0.10100000352E+00 0.  1.
</event>
<event>
 5   0  0.3631841E-05  0.1300122E+04  0.7818609E-02  0.9029468E-01
        1   -1    0    0  501    0  0.00000000000E+00  0.00000000000E+00  0.81409149706E+03  0.81409149707E+03  0.50400001928E-02 0.  1.
       -1   -1    0    0    0  501  0.00000000000E+00  0.00000000000E+00 -0.51908120036E+03  0.51908120038E+03  0.50400001928E-02 0. -1.
    10030    2    1    2    0    0  0.00000000000E+00  0.00000000000E+00  0.29501029670E+03  0.13331726975E+04  0.13001224427E+04 0.  0.
        3    1    3    3  502    0  0.13562565958E+02  0.35912823659E+03 -0.40794987373E+03  0.54367282734E+03  0.10100000352E+00 0. -1.
       -3    1    3    3    0  502 -0.13562565958E+02 -0.35912823659E+03  0.70296017042E+03  0.78949987012E+03  0.10100000352E+00 0.  1.
</event>
<event>
 5   0  0.6688086E-05  0.1300030E+04  0.7818609E-02  0.9029541E-01
        2   -1    0    0  501    0  0.00000000000E+00  0.00000000000E+00  0.14086146109E+04  0.14086146109E+04  0.25500000920E-02 0. -1.
       -2   -1    0    0    0  501  0.00000000000E+00  0.00000000000E+00 -0.29995392740E+03  0.29995392741E+03  0.25500000920E-02 0.  1.
    10030    2    1    2    0    0  0.00000000000E+00  0.00000000000E+00  0.11086606835E+04  0.17085685383E+04  0.13000299762E+04 0.  0.
        5    1    3    3  502    0  0.12718383353E+03 -0.63742045411E+03  0.55972229397E+03  0.85778301405E+03  0.46999998093E+01 0.  1.
       -5    1    3    3    0  502 -0.12718383353E+03  0.63742045411E+03  0.54893838955E+03  0.85078552429E+03  0.46999998093E+01 0. -1.
</event>
<event>
 5   0  0.2512000E-05  0.1300152E+04  0.7818609E-02  0.9029445E-01
       -3   -1    0    0    0  501  0.00000000000E+00  0.00000000000E+00  0.46182489567E+03  0.46182490672E+03  0.10100000352E+00 0. -1.
        3   -1    0    0  501    0  0.00000000000E+00  0.00000000000E+00 -0.91506296856E+03  0.91506297413E+03  0.10100000352E+00 0.  1.
    10030    2    1    2    0    0  0.00000000000E+00  0.00000000000E+00 -0.45323807288E+03  0.13768878808E+04  0.13001521010E+04 0.  0.
        5    1    3    3  502    0  0.24865056522E+03 -0.35147255359E+03  0.28917588924E+03  0.51865676939E+03  0.46999998093E+01 0. -1.
       -5    1    3    3    0  502 -0.24865056522E+03  0.35147255359E+03 -0.74241396213E+03  0.85823111146E+03  0.46999998093E+01 0.  1.
</event>
<event>
 5   0  0.6618060E-05  0.1299900E+04  0.7818609E-02  0.9029645E-01
       -2   -1    0    0    0  501  0.00000000000E+00  0.00000000000E+00  0.77561408634E+03  0.77561408635E+03  0.25500000920E-02 0. -1.
        2   -1    0    0  501    0  0.00000000000E+00  0.00000000000E+00 -0.54464573979E+03  0.54464573979E+03  0.25500000920E-02 0.  1.
    10030    2    1    2    0    0  0.00000000000E+00  0.00000000000E+00  0.23096834655E+03  0.13202598261E+04  0.12998998544E+04 0.  0.
        2    1    3    3  502    0 -0.47996811746E+03  0.43810297516E+03  0.12712214454E+03  0.66216587821E+03  0.25500000920E-02 0.  1.
       -2    1    3    3    0  502  0.47996811746E+03 -0.43810297516E+03  0.10384620201E+03  0.65809394793E+03  0.25500000920E-02 0. -1.
</event>
<event>
 5   0  0.3631841E-05  0.1303571E+04  0.7818609E-02  0.9026738E-01
       -1   -1    0    0    0  501  0.00000000000E+00  0.00000000000E+00  0.13322609525E+04  0.13322609525E+04  0.50400001928E-02 0. -1.
        1   -1    0    0  501    0  0.00000000000E+00  0.00000000000E+00 -0.31887448509E+03  0.31887448513E+03  0.50400001928E-02 0.  1.
    10030    2    1    2    0    0  0.00000000000E+00  0.00000000000E+00  0.10133864674E+04  0.16511354376E+04  0.13035705202E+04 0.  0.
        3    1    3    3  502    0 -0.42178843584E+03 -0.45358700373E+03  0.24966701890E+03  0.66781755375E+03  0.10100000352E+00 0.  1.
       -3    1    3    3    0  502  0.42178843584E+03  0.45358700373E+03  0.76371944851E+03  0.98331788390E+03  0.10100000352E+00 0. -1.
</event>
<event>
 5   0  0.6688086E-05  0.1299721E+04  0.7818609E-02  0.9029786E-01
       -2   -1    0    0    0  501  0.00000000000E+00  0.00000000000E+00  0.51912698860E+03  0.51912698861E+03  0.25500000920E-02 0.  1.
        2   -1    0    0  501    0  0.00000000000E+00  0.00000000000E+00 -0.81351701536E+03  0.81351701536E+03  0.25500000920E-02 0. -1.
    10030    2    1    2    0    0  0.00000000000E+00  0.00000000000E+00 -0.29439002676E+03  0.13326440040E+04  0.12997209521E+04 0.  0.
        5    1    3    3  502    0  0.11500233237E+03  0.17049780303E+03  0.48486263553E+03  0.52669621474E+03  0.46999998093E+01 0.  1.
       -5    1    3    3    0  502 -0.11500233237E+03 -0.17049780303E+03 -0.77925266228E+03  0.80594778923E+03  0.46999998093E+01 0. -1.
</event>
<event>
 5   0  0.3552698E-05  0.1297498E+04  0.7818609E-02  0.9031552E-01
       -1   -1    0    0    0  501  0.00000000000E+00  0.00000000000E+00  0.74290513649E+03  0.74290513650E+03  0.50400001928E-02 0. -1.
        1   -1    0    0  501    0  0.00000000000E+00  0.00000000000E+00 -0.56652585352E+03  0.56652585355E+03  0.50400001928E-02 0.  1.
    10030    2    1    2    0    0  0.00000000000E+00  0.00000000000E+00  0.17637928296E+03  0.13094309901E+04  0.12974975400E+04 0.  0.
        5    1    3    3  502    0  0.48290006415E+03 -0.34001705241E+03 -0.18269817595E+03  0.61822712766E+03  0.46999998093E+01 0.  1.
       -5    1    3    3    0  502 -0.48290006415E+03  0.34001705241E+03  0.35907745891E+03  0.69120386239E+03  0.46999998093E+01 0. -1.
</event>
<event>
 5   0  0.6688086E-05  0.1301898E+04  0.7818609E-02  0.9028061E-01
       -2   -1    0    0    0  501  0.00000000000E+00  0.00000000000E+00  0.36617600815E+03  0.36617600816E+03  0.25500000920E-02 0.  1.
        2   -1    0    0  501    0  0.00000000000E+00  0.00000000000E+00 -0.11571884158E+04  0.11571884159E+04  0.25500000920E-02 0. -1.
    10030    2    1    2    0    0  0.00000000000E+00  0.00000000000E+00 -0.79101240770E+03  0.15233644240E+04  0.13018980525E+04 0.  0.
        5    1    3    3  502    0 -0.27296753938E+03  0.51602261070E+03 -0.58559246438E+02  0.58672130321E+03  0.46999998093E+01 0.  1.
       -5    1    3    3    0  502  0.27296753938E+03 -0.51602261070E+03 -0.73245316126E+03  0.93664312080E+03  0.46999998093E+01 0. -1.
</event>
<event>
 5   0  0.6671239E-05  0.1300125E+04  0.7818609E-02  0.9029466E-01
       -2   -1    0    0    0  501  0.00000000000E+00  0.00000000000E+00  0.80002249494E+03  0.80002249494E+03  0.25500000920E-02 0.  1.
        2   -1    0    0  501    0  0.00000000000E+00  0.00000000000E+00 -0.52821205923E+03  0.52821205924E+03  0.25500000920E-02 0. -1.
    10030    2    1    2    0    0  0.00000000000E+00  0.00000000000E+00  0.27181043571E+03  0.13282345542E+04  0.13001254239E+04 0.  0.
        1    1    3    3  502    0 -0.27651323981E+03 -0.38662331640E+03  0.58893867925E+03  0.75682622081E+03  0.50400001928E-02 0.  1.
       -1    1    3    3    0  502  0.27651323981E+03  0.38662331640E+03 -0.31712824354E+03  0.57140833337E+03  0.50400001928E-02 0. -1.
</event>
<event>
 5   0  0.6742824E-05  0.1299893E+04  0.7818609E-02  0.9029650E-01
        2   -1    0    0  501    0  0.00000000000E+00  0.00000000000E+00  0.35397315630E+03  0.35397315631E+03  0.25500000920E-02 0.  1.
       -2   -1    0    0    0  501  0.00000000000E+00  0.00000000000E+00 -0.11933965907E+04  0.11933965907E+04  0.25500000920E-02 0. -1.
    10030    2    1    2    0    0  0.00000000000E+00  0.00000000000E+00 -0.83942343438E+03  0.15473697470E+04  0.12998928539E+04 0.  0.
        4    1    3    3  502    0  0.38246535795E+03 -0.45400694989E+02 -0.10429173579E+04  0.11117640044E+04  0.12699999809E+01 0. -1.
       -4    1    3    3    0  502 -0.38246535795E+03  0.45400694989E+02  0.20349392356E+03  0.43560574257E+03  0.12699999809E+01 0.  1.
</event>
<event>
 5   0  0.3631841E-05  0.1299975E+04  0.7818609E-02  0.9029585E-01
        1   -1    0    0  501    0  0.00000000000E+00  0.00000000000E+00  0.45665470353E+03  0.45665470356E+03  0.50400001928E-02 0. -1.
       -1   -1    0    0    0  501  0.00000000000E+00  0.00000000000E+00 -0.92517098997E+03  0.92517098998E+03  0.50400001928E-02 0.  1.
    10030    2    1    2    0    0  0.00000000000E+00  0.00000000000E+00 -0.46851628644E+03  0.13818256935E+04  0.12999748985E+04 0.  0.
        3    1    3    3  502    0  0.40745775940E+02 -0.14893107287E+03  0.43687759169E+03  0.46336025190E+03  0.10100000352E+00 0. -1.
       -3    1    3    3    0  502 -0.40745775940E+02  0.14893107287E+03 -0.90539387813E+03  0.91846544163E+03  0.10100000352E+00 0.  1.
</event>
<event>
 5   0  0.3551277E-05  0.1291215E+04  0.7818609E-02  0.9036561E-01
        1   -1    0    0  501    0  0.00000000000E+00  0.00000000000E+00  0.71192213666E+03  0.71192213667E+03  0.50400001928E-02 0. -1.
       -1   -1    0    0    0  501  0.00000000000E+00  0.00000000000E+00 -0.58547021438E+03  0.58547021440E+03  0.50400001928E-02 0.  1.
    10030    2    1    2    0    0  0.00000000000E+00  0.00000000000E+00  0.12645192228E+03  0.12973923511E+04  0.12912152508E+04 0.  0.
        4    1    3    3  502    0  0.90764739516E+02  0.55996114991E+03  0.37294214170E+03  0.67888303949E+03  0.12699999809E+01 0. -1.
       -4    1    3    3    0  502 -0.90764739516E+02 -0.55996114991E+03 -0.24649021942E+03  0.61850931159E+03  0.12699999809E+01 0.  1.
</event>
<event>
 5   0  0.6671239E-05  0.1300020E+04  0.7818609E-02  0.9029549E-01
       -2   -1    0    0    0  501  0.00000000000E+00  0.00000000000E+00  0.55606839766E+03  0.55606839767E+03  0.25500000920E-02 0. -1.
        2   -1    0    0  501    0  0.00000000000E+00  0.00000000000E+00 -0.75982227759E+03  0.75982227759E+03  0.25500000920E-02 0.  1.
    10030    2    1    2    0    0  0.00000000000E+00  0.00000000000E+00 -0.20375387992E+03  0.13158906753E+04  0.13000202405E+04 0.  0.
        1    1    3    3  502    0 -0.49345654023E+03 -0.40928032018E+03  0.66863913030E+01  0.64113527857E+03  0.50400001928E-02 0. -1.
       -1    1    3    3    0  502  0.49345654023E+03  0.40928032018E+03 -0.21044027123E+03  0.67475539669E+03  0.50400001928E-02 0.  1.
</event>
<event>
 5   0  0.3689707E-05  0.1299919E+04  0.7818609E-02  0.9029629E-01
        1   -1    0    0  501    0  0.00000000000E+00  0.00000000000E+00  0.17276205231E+04  0.17276205231E+04  0.50400001928E-02 0. -1.
       -1   -1    0    0    0  501  0.00000000000E+00  0.00000000000E+00 -0.24452573250E+03  0.24452573255E+03  0.50400001928E-02 0.  1.
    10030    2    1    2    0    0  0.00000000000E+00  0.00000000000E+00  0.14830947906E+04  0.19721462556E+04  0.12999194959E+04 0.  0.
        1    1    3    3  502    0  0.17787719717E+03 -0.61068282295E+03  0.53871752358E+03  0.83354086747E+03  0.50400001928E-02 0. -1.
       -1    1    3    3    0  502 -0.17787719717E+03  0.61068282295E+03  0.94437726701E+03  0.11386053882E+04  0.50400001928E-02 0.  1.
</event>
<event>
 5   0  0.6742824E-05  0.1300481E+04  0.7818609E-02  0.9029184E-01
        2   -1    0    0  501    0  0.00000000000E+00  0.00000000000E+00  0.24595302319E+04  0.24595302319E+04  0.25500000920E-02 0. -1.
       -2   -1    0    0    0  501  0.00000000000E+00  0.00000000000E+00 -0.17190786453E+03  0.17190786455E+03  0.25500000920E-02 0.  1.
    10030    2    1    2    0    0  0.00000000000E+00  0.00000000000E+00  0.22876223673E+04  0.26314380964E+04  0.13004808187E+04 0.  0.
        4    1    3    3  502    0 -0.58603792463E+03  0.25585809704E+03  0.90519029139E+03  0.11082756388E+04  0.12699999809E+01 0. -1.
       -4    1    3    3    0  502  0.58603792463E+03 -0.25585809704E+03  0.13824320759E+04  0.15231624577E+04  0.12699999809E+01 0.  1.
</event>
<event>
 5   0  0.6688086E-05  0.1299505E+04  0.7818609E-02  0.9029958E-01
       -2   -1    0    0    0  501  0.00000000000E+00  0.00000000000E+00  0.78092069259E+03  0.78092069260E+03  0.25500000920E-02 0. -1.
        2   -1    0    0  501    0  0.00000000000E+00  0.00000000000E+00 -0.54061612073E+03  0.54061612073E+03  0.25500000920E-02 0.  1.
    10030    2    1    2    0    0  0.00000000000E+00  0.00000000000E+00  0.24030457187E+03  0.13215368133E+04  0.12995050064E+04 0.  0.
        5    1    3    3  502    0  0.37419910718E+03 -0.39643967609E+02  0.65881123906E+03  0.75871664981E+03  0.46999998093E+01 0. -1.
       -5    1    3    3    0  502 -0.37419910718E+03  0.39643967609E+02 -0.41850666720E+03  0.56282016352E+03  0.46999998093E+01 0.  1.
</event>
<event>
 5   0  0.6688086E-05  0.1300127E+04  0.7818609E-02  0.9029465E-01
        2   -1    0    0  501    0  0.00000000000E+00  0.00000000000E+00  0.16936935972E+04  0.16936935972E+04  0.25500000920E-02 0. -1.
       -2   -1    0    0    0  501  0.00000000000E+00  0.00000000000E+00 -0.24950347259E+03  0.24950347260E+03  0.25500000920E-02 0.  1.
    10030    2    1    2    0    0  0.00000000000E+00  0.00000000000E+00  0.14441901246E+04  0.19431970698E+04  0.13001268154E+04 0.  0.
        5    1    3    3  502    0  0.11466985297E+03 -0.51277615796E+03  0.15007914782E+03  0.54647452270E+03  0.46999998093E+01 0.  1.
       -5    1    3    3    0  502 -0.11466985297E+03  0.51277615796E+03  0.12941109768E+04  0.13967225471E+04  0.46999998093E+01 0. -1.
</event>
<event>
 5   0  0.3551277E-05  0.1300010E+04  0.7818609E-02  0.9029557E-01
        1   -1    0    0  501    0  0.00000000000E+00  0.00000000000E+00  0.71809884208E+03  0.71809884209E+03  0.50400001928E-02 0.  1.
       -1   -1    0    0    0  501  0.00000000000E+00  0.00000000000E+00 -0.58836821495E+03  0.58836821497E+03  0.50400001928E-02 0. -1.
    10030    2    1    2    0    0  0.00000000000E+00  0.00000000000E+00  0.12973062713E+03  0.13064670571E+04  0.13000100521E+04 0.  0.
        4    1    3    3  502    0  0.32586206506E+03  0.20226779991E+03 -0.46253320218E+03  0.60086348229E+03  0.12699999809E+01 0. -1.
       -4    1    3    3    0  502 -0.32586206506E+03 -0.20226779991E+03  0.59226382931E+03  0.70560357478E+03  0.12699999809E+01 0.  1.
</event>
<event>
 5   0  0.3551277E-05  0.1299143E+04  0.7818609E-02  0.9030245E-01
       -1   -1    0    0    0  501  0.00000000000E+00  0.00000000000E+00  0.41743835017E+03  0.41743835020E+03  0.50400001928E-02 0.  1.
        1   -1    0    0  501    0  0.00000000000E+00  0.00000000000E+00 -0.10107918124E+04  0.10107918124E+04  0.50400001928E-02 0. -1.
    10030    2    1    2    0    0  0.00000000000E+00  0.00000000000E+00 -0.59335346223E+03  0.14282301626E+04  0.12991432047E+04 0.  0.
        4    1    3    3  502    0 -0.57940269090E+03 -0.37235388937E+02 -0.61690614091E+03  0.84715332261E+03  0.12699999809E+01 0.  1.
       -4    1    3    3    0  502  0.57940269090E+03  0.37235388937E+02  0.23552678680E+02  0.58107684000E+03  0.12699999809E+01 0. -1.
</event>
<event>
 5   0  0.2512000E-05  0.1301197E+04  0.7818609E-02  0.9028616E-01
        3   -1    0    0  501    0  0.00000000000E+00  0.00000000000E+00  0.64672020594E+03  0.64672021382E+03  0.10100000352E+00 0. -1.
       -3   -1    0    0    0  501  0.00000000000E+00  0.00000000000E+00 -0.65450032468E+03  0.65450033247E+03  0.10100000352E+00 0.  1.
    10030    2    1    2    0    0  0.00000000000E+00  0.00000000000E+00 -0.77801187427E+01  0.13012205463E+04  0.13011972871E+04 0.  0.
        3    1    3    3  502    0 -0.23188665462E+03 -0.55501142862E+03  0.24404476241E+03  0.64912784777E+03  0.10100000352E+00 0. -1.
       -3    1    3    3    0  502  0.23188665462E+03  0.55501142862E+03 -0.25182488116E+03  0.65209269852E+03  0.10100000352E+00 0.  1.
</event>
<event>
 5   0  0.3689707E-05  0.1289736E+04  0.7818609E-02  0.9037744E-01
        1   -1    0    0  501    0  0.00000000000E+00  0.00000000000E+00  0.21776465171E+03  0.21776465177E+03  0.50400001928E-02 0. -1.
       -1   -1    0    0    0  501  0.00000000000E+00  0.00000000000E+00 -0.19096521702E+04  0.19096521703E+04  0.50400001928E-02 0.  1.
    10030    2    1    2    0    0  0.00000000000E+00  0.00000000000E+00 -0.16918875185E+04  0.21274168220E+04  0.12897360037E+04 0.  0.
        1    1    3    3  502    0 -0.47242218571E+03  0.59954354839E+02 -0.12869189830E+03  0.49329387887E+03  0.50400001928E-02 0. -1.
       -1    1    3    3    0  502  0.47242218571E+03 -0.59954354839E+02 -0.15631956202E+04  0.16341229432E+04  0.50400001928E-02 0.  1.
</event>
<event>
 5   0  0.6688086E-05  0.1300242E+04  0.7818609E-02  0.9029373E-01
       -2   -1    0    0    0  501  0.00000000000E+00  0.00000000000E+00  0.43394977017E+03  0.43394977017E+03  0.25500000920E-02 0. -1.
        2   -1    0    0  501    0  0.00000000000E+00  0.00000000000E+00 -0.97397721902E+03  0.97397721902E+03  0.25500000920E-02 0.  1.
    10030    2    1    2    0    0  0.00000000000E+00  0.00000000000E+00 -0.54002744885E+03  0.14079269892E+04  0.13002418088E+04 0.  0.
        5    1    3    3  502    0 -0.11381079617E+03 -0.14555366692E+03  0.40490188043E+03  0.44509144010E+03  0.46999998093E+01 0. -1.
       -5    1    3    3    0  502  0.11381079617E+03  0.14555366692E+03 -0.94492932928E+03  0.96283554910E+03  0.46999998093E+01 0.  1.
</event>
<event>
 5   0  0.6671239E-05  0.1301595E+04  0.7818609E-02  0.9028301E-01
       -2   -1    0    0    0  501  0.00000000000E+00  0.00000000000E+00  0.72597597898E+03  0.72597597898E+03  0.25500000920E-02 0. -1.
        2   -1    0    0  501    0  0.00000000000E+00  0.00000000000E+00 -0.58340394877E+03  0.58340394878E+03  0.25500000920E-02 0.  1.
    10030    2    1    2    0    0  0.00000000000E+00  0.00000000000E+00  0.14257203021E+03  0.13093799278E+04  0.13015947954E+04 0.  0.
        1    1    3    3  502    0  0.35552536104E+02  0.52441451346E+03  0.45732950901E+03  0.69672436773E+03  0.50400001928E-02 0. -1.
       -1    1    3    3    0  502 -0.35552536104E+02 -0.52441451346E+03 -0.31475747880E+03  0.61265556003E+03  0.50400001928E-02 0.  1.
</event>
<event>
 5   0  0.6671239E-05  0.1299537E+04  0.7818609E-02  0.9029933E-01
       -2   -1    0    0    0  501  0.00000000000E+00  0.00000000000E+00  0.35578419116E+03  0.35578419117E+03  0.25500000920E-02 0. -1.
        2   -1    0    0  501    0  0.00000000000E+00  0.00000000000E+00 -0.11866710733E+04  0.11866710733E+04  0.25500000920E-02 0.  1.
    10030    2    1    2    0    0  0.00000000000E+00  0.00000000000E+00 -0.83088688215E+03  0.15424552645E+04  0.12995365451E+04 0.  0.
        1    1    3    3  502    0  0.63486970526E+03  0.12732823250E+03 -0.47965594475E+03  0.80581750217E+03  0.50400001928E-02 0.  1.
       -1    1    3    3    0  502 -0.63486970526E+03 -0.12732823250E+03 -0.35123093740E+03  0.73663776231E+03  0.50400001928E-02 0. -1.
</event>
<event>
 5   0  0.6671239E-05  0.1299122E+04  0.7818609E-02  0.9030262E-01
        2   -1    0    0  501    0  0.00000000000E+00  0.00000000000E+00  0.95770714201E+03  0.95770714201E+03  0.25500000920E-02 0.  1.
       -2   -1    0    0    0  501  0.00000000000E+00  0.00000000000E+00 -0.44056182836E+03  0.44056182836E+03  0.25500000920E-02 0. -1.
    10030    2    1    2    0    0  0.00000000000E+00  0.00000000000E+00  0.51714531365E+03  0.13982689704E+04  0.12991215640E+04 0.  0.
        1    1    3    3  502    0 -0.34557024031E+03 -0.22347679572E+03  0.79948956328E+03  0.89919087575E+03  0.50400001928E-02 0.  1.
       -1    1    3    3    0  502  0.34557024031E+03  0.22347679572E+03 -0.28234424963E+03  0.49907809463E+03  0.50400001928E-02 0. -1.
</event>
<event>
 5   0  0.3718559E-05  0.1299453E+04  0.7818609E-02  0.9029999E-01
       -1   -1    0    0    0  501  0.00000000000E+00  0.00000000000E+00  0.64889844502E+03  0.64889844504E+03  0.50400001928E-02 0.  1.
        1   -1    0    0  501    0  0.00000000000E+00  0.00000000000E+00 -0.65055608877E+03  0.65055608879E+03  0.50400001928E-02 0. -1.
    10030    2    1    2    0    0  0.00000000000E+00  0.00000000000E+00 -0.16576437532E+01  0.12994545338E+04  0.12994534765E+04 0.  0.
        2    1    3    3  502    0 -0.39601557034E+02 -0.63707006476E+03 -0.12214785434E+03  0.64988202703E+03  0.25500000920E-02 0. -1.
       -2    1    3    3    0  502  0.39601557034E+02  0.63707006476E+03  0.12049021058E+03  0.64957250680E+03  0.25500000920E-02 0.  1.
</event>
<event>
 5   0  0.3552698E-05  0.1300339E+04  0.7818609E-02  0.9029297E-01
        1   -1    0    0  501    0  0.00000000000E+00  0.00000000000E+00  0.15972964745E+04  0.15972964745E+04  0.50400001928E-02 0.  1.
       -1   -1    0    0    0  501  0.00000000000E+00  0.00000000000E+00 -0.26464728151E+03  0.26464728155E+03  0.50400001928E-02 0. -1.
    10030    2    1    2    0    0  0.00000000000E+00  0.00000000000E+00  0.13326491930E+04  0.18619437561E+04  0.13003386786E+04 0.  0.
        5    1    3    3  502    0 -0.28790924022E+03  0.33907114924E+03 -0.12635216412E+02  0.44501990241E+03  0.46999998093E+01 0. -1.
       -5    1    3    3    0  502  0.28790924022E+03 -0.33907114924E+03  0.13452844094E+04  0.14169238536E+04  0.46999998093E+01 0.  1.
</event>
<event>
 5   0  0.6688086E-05  0.1299898E+04  0.7818609E-02  0.9029646E-01
       -2   -1    0    0    0  501  0.00000000000E+00  0.00000000000E+00  0.27244549898E+03  0.27244549899E+03  0.25500000920E-02 0.  1.
        2   -1    0    0  501    0  0.00000000000E+00  0.00000000000E+00 -0.15505255988E+04  0.15505255988E+04  0.25500000920E-02 0. -1.
    10030    2    1    2    0    0  0.00000000000E+00  0.00000000000E+00 -0.12780800998E+04  0.18229710978E+04  0.12998980275E+04 0.  0.
        5    1    3    3  502    0 -0.19141511171E+03  0.52163870607E+03 -0.16623318563E+03  0.58000193677E+03  0.46999998093E+01 0.  1.
       -5    1    3    3    0  502  0.19141511171E+03 -0.52163870607E+03 -0.11118469142E+04  0.12429691610E+04  0.46999998093E+01 0. -1.
</event>
<event>
 5   0  0.3551277E-05  0.1298789E+04  0.7818609E-02  0.9030526E-01
       -1   -1    0    0    0  501  0.00000000000E+00  0.00000000000E+00  0.62095671410E+03  0.62095671412E+03  0.50400001928E-02 0. -1.
        1   -1    0    0  501    0  0.00000000000E+00  0.00000000000E+00 -0.67913508827E+03  0.67913508829E+03  0.50400001928E-02 0.  1.
    10030    2    1    2    0    0  0.00000000000E+00  0.00000000000E+00 -0.58178374169E+02  0.13000918024E+04  0.12987894254E+04 0.  0.
        4    1    3    3  502    0  0.46151711119E+03  0.35681691759E+03 -0.31467428113E+03  0.66282567293E+03  0.12699999809E+01 0.  1.
       -4    1    3    3    0  502 -0.46151711119E+03 -0.35681691759E+03  0.25649590696E+03  0.63726612948E+03  0.12699999809E+01 0. -1.
</event>
<event>
 5   0  0.6618060E-05  0.1300551E+04  0.7818609E-02  0.9029129E-01
        2   -1    0    0  501    0  0.00000000000E+00  0.00000000000E+00  0.14672566997E+04  0.14672566997E+04  0.25500000920E-02 0. -1.
       -2   -1    0    0    0  501  0.00000000000E+00  0.00000000000E+00 -0.28819626547E+03  0.28819626548E+03  0.25500000920E-02 0.  1.
    10030    2    1    2    0    0  0.00000000000E+00  0.00000000000E+00  0.11790604343E+04  0.17554529652E+04  0.13005505009E+04 0.  0.
        2    1    3    3  502    0 -0.28381680883E+03 -0.31162016374E+03 -0.78846236759E+02  0.42880745852E+03  0.25500000920E-02 0.  1.
       -2    1    3    3    0  502  0.28381680883E+03  0.31162016374E+03  0.12579066710E+04  0.13266455067E+04  0.25500000920E-02 0. -1.
</event>
<event>
 5   0  0.3689707E-05  0.1300034E+04  0.7818609E-02  0.9029538E-01
       -1   -1    0    0    0  501  0.00000000000E+00  0.00000000000E+00  0.12846861159E+04  0.12846861159E+04  0.50400001928E-02 0.  1.
        1   -1    0    0  501    0  0.00000000000E+00  0.00000000000E+00 -0.32889132298E+03  0.32889132302E+03  0.50400001928E-02 0. -1.
    10030    2    1    2    0    0  0.00000000000E+00  0.00000000000E+00  0.95579479292E+03  0.16135774389E+04  0.13000340247E+04 0.  0.
        1    1    3    3  502    0  0.16870667298E+03  0.19416043603E+03 -0.26303865546E+03  0.36789883218E+03  0.50400001928E-02 0. -1.
       -1    1    3    3    0  502 -0.16870667298E+03 -0.19416043603E+03  0.12188334484E+04  0.12456786068E+04  0.50400001928E-02 0.  1.
</event>
<event>
 5   0  0.6458698E-05  0.1302715E+04  0.7818609E-02  0.9027415E-01
       -2   -1    0    0    0  501  0.00000000000E+00  0.00000000000E+00  0.47864669398E+03  0.47864669398E+03  0.25500000920E-02 0.  1.
        2   -1    0    0  501    0  0.00000000000E+00  0.00000000000E+00 -0.88638788946E+03  0.88638788946E+03  0.25500000920E-02 0. -1.
    10030    2    1    2    0    0  0.00000000000E+00  0.00000000000E+00 -0.40774119548E+03  0.13650345834E+04  0.13027150615E+04 0.  0.
        3    1    3    3  502    0  0.23608826981E+02 -0.36195051536E+03  0.36302929581E+03  0.51318206526E+03  0.10100000352E+00 0.  1.
       -3    1    3    3    0  502 -0.23608826981E+02  0.36195051536E+03 -0.77077049129E+03  0.85185251818E+03  0.10100000352E+00 0. -1.
</event>
<event>
 5   0  0.6688086E-05  0.1299931E+04  0.7818609E-02  0.9029620E-01
        2   -1    0    0  501    0  0.00000000000E+00  0.00000000000E+00  0.13609336696E+04  0.13609336696E+04  0.25500000920E-02 0. -1.
       -2   -1    0    0    0  501  0.00000000000E+00  0.00000000000E+00 -0.31041573030E+03  0.31041573031E+03  0.25500000920E-02 0.  1.
    10030    2    1    2    0    0  0.00000000000E+00  0.00000000000E+00  0.10505179393E+04  0.16713493999E+04  0.12999311043E+04 0.  0.
        5    1    3    3  502    0 -0.44473611273E+03 -0.35186489670E+03  0.11698617551E+03  0.57905696677E+03  0.46999998093E+01 0.  1.
       -5    1    3    3    0  502  0.44473611273E+03  0.35186489670E+03  0.93353176382E+03  0.10922924332E+04  0.46999998093E+01 0. -1.
</event>
<event>
 5   0  0.3689707E-05  0.1300649E+04  0.7818609E-02  0.9029051E-01
        1   -1    0    0  501    0  0.00000000000E+00  0.00000000000E+00  0.12160645585E+04  0.12160645585E+04  0.50400001928E-02 0. -1.
       -1   -1    0    0    0  501  0.00000000000E+00  0.00000000000E+00 -0.34777929993E+03  0.34777929997E+03  0.50400001928E-02 0.  1.
    10030    2    1    2    0    0  0.00000000000E+00  0.00000000000E+00  0.86828525852E+03  0.15638438584E+04  0.13006491931E+04 0.  0.
        1    1    3    3  502    0 -0.44804673162E+03 -0.92407323281E+02 -0.12159722606E+03  0.47336124949E+03  0.50400001928E-02 0.  1.
       -1    1    3    3    0  502  0.44804673162E+03  0.92407323281E+02  0.98988248458E+03  0.10904826089E+04  0.50400001928E-02 0. -1.
</event>
<event>
 5   0  0.3551277E-05  0.1300033E+04  0.7818609E-02  0.9029539E-01
        1   -1    0    0  501    0  0.00000000000E+00  0.00000000000E+00  0.90753786361E+03  0.90753786363E+03  0.50400001928E-02 0. -1.
       -1   -1    0    0    0  501  0.00000000000E+00  0.00000000000E+00 -0.46556874549E+03  0.46556874552E+03  0.50400001928E-02 0.  1.
    10030    2    1    2    0    0  0.00000000000E+00  0.00000000000E+00  0.44196911812E+03  0.13731066091E+04  0.13000327145E+04 0.  0.
        4    1    3    3  502    0  0.60756587684E+03  0.17003930412E+03  0.55762933319E+02  0.63337254225E+03  0.12699999809E+01 0.  1.
       -4    1    3    3    0  502 -0.60756587684E+03 -0.17003930412E+03  0.38620618480E+03  0.73973406689E+03  0.12699999809E+01 0. -1.
</event>
<event>
 5   0  0.3552698E-05  0.1300141E+04  0.7818609E-02  0.9029454E-01
        1   -1    0    0  501    0  0.00000000000E+00  0.00000000000E+00  0.10782824962E+04  0.10782824962E+04  0.50400001928E-02 0.  1.
       -1   -1    0    0    0  501  0.00000000000E+00  0.00000000000E+00 -0.39191167164E+03  0.39191167167E+03  0.50400001928E-02 0. -1.
    10030    2    1    2    0    0  0.00000000000E+00  0.00000000000E+00  0.68637082456E+03  0.14701941679E+04  0.13001407549E+04 0.  0.
        5    1    3    3  502    0  0.21273981757E+03  0.60590993130E+03  0.22906835289E+03  0.68182070599E+03  0.46999998093E+01 0. -1.
       -5    1    3    3    0  502 -0.21273981757E+03 -0.60590993130E+03  0.45730247166E+03  0.78837346189E+03  0.46999998093E+01 0.  1.
</event>
<event>
 5   0  0.3552698E-05  0.1299487E+04  0.7818609E-02  0.9029972E-01
       -1   -1    0    0    0  501  0.00000000000E+00  0.00000000000E+00  0.31029743450E+03  0.31029743454E+03  0.50400001928E-02 0. -1.
        1   -1    0    0  501    0  0.00000000000E+00  0.00000000000E+00 -0.13605229935E+04  0.13605229935E+04  0.50400001928E-02 0.  1.
    10030    2    1    2    0    0  0.00000000000E+00  0.00000000000E+00 -0.10502255590E+04  0.16708204281E+04  0.12994872750E+04 0.  0.
        5    1    3    3  502    0  0.60898956582E+03 -0.22641989841E+03 -0.52926773909E+03  0.83802189191E+03  0.46999998093E+01 0.  1.
       -5    1    3    3    0  502 -0.60898956582E+03  0.22641989841E+03 -0.52095781993E+03  0.83279853616E+03  0.46999998093E+01 0. -1.
</event>
<event>
 5   0  0.6688086E-05  0.1300002E+04  0.7818609E-02  0.9029564E-01
       -2   -1    0    0    0  501  0.00000000000E+00  0.00000000000E+00  0.96177304206E+03  0.96177304206E+03  0.25500000920E-02 0.  1.
        2   -1    0    0  501    0  0.00000000000E+00  0.00000000000E+00 -0.43929422126E+03  0.43929422127E+03  0.25500000920E-02 0. -1.
    10030    2    1    2    0    0  0.00000000000E+00  0.00000000000E+00  0.52247882080E+03  0.14010672633E+04  0.13000020608E+04 0.  0.
        5    1    3    3  502    0  0.17604521516E+03 -0.25557695911E+03  0.87674989286E+03  0.93006664516E+03  0.46999998093E+01 0.  1.
       -5    1    3    3    0  502 -0.17604521516E+03  0.25557695911E+03 -0.35427107207E+03  0.47100061817E+03  0.46999998093E+01 0. -1.
</event>
<event>
 5   0  0.6688086E-05  0.1300045E+04  0.7818609E-02  0.9029530E-01
        2   -1    0    0  501    0  0.00000000000E+00  0.00000000000E+00  0.10865784470E+04  0.10865784471E+04  0.25500000920E-02 0. -1.
       -2   -1    0    0    0  501  0.00000000000E+00  0.00000000000E+00 -0.38886198065E+03  0.38886198066E+03  0.25500000920E-02 0.  1.
    10030    2    1    2    0    0  0.00000000000E+00  0.00000000000E+00  0.69771646640E+03  0.14754404277E+04  0.13000446870E+04 0.  0.
        5    1    3    3  502    0  0.24388664960E+02  0.47278584614E+03 -0.15663875652E+03  0.49867730381E+03  0.46999998093E+01 0.  1.
       -5    1    3    3    0  502 -0.24388664960E+02 -0.47278584614E+03  0.85435522292E+03  0.97676312390E+03  0.46999998093E+01 0. -1.
</event>
<event>
 5   0  0.6458698E-05  0.1299891E+04  0.7818609E-02  0.9029651E-01
        2   -1    0    0  501    0  0.00000000000E+00  0.00000000000E+00  0.14765300312E+04  0.14765300312E+04  0.25500000920E-02 0. -1.
       -2   -1    0    0    0  501  0.00000000000E+00  0.00000000000E+00 -0.28609598702E+03  0.28609598703E+03  0.25500000920E-02 0.  1.
    10030    2    1    2    0    0  0.00000000000E+00  0.00000000000E+00  0.11904340442E+04  0.17626260183E+04  0.12998912519E+04 0.  0.
        3    1    3    3  502    0  0.14388633458E+03  0.41625586134E+03  0.12433370963E+04  0.13190372870E+04  0.10100000352E+00 0. -1.
       -3    1    3    3    0  502 -0.14388633458E+03 -0.41625586134E+03 -0.52903052050E+02  0.44358873126E+03  0.10100000352E+00 0.  1.
</event>
<event>
 5   0  0.6688086E-05  0.1299819E+04  0.7818609E-02  0.9029708E-01
       -2   -1    0    0    0  501  0.00000000000E+00  0.00000000000E+00  0.14743903519E+04  0.14743903519E+04  0.25500000920E-02 0. -1.
        2   -1    0    0  501    0  0.00000000000E+00  0.00000000000E+00 -0.28647954567E+03  0.28647954568E+03  0.25500000920E-02 0.  1.
    10030    2    1    2    0    0  0.00000000000E+00  0.00000000000E+00  0.11879108063E+04  0.17608698976E+04  0.12998194924E+04 0.  0.
        5    1    3    3  502    0  0.36445188498E+03 -0.35803101374E+03  0.49794120121E+02  0.51333510270E+03  0.46999998093E+01 0. -1.
       -5    1    3    3    0  502 -0.36445188498E+03  0.35803101374E+03  0.11381166861E+04  0.12475347949E+04  0.46999998093E+01 0.  1.
</event>
<event>
 5   0  0.3718559E-05  0.1299914E+04  0.7818609E-02  0.9029633E-01
       -1   -1    0    0    0  501  0.00000000000E+00  0.00000000000E+00  0.34598600216E+03  0.34598600220E+03  0.50400001928E-02 0.  1.
        1   -1    0    0  501    0  0.00000000000E+00  0.00000000000E+00 -0.12209860751E+04  0.12209860751E+04  0.50400001928E-02 0. -1.
    10030    2    1    2    0    0  0.00000000000E+00  0.00000000000E+00 -0.87500007293E+03  0.15669720773E+04  0.12999139831E+04 0.  0.
        2    1    3    3  502    0  0.54224891645E+03 -0.18335148259E+03 -0.80863638206E+03  0.99072925260E+03  0.25500000920E-02 0. -1.
       -2    1    3    3    0  502 -0.54224891645E+03  0.18335148259E+03 -0.66363690879E+02  0.57624282471E+03  0.25500000920E-02 0.  1.
</event>
<event>
 5   0  0.6458698E-05  0.1300007E+04  0.7818609E-02  0.9029560E-01
        2   -1    0    0  501    0  0.00000000000E+00  0.00000000000E+00  0.71331250993E+03  0.71331250993E+03  0.25500000920E-02 0. -1.
       -2   -1    0    0    0  501  0.00000000000E+00  0.00000000000E+00 -0.59231300208E+03  0.59231300209E+03  0.25500000920E-02 0.  1.
    10030    2    1    2    0    0  0.00000000000E+00  0.00000000000E+00  0.12099950784E+03  0.13056255120E+04  0.13000065757E+04 0.  0.
        3    1    3    3  502    0 -0.11971559689E+03  0.43644030887E+01 -0.58113042627E+03  0.59334935299E+03  0.10100000352E+00 0.  1.
       -3    1    3    3    0  502  0.11971559689E+03 -0.43644030887E+01  0.70212993411E+03  0.71227615904E+03  0.10100000352E+00 0. -1.
</event>
<event>
 5   0  0.6742824E-05  0.1300310E+04  0.7818609E-02  0.9029319E-01
        2   -1    0    0  501    0  0.00000000000E+00  0.00000000000E+00  0.22092524308E+04  0.22092524308E+04  0.25500000920E-02 0. -1.
       -2   -1    0    0    0  501  0.00000000000E+00  0.00000000000E+00 -0.19133251099E+03  0.19133251101E+03  0.25500000920E-02 0.  1.
    10030    2    1    2    0    0  0.00000000000E+00  0.00000000000E+00  0.20179199199E+04  0.24005849419E+04  0.13003104476E+04 0.  0.
        4    1    3    3  502    0  0.15534992931E+03 -0.16610868096E+03  0.21334149062E+04  0.21455037799E+04  0.12699999809E+01 0. -1.
       -4    1    3    3    0  502 -0.15534992931E+03  0.16610868096E+03 -0.11549498637E+03  0.25508116199E+03  0.12699999809E+01 0.  1.
</event>
<event>
 5   0  0.6458698E-05  0.1299481E+04  0.7818609E-02  0.9029977E-01
        2   -1    0    0  501    0  0.00000000000E+00  0.00000000000E+00  0.92461083550E+03  0.92461083551E+03  0.25500000920E-02 0. -1.
       -2   -1    0    0    0  501  0.00000000000E+00  0.00000000000E+00 -0.45658390404E+03  0.45658390405E+03  0.25500000920E-02 0.  1.
    10030    2    1    2    0    0  0.00000000000E+00  0.00000000000E+00  0.46802693146E+03  0.13811947396E+04  0.12994805501E+04 0.  0.
        3    1    3    3  502    0  0.61297055354E+01 -0.63382436001E+03  0.82235071105E+02  0.63916626143E+03  0.10100000352E+00 0.  1.
       -3    1    3    3    0  502 -0.61297055354E+01  0.63382436001E+03  0.38579186035E+03  0.74202847812E+03  0.10100000352E+00 0. -1.
</event>
<event>
 5   0  0.3718559E-05  0.1300180E+04  0.7818609E-02  0.9029423E-01
        1   -1    0    0  501    0  0.00000000000E+00  0.00000000000E+00  0.35263987708E+03  0.35263987712E+03  0.50400001928E-02 0. -1.
       -1   -1    0    0    0  501  0.00000000000E+00  0.00000000000E+00 -0.11984375390E+04  0.11984375390E+04  0.50400001928E-02 0.  1.
    10030    2    1    2    0    0  0.00000000000E+00  0.00000000000E+00 -0.84579766189E+03  0.15510774161E+04  0.13001797821E+04 0.  0.
        2    1    3    3  502    0  0.42689158673E+03 -0.48331759419E+03 -0.32463575408E+03  0.72195615968E+03  0.25500000920E-02 0. -1.
       -2    1    3    3    0  502 -0.42689158673E+03  0.48331759419E+03 -0.52116190781E+03  0.82912125641E+03  0.25500000920E-02 0.  1.
</event>
<event>
 5   0  0.6618060E-05  0.1299529E+04  0.7818609E-02  0.9029939E-01
       -2   -1    0    0    0  501  0.00000000000E+00  0.00000000000E+00  0.34869889578E+03  0.34869889579E+03  0.25500000920E-02 0.  1.
        2   -1    0    0  501    0  0.00000000000E+00  0.00000000000E+00 -0.12107698342E+04  0.12107698342E+04  0.25500000920E-02 0. -1.
    10030    2    1    2    0    0  0.00000000000E+00  0.00000000000E+00 -0.86207093840E+03  0.15594687300E+04  0.12995293059E+04 0.  0.
        2    1    3    3  502    0  0.30777684536E+03  0.41449747274E+03  0.42418996393E+02  0.51800976121E+03  0.25500000920E-02 0.  1.
       -2    1    3    3    0  502 -0.30777684536E+03 -0.41449747274E+03 -0.90448993480E+03  0.10414589688E+04  0.25500000920E-02 0. -1.
</event>
<event>
 5   0  0.3551277E-05  0.1299956E+04  0.7818609E-02  0.9029600E-01
       -1   -1    0    0    0  501  0.00000000000E+00  0.00000000000E+00  0.58835355947E+03  0.58835355950E+03  0.50400001928E-02 0. -1.
        1   -1    0    0  501    0  0.00000000000E+00  0.00000000000E+00 -0.71805699421E+03  0.71805699423E+03  0.50400001928E-02 0.  1.
    10030    2    1    2    0    0  0.00000000000E+00  0.00000000000E+00 -0.12970343474E+03  0.13064105537E+04  0.12999559815E+04 0.  0.
        4    1    3    3  502    0  0.26692212539E+03  0.54414899229E+03 -0.30080297503E+03  0.67663105865E+03  0.12699999809E+01 0.  1.
       -4    1    3    3    0  502 -0.26692212539E+03 -0.54414899229E+03  0.17109954029E+03  0.62977949508E+03  0.12699999809E+01 0. -1.
</event>
<event>
 5   0  0.3551277E-05  0.1298030E+04  0.7818609E-02  0.9031129E-01
       -1   -1    0    0    0  501  0.00000000000E+00  0.00000000000E+00  0.23476494585E+03  0.23476494590E+03  0.50400001928E-02 0.  1.
        1   -1    0    0  501    0  0.00000000000E+00  0.00000000000E+00 -0.17942217229E+04  0.17942217229E+04  0.50400001928E-02 0. -1.
    10030    2    1    2    0    0  0.00000000000E+00  0.00000000000E+00 -0.15594567770E+04  0.20289866688E+04  0.12980298389E+04 0.  0.
        4    1    3    3  502    0  0.33329113128E+03  0.52919809035E+03 -0.10508540656E+04  0.12228775397E+04  0.12699999809E+01 0.  1.
       -4    1    3    3    0  502 -0.33329113128E+03 -0.52919809035E+03 -0.50860271143E+03  0.80610912908E+03  0.12699999809E+01 0. -1.
</event>
<event>
 5   0  0.6742824E-05  0.1299804E+04  0.7818609E-02  0.9029721E-01
        2   -1    0    0  501    0  0.00000000000E+00  0.00000000000E+00  0.59937071159E+03  0.59937071160E+03  0.25500000920E-02 0. -1.
       -2   -1    0    0    0  501  0.00000000000E+00  0.00000000000E+00 -0.70469332831E+03  0.70469332832E+03  0.25500000920E-02 0.  1.
    10030    2    1    2    0    0  0.00000000000E+00  0.00000000000E+00 -0.10532261672E+03  0.13040640399E+04  0.12998038954E+04 0.  0.
        4    1    3    3  502    0 -0.50827611784E+03  0.38066839251E+03  0.86059331672E+02  0.64082825975E+03  0.12699999809E+01 0. -1.
       -4    1    3    3    0  502  0.50827611784E+03 -0.38066839251E+03 -0.19138194839E+03  0.66323578017E+03  0.12699999809E+01 0.  1.
</event>
<event>
 5   0  0.3631841E-05  0.1300073E+04  0.7818609E-02  0.9029507E-01
        1   -1    0    0  501    0  0.00000000000E+00  0.00000000000E+00  0.59221811559E+03  0.59221811561E+03  0.50400001928E-02 0. -1.
       -1   -1    0    0    0  501  0.00000000000E+00  0.00000000000E+00 -0.71349964002E+03  0.71349964004E+03  0.50400001928E-02 0.  1.
    10030    2    1    2    0    0  0.00000000000E+00  0.00000000000E+00 -0.12128152444E+03  0.13057177556E+04  0.13000729400E+04 0.  0.
        3    1    3    3  502    0  0.53645330261E+02  0.62868237672E+03 -0.21761413500E+03  0.66743934122E+03  0.10100000352E+00 0.  1.
       -3    1    3    3    0  502 -0.53645330261E+02 -0.62868237672E+03  0.96332610567E+02  0.63827841442E+03  0.10100000352E+00 0. -1.
</event>
<event>
 5   0  0.2512000E-05  0.1300407E+04  0.7818609E-02  0.9029242E-01
       -4   -1    0    0    0  501  0.00000000000E+00  0.00000000000E+00  0.46191589958E+03  0.46191764545E+03  0.12699999809E+01 0. -1.
        4   -1    0    0  501    0  0.00000000000E+00  0.00000000000E+00 -0.91523814288E+03  0.91523902402E+03  0.12699999809E+01 0.  1.
    10030    2    1    2    0    0  0.00000000000E+00  0.00000000000E+00 -0.45332224330E+03  0.13771566695E+04  0.13004074115E+04 0.  0.
        5    1    3    3  502    0 -0.31758036137E+03 -0.12745509603E+03  0.35881541267E+03  0.49585550093E+03  0.46999998093E+01 0. -1.
       -5    1    3    3    0  502  0.31758036137E+03  0.12745509603E+03 -0.81213765597E+03  0.88130116854E+03  0.46999998093E+01 0.  1.
</event>
<event>
 5   0  0.6458698E-05  0.1300098E+04  0.7818609E-02  0.9029487E-01
       -2   -1    0    0    0  501  0.00000000000E+00  0.00000000000E+00  0.53326177631E+03  0.53326177632E+03  0.25500000920E-02 0.  1.
        2   -1    0    0  501    0  0.00000000000E+00  0.00000000000E+00 -0.79241342896E+03  0.79241342896E+03  0.25500000920E-02 0. -1.
    10030    2    1    2    0    0  0.00000000000E+00  0.00000000000E+00 -0.25915165264E+03  0.13256752053E+04  0.13000981389E+04 0.  0.
        3    1    3    3  502    0 -0.30761625933E+03 -0.51706641167E+03  0.12139295431E+03  0.61377658528E+03  0.10100000352E+00 0.  1.
       -3    1    3    3    0  502  0.30761625933E+03  0.51706641167E+03 -0.38054460696E+03  0.71189862000E+03  0.10100000352E+00 0. -1.
</event>
<event>
 5   0  0.6458698E-05  0.1299702E+04  0.7818609E-02  0.9029801E-01
        2   -1    0    0  501    0  0.00000000000E+00  0.00000000000E+00  0.71844523389E+03  0.71844523390E+03  0.25500000920E-02 0. -1.
       -2   -1    0    0    0  501  0.00000000000E+00  0.00000000000E+00 -0.58780593507E+03  0.58780593508E+03  0.25500000920E-02 0.  1.
    10030    2    1    2    0    0  0.00000000000E+00  0.00000000000E+00  0.13063929882E+03  0.13062511690E+04  0.12997020774E+04 0.  0.
        3    1    3    3  502    0 -0.22488160156E+03  0.56286182138E+03 -0.17021395516E+03  0.62956966685E+03  0.10100000352E+00 0. -1.
       -3    1    3    3    0  502  0.22488160156E+03 -0.56286182138E+03  0.30085325397E+03  0.67668150212E+03  0.10100000352E+00 0.  1.
</event>
<event>
 5   0  0.6742824E-05  0.1300387E+04  0.7818609E-02  0.9029259E-01
        2   -1    0    0  501    0  0.00000000000E+00  0.00000000000E+00  0.52203649474E+03  0.52203649475E+03  0.25500000920E-02 0.  1.
       -2   -1    0    0    0  501  0.00000000000E+00  0.00000000000E+00 -0.80981182614E+03  0.80981182614E+03  0.25500000920E-02 0. -1.
    10030    2    1    2    0    0  0.00000000000E+00  0.00000000000E+00 -0.28777533140E+03  0.13318483209E+04  0.13003865996E+04 0.  0.
        4    1    3    3  502    0 -0.16094361923E+03  0.50318248409E+03  0.24429981648E+03  0.58204765621E+03  0.12699999809E+01 0.  1.
       -4    1    3    3    0  502  0.16094361923E+03 -0.50318248409E+03 -0.53207514788E+03  0.74980066468E+03  0.12699999809E+01 0. -1.
</event>
<event>
 5   0  0.3689707E-05  0.1300553E+04  0.7818609E-02  0.9029126E-01
        1   -1    0    0  501    0  0.00000000000E+00  0.00000000000E+00  0.52046324740E+03  0.52046324742E+03  0.50400001928E-02 0.  1.
       -1   -1    0    0    0  501  0.00000000000E+00  0.00000000000E+00 -0.81246804291E+03  0.81246804293E+03  0.50400001928E-02 0. -1.
    10030    2    1    2    0    0  0.00000000000E+00  0.00000000000E+00 -0.29200479551E+03  0.13329312903E+04  0.13005533531E+04 0.  0.
        1    1    3    3  502    0 -0.62579137915E+03  0.92886048804E+02  0.81314184990E+01  0.63269960350E+03  0.50400001928E-02 0.  1.
       -1    1    3    3    0  502  0.62579137915E+03 -0.92886048804E+02 -0.30013621401E+03  0.70023168685E+03  0.50400001928E-02 0. -1.
</event>
<event>
 5   0  0.6742824E-05  0.1303495E+04  0.7818609E-02  0.9026798E-01
       -2   -1    0    0    0  501  0.00000000000E+00  0.00000000000E+00  0.63973948075E+03  0.63973948076E+03  0.25500000920E-02 0.  1.
        2   -1    0    0  501    0  0.00000000000E+00  0.00000000000E+00 -0.66398074869E+03  0.66398074869E+03  0.25500000920E-02 0. -1.
    10030    2    1    2    0    0  0.00000000000E+00  0.00000000000E+00 -0.24241267931E+02  0.13037202295E+04  0.13034948399E+04 0.  0.
        4    1    3    3  502    0 -0.13977398583E+03 -0.20985234222E+03  0.58898105087E+03  0.64068327888E+03  0.12699999809E+01 0.  1.
       -4    1    3    3    0  502  0.13977398583E+03  0.20985234222E+03 -0.61322231880E+03  0.66303695057E+03  0.12699999809E+01 0. -1.
</event>
<event>
 5   0  0.3631841E-05  0.1300381E+04  0.7818609E-02  0.9029263E-01
       -1   -1    0    0    0  501  0.00000000000E+00  0.00000000000E+00  0.40402110032E+03  0.40402110035E+03  0.50400001928E-02 0. -1.
        1   -1    0    0  501    0  0.00000000000E+00  0.00000000000E+00 -0.10463506121E+04  0.10463506121E+04  0.50400001928E-02 0.  1.
    10030    2    1    2    0    0  0.00000000000E+00  0.00000000000E+00 -0.64232951181E+03  0.14503717125E+04  0.13003810606E+04 0.  0.
        3    1    3    3  502    0 -0.45165820150E+02 -0.68199442608E+02  0.39825919677E+03  0.40657288805E+03  0.10100000352E+00 0. -1.
       -3    1    3    3    0  502  0.45165820150E+02  0.68199442608E+02 -0.10405887086E+04  0.10437988244E+04  0.10100000352E+00 0.  1.
</event>
<event>
 5   0  0.6458698E-05  0.1301882E+04  0.7818609E-02  0.9028074E-01
       -2   -1    0    0    0  501  0.00000000000E+00  0.00000000000E+00  0.67630319574E+03  0.67630319575E+03  0.25500000920E-02 0.  1.
        2   -1    0    0  501    0  0.00000000000E+00  0.00000000000E+00 -0.62652969315E+03  0.62652969315E+03  0.25500000920E-02 0. -1.
    10030    2    1    2    0    0  0.00000000000E+00  0.00000000000E+00  0.49773502593E+02  0.13028328889E+04  0.13018817668E+04 0.  0.
        3    1    3    3  502    0  0.43873451481E+03 -0.46267305123E+03  0.15601567010E+03  0.65642610120E+03  0.10100000352E+00 0. -1.
       -3    1    3    3    0  502 -0.43873451481E+03  0.46267305123E+03 -0.10624216750E+03  0.64640678770E+03  0.10100000352E+00 0.  1.
</event>
<event>
 5   0  0.6458698E-05  0.1299558E+04  0.7818609E-02  0.9029916E-01
       -2   -1    0    0    0  501  0.00000000000E+00  0.00000000000E+00  0.16191609668E+04  0.16191609668E+04  0.25500000920E-02 0.  1.
        2   -1    0    0  501    0  0.00000000000E+00  0.00000000000E+00 -0.26076012122E+03  0.26076012123E+03  0.25500000920E-02 0. -1.
    10030    2    1    2    0    0  0.00000000000E+00  0.00000000000E+00  0.13584008456E+04  0.18799210881E+04  0.12995577863E+04 0.  0.
        3    1    3    3  502    0 -0.20061306189E+03  0.34588486274E+03  0.14201157016E+04  0.14753340486E+04  0.10100000352E+00 0.  1.
       -3    1    3    3    0  502  0.20061306189E+03 -0.34588486274E+03 -0.61714855950E+02  0.40458703949E+03  0.10100000352E+00 0. -1.
</event>
<event>
 5   0  0.3551277E-05  0.1299455E+04  0.7818609E-02  0.9029998E-01
       -1   -1    0    0    0  501  0.00000000000E+00  0.00000000000E+00  0.33796087166E+03  0.33796087170E+03  0.50400001928E-02 0.  1.
        1   -1    0    0  501    0  0.00000000000E+00  0.00000000000E+00 -0.12490960275E+04  0.12490960275E+04  0.50400001928E-02 0. -1.
    10030    2    1    2    0    0  0.00000000000E+00  0.00000000000E+00 -0.91113515586E+03  0.15870568992E+04  0.12994546276E+04 0.  0.
        4    1    3    3  502    0  0.12426857395E+03 -0.13359636220E+03 -0.12171629098E+04  0.12307631082E+04  0.12699999809E+01 0. -1.
       -4    1    3    3    0  502 -0.12426857395E+03  0.13359636220E+03  0.30602775396E+03  0.35629379108E+03  0.12699999809E+01 0.  1.
</event>
<event>
 5   0  0.3689707E-05  0.1298921E+04  0.7818609E-02  0.9030422E-01
        1   -1    0    0  501    0  0.00000000000E+00  0.00000000000E+00  0.11862326293E+04  0.11862326294E+04  0.50400001928E-02 0.  1.
       -1   -1    0    0    0  501  0.00000000000E+00  0.00000000000E+00 -0.35557834109E+03  0.35557834112E+03  0.50400001928E-02 0. -1.
    10030    2    1    2    0    0  0.00000000000E+00  0.00000000000E+00  0.83065428825E+03  0.15418109705E+04  0.12989205218E+04 0.  0.
        1    1    3    3  502    0 -0.34483861299E+03 -0.47329897010E+03  0.81967625128E+02  0.59130725997E+03  0.50400001928E-02 0. -1.
       -1    1    3    3    0  502  0.34483861299E+03  0.47329897010E+03  0.74868666313E+03  0.95050371050E+03  0.50400001928E-02 0.  1.
</event>
<event>
 5   0  0.6671239E-05  0.1300305E+04  0.7818609E-02  0.9029323E-01
        2   -1    0    0  501    0  0.00000000000E+00  0.00000000000E+00  0.61470642887E+03  0.61470642887E+03  0.25500000920E-02 0.  1.
       -2   -1    0    0    0  501  0.00000000000E+00  0.00000000000E+00 -0.68764283550E+03  0.68764283550E+03  0.25500000920E-02 0. -1.
    10030    2    1    2    0    0  0.00000000000E+00  0.00000000000E+00 -0.72936406632E+02  0.13023492644E+04  0.13003053053E+04 0.  0.
        1    1    3    3  502    0 -0.51239944999E+03  0.15750587436E+03 -0.40492849186E+03  0.67180977989E+03  0.50400001928E-02 0. -1.
       -1    1    3    3    0  502  0.51239944999E+03 -0.15750587436E+03  0.33199208523E+03  0.63053948448E+03  0.50400001928E-02 0.  1.
</event>
<event>
 5   0  0.3551277E-05  0.1299765E+04  0.7818609E-02  0.9029752E-01
       -1   -1    0    0    0  501  0.00000000000E+00  0.00000000000E+00  0.22920069289E+03  0.22920069295E+03  0.50400001928E-02 0.  1.
        1   -1    0    0  501    0  0.00000000000E+00  0.00000000000E+00 -0.18426961091E+04  0.18426961091E+04  0.50400001928E-02 0. -1.
    10030    2    1    2    0    0  0.00000000000E+00  0.00000000000E+00 -0.16134954162E+04  0.20718968020E+04  0.12997649404E+04 0.  0.
        4    1    3    3  502    0 -0.46450527564E+03  0.43239088054E+03 -0.10300212025E+04  0.12098232578E+04  0.12699999809E+01 0.  1.
       -4    1    3    3    0  502  0.46450527564E+03 -0.43239088054E+03 -0.58347421365E+03  0.86207354418E+03  0.12699999809E+01 0. -1.
</event>
<event>
 5   0  0.6688086E-05  0.1299712E+04  0.7818609E-02  0.9029793E-01
       -2   -1    0    0    0  501  0.00000000000E+00  0.00000000000E+00  0.41700748803E+03  0.41700748803E+03  0.25500000920E-02 0. -1.
        2   -1    0    0  501    0  0.00000000000E+00  0.00000000000E+00 -0.10127230940E+04  0.10127230940E+04  0.25500000920E-02 0.  1.
    10030    2    1    2    0    0  0.00000000000E+00  0.00000000000E+00 -0.59571560598E+03  0.14297305820E+04  0.12997124505E+04 0.  0.
        5    1    3    3  502    0  0.48695100820E+03  0.18584497119E+03  0.12908005164E+03  0.53697615164E+03  0.46999998093E+01 0. -1.
       -5    1    3    3    0  502 -0.48695100820E+03 -0.18584497119E+03 -0.72479565761E+03  0.89275443040E+03  0.46999998093E+01 0.  1.
</event>
<event>
 5   0  0.3718559E-05  0.1298462E+04  0.7818609E-02  0.9030786E-01
       -1   -1    0    0    0  501  0.00000000000E+00  0.00000000000E+00  0.54980352132E+03  0.54980352135E+03  0.50400001928E-02 0. -1.
        1   -1    0    0  501    0  0.00000000000E+00  0.00000000000E+00 -0.76663896113E+03  0.76663896114E+03  0.50400001928E-02 0.  1.
    10030    2    1    2    0    0  0.00000000000E+00  0.00000000000E+00 -0.21683543980E+03  0.13164424825E+04  0.12984618599E+04 0.  0.
        2    1    3    3  502    0  0.14166336016E+03  0.52118063477E+03 -0.47368865896E+03  0.71838618257E+03  0.25500000920E-02 0.  1.
       -2    1    3    3    0  502 -0.14166336016E+03 -0.52118063477E+03  0.25685321916E+03  0.59805629992E+03  0.25500000920E-02 0. -1.
</event>
<event>
 5   0  0.3552698E-05  0.1302124E+04  0.7818609E-02  0.9027882E-01
        1   -1    0    0  501    0  0.00000000000E+00  0.00000000000E+00  0.64870375163E+03  0.64870375165E+03  0.50400001928E-02 0.  1.
       -1   -1    0    0    0  501  0.00000000000E+00  0.00000000000E+00 -0.65342905589E+03  0.65342905591E+03  0.50400001928E-02 0. -1.
    10030    2    1    2    0    0  0.00000000000E+00  0.00000000000E+00 -0.47253042596E+01  0.13021328076E+04  0.13021242337E+04 0.  0.
        5    1    3    3  502    0  0.16759167301E+03 -0.29466213962E+03 -0.55819636212E+03  0.65308346639E+03  0.46999998093E+01 0. -1.
       -5    1    3    3    0  502 -0.16759167301E+03  0.29466213962E+03  0.55347105786E+03  0.64904934117E+03  0.46999998093E+01 0.  1.
</event>
<event>
 5   0  0.3689707E-05  0.1299291E+04  0.7818609E-02  0.9030128E-01
       -1   -1    0    0    0  501  0.00000000000E+00  0.00000000000E+00  0.68728920688E+03  0.68728920690E+03  0.50400001928E-02 0.  1.
        1   -1    0    0  501    0  0.00000000000E+00  0.00000000000E+00 -0.61406336641E+03  0.61406336643E+03  0.50400001928E-02 0. -1.
    10030    2    1    2    0    0  0.00000000000E+00  0.00000000000E+00  0.73225840474E+02  0.13013525733E+04  0.12992907667E+04 0.  0.
        1    1    3    3  502    0  0.47239575547E+03 -0.20522689775E+03 -0.35994882235E+03  0.62836214406E+03  0.50400001928E-02 0. -1.
       -1    1    3    3    0  502 -0.47239575547E+03  0.20522689775E+03  0.43317466282E+03  0.67299042927E+03  0.50400001928E-02 0.  1.
</event>
<event>
 5   0  0.6688086E-05  0.1299999E+04  0.7818609E-02  0.9029566E-01
       -2   -1    0    0    0  501  0.00000000000E+00  0.00000000000E+00  0.26427677664E+03  0.26427677665E+03  0.25500000920E-02 0. -1.
        2   -1    0    0  501    0  0.00000000000E+00  0.00000000000E+00 -0.15987007550E+04  0.15987007550E+04  0.25500000920E-02 0.  1.
    10030    2    1    2    0    0  0.00000000000E+00  0.00000000000E+00 -0.13344239783E+04  0.18629775316E+04  0.12999992036E+04 0.  0.
        5    1    3    3  502    0 -0.51901708917E+03  0.17029625407E+03 -0.16238026231E+03  0.56988506963E+03  0.46999998093E+01 0.  1.
       -5    1    3    3    0  502  0.51901708917E+03 -0.17029625407E+03 -0.11720437160E+04  0.12930924620E+04  0.46999998093E+01 0. -1.
</event>
<event>
 5   0  0.3718559E-05  0.1299902E+04  0.7818609E-02  0.9029643E-01
        1   -1    0    0  501    0  0.00000000000E+00  0.00000000000E+00  0.85360978707E+03  0.85360978708E+03  0.50400001928E-02 0.  1.
       -1   -1    0    0    0  501  0.00000000000E+00  0.00000000000E+00 -0.49488195515E+03  0.49488195518E+03  0.50400001928E-02 0. -1.
    10030    2    1    2    0    0  0.00000000000E+00  0.00000000000E+00  0.35872783191E+03  0.13484917423E+04  0.12999016584E+04 0.  0.
        2    1    3    3  502    0 -0.39299181954E+03  0.30254514804E+03 -0.25640962902E+03  0.55832072744E+03  0.25500000920E-02 0. -1.
       -2    1    3    3    0  502  0.39299181954E+03 -0.30254514804E+03  0.61513746093E+03  0.79017101483E+03  0.25500000920E-02 0.  1.
</event>
<event>
 5   0  0.3631841E-05  0.1300701E+04  0.7818609E-02  0.9029010E-01
        1   -1    0    0  501    0  0.00000000000E+00  0.00000000000E+00  0.14337179086E+04  0.14337179086E+04  0.50400001928E-02 0. -1.
       -1   -1    0    0    0  501  0.00000000000E+00  0.00000000000E+00 -0.29500604663E+03  0.29500604667E+03  0.50400001928E-02 0.  1.
    10030    2    1    2    0    0  0.00000000000E+00  0.00000000000E+00  0.11387118620E+04  0.17287239553E+04  0.13007005070E+04 0.  0.
        3    1    3    3  502    0  0.18427652990E+03 -0.25941051071E+02 -0.25886428778E+03  0.31881265234E+03  0.10100000352E+00 0.  1.
       -3    1    3    3    0  502 -0.18427652990E+03  0.25941051071E+02  0.13975761498E+04  0.14099113030E+04  0.10100000352E+00 0. -1.
</event>
<event>
 5   0  0.6458698E-05  0.1300123E+04  0.7818609E-02  0.9029468E-01
       -2   -1    0    0    0  501  0.00000000000E+00  0.00000000000E+00  0.63584408822E+03  0.63584408823E+03  0.25500000920E-02 0.  1.
        2   -1    0    0  501    0  0.00000000000E+00  0.00000000000E+00 -0.66459630735E+03  0.66459630736E+03  0.25500000920E-02 0. -1.
    10030    2    1    2    0    0  0.00000000000E+00  0.00000000000E+00 -0.28752219128E+02  0.13004403956E+04  0.13001225067E+04 0.  0.
        3    1    3    3  502    0 -0.31333704672E+03  0.40673164274E+03  0.38443040532E+03  0.64140274461E+03  0.10100000352E+00 0.  1.
       -3    1    3    3    0  502  0.31333704672E+03 -0.40673164274E+03 -0.41318262445E+03  0.65903765097E+03  0.10100000352E+00 0. -1.
</event>
<event>
 5   0  0.6688086E-05  0.1300011E+04  0.7818609E-02  0.9029556E-01
        2   -1    0    0  501    0  0.00000000000E+00  0.00000000000E+00  0.17184758475E+04  0.17184758475E+04  0.25500000920E-02 0. -1.
       -2   -1    0    0    0  501  0.00000000000E+00  0.00000000000E+00 -0.24586161110E+03  0.24586161112E+03  0.25500000920E-02 0.  1.
    10030    2    1    2    0    0  0.00000000000E+00  0.00000000000E+00  0.14726142364E+04  0.19643374586E+04  0.13000111392E+04 0.  0.
        5    1    3    3  502    0 -0.17903112564E+03  0.49331278172E+03  0.15682611888E+03  0.54774644327E+03  0.46999998093E+01 0.  1.
       -5    1    3    3    0  502  0.17903112564E+03 -0.49331278172E+03  0.13157881175E+04  0.14165910154E+04  0.46999998093E+01 0. -1.
</event>
<event>
 5   0  0.6671239E-05  0.1299906E+04  0.7818609E-02  0.9029640E-01
        2   -1    0    0  501    0  0.00000000000E+00  0.00000000000E+00  0.19058172898E+03  0.19058172900E+03  0.25500000920E-02 0. -1.
       -2   -1    0    0    0  501  0.00000000000E+00  0.00000000000E+00 -0.22165758537E+04  0.22165758537E+04  0.25500000920E-02 0.  1.
    10030    2    1    2    0    0  0.00000000000E+00  0.00000000000E+00 -0.20259941248E+04  0.24071575827E+04  0.12999059330E+04 0.  0.
        1    1    3    3  502    0 -0.39919060086E+03 -0.51224858325E+03 -0.96445633390E+03  0.11627242867E+04  0.50400001928E-02 0. -1.
       -1    1    3    3    0  502  0.39919060086E+03  0.51224858325E+03 -0.10615377909E+04  0.12444332960E+04  0.50400001928E-02 0.  1.
</event>
<event>
 5   0  0.3551277E-05  0.1298632E+04  0.7818609E-02  0.9030651E-01
       -1   -1    0    0    0  501  0.00000000000E+00  0.00000000000E+00  0.52887915166E+03  0.52887915168E+03  0.50400001928E-02 0.  1.
        1   -1    0    0  501    0  0.00000000000E+00  0.00000000000E+00 -0.79717882553E+03  0.79717882555E+03  0.50400001928E-02 0. -1.
    10030    2    1    2    0    0  0.00000000000E+00  0.00000000000E+00 -0.26829967387E+03  0.13260579772E+04  0.12986319894E+04 0.  0.
        4    1    3    3  502    0 -0.13293925597E+03  0.51243149373E+03  0.24975669353E+03  0.58535365414E+03  0.12699999809E+01 0.  1.
       -4    1    3    3    0  502  0.13293925597E+03 -0.51243149373E+03 -0.51805636740E+03  0.74070432310E+03  0.12699999809E+01 0. -1.
</event>
<event>
 5   0  0.3631841E-05  0.1303490E+04  0.7818609E-02  0.9026802E-01
        1   -1    0    0  501    0  0.00000000000E+00  0.00000000000E+00  0.13432203805E+04  0.13432203805E+04  0.50400001928E-02 0.  1.
       -1   -1    0    0    0  501  0.00000000000E+00  0.00000000000E+00 -0.31623353007E+03  0.31623353011E+03  0.50400001928E-02 0. -1.
    10030    2    1    2    0    0  0.00000000000E+00  0.00000000000E+00  0.10269868505E+04  0.16594539107E+04  0.13034896588E+04 0.  0.
        3    1    3    3  502    0  0.86203963426E+02 -0.24468952974E+03 -0.24766615546E+03  0.35866784639E+03  0.10100000352E+00 0. -1.
       -3    1    3    3    0  502 -0.86203963426E+02  0.24468952974E+03  0.12746530059E+04  0.13007860643E+04  0.10100000352E+00 0.  1.
</event>
<event>
 5   0  0.3689707E-05  0.1299977E+04  0.7818609E-02  0.9029584E-01
        1   -1    0    0  501    0  0.00000000000E+00  0.00000000000E+00  0.30576920458E+04  0.30576920458E+04  0.50400001928E-02 0. -1.
       -1   -1    0    0    0  501  0.00000000000E+00  0.00000000000E+00 -0.13817117295E+03  0.13817117305E+03  0.50400001928E-02 0.  1.
    10030    2    1    2    0    0  0.00000000000E+00  0.00000000000E+00  0.29195208728E+04  0.31958632188E+04  0.12999767639E+04 0.  0.
        1    1    3    3  502    0  0.44775734903E+03  0.58503939024E+02  0.31040758946E+03  0.54796188381E+03  0.50400001928E-02 0.  1.
       -1    1    3    3    0  502 -0.44775734903E+03 -0.58503939024E+02  0.26091132834E+04  0.26479013350E+04  0.50400001928E-02 0. -1.
</event>
<event>
 5   0  0.6618060E-05  0.1300245E+04  0.7818609E-02  0.9029371E-01
        2   -1    0    0  501    0  0.00000000000E+00  0.00000000000E+00  0.17897119990E+04  0.17897119990E+04  0.25500000920E-02 0.  1.
       -2   -1    0    0    0  501  0.00000000000E+00  0.00000000000E+00 -0.23616063056E+03  0.23616063058E+03  0.25500000920E-02 0. -1.
    10030    2    1    2    0    0  0.00000000000E+00  0.00000000000E+00  0.15535513685E+04  0.20258726296E+04  0.13002453834E+04 0.  0.
        2    1    3    3  502    0  0.28693851488E+03 -0.42134933498E+03  0.14813657003E+03  0.53086101458E+03  0.25500000920E-02 0. -1.
       -2    1    3    3    0  502 -0.28693851488E+03  0.42134933498E+03  0.14054147984E+04  0.14950116150E+04  0.25500000920E-02 0.  1.
</event>
<event>
 5   0  0.3689707E-05  0.1299852E+04  0.7818609E-02  0.9029682E-01
        1   -1    0    0  501    0  0.00000000000E+00  0.00000000000E+00  0.50992244437E+03  0.50992244440E+03  0.50400001928E-02 0. -1.
       -1   -1    0    0    0  501  0.00000000000E+00  0.00000000000E+00 -0.82836925755E+03  0.82836925757E+03  0.50400001928E-02 0.  1.
    10030    2    1    2    0    0  0.00000000000E+00  0.00000000000E+00 -0.31844681318E+03  0.13382917020E+04  0.12998524173E+04 0.  0.
        1    1    3    3  502    0  0.51104195319E+03  0.22183338233E+03  0.18538367369E+03  0.58714651829E+03  0.50400001928E-02 0. -1.
       -1    1    3    3    0  502 -0.51104195319E+03 -0.22183338233E+03 -0.50383048688E+03  0.75114518368E+03  0.50400001928E-02 0.  1.
</event>
<event>
 5   0  0.2512000E-05  0.1302048E+04  0.7818609E-02  0.9027943E-01
        4   -1    0    0  501    0  0.00000000000E+00  0.00000000000E+00  0.44366731501E+03  0.44366913270E+03  0.12699999809E+01 0.  1.
       -4   -1    0    0    0  501  0.00000000000E+00  0.00000000000E+00 -0.95528876953E+03  0.95528961372E+03  0.12699999809E+01 0. -1.
    10030    2    1    2    0    0  0.00000000000E+00  0.00000000000E+00 -0.51162145452E+03  0.13989587464E+04  0.13020480258E+04 0.  0.
        3    1    3    3  502    0  0.63007362818E+03  0.72994369104E+02 -0.41339440652E+03  0.75711023002E+03  0.10100000352E+00 0.  1.
       -3    1    3    3    0  502 -0.63007362818E+03 -0.72994369104E+02 -0.98227047999E+02  0.64184851640E+03  0.10100000352E+00 0. -1.
</event>
<event>
 5   0  0.3551277E-05  0.1290918E+04  0.7818609E-02  0.9036798E-01
        1   -1    0    0  501    0  0.00000000000E+00  0.00000000000E+00  0.82384114432E+03  0.82384114434E+03  0.50400001928E-02 0.  1.
       -1   -1    0    0    0  501  0.00000000000E+00  0.00000000000E+00 -0.50570120473E+03  0.50570120475E+03  0.50400001928E-02 0. -1.
    10030    2    1    2    0    0  0.00000000000E+00  0.00000000000E+00  0.31813993959E+03  0.13295423491E+04  0.12909182146E+04 0.  0.
        4    1    3    3  502    0  0.36939543755E+03 -0.39512985052E+03 -0.20365380646E+03  0.57797670700E+03  0.12699999809E+01 0. -1.
       -4    1    3    3    0  502 -0.36939543755E+03  0.39512985052E+03  0.52179374605E+03  0.75156564209E+03  0.12699999809E+01 0.  1.
</event>
<event>
 5   0  0.6458698E-05  0.1299416E+04  0.7818609E-02  0.9030028E-01
       -2   -1    0    0    0  501  0.00000000000E+00  0.00000000000E+00  0.32848033590E+03  0.32848033591E+03  0.25500000920E-02 0.  1.
        2   -1    0    0  501    0  0.00000000000E+00  0.00000000000E+00 -0.12850707361E+04  0.12850707361E+04  0.25500000920E-02 0. -1.
    10030    2    1    2    0    0  0.00000000000E+00  0.00000000000E+00 -0.95659040015E+03  0.16135510720E+04  0.12994159720E+04 0.  0.
        3    1    3    3  502    0  0.56423137202E+03  0.28582299861E+03 -0.29382670968E+03  0.69741377476E+03  0.10100000352E+00 0. -1.
       -3    1    3    3    0  502 -0.56423137202E+03 -0.28582299861E+03 -0.66276369048E+03  0.91613729720E+03  0.10100000352E+00 0.  1.
</event>
<event>
 5   0  0.6458698E-05  0.1300579E+04  0.7818609E-02  0.9029107E-01
       -2   -1    0    0    0  501  0.00000000000E+00  0.00000000000E+00  0.32924431485E+03  0.32924431486E+03  0.25500000920E-02 0.  1.
        2   -1    0    0  501    0  0.00000000000E+00  0.00000000000E+00 -0.12843839571E+04  0.12843839571E+04  0.25500000920E-02 0. -1.
    10030    2    1    2    0    0  0.00000000000E+00  0.00000000000E+00 -0.95513964226E+03  0.16136282720E+04  0.13005785112E+04 0.  0.
        3    1    3    3  502    0 -0.52894635411E+03 -0.49655950366E+02 -0.94283436625E+03  0.10822137549E+04  0.10100000352E+00 0. -1.
       -3    1    3    3    0  502  0.52894635411E+03  0.49655950366E+02 -0.12305276013E+02  0.53141451707E+03  0.10100000352E+00 0.  1.
</event>
<event>
 5   0  0.3718559E-05  0.1299364E+04  0.7818609E-02  0.9030070E-01
        1   -1    0    0  501    0  0.00000000000E+00  0.00000000000E+00  0.56646481209E+03  0.56646481212E+03  0.50400001928E-02 0. -1.
       -1   -1    0    0    0  501  0.00000000000E+00  0.00000000000E+00 -0.74512391811E+03  0.74512391813E+03  0.50400001928E-02 0.  1.
    10030    2    1    2    0    0  0.00000000000E+00  0.00000000000E+00 -0.17865910602E+03  0.13115887302E+04  0.12993636601E+04 0.  0.
        2    1    3    3  502    0  0.23752144377E+03  0.50739192263E+03 -0.42139807493E+03  0.70102734395E+03  0.25500000920E-02 0.  1.
       -2    1    3    3    0  502 -0.23752144377E+03 -0.50739192263E+03  0.24273896891E+03  0.61056138630E+03  0.25500000920E-02 0. -1.
</event>
<event>
 5   0  0.2512000E-05  0.1300216E+04  0.7818609E-02  0.9029394E-01
       -3   -1    0    0    0  501  0.00000000000E+00  0.00000000000E+00  0.65764893045E+03  0.65764893820E+03  0.10100000352E+00 0. -1.
        3   -1    0    0  501    0  0.00000000000E+00  0.00000000000E+00 -0.64265348562E+03  0.64265349356E+03  0.10100000352E+00 0.  1.
    10030    2    1    2    0    0  0.00000000000E+00  0.00000000000E+00  0.14995444822E+02  0.13003024318E+04  0.13002159631E+04 0.  0.
        4    1    3    3  502    0 -0.10762014856E+03 -0.54763190281E+03 -0.32592507583E+03  0.64630609258E+03  0.12699999809E+01 0. -1.
       -4    1    3    3    0  502  0.10762014856E+03  0.54763190281E+03  0.34092052065E+03  0.65399633918E+03  0.12699999809E+01 0.  1.
</event>
<event>
 5   0  0.3552698E-05  0.1300210E+04  0.7818609E-02  0.9029399E-01
        1   -1    0    0  501    0  0.00000000000E+00  0.00000000000E+00  0.31579828299E+03  0.31579828303E+03  0.50400001928E-02 0. -1.
       -1   -1    0    0    0  501  0.00000000000E+00  0.00000000000E+00 -0.13383106986E+04  0.13383106986E+04  0.50400001928E-02 0.  1.
    10030    2    1    2    0    0  0.00000000000E+00  0.00000000000E+00 -0.10225124156E+04  0.16541089816E+04  0.13002095535E+04 0.  0.
        5    1    3    3  502    0 -0.54681918656E+03  0.71440195869E+02 -0.73322385250E+02  0.55633909314E+03  0.46999998093E+01 0. -1.
       -5    1    3    3    0  502  0.54681918656E+03 -0.71440195869E+02 -0.94919003035E+03  0.10977698885E+04  0.46999998093E+01 0.  1.
</event>
<event>
 5   0  0.6688086E-05  0.1299881E+04  0.7818609E-02  0.9029659E-01
        2   -1    0    0  501    0  0.00000000000E+00  0.00000000000E+00  0.13804706226E+04  0.13804706226E+04  0.25500000920E-02 0.  1.
       -2   -1    0    0    0  501  0.00000000000E+00  0.00000000000E+00 -0.30599908883E+03  0.30599908884E+03  0.25500000920E-02 0. -1.
    10030    2    1    2    0    0  0.00000000000E+00  0.00000000000E+00  0.10744715338E+04  0.16864697114E+04  0.12998811525E+04 0.  0.
        5    1    3    3  502    0 -0.11403813424E+03  0.13646867145E+03  0.13482654828E+04  0.13599523140E+04  0.46999998093E+01 0.  1.
       -5    1    3    3    0  502  0.11403813424E+03 -0.13646867145E+03 -0.27379394897E+03  0.32651739745E+03  0.46999998093E+01 0. -1.
</event>
<event>
 5   0  0.6671239E-05  0.1300130E+04  0.7818609E-02  0.9029462E-01
        2   -1    0    0  501    0  0.00000000000E+00  0.00000000000E+00  0.57417081919E+03  0.57417081920E+03  0.25500000920E-02 0.  1.
       -2   -1    0    0    0  501  0.00000000000E+00  0.00000000000E+00 -0.73599087180E+03  0.73599087180E+03  0.25500000920E-02 0. -1.
    10030    2    1    2    0    0  0.00000000000E+00  0.00000000000E+00 -0.16182005260E+03  0.13101616910E+04  0.13001299655E+04 0.  0.
        1    1    3    3  502    0  0.23927540819E+03  0.49111150257E+03  0.27414542955E+03  0.61122740898E+03  0.50400001928E-02 0.  1.
       -1    1    3    3    0  502 -0.23927540819E+03 -0.49111150257E+03 -0.43596548216E+03  0.69893428202E+03  0.50400001928E-02 0. -1.
</event>
<event>
 5   0  0.3552698E-05  0.1302097E+04  0.7818609E-02  0.9027904E-01
        1   -1    0    0  501    0  0.00000000000E+00  0.00000000000E+00  0.11175018290E+04  0.11175018290E+04  0.50400001928E-02 0. -1.
       -1   -1    0    0    0  501  0.00000000000E+00  0.00000000000E+00 -0.37929593444E+03  0.37929593448E+03  0.50400001928E-02 0.  1.
    10030    2    1    2    0    0  0.00000000000E+00  0.00000000000E+00  0.73820589457E+03  0.14967977635E+04  0.13020966178E+04 0.  0.
        5    1    3    3  502    0  0.25522569148E+03 -0.19287885731E+03 -0.28269051553E+03  0.42694077430E+03  0.46999998093E+01 0.  1.
       -5    1    3    3    0  502 -0.25522569148E+03  0.19287885731E+03  0.10208964101E+04  0.10698569892E+04  0.46999998093E+01 0. -1.
</event>
<event>
 5   0  0.3551277E-05  0.1299581E+04  0.7818609E-02  0.9029897E-01
        1   -1    0    0  501    0  0.00000000000E+00  0.00000000000E+00  0.14567815712E+04  0.14567815712E+04  0.50400001928E-02 0. -1.
       -1   -1    0    0    0  501  0.00000000000E+00  0.00000000000E+00 -0.28983600243E+03  0.28983600248E+03  0.50400001928E-02 0.  1.
    10030    2    1    2    0    0  0.00000000000E+00  0.00000000000E+00  0.11669455687E+04  0.17466175737E+04  0.12995810818E+04 0.  0.
        4    1    3    3  502    0 -0.30386224795E+03  0.17493422353E+03 -0.15178886864E+03  0.38206769274E+03  0.12699999809E+01 0.  1.
       -4    1    3    3    0  502  0.30386224795E+03 -0.17493422353E+03  0.13187344374E+04  0.13645498809E+04  0.12699999809E+01 0. -1.
</event>
<event>
 5   0  0.6742824E-05  0.1300180E+04  0.7818609E-02  0.9029422E-01
       -2   -1    0    0    0  501  0.00000000000E+00  0.00000000000E+00  0.22498256913E+03  0.22498256914E+03  0.25500000920E-02 0. -1.
        2   -1    0    0  501    0  0.00000000000E+00  0.00000000000E+00 -0.18784433296E+04  0.18784433296E+04  0.25500000920E-02 0.  1.
    10030    2    1    2    0    0  0.00000000000E+00  0.00000000000E+00 -0.16534607604E+04  0.21034258987E+04  0.13001799972E+04 0.  0.
        4    1    3    3  502    0 -0.13027829399E+03  0.49890041896E+03 -0.14672250243E+04  0.15551928969E+04  0.12699999809E+01 0.  1.
       -4    1    3    3    0  502  0.13027829399E+03 -0.49890041896E+03 -0.18623573618E+03  0.54823300179E+03  0.12699999809E+01 0. -1.
</event>
<event>
 5   0  0.6458698E-05  0.1300768E+04  0.7818609E-02  0.9028956E-01
        2   -1    0    0  501    0  0.00000000000E+00  0.00000000000E+00  0.13407599325E+04  0.13407599325E+04  0.25500000920E-02 0.  1.
       -2   -1    0    0    0  501  0.00000000000E+00  0.00000000000E+00 -0.31549221935E+03  0.31549221936E+03  0.25500000920E-02 0. -1.
    10030    2    1    2    0    0  0.00000000000E+00  0.00000000000E+00  0.10252677131E+04  0.16562521518E+04  0.13007679681E+04 0.  0.
        3    1    3    3  502    0  0.11521484958E+03 -0.47242421063E+03  0.10625707605E+04  0.11685528347E+04  0.10100000352E+00 0.  1.
       -3    1    3    3    0  502 -0.11521484958E+03  0.47242421063E+03 -0.37303047364E+02  0.48769931709E+03  0.10100000352E+00 0. -1.
</event>
<event>
 5   0  0.6688086E-05  0.1300358E+04  0.7818609E-02  0.9029281E-01
       -2   -1    0    0    0  501  0.00000000000E+00  0.00000000000E+00  0.12700338607E+04  0.12700338607E+04  0.25500000920E-02 0. -1.
        2   -1    0    0  501    0  0.00000000000E+00  0.00000000000E+00 -0.33285148464E+03  0.33285148465E+03  0.25500000920E-02 0.  1.
    10030    2    1    2    0    0  0.00000000000E+00  0.00000000000E+00  0.93718237604E+03  0.16028853453E+04  0.13003578832E+04 0.  0.
        5    1    3    3  502    0  0.51675364558E+03  0.30300908795E+03  0.15708986327E+03  0.61931264539E+03  0.46999998093E+01 0.  1.
       -5    1    3    3    0  502 -0.51675364558E+03 -0.30300908795E+03  0.78009251277E+03  0.98357269995E+03  0.46999998093E+01 0. -1.
</event>
<event>
 5   0  0.6688086E-05  0.1302367E+04  0.7818609E-02  0.9027690E-01
       -2   -1    0    0    0  501  0.00000000000E+00  0.00000000000E+00  0.23861586334E+03  0.23861586335E+03  0.25500000920E-02 0.  1.
        2   -1    0    0  501    0  0.00000000000E+00  0.00000000000E+00 -0.17770818594E+04  0.17770818594E+04  0.25500000920E-02 0. -1.
    10030    2    1    2    0    0  0.00000000000E+00  0.00000000000E+00 -0.15384659961E+04  0.20156977228E+04  0.13023669562E+04 0.  0.
        5    1    3    3  502    0  0.83244946629E+02  0.58139432175E+03 -0.12044386060E+04  0.13400162402E+04  0.46999998093E+01 0. -1.
       -5    1    3    3    0  502 -0.83244946629E+02 -0.58139432175E+03 -0.33402739009E+03  0.67568148253E+03  0.46999998093E+01 0.  1.
</event>
<event>
 5   0  0.6688086E-05  0.1300122E+04  0.7818609E-02  0.9029469E-01
        2   -1    0    0  501    0  0.00000000000E+00  0.00000000000E+00  0.14482666963E+04  0.14482666963E+04  0.25500000920E-02 0.  1.
       -2   -1    0    0    0  501  0.00000000000E+00  0.00000000000E+00 -0.29178268426E+03  0.29178268427E+03  0.25500000920E-02 0. -1.
    10030    2    1    2    0    0  0.00000000000E+00  0.00000000000E+00  0.11564840121E+04  0.17400493806E+04  0.13001217546E+04 0.  0.
        5    1    3    3  502    0  0.28430848519E+03 -0.87227881754E+02  0.13518605262E+04  0.13841925409E+04  0.46999998093E+01 0.  1.
       -5    1    3    3    0  502 -0.28430848519E+03  0.87227881754E+02 -0.19537651409E+03  0.35585683970E+03  0.46999998093E+01 0. -1.
</event>
<event>
 5   0  0.3552698E-05  0.1305165E+04  0.7818609E-02  0.9025480E-01
        1   -1    0    0  501    0  0.00000000000E+00  0.00000000000E+00  0.13701086803E+04  0.13701086803E+04  0.50400001928E-02 0.  1.
       -1   -1    0    0    0  501  0.00000000000E+00  0.00000000000E+00 -0.31082468774E+03  0.31082468779E+03  0.50400001928E-02 0. -1.
    10030    2    1    2    0    0  0.00000000000E+00  0.00000000000E+00  0.10592839925E+04  0.16809333681E+04  0.13051645149E+04 0.  0.
        5    1    3    3  502    0 -0.32802716548E+03  0.48252362557E+03  0.15324925923E+03  0.60327298628E+03  0.46999998093E+01 0. -1.
       -5    1    3    3    0  502  0.32802716548E+03 -0.48252362557E+03  0.90603473332E+03  0.10776603818E+04  0.46999998093E+01 0.  1.
</event>
<event>
 5   0  0.6671239E-05  0.1303523E+04  0.7818609E-02  0.9026776E-01
       -2   -1    0    0    0  501  0.00000000000E+00  0.00000000000E+00  0.28597278961E+03  0.28597278962E+03  0.25500000920E-02 0. -1.
        2   -1    0    0  501    0  0.00000000000E+00  0.00000000000E+00 -0.14854307354E+04  0.14854307354E+04  0.25500000920E-02 0.  1.
    10030    2    1    2    0    0  0.00000000000E+00  0.00000000000E+00 -0.11994579458E+04  0.17714035250E+04  0.13035225678E+04 0.  0.
        1    1    3    3  502    0 -0.66567583721E+02 -0.63995732243E+03 -0.74105930180E+03  0.98139976898E+03  0.50400001928E-02 0.  1.
       -1    1    3    3    0  502  0.66567583721E+02  0.63995732243E+03 -0.45839864401E+03  0.79000375607E+03  0.50400001928E-02 0. -1.
</event>
<event>
 5   0  0.3718559E-05  0.1300748E+04  0.7818609E-02  0.9028972E-01
        1   -1    0    0  501    0  0.00000000000E+00  0.00000000000E+00  0.10526053826E+04  0.10526053826E+04  0.50400001928E-02 0.  1.
       -1   -1    0    0    0  501  0.00000000000E+00  0.00000000000E+00 -0.40184711649E+03  0.40184711653E+03  0.50400001928E-02 0. -1.
    10030    2    1    2    0    0  0.00000000000E+00  0.00000000000E+00  0.65075826613E+03  0.14544524992E+04  0.13007481506E+04 0.  0.
        2    1    3    3  502    0 -0.26482017137E+03  0.23602277907E+03 -0.28414957471E+03  0.45450792756E+03  0.25500000920E-02 0. -1.
       -2    1    3    3    0  502  0.26482017137E+03 -0.23602277907E+03  0.93490784083E+03  0.99994457160E+03  0.25500000920E-02 0.  1.
</event>
<event>
 5   0  0.3718559E-05  0.1302178E+04  0.7818609E-02  0.9027839E-01
       -1   -1    0    0    0  501  0.00000000000E+00  0.00000000000E+00  0.25664808946E+03  0.25664808951E+03  0.50400001928E-02 0.  1.
        1   -1    0    0  501    0  0.00000000000E+00  0.00000000000E+00 -0.16517450413E+04  0.16517450413E+04  0.50400001928E-02 0. -1.
    10030    2    1    2    0    0  0.00000000000E+00  0.00000000000E+00 -0.13950969519E+04  0.19083931308E+04  0.13021784965E+04 0.  0.
        2    1    3    3  502    0 -0.54161004857E+03 -0.18472154018E+03 -0.24239610462E+03  0.62146549676E+03  0.25500000920E-02 0.  1.
       -2    1    3    3    0  502  0.54161004857E+03  0.18472154018E+03 -0.11527008472E+04  0.12869276341E+04  0.25500000920E-02 0. -1.
</event>
<event>
 5   0  0.3631841E-05  0.1298040E+04  0.7818609E-02  0.9031121E-01
        1   -1    0    0  501    0  0.00000000000E+00  0.00000000000E+00  0.28721542680E+03  0.28721542684E+03  0.50400001928E-02 0.  1.
       -1   -1    0    0    0  501  0.00000000000E+00  0.00000000000E+00 -0.14665888574E+04  0.14665888574E+04  0.50400001928E-02 0. -1.
    10030    2    1    2    0    0  0.00000000000E+00  0.00000000000E+00 -0.11793734306E+04  0.17538042843E+04  0.12980399758E+04 0.  0.
        3    1    3    3  502    0 -0.43737108219E+03  0.46100080970E+03 -0.76797136458E+03  0.99679247444E+03  0.10100000352E+00 0. -1.
       -3    1    3    3    0  502  0.43737108219E+03 -0.46100080970E+03 -0.41140206606E+03  0.75701180985E+03  0.10100000352E+00 0.  1.
</event>
<event>
 5   0  0.6671239E-05  0.1299653E+04  0.7818609E-02  0.9029840E-01
        2   -1    0    0  501    0  0.00000000000E+00  0.00000000000E+00  0.14625749917E+04  0.14625749917E+04  0.25500000920E-02 0.  1.
       -2   -1    0    0    0  501  0.00000000000E+00  0.00000000000E+00 -0.28871990103E+03  0.28871990104E+03  0.25500000920E-02 0. -1.
    10030    2    1    2    0    0  0.00000000000E+00  0.00000000000E+00  0.11738550907E+04  0.17512948927E+04  0.12996530412E+04 0.  0.
        1    1    3    3  502    0  0.10699903510E+03  0.51541080409E+03  0.73497374795E+02  0.53150630721E+03  0.50400001928E-02 0. -1.
       -1    1    3    3    0  502 -0.10699903510E+03 -0.51541080409E+03  0.11003577159E+04  0.12197885855E+04  0.50400001928E-02 0.  1.
</event>
<event>
 5   0  0.3551277E-05  0.1300301E+04  0.7818609E-02  0.9029326E-01
        1   -1    0    0  501    0  0.00000000000E+00  0.00000000000E+00  0.98814691145E+03  0.98814691146E+03  0.50400001928E-02 0.  1.
       -1   -1    0    0    0  501  0.00000000000E+00  0.00000000000E+00 -0.42776628330E+03  0.42776628333E+03  0.50400001928E-02 0. -1.
    10030    2    1    2    0    0  0.00000000000E+00  0.00000000000E+00  0.56038062815E+03  0.14159131948E+04  0.13003013984E+04 0.  0.
        4    1    3    3  502    0 -0.38106786679E+02 -0.12110048953E+03  0.97451711561E+03  0.98275260228E+03  0.12699999809E+01 0.  1.
       -4    1    3    3    0  502  0.38106786679E+02  0.12110048953E+03 -0.41413648746E+03  0.43316059251E+03  0.12699999809E+01 0. -1.
</event>
<event>
 5   0  0.3551277E-05  0.1299906E+04  0.7818609E-02  0.9029639E-01
       -1   -1    0    0    0  501  0.00000000000E+00  0.00000000000E+00  0.23575086132E+03  0.23575086137E+03  0.50400001928E-02 0.  1.
        1   -1    0    0  501    0  0.00000000000E+00  0.00000000000E+00 -0.17918881122E+04  0.17918881122E+04  0.50400001928E-02 0. -1.
    10030    2    1    2    0    0  0.00000000000E+00  0.00000000000E+00 -0.15561372508E+04  0.20276389735E+04  0.12999064057E+04 0.  0.
        4    1    3    3  502    0 -0.61762958455E+03  0.11084010128E+03 -0.51388163157E+03  0.81106582713E+03  0.12699999809E+01 0.  1.
       -4    1    3    3    0  502  0.61762958455E+03 -0.11084010128E+03 -0.10422556193E+04  0.12165731464E+04  0.12699999809E+01 0. -1.
</event>
<event>
 5   0  0.3552698E-05  0.1304394E+04  0.7818609E-02  0.9026088E-01
       -1   -1    0    0    0  501  0.00000000000E+00  0.00000000000E+00  0.96136569112E+03  0.96136569113E+03  0.50400001928E-02 0. -1.
        1   -1    0    0  501    0  0.00000000000E+00  0.00000000000E+00 -0.44245464250E+03  0.44245464253E+03  0.50400001928E-02 0.  1.
    10030    2    1    2    0    0  0.00000000000E+00  0.00000000000E+00  0.51891104861E+03  0.14038203337E+04  0.13043936725E+04 0.  0.
        5    1    3    3  502    0  0.53978063826E+03 -0.35175136235E+03  0.15051489676E+03  0.66164112818E+03  0.46999998093E+01 0.  1.
       -5    1    3    3    0  502 -0.53978063826E+03  0.35175136235E+03  0.36839615185E+03  0.74217920548E+03  0.46999998093E+01 0. -1.
</event>
<event>
 5   0  0.6618060E-05  0.1299931E+04  0.7818609E-02  0.9029620E-01
       -2   -1    0    0    0  501  0.00000000000E+00  0.00000000000E+00  0.31483519078E+03  0.31483519079E+03  0.25500000920E-02 0.  1.
        2   -1    0    0  501    0  0.00000000000E+00  0.00000000000E+00 -0.13418299967E+04  0.13418299967E+04  0.25500000920E-02 0. -1.
    10030    2    1    2    0    0  0.00000000000E+00  0.00000000000E+00 -0.10269948059E+04  0.16566651874E+04  0.12999312336E+04 0.  0.
        2    1    3    3  502    0 -0.57770230002E+02  0.55277876579E+02 -0.13355384985E+04  0.13379297904E+04  0.25500000920E-02 0. -1.
       -2    1    3    3    0  502  0.57770230002E+02 -0.55277876579E+02  0.30854369257E+03  0.31873539707E+03  0.25500000920E-02 0.  1.
</event>
<event>
 5   0  0.6742824E-05  0.1300127E+04  0.7818609E-02  0.9029465E-01
       -2   -1    0    0    0  501  0.00000000000E+00  0.00000000000E+00  0.21899129946E+03  0.21899129947E+03  0.25500000920E-02 0.  1.
        2   -1    0    0  501    0  0.00000000000E+00  0.00000000000E+00 -0.19296770658E+04  0.19296770658E+04  0.25500000920E-02 0. -1.
    10030    2    1    2    0    0  0.00000000000E+00  0.00000000000E+00 -0.17106857663E+04  0.21486683653E+04  0.13001268987E+04 0.  0.
        4    1    3    3  502    0 -0.13424694481E+03 -0.71352057355E+02 -0.18998812129E+04  0.19059547724E+04  0.12699999809E+01 0. -1.
       -4    1    3    3    0  502  0.13424694481E+03  0.71352057355E+02  0.18919544656E+03  0.24271359290E+03  0.12699999809E+01 0.  1.
</event>
<event>
 5   0  0.6688086E-05  0.1299077E+04  0.7818609E-02  0.9030298E-01
        2   -1    0    0  501    0  0.00000000000E+00  0.00000000000E+00  0.97289243231E+03  0.97289243231E+03  0.25500000920E-02 0.  1.
       -2   -1    0    0    0  501  0.00000000000E+00  0.00000000000E+00 -0.43365553532E+03  0.43365553532E+03  0.25500000920E-02 0. -1.
    10030    2    1    2    0    0  0.00000000000E+00  0.00000000000E+00  0.53923689699E+03  0.14065479676E+04  0.12990768854E+04 0.  0.
        5    1    3    3  502    0  0.52052090630E+03 -0.37279007996E+03  0.15119127144E+03  0.65787183263E+03  0.46999998093E+01 0.  1.
       -5    1    3    3    0  502 -0.52052090630E+03  0.37279007996E+03  0.38804562555E+03  0.74867613500E+03  0.46999998093E+01 0. -1.
</event>
<event>
 5   0  0.6458698E-05  0.1299848E+04  0.7818609E-02  0.9029685E-01
       -2   -1    0    0    0  501  0.00000000000E+00  0.00000000000E+00  0.39920404060E+03  0.39920404061E+03  0.25500000920E-02 0. -1.
        2   -1    0    0  501    0  0.00000000000E+00  0.00000000000E+00 -0.10581090675E+04  0.10581090675E+04  0.25500000920E-02 0.  1.
    10030    2    1    2    0    0  0.00000000000E+00  0.00000000000E+00 -0.65890502691E+03  0.14573131081E+04  0.12998483222E+04 0.  0.
        3    1    3    3  502    0  0.18844450948E+03  0.59067309787E+03 -0.54798977355E+03  0.82746531276E+03  0.10100000352E+00 0.  1.
       -3    1    3    3    0  502 -0.18844450948E+03 -0.59067309787E+03 -0.11091525335E+03  0.62984779537E+03  0.10100000352E+00 0. -1.
</event>
<event>
 5   0  0.6688086E-05  0.1300466E+04  0.7818609E-02  0.9029195E-01
        2   -1    0    0  501    0  0.00000000000E+00  0.00000000000E+00  0.85781656842E+03  0.85781656843E+03  0.25500000920E-02 0. -1.
       -2   -1    0    0    0  501  0.00000000000E+00  0.00000000000E+00 -0.49288300800E+03  0.49288300801E+03  0.25500000920E-02 0.  1.
    10030    2    1    2    0    0  0.00000000000E+00  0.00000000000E+00  0.36493356042E+03  0.13506995764E+04  0.13004663941E+04 0.  0.
        5    1    3    3  502    0 -0.11282374433E+03  0.52154494732E+03  0.56835942050E+03  0.77961070428E+03  0.46999998093E+01 0. -1.
       -5    1    3    3    0  502  0.11282374433E+03 -0.52154494732E+03 -0.20342586007E+03  0.57108887216E+03  0.46999998093E+01 0.  1.
</event>
<event>
 5   0  0.6618060E-05  0.1298766E+04  0.7818609E-02  0.9030544E-01
        2   -1    0    0  501    0  0.00000000000E+00  0.00000000000E+00  0.61710058730E+03  0.61710058730E+03  0.25500000920E-02 0.  1.
       -2   -1    0    0    0  501  0.00000000000E+00  0.00000000000E+00 -0.68335444914E+03  0.68335444915E+03  0.25500000920E-02 0. -1.
    10030    2    1    2    0    0  0.00000000000E+00  0.00000000000E+00 -0.66253861846E+02  0.13004550364E+04  0.12987662329E+04 0.  0.
        2    1    3    3  502    0  0.11117524884E+03 -0.14998838071E+03 -0.65590190438E+03  0.68195583323E+03  0.25500000920E-02 0. -1.
       -2    1    3    3    0  502 -0.11117524884E+03  0.14998838071E+03  0.58964804254E+03  0.61849920321E+03  0.25500000920E-02 0.  1.
</event>
<event>
 5   0  0.3689707E-05  0.1299698E+04  0.7818609E-02  0.9029805E-01
       -1   -1    0    0    0  501  0.00000000000E+00  0.00000000000E+00  0.61311147349E+03  0.61311147351E+03  0.50400001928E-02 0. -1.
        1   -1    0    0  501    0  0.00000000000E+00  0.00000000000E+00 -0.68878736955E+03  0.68878736957E+03  0.50400001928E-02 0.  1.
    10030    2    1    2    0    0  0.00000000000E+00  0.00000000000E+00 -0.75675896059E+02  0.13018988431E+04  0.12996975634E+04 0.  0.
        1    1    3    3  502    0 -0.98525391409E+02 -0.30643280701E+03  0.52764907594E+03  0.61807917400E+03  0.50400001928E-02 0. -1.
       -1    1    3    3    0  502  0.98525391409E+02  0.30643280701E+03 -0.60332497200E+03  0.68381966909E+03  0.50400001928E-02 0.  1.
</event>
<event>
 5   0  0.3551277E-05  0.1300119E+04  0.7818609E-02  0.9029471E-01
        1   -1    0    0  501    0  0.00000000000E+00  0.00000000000E+00  0.84538910258E+03  0.84538910260E+03  0.50400001928E-02 0.  1.
       -1   -1    0    0    0  501  0.00000000000E+00  0.00000000000E+00 -0.49986139603E+03  0.49986139605E+03  0.50400001928E-02 0. -1.
    10030    2    1    2    0    0  0.00000000000E+00  0.00000000000E+00  0.34552770656E+03  0.13452504987E+04  0.13001190361E+04 0.  0.
        4    1    3    3  502    0  0.45571798398E+03  0.31033222791E+03 -0.18356051870E+03  0.58110330366E+03  0.12699999809E+01 0. -1.
       -4    1    3    3    0  502 -0.45571798398E+03 -0.31033222791E+03  0.52908822526E+03  0.76414719499E+03  0.12699999809E+01 0.  1.
</event>
<event>
 5   0  0.6742824E-05  0.1299649E+04  0.7818609E-02  0.9029844E-01
       -2   -1    0    0    0  501  0.00000000000E+00  0.00000000000E+00  0.21758049708E+03  0.21758049709E+03  0.25500000920E-02 0. -1.
        2   -1    0    0  501    0  0.00000000000E+00  0.00000000000E+00 -0.19407604272E+04  0.19407604272E+04  0.25500000920E-02 0.  1.
    10030    2    1    2    0    0  0.00000000000E+00  0.00000000000E+00 -0.17231799301E+04  0.21583409243E+04  0.12996485963E+04 0.  0.
        4    1    3    3  502    0 -0.30137282375E+03 -0.24205774963E+03  0.58871973892E+01  0.38659255689E+03  0.12699999809E+01 0. -1.
       -4    1    3    3    0  502  0.30137282375E+03  0.24205774963E+03 -0.17290671275E+04  0.17717483674E+04  0.12699999809E+01 0.  1.
</event>
<event>
 5   0  0.6742824E-05  0.1299688E+04  0.7818609E-02  0.9029813E-01
       -2   -1    0    0    0  501  0.00000000000E+00  0.00000000000E+00  0.49287980294E+03  0.49287980295E+03  0.25500000920E-02 0.  1.
        2   -1    0    0  501    0  0.00000000000E+00  0.00000000000E+00 -0.85679512099E+03  0.85679512099E+03  0.25500000920E-02 0. -1.
    10030    2    1    2    0    0  0.00000000000E+00  0.00000000000E+00 -0.36391531805E+03  0.13496749239E+04  0.12996876708E+04 0.  0.
        4    1    3    3  502    0  0.53504397784E+03  0.14762809664E+03 -0.53293486142E+03  0.76947208692E+03  0.12699999809E+01 0. -1.
       -4    1    3    3    0  502 -0.53504397784E+03 -0.14762809664E+03  0.16901954337E+03  0.58020283702E+03  0.12699999809E+01 0.  1.
</event>
<event>
 5   0  0.3718559E-05  0.1297390E+04  0.7818609E-02  0.9031638E-01
        1   -1    0    0  501    0  0.00000000000E+00  0.00000000000E+00  0.13904478974E+04  0.13904478974E+04  0.50400001928E-02 0.  1.
       -1   -1    0    0    0  501  0.00000000000E+00  0.00000000000E+00 -0.30263990340E+03  0.30263990345E+03  0.50400001928E-02 0. -1.
    10030    2    1    2    0    0  0.00000000000E+00  0.00000000000E+00  0.10878079940E+04  0.16930878008E+04  0.12973897138E+04 0.  0.
        2    1    3    3  502    0  0.54414590521E+03  0.33239098511E+03  0.69955711463E+03  0.94655094410E+03  0.25500000920E-02 0.  1.
       -2    1    3    3    0  502 -0.54414590521E+03 -0.33239098511E+03  0.38825087933E+03  0.74653685672E+03  0.25500000920E-02 0. -1.
</event>
<event>
 5   0  0.3718559E-05  0.1300016E+04  0.7818609E-02  0.9029552E-01
       -1   -1    0    0    0  501  0.00000000000E+00  0.00000000000E+00  0.32798540366E+03  0.32798540370E+03  0.50400001928E-02 0. -1.
        1   -1    0    0  501    0  0.00000000000E+00  0.00000000000E+00 -0.12881992876E+04  0.12881992876E+04  0.50400001928E-02 0.  1.
    10030    2    1    2    0    0  0.00000000000E+00  0.00000000000E+00 -0.96021388395E+03  0.16161846913E+04  0.13000162512E+04 0.  0.
        2    1    3    3  502    0  0.67046412051E+02  0.64060925775E+03 -0.37147684523E+03  0.74355261349E+03  0.25500000920E-02 0.  1.
       -2    1    3    3    0  502 -0.67046412051E+02 -0.64060925775E+03 -0.58873703872E+03  0.87263207782E+03  0.25500000920E-02 0. -1.
</event>
<event>
 5   0  0.6618060E-05  0.1300309E+04  0.7818609E-02  0.9029320E-01
        2   -1    0    0  501    0  0.00000000000E+00  0.00000000000E+00  0.10323591031E+04  0.10323591031E+04  0.25500000920E-02 0. -1.
       -2   -1    0    0    0  501  0.00000000000E+00  0.00000000000E+00 -0.40945140816E+03  0.40945140816E+03  0.25500000920E-02 0.  1.
    10030    2    1    2    0    0  0.00000000000E+00  0.00000000000E+00  0.62290769491E+03  0.14418105112E+04  0.13003090225E+04 0.  0.
        2    1    3    3  502    0 -0.58249496153E+03 -0.26496813911E+03  0.43881102042E+03  0.77592757819E+03  0.25500000920E-02 0.  1.
       -2    1    3    3    0  502  0.58249496153E+03  0.26496813911E+03  0.18409667448E+03  0.66588293304E+03  0.25500000920E-02 0. -1.
</event>
<event>
 5   0  0.6458698E-05  0.1300168E+04  0.7818609E-02  0.9029432E-01
       -2   -1    0    0    0  501  0.00000000000E+00  0.00000000000E+00  0.44151442436E+03  0.44151442437E+03  0.25500000920E-02 0. -1.
        2   -1    0    0  501    0  0.00000000000E+00  0.00000000000E+00 -0.95718083609E+03  0.95718083609E+03  0.25500000920E-02 0.  1.
    10030    2    1    2    0    0  0.00000000000E+00  0.00000000000E+00 -0.51566641173E+03  0.13986952605E+04  0.13001679059E+04 0.  0.
        3    1    3    3  502    0  0.21462498834E+03  0.39632506557E+02 -0.91658913565E+03  0.94221562022E+03  0.10100000352E+00 0.  1.
       -3    1    3    3    0  502 -0.21462498834E+03 -0.39632506557E+02  0.40092272392E+03  0.45647964024E+03  0.10100000352E+00 0. -1.
</event>
<event>
 5   0  0.2512000E-05  0.1300476E+04  0.7818609E-02  0.9029188E-01
        3   -1    0    0  501    0  0.00000000000E+00  0.00000000000E+00  0.83368681875E+03  0.83368682487E+03  0.10100000352E+00 0.  1.
       -3   -1    0    0    0  501  0.00000000000E+00  0.00000000000E+00 -0.50715643853E+03  0.50715644859E+03  0.10100000352E+00 0. -1.
    10030    2    1    2    0    0  0.00000000000E+00  0.00000000000E+00  0.32653038022E+03  0.13408432735E+04  0.13004762953E+04 0.  0.
        5    1    3    3  502    0 -0.86892915514E+02 -0.25952160224E+03 -0.44486123730E+03  0.52232695818E+03  0.46999998093E+01 0. -1.
       -5    1    3    3    0  502  0.86892915514E+02  0.25952160224E+03  0.77139161752E+03  0.81851631527E+03  0.46999998093E+01 0.  1.
</event>
<event>
 5   0  0.6618060E-05  0.1299320E+04  0.7818609E-02  0.9030105E-01
        2   -1    0    0  501    0  0.00000000000E+00  0.00000000000E+00  0.86654847955E+03  0.86654847955E+03  0.25500000920E-02 0. -1.
       -2   -1    0    0    0  501  0.00000000000E+00  0.00000000000E+00 -0.48705654614E+03  0.48705654615E+03  0.25500000920E-02 0.  1.
    10030    2    1    2    0    0  0.00000000000E+00  0.00000000000E+00  0.37949193341E+03  0.13536050257E+04  0.12993199906E+04 0.  0.
        2    1    3    3  502    0  0.10469439307E+03 -0.53341573839E+03 -0.18087704536E+03  0.57289595167E+03  0.25500000920E-02 0.  1.
       -2    1    3    3    0  502 -0.10469439307E+03  0.53341573839E+03  0.56036897876E+03  0.78070907403E+03  0.25500000920E-02 0. -1.
</event>
<event>
 5   0  0.6671239E-05  0.1300156E+04  0.7818609E-02  0.9029442E-01
        2   -1    0    0  501    0  0.00000000000E+00  0.00000000000E+00  0.32926572719E+03  0.32926572720E+03  0.25500000920E-02 0. -1.
       -2   -1    0    0    0  501  0.00000000000E+00  0.00000000000E+00 -0.12834655001E+04  0.12834655001E+04  0.25500000920E-02 0.  1.
    10030    2    1    2    0    0  0.00000000000E+00  0.00000000000E+00 -0.95419977295E+03  0.16127312273E+04  0.13001556849E+04 0.  0.
        1    1    3    3  502    0 -0.43150183553E+03 -0.37188788696E+03 -0.86562233533E+03  0.10362415076E+04  0.50400001928E-02 0.  1.
       -1    1    3    3    0  502  0.43150183553E+03  0.37188788696E+03 -0.88577437614E+02  0.57648971978E+03  0.50400001928E-02 0. -1.
</event>
<event>
 5   0  0.3631841E-05  0.1304509E+04  0.7818609E-02  0.9025997E-01
       -1   -1    0    0    0  501  0.00000000000E+00  0.00000000000E+00  0.22454006084E+03  0.22454006090E+03  0.50400001928E-02 0. -1.
        1   -1    0    0  501    0  0.00000000000E+00  0.00000000000E+00 -0.18947008355E+04  0.18947008355E+04  0.50400001928E-02 0.  1.
    10030    2    1    2    0    0  0.00000000000E+00  0.00000000000E+00 -0.16701607747E+04  0.21192408964E+04  0.13045094725E+04 0.  0.
        3    1    3    3  502    0  0.27864985076E+03 -0.37226526407E+03 -0.15781394546E+04  0.16452207495E+04  0.10100000352E+00 0. -1.
       -3    1    3    3    0  502 -0.27864985076E+03  0.37226526407E+03 -0.92021320085E+02  0.47402014694E+03  0.10100000352E+00 0.  1.
</event>
<event>
 5   0  0.6688086E-05  0.1299945E+04  0.7818609E-02  0.9029609E-01
       -2   -1    0    0    0  501  0.00000000000E+00  0.00000000000E+00  0.36569669977E+03  0.36569669978E+03  0.25500000920E-02 0. -1.
        2   -1    0    0  501    0  0.00000000000E+00  0.00000000000E+00 -0.11552314579E+04  0.11552314579E+04  0.25500000920E-02 0.  1.
    10030    2    1    2    0    0  0.00000000000E+00  0.00000000000E+00 -0.78953475811E+03  0.15209281577E+04  0.12999451244E+04 0.  0.
        5    1    3    3  502    0 -0.38160670001E+03  0.29971378060E+03 -0.90070051529E+03  0.10231009393E+04  0.46999998093E+01 0.  1.
       -5    1    3    3    0  502  0.38160670001E+03 -0.29971378060E+03  0.11116575718E+03  0.49782721836E+03  0.46999998093E+01 0. -1.
</event>
<event>
 5   0  0.6742824E-05  0.1300722E+04  0.7818609E-02  0.9028992E-01
        2   -1    0    0  501    0  0.00000000000E+00  0.00000000000E+00  0.97092192337E+03  0.97092192338E+03  0.25500000920E-02 0. -1.
       -2   -1    0    0    0  501  0.00000000000E+00  0.00000000000E+00 -0.43563717457E+03  0.43563717458E+03  0.25500000920E-02 0.  1.
    10030    2    1    2    0    0  0.00000000000E+00  0.00000000000E+00  0.53528474880E+03  0.14065590980E+04  0.13007223892E+04 0.  0.
        4    1    3    3  502    0 -0.46574527678E+03 -0.14833633640E+03 -0.19627031507E+03  0.52673141260E+03  0.12699999809E+01 0.  1.
       -4    1    3    3    0  502  0.46574527678E+03  0.14833633640E+03  0.73155506387E+03  0.87982768536E+03  0.12699999809E+01 0. -1.
</event>
<event>
 5   0  0.6618060E-05  0.1299745E+04  0.7818609E-02  0.9029767E-01
       -2   -1    0    0    0  501  0.00000000000E+00  0.00000000000E+00  0.57717402619E+03  0.57717402620E+03  0.25500000920E-02 0.  1.
        2   -1    0    0  501    0  0.00000000000E+00  0.00000000000E+00 -0.73172802871E+03  0.73172802872E+03  0.25500000920E-02 0. -1.
    10030    2    1    2    0    0  0.00000000000E+00  0.00000000000E+00 -0.15455400252E+03  0.13089020549E+04  0.12997452249E+04 0.  0.
        2    1    3    3  502    0 -0.34376064726E+03  0.31444879483E+03 -0.53355288175E+03  0.70832768180E+03  0.25500000920E-02 0. -1.
       -2    1    3    3    0  502  0.34376064726E+03 -0.31444879483E+03  0.37899887923E+03  0.60057437311E+03  0.25500000920E-02 0.  1.
</event>
<event>
 5   0  0.3631841E-05  0.1300372E+04  0.7818609E-02  0.9029270E-01
       -1   -1    0    0    0  501  0.00000000000E+00  0.00000000000E+00  0.53583742739E+03  0.53583742742E+03  0.50400001928E-02 0.  1.
        1   -1    0    0  501    0  0.00000000000E+00  0.00000000000E+00 -0.78893722721E+03  0.78893722723E+03  0.50400001928E-02 0. -1.
    10030    2    1    2    0    0  0.00000000000E+00  0.00000000000E+00 -0.25309979982E+03  0.13247746546E+04  0.13003723993E+04 0.  0.
        3    1    3    3  502    0  0.18120381242E+03 -0.20031485570E+03 -0.72907134973E+03  0.77749977894E+03  0.10100000352E+00 0. -1.
       -3    1    3    3    0  502 -0.18120381242E+03  0.20031485570E+03  0.47597154991E+03  0.54727487571E+03  0.10100000352E+00 0.  1.
</event>
<event>
 5   0  0.3552698E-05  0.1300665E+04  0.7818609E-02  0.9029038E-01
       -1   -1    0    0    0  501  0.00000000000E+00  0.00000000000E+00  0.68954580561E+03  0.68954580563E+03  0.50400001928E-02 0. -1.
        1   -1    0    0  501    0  0.00000000000E+00  0.00000000000E+00 -0.61334935348E+03  0.61334935350E+03  0.50400001928E-02 0.  1.
    10030    2    1    2    0    0  0.00000000000E+00  0.00000000000E+00  0.76196452133E+02  0.13028951591E+04  0.13006651746E+04 0.  0.
        5    1    3    3  502    0  0.89805154835E+02  0.10902558741E+03 -0.59778050943E+03  0.61425985706E+03  0.46999998093E+01 0.  1.
       -5    1    3    3    0  502 -0.89805154835E+02 -0.10902558741E+03  0.67397696156E+03  0.68863530207E+03  0.46999998093E+01 0. -1.
</event>
<event>
 5   0  0.6671239E-05  0.1300281E+04  0.7818609E-02  0.9029342E-01
       -2   -1    0    0    0  501  0.00000000000E+00  0.00000000000E+00  0.86540367850E+03  0.86540367850E+03  0.25500000920E-02 0.  1.
        2   -1    0    0  501    0  0.00000000000E+00  0.00000000000E+00 -0.48842291027E+03  0.48842291028E+03  0.25500000920E-02 0. -1.
    10030    2    1    2    0    0  0.00000000000E+00  0.00000000000E+00  0.37698076823E+03  0.13538265888E+04  0.13002814822E+04 0.  0.
        1    1    3    3  502    0 -0.28227717636E+03 -0.56077560778E+03  0.12616385699E+02  0.62794017214E+03  0.50400001928E-02 0. -1.
       -1    1    3    3    0  502  0.28227717636E+03  0.56077560778E+03  0.36436438253E+03  0.72588641664E+03  0.50400001928E-02 0.  1.
</event>
<event>
 5   0  0.6688086E-05  0.1299865E+04  0.7818609E-02  0.9029672E-01
       -2   -1    0    0    0  501  0.00000000000E+00  0.00000000000E+00  0.20722032603E+03  0.20722032604E+03  0.25500000920E-02 0. -1.
        2   -1    0    0  501    0  0.00000000000E+00  0.00000000000E+00 -0.20384681991E+04  0.20384681991E+04  0.25500000920E-02 0.  1.
    10030    2    1    2    0    0  0.00000000000E+00  0.00000000000E+00 -0.18312478731E+04  0.22456885252E+04  0.12998646773E+04 0.  0.
        5    1    3    3  502    0  0.51757211609E+02  0.63549699496E+03 -0.69808820566E+03  0.94545463796E+03  0.46999998093E+01 0. -1.
       -5    1    3    3    0  502 -0.51757211609E+02 -0.63549699496E+03 -0.11331596675E+04  0.13002338872E+04  0.46999998093E+01 0.  1.
</event>
<event>
 5   0  0.6688086E-05  0.1300169E+04  0.7818609E-02  0.9029431E-01
        2   -1    0    0  501    0  0.00000000000E+00  0.00000000000E+00  0.11779412760E+04  0.11779412760E+04  0.25500000920E-02 0. -1.
       -2   -1    0    0    0  501  0.00000000000E+00  0.00000000000E+00 -0.35877012553E+03  0.35877012554E+03  0.25500000920E-02 0.  1.
    10030    2    1    2    0    0  0.00000000000E+00  0.00000000000E+00  0.81917115052E+03  0.15367114016E+04  0.13001694343E+04 0.  0.
        5    1    3    3  502    0 -0.38569443141E+03 -0.10348290667E+02  0.10279524779E+04  0.10979870984E+04  0.46999998093E+01 0. -1.
       -5    1    3    3    0  502  0.38569443141E+03  0.10348290667E+02 -0.20878132735E+03  0.43872430317E+03  0.46999998093E+01 0.  1.
</event>
<event>
 5   0  0.3551277E-05  0.1299436E+04  0.7818609E-02  0.9030012E-01
        1   -1    0    0  501    0  0.00000000000E+00  0.00000000000E+00  0.12619475386E+04  0.12619475386E+04  0.50400001928E-02 0. -1.
       -1   -1    0    0    0  501  0.00000000000E+00  0.00000000000E+00 -0.33450963577E+03  0.33450963581E+03  0.50400001928E-02 0.  1.
    10030    2    1    2    0    0  0.00000000000E+00  0.00000000000E+00  0.92743790285E+03  0.15964571744E+04  0.12994362032E+04 0.  0.
        4    1    3    3  502    0  0.45262413498E+02  0.43057604390E+03 -0.13145972970E+03  0.45246843989E+03  0.12699999809E+01 0.  1.
       -4    1    3    3    0  502 -0.45262413498E+02 -0.43057604390E+03  0.10588976326E+04  0.11439887346E+04  0.12699999809E+01 0. -1.
</event>
<event>
 5   0  0.3551277E-05  0.1300566E+04  0.7818609E-02  0.9029117E-01
       -1   -1    0    0    0  501  0.00000000000E+00  0.00000000000E+00  0.50865749378E+03  0.50865749380E+03  0.50400001928E-02 0. -1.
        1   -1    0    0  501    0  0.00000000000E+00  0.00000000000E+00 -0.83134097928E+03  0.83134097929E+03  0.50400001928E-02 0.  1.
    10030    2    1    2    0    0  0.00000000000E+00  0.00000000000E+00 -0.32268348550E+03  0.13399984731E+04  0.13005657523E+04 0.  0.
        4    1    3    3  502    0 -0.11739879120E+02 -0.52588719845E+03 -0.55525686384E+03  0.76485748215E+03  0.12699999809E+01 0.  1.
       -4    1    3    3    0  502  0.11739879120E+02  0.52588719845E+03  0.23257337834E+03  0.57514099095E+03  0.12699999809E+01 0. -1.
</event>
<event>
 5   0  0.3718559E-05  0.1299872E+04  0.7818609E-02  0.9029667E-01
        1   -1    0    0  501    0  0.00000000000E+00  0.00000000000E+00  0.49634595746E+03  0.49634595749E+03  0.50400001928E-02 0. -1.
       -1   -1    0    0    0  501  0.00000000000E+00  0.00000000000E+00 -0.85105296777E+03  0.85105296779E+03  0.50400001928E-02 0.  1.
    10030    2    1    2    0    0  0.00000000000E+00  0.00000000000E+00 -0.35470701031E+03  0.13473989253E+04  0.12998718401E+04 0.  0.
        2    1    3    3  502    0 -0.10921857165E+03 -0.53435475122E+03  0.18905792351E+03  0.57724050014E+03  0.25500000920E-02 0. -1.
       -2    1    3    3    0  502  0.10921857165E+03  0.53435475122E+03 -0.54376493382E+03  0.77015842514E+03  0.25500000920E-02 0.  1.
</event>
<event>
 5   0  0.6671239E-05  0.1299988E+04  0.7818609E-02  0.9029574E-01
        2   -1    0    0  501    0  0.00000000000E+00  0.00000000000E+00  0.12116991717E+04  0.12116991717E+04  0.25500000920E-02 0.  1.
       -2   -1    0    0    0  501  0.00000000000E+00  0.00000000000E+00 -0.34867772568E+03  0.34867772569E+03  0.25500000920E-02 0. -1.
    10030    2    1    2    0    0  0.00000000000E+00  0.00000000000E+00  0.86302144604E+03  0.15603768974E+04  0.12999884790E+04 0.  0.
        1    1    3    3  502    0 -0.33143745160E+03  0.10684399182E+03 -0.22726304782E+03  0.41583039312E+03  0.50400001928E-02 0. -1.
       -1    1    3    3    0  502  0.33143745160E+03 -0.10684399182E+03  0.10902844939E+04  0.11445465043E+04  0.50400001928E-02 0.  1.
</event>
<event>
 5   0  0.6688086E-05  0.1299428E+04  0.7818609E-02  0.9030019E-01
       -2   -1    0    0    0  501  0.00000000000E+00  0.00000000000E+00  0.41268494995E+03  0.41268494996E+03  0.25500000920E-02 0. -1.
        2   -1    0    0  501    0  0.00000000000E+00  0.00000000000E+00 -0.10228830688E+04  0.10228830688E+04  0.25500000920E-02 0.  1.
    10030    2    1    2    0    0  0.00000000000E+00  0.00000000000E+00 -0.61019811883E+03  0.14355680187E+04  0.12994282559E+04 0.  0.
        5    1    3    3  502    0 -0.51043406829E+02  0.35169175625E+03 -0.90596932192E+03  0.97318807177E+03  0.46999998093E+01 0.  1.
       -5    1    3    3    0  502  0.51043406829E+02 -0.35169175625E+03  0.29577120308E+03  0.46237994697E+03  0.46999998093E+01 0. -1.
</event>
<event>
 5   0  0.6458698E-05  0.1300239E+04  0.7818609E-02  0.9029376E-01
       -2   -1    0    0    0  501  0.00000000000E+00  0.00000000000E+00  0.96790654136E+03  0.96790654136E+03  0.25500000920E-02 0.  1.
        2   -1    0    0  501    0  0.00000000000E+00  0.00000000000E+00 -0.43666967580E+03  0.43666967581E+03  0.25500000920E-02 0. -1.
    10030    2    1    2    0    0  0.00000000000E+00  0.00000000000E+00  0.53123686556E+03  0.14045762172E+04  0.13002391097E+04 0.  0.
        3    1    3    3  502    0  0.62772639582E+03  0.16827572814E+03  0.24696186409E+03  0.69523184709E+03  0.10100000352E+00 0. -1.
       -3    1    3    3    0  502 -0.62772639582E+03 -0.16827572814E+03  0.28427500147E+03  0.70934437007E+03  0.10100000352E+00 0.  1.
</event>
<event>
 5   0  0.3551277E-05  0.1299366E+04  0.7818609E-02  0.9030068E-01
        1   -1    0    0  501    0  0.00000000000E+00  0.00000000000E+00  0.26599499572E+03  0.26599499577E+03  0.50400001928E-02 0.  1.
       -1   -1    0    0    0  501  0.00000000000E+00  0.00000000000E+00 -0.15868273701E+04  0.15868273702E+04  0.50400001928E-02 0. -1.
    10030    2    1    2    0    0  0.00000000000E+00  0.00000000000E+00 -0.13208323744E+04  0.18528223659E+04  0.12993662141E+04 0.  0.
        4    1    3    3  502    0  0.51917719395E+03 -0.39055849237E+03 -0.65703216129E+03  0.92399879250E+03  0.12699999809E+01 0.  1.
       -4    1    3    3    0  502 -0.51917719395E+03  0.39055849237E+03 -0.66380021314E+03  0.92882357342E+03  0.12699999809E+01 0. -1.
</event>
<event>
 5   0  0.6671239E-05  0.1300126E+04  0.7818609E-02  0.9029466E-01
       -2   -1    0    0    0  501  0.00000000000E+00  0.00000000000E+00  0.23247370194E+03  0.23247370196E+03  0.25500000920E-02 0. -1.
        2   -1    0    0  501    0  0.00000000000E+00  0.00000000000E+00 -0.18177609084E+04  0.18177609084E+04  0.25500000920E-02 0.  1.
    10030    2    1    2    0    0  0.00000000000E+00  0.00000000000E+00 -0.15852872065E+04  0.20502346104E+04  0.13001255441E+04 0.  0.
        1    1    3    3  502    0 -0.33056795280E+03 -0.38159294344E+03 -0.14687626482E+03  0.52579557158E+03  0.50400001928E-02 0. -1.
       -1    1    3    3    0  502  0.33056795280E+03  0.38159294344E+03 -0.14384109416E+04  0.15244390388E+04  0.50400001928E-02 0.  1.
</event>
<event>
 5   0  0.3551277E-05  0.1299866E+04  0.7818609E-02  0.9029671E-01
        1   -1    0    0  501    0  0.00000000000E+00  0.00000000000E+00  0.82597103750E+03  0.82597103752E+03  0.50400001928E-02 0.  1.
       -1   -1    0    0    0  501  0.00000000000E+00  0.00000000000E+00 -0.51141378133E+03  0.51141378135E+03  0.50400001928E-02 0. -1.
    10030    2    1    2    0    0  0.00000000000E+00  0.00000000000E+00  0.31455725617E+03  0.13373848189E+04  0.12998661032E+04 0.  0.
        4    1    3    3  502    0  0.38468663332E+03 -0.51740973721E+03  0.72970078807E+02  0.64886276463E+03  0.12699999809E+01 0. -1.
       -4    1    3    3    0  502 -0.38468663332E+03  0.51740973721E+03  0.24158717737E+03  0.68852205425E+03  0.12699999809E+01 0.  1.
</event>
<event>
 5   0  0.6458698E-05  0.1298476E+04  0.7818609E-02  0.9030775E-01
       -2   -1    0    0    0  501  0.00000000000E+00  0.00000000000E+00  0.56319775996E+03  0.56319775996E+03  0.25500000920E-02 0. -1.
        2   -1    0    0  501    0  0.00000000000E+00  0.00000000000E+00 -0.74842227828E+03  0.74842227829E+03  0.25500000920E-02 0.  1.
    10030    2    1    2    0    0  0.00000000000E+00  0.00000000000E+00 -0.18522451833E+03  0.13116200382E+04  0.12984756457E+04 0.  0.
        3    1    3    3  502    0 -0.54751083572E+03  0.33351775861E+03 -0.19615616699E+03  0.67043229531E+03  0.10100000352E+00 0.  1.
       -3    1    3    3    0  502  0.54751083572E+03 -0.33351775861E+03  0.10931648665E+02  0.64118774294E+03  0.10100000352E+00 0. -1.
</event>
<event>
 5   0  0.6742824E-05  0.1299900E+04  0.7818609E-02  0.9029644E-01
       -2   -1    0    0    0  501  0.00000000000E+00  0.00000000000E+00  0.40599164895E+03  0.40599164896E+03  0.25500000920E-02 0. -1.
        2   -1    0    0  501    0  0.00000000000E+00  0.00000000000E+00 -0.10405018473E+04  0.10405018473E+04  0.25500000920E-02 0.  1.
    10030    2    1    2    0    0  0.00000000000E+00  0.00000000000E+00 -0.63451019838E+03  0.14464934963E+04  0.12999000896E+04 0.  0.
        4    1    3    3  502    0 -0.25330474942E+03 -0.13536648322E+03  0.33154591802E+03  0.43864756868E+03  0.12699999809E+01 0. -1.
       -4    1    3    3    0  502  0.25330474942E+03  0.13536648322E+03 -0.96605611640E+03  0.10078459276E+04  0.12699999809E+01 0.  1.
</event>
<event>
 5   0  0.3689707E-05  0.1299973E+04  0.7818609E-02  0.9029586E-01
        1   -1    0    0  501    0  0.00000000000E+00  0.00000000000E+00  0.11713359438E+04  0.11713359438E+04  0.50400001928E-02 0.  1.
       -1   -1    0    0    0  501  0.00000000000E+00  0.00000000000E+00 -0.36068435469E+03  0.36068435472E+03  0.50400001928E-02 0. -1.
    10030    2    1    2    0    0  0.00000000000E+00  0.00000000000E+00  0.81065158911E+03  0.15320202985E+04  0.12999731521E+04 0.  0.
        1    1    3    3  502    0 -0.50478344550E+03  0.39119676896E+03  0.26272560383E+03  0.69055483622E+03  0.50400001928E-02 0.  1.
       -1    1    3    3    0  502  0.50478344550E+03 -0.39119676896E+03  0.54792598527E+03  0.84146546231E+03  0.50400001928E-02 0. -1.
</event>
<event>
 5   0  0.6671239E-05  0.1299523E+04  0.7818609E-02  0.9029943E-01
        2   -1    0    0  501    0  0.00000000000E+00  0.00000000000E+00  0.84943169830E+03  0.84943169830E+03  0.25500000920E-02 0. -1.
       -2   -1    0    0    0  501  0.00000000000E+00  0.00000000000E+00 -0.49702659430E+03  0.49702659430E+03  0.25500000920E-02 0.  1.
    10030    2    1    2    0    0  0.00000000000E+00  0.00000000000E+00  0.35240510400E+03  0.13464582926E+04  0.12995232112E+04 0.  0.
        1    1    3    3  502    0  0.11865267750E+03 -0.88431255157E+02  0.83173939065E+03  0.84480113563E+03  0.50400001928E-02 0. -1.
       -1    1    3    3    0  502 -0.11865267750E+03  0.88431255157E+02 -0.47933428665E+03  0.50165715698E+03  0.50400001928E-02 0.  1.
</event>
<event>
 5   0  0.3552698E-05  0.1304373E+04  0.7818609E-02  0.9026104E-01
       -1   -1    0    0    0  501  0.00000000000E+00  0.00000000000E+00  0.98005039238E+03  0.98005039239E+03  0.50400001928E-02 0.  1.
        1   -1    0    0  501    0  0.00000000000E+00  0.00000000000E+00 -0.43400559188E+03  0.43400559191E+03  0.50400001928E-02 0. -1.
    10030    2    1    2    0    0  0.00000000000E+00  0.00000000000E+00  0.54604480050E+03  0.14140559843E+04  0.13043731838E+04 0.  0.
        5    1    3    3  502    0 -0.19834598535E+03 -0.55040767193E+03  0.58541210412E+03  0.82765884087E+03  0.46999998093E+01 0. -1.
       -5    1    3    3    0  502  0.19834598535E+03  0.55040767193E+03 -0.39367303624E+02  0.58639714343E+03  0.46999998093E+01 0.  1.
</event>
<event>
 5   0  0.3552698E-05  0.1299737E+04  0.7818609E-02  0.9029774E-01
        1   -1    0    0  501    0  0.00000000000E+00  0.00000000000E+00  0.10307644724E+04  0.10307644724E+04  0.50400001928E-02 0.  1.
       -1   -1    0    0    0  501  0.00000000000E+00  0.00000000000E+00 -0.40972404914E+03  0.40972404917E+03  0.50400001928E-02 0. -1.
    10030    2    1    2    0    0  0.00000000000E+00  0.00000000000E+00  0.62104042322E+03  0.14404885215E+04  0.12997368862E+04 0.  0.
        5    1    3    3  502    0  0.41087247432E+02 -0.64833593775E+03  0.29199967772E+03  0.71225946948E+03  0.46999998093E+01 0. -1.
       -5    1    3    3    0  502 -0.41087247432E+02  0.64833593775E+03  0.32904074550E+03  0.72822905206E+03  0.46999998093E+01 0.  1.
</event>
<event>
 5   0  0.3551277E-05  0.1300741E+04  0.7818609E-02  0.9028977E-01
        1   -1    0    0  501    0  0.00000000000E+00  0.00000000000E+00  0.95323364349E+03  0.95323364350E+03  0.50400001928E-02 0.  1.
       -1   -1    0    0    0  501  0.00000000000E+00  0.00000000000E+00 -0.44373384271E+03  0.44373384274E+03  0.50400001928E-02 0. -1.
    10030    2    1    2    0    0  0.00000000000E+00  0.00000000000E+00  0.50949980077E+03  0.13969674862E+04  0.13007413696E+04 0.  0.
        4    1    3    3  502    0 -0.46630630956E+03 -0.37090193785E+03  0.53474850975E+03  0.80060439882E+03  0.12699999809E+01 0.  1.
       -4    1    3    3    0  502  0.46630630956E+03  0.37090193785E+03 -0.25248708975E+02  0.59636308742E+03  0.12699999809E+01 0. -1.
</event>
<event>
 5   0  0.3631841E-05  0.1300389E+04  0.7818609E-02  0.9029257E-01
        1   -1    0    0  501    0  0.00000000000E+00  0.00000000000E+00  0.15740501314E+04  0.15740501315E+04  0.50400001928E-02 0. -1.
       -1   -1    0    0    0  501  0.00000000000E+00  0.00000000000E+00 -0.26857649788E+03  0.26857649792E+03  0.50400001928E-02 0.  1.
    10030    2    1    2    0    0  0.00000000000E+00  0.00000000000E+00  0.13054736336E+04  0.18426266294E+04  0.13003889754E+04 0.  0.
        3    1    3    3  502    0 -0.39796764648E+03 -0.51234004515E+03  0.59126053718E+03  0.87775828252E+03  0.10100000352E+00 0.  1.
       -3    1    3    3    0  502  0.39796764648E+03  0.51234004515E+03  0.71421309639E+03  0.96486834686E+03  0.10100000352E+00 0. -1.
</event>
<event>
 5   0  0.3631841E-05  0.1299933E+04  0.7818609E-02  0.9029618E-01
       -1   -1    0    0    0  501  0.00000000000E+00  0.00000000000E+00  0.40862664333E+03  0.40862664336E+03  0.50400001928E-02 0.  1.
        1   -1    0    0  501    0  0.00000000000E+00  0.00000000000E+00 -0.10338453698E+04  0.10338453698E+04  0.50400001928E-02 0. -1.
    10030    2    1    2    0    0  0.00000000000E+00  0.00000000000E+00 -0.62521872644E+03  0.14424720131E+04  0.12999334801E+04 0.  0.
        3    1    3    3  502    0  0.12057888652E+03  0.45143950175E+03 -0.81394537154E+03  0.93853288151E+03  0.10100000352E+00 0. -1.
       -3    1    3    3    0  502 -0.12057888652E+03 -0.45143950175E+03  0.18872664510E+03  0.50393913163E+03  0.10100000352E+00 0.  1.
</event>
<event>
 5   0  0.3551277E-05  0.1300371E+04  0.7818609E-02  0.9029271E-01
       -1   -1    0    0    0  501  0.00000000000E+00  0.00000000000E+00  0.32800314045E+03  0.32800314049E+03  0.50400001928E-02 0. -1.
        1   -1    0    0  501    0  0.00000000000E+00  0.00000000000E+00 -0.12888333686E+04  0.12888333686E+04  0.50400001928E-02 0.  1.
    10030    2    1    2    0    0  0.00000000000E+00  0.00000000000E+00 -0.96083022818E+03  0.16168365091E+04  0.13003713200E+04 0.  0.
        4    1    3    3  502    0 -0.17553953158E+03 -0.29668637995E+03 -0.11658498464E+04  0.12157484989E+04  0.12699999809E+01 0.  1.
       -4    1    3    3    0  502  0.17553953158E+03  0.29668637995E+03  0.20501961826E+03  0.40108801025E+03  0.12699999809E+01 0. -1.
</event>
<event>
 5   0  0.3631841E-05  0.1300322E+04  0.7818609E-02  0.9029310E-01
        1   -1    0    0  501    0  0.00000000000E+00  0.00000000000E+00  0.10614048199E+04  0.10614048199E+04  0.50400001928E-02 0.  1.
       -1   -1    0    0    0  501  0.00000000000E+00  0.00000000000E+00 -0.39825427286E+03  0.39825427289E+03  0.50400001928E-02 0. -1.
    10030    2    1    2    0    0  0.00000000000E+00  0.00000000000E+00  0.66315054700E+03  0.14596590928E+04  0.13003215061E+04 0.  0.
        3    1    3    3  502    0  0.62226379917E+03 -0.18740010235E+03  0.30975180011E+03  0.71991473244E+03  0.10100000352E+00 0.  1.
       -3    1    3    3    0  502 -0.62226379917E+03  0.18740010235E+03  0.35339874689E+03  0.73974436032E+03  0.10100000352E+00 0. -1.
</event>
<event>
 5   0  0.3689707E-05  0.1300925E+04  0.7818609E-02  0.9028832E-01
        1   -1    0    0  501    0  0.00000000000E+00  0.00000000000E+00  0.22174336448E+04  0.22174336448E+04  0.50400001928E-02 0.  1.
       -1   -1    0    0    0  501  0.00000000000E+00  0.00000000000E+00 -0.19080676251E+03  0.19080676258E+03  0.50400001928E-02 0. -1.
    10030    2    1    2    0    0  0.00000000000E+00  0.00000000000E+00  0.20266268822E+04  0.24082404073E+04  0.13009248017E+04 0.  0.
        1    1    3    3  502    0 -0.54504357360E+02  0.40257630061E+03  0.19537087615E+04  0.19954990172E+04  0.50400001928E-02 0.  1.
       -1    1    3    3    0  502  0.54504357360E+02 -0.40257630061E+03  0.72918120734E+02  0.41274139015E+03  0.50400001928E-02 0. -1.
</event>
<event>
 5   0  0.3552698E-05  0.1300343E+04  0.7818609E-02  0.9029294E-01
       -1   -1    0    0    0  501  0.00000000000E+00  0.00000000000E+00  0.83709318223E+03  0.83709318224E+03  0.50400001928E-02 0.  1.
        1   -1    0    0  501    0  0.00000000000E+00  0.00000000000E+00 -0.50498885150E+03  0.50498885153E+03  0.50400001928E-02 0. -1.
    10030    2    1    2    0    0  0.00000000000E+00  0.00000000000E+00  0.33210433073E+03  0.13420820338E+04  0.13003426083E+04 0.  0.
        5    1    3    3  502    0  0.56617089781E+03 -0.30251407033E+03  0.59608867091E+02  0.64470113643E+03  0.46999998093E+01 0. -1.
       -5    1    3    3    0  502 -0.56617089781E+03  0.30251407033E+03  0.27249546364E+03  0.69738089734E+03  0.46999998093E+01 0.  1.
</event>
<event>
 5   0  0.6458698E-05  0.1300289E+04  0.7818609E-02  0.9029336E-01
       -2   -1    0    0    0  501  0.00000000000E+00  0.00000000000E+00  0.99848400933E+03  0.99848400933E+03  0.25500000920E-02 0. -1.
        2   -1    0    0  501    0  0.00000000000E+00  0.00000000000E+00 -0.42332947992E+03  0.42332947993E+03  0.25500000920E-02 0.  1.
    10030    2    1    2    0    0  0.00000000000E+00  0.00000000000E+00  0.57515452940E+03  0.14218134893E+04  0.13002887624E+04 0.  0.
        3    1    3    3  502    0  0.22023749999E+03  0.24236935619E+03  0.90170876175E+03  0.95933631352E+03  0.10100000352E+00 0. -1.
       -3    1    3    3    0  502 -0.22023749999E+03 -0.24236935619E+03 -0.32655423234E+03  0.46247717574E+03  0.10100000352E+00 0.  1.
</event>
<event>
 5   0  0.6618060E-05  0.1299948E+04  0.7818609E-02  0.9029607E-01
        2   -1    0    0  501    0  0.00000000000E+00  0.00000000000E+00  0.11039284572E+04  0.11039284572E+04  0.25500000920E-02 0.  1.
       -2   -1    0    0    0  501  0.00000000000E+00  0.00000000000E+00 -0.38269318034E+03  0.38269318035E+03  0.25500000920E-02 0. -1.
    10030    2    1    2    0    0  0.00000000000E+00  0.00000000000E+00  0.72123527689E+03  0.14866216376E+04  0.12999475254E+04 0.  0.
        2    1    3    3  502    0 -0.22175443135E+02  0.15976704881E+03  0.10806766497E+04  0.10926478305E+04  0.25500000920E-02 0.  1.
       -2    1    3    3    0  502  0.22175443135E+02 -0.15976704881E+03 -0.35944137285E+03  0.39397380710E+03  0.25500000920E-02 0. -1.
</event>
<event>
 5   0  0.3552698E-05  0.1299872E+04  0.7818609E-02  0.9029667E-01
       -1   -1    0    0    0  501  0.00000000000E+00  0.00000000000E+00  0.46077784635E+03  0.46077784638E+03  0.50400001928E-02 0.  1.
        1   -1    0    0  501    0  0.00000000000E+00  0.00000000000E+00 -0.91674669703E+03  0.91674669704E+03  0.50400001928E-02 0. -1.
    10030    2    1    2    0    0  0.00000000000E+00  0.00000000000E+00 -0.45596885068E+03  0.13775245434E+04  0.12998716379E+04 0.  0.
        5    1    3    3  502    0 -0.49919231420E+03 -0.41570098609E+03 -0.20694380803E+03  0.68179770172E+03  0.46999998093E+01 0.  1.
       -5    1    3    3    0  502  0.49919231420E+03  0.41570098609E+03 -0.24902504265E+03  0.69572684170E+03  0.46999998093E+01 0. -1.
</event>
<event>
 5   0  0.6458698E-05  0.1294284E+04  0.7818609E-02  0.9034110E-01
       -2   -1    0    0    0  501  0.00000000000E+00  0.00000000000E+00  0.43627089433E+03  0.43627089434E+03  0.25500000920E-02 0. -1.
        2   -1    0    0  501    0  0.00000000000E+00  0.00000000000E+00 -0.95993763980E+03  0.95993763980E+03  0.25500000920E-02 0.  1.
    10030    2    1    2    0    0  0.00000000000E+00  0.00000000000E+00 -0.52366674547E+03  0.13962085341E+04  0.12942841305E+04 0.  0.
        3    1    3    3  502    0 -0.46791774772E+03  0.66412027384E+02 -0.73872767050E+03  0.87696987255E+03  0.10100000352E+00 0.  1.
       -3    1    3    3    0  502  0.46791774772E+03 -0.66412027384E+02  0.21506092503E+03  0.51923866159E+03  0.10100000352E+00 0. -1.
</event>
<event>
 5   0  0.6671239E-05  0.1300337E+04  0.7818609E-02  0.9029298E-01
        2   -1    0    0  501    0  0.00000000000E+00  0.00000000000E+00  0.14828609793E+04  0.14828609793E+04  0.25500000920E-02 0. -1.
       -2   -1    0    0    0  501  0.00000000000E+00  0.00000000000E+00 -0.28506979216E+03  0.28506979217E+03  0.25500000920E-02 0.  1.
    10030    2    1    2    0    0  0.00000000000E+00  0.00000000000E+00  0.11977911872E+04  0.17679307715E+04  0.13003366813E+04 0.  0.
        1    1    3    3  502    0 -0.38943396509E+03 -0.46167347639E+03  0.92609683421E+03  0.11056475742E+04  0.50400001928E-02 0. -1.
       -1    1    3    3    0  502  0.38943396509E+03  0.46167347639E+03  0.27169435296E+03  0.66228319730E+03  0.50400001928E-02 0.  1.
</event>
<event>
 5   0  0.6742824E-05  0.1300385E+04  0.7818609E-02  0.9029260E-01
        2   -1    0    0  501    0  0.00000000000E+00  0.00000000000E+00  0.10469117370E+04  0.10469117370E+04  0.25500000920E-02 0.  1.
       -2   -1    0    0    0  501  0.00000000000E+00  0.00000000000E+00 -0.40380725248E+03  0.40380725248E+03  0.25500000920E-02 0. -1.
    10030    2    1    2    0    0  0.00000000000E+00  0.00000000000E+00  0.64310448451E+03  0.14507189895E+04  0.13003854077E+04 0.  0.
        4    1    3    3  502    0 -0.42476757942E+03  0.48957152984E+03  0.37888575502E+03  0.75077547084E+03  0.12699999809E+01 0.  1.
       -4    1    3    3    0  502  0.42476757942E+03 -0.48957152984E+03  0.26421872950E+03  0.69994351864E+03  0.12699999809E+01 0. -1.
</event>
<event>
 5   0  0.6618060E-05  0.1301107E+04  0.7818609E-02  0.9028688E-01
       -2   -1    0    0    0  501  0.00000000000E+00  0.00000000000E+00  0.94967084611E+03  0.94967084611E+03  0.25500000920E-02 0.  1.
        2   -1    0    0  501    0  0.00000000000E+00  0.00000000000E+00 -0.44564919859E+03  0.44564919859E+03  0.25500000920E-02 0. -1.
    10030    2    1    2    0    0  0.00000000000E+00  0.00000000000E+00  0.50402164752E+03  0.13953200447E+04  0.13011073000E+04 0.  0.
        2    1    3    3  502    0  0.21848734044E+03  0.76336571917E+02 -0.40000725178E+03  0.46213611807E+03  0.25500000920E-02 0. -1.
       -2    1    3    3    0  502 -0.21848734044E+03 -0.76336571917E+02  0.90402889930E+03  0.93318392663E+03  0.25500000920E-02 0.  1.
</event>
<event>
 5   0  0.3552698E-05  0.1300024E+04  0.7818609E-02  0.9029546E-01
        1   -1    0    0  501    0  0.00000000000E+00  0.00000000000E+00  0.47324822953E+03  0.47324822956E+03  0.50400001928E-02 0. -1.
       -1   -1    0    0    0  501  0.00000000000E+00  0.00000000000E+00 -0.89279886430E+03  0.89279886431E+03  0.50400001928E-02 0.  1.
    10030    2    1    2    0    0  0.00000000000E+00  0.00000000000E+00 -0.41955063477E+03  0.13660470939E+04  0.13000238181E+04 0.  0.
        5    1    3    3  502    0 -0.65847218712E+01  0.39530862408E+02 -0.89148159930E+03  0.89239429600E+03  0.46999998093E+01 0.  1.
       -5    1    3    3    0  502  0.65847218712E+01 -0.39530862408E+02  0.47193096453E+03  0.47365279787E+03  0.46999998093E+01 0. -1.
</event>
<event>
 5   0  0.6618060E-05  0.1300385E+04  0.7818609E-02  0.9029260E-01
        2   -1    0    0  501    0  0.00000000000E+00  0.00000000000E+00  0.15688294380E+04  0.15688294380E+04  0.25500000920E-02 0.  1.
       -2   -1    0    0    0  501  0.00000000000E+00  0.00000000000E+00 -0.26946873830E+03  0.26946873831E+03  0.25500000920E-02 0. -1.
    10030    2    1    2    0    0  0.00000000000E+00  0.00000000000E+00  0.12993606997E+04  0.18382981763E+04  0.13003853110E+04 0.  0.
        2    1    3    3  502    0  0.54155099592E+03 -0.17555353843E+03  0.20566174317E+03  0.60530428600E+03  0.25500000920E-02 0.  1.
       -2    1    3    3    0  502 -0.54155099592E+03  0.17555353843E+03  0.10936989565E+04  0.12329938903E+04  0.25500000920E-02 0. -1.
</event>
<event>
 5   0  0.3552698E-05  0.1300240E+04  0.7818609E-02  0.9029375E-01
        1   -1    0    0  501    0  0.00000000000E+00  0.00000000000E+00  0.10791661428E+04  0.10791661428E+04  0.50400001928E-02 0.  1.
       -1   -1    0    0    0  501  0.00000000000E+00  0.00000000000E+00 -0.39165037752E+03  0.39165037756E+03  0.50400001928E-02 0. -1.
    10030    2    1    2    0    0  0.00000000000E+00  0.00000000000E+00  0.68751576530E+03  0.14708165204E+04  0.13002397122E+04 0.  0.
        5    1    3    3  502    0  0.15199001267E+03  0.16890714341E+03  0.10327652595E+04  0.10574765994E+04  0.46999998093E+01 0.  1.
       -5    1    3    3    0  502 -0.15199001267E+03 -0.16890714341E+03 -0.34524949420E+03  0.41333992100E+03  0.46999998093E+01 0. -1.
</event>
<event>
 5   0  0.3718559E-05  0.1300429E+04  0.7818609E-02  0.9029225E-01
       -1   -1    0    0    0  501  0.00000000000E+00  0.00000000000E+00  0.47063078924E+03  0.47063078927E+03  0.50400001928E-02 0. -1.
        1   -1    0    0  501    0  0.00000000000E+00  0.00000000000E+00 -0.89832386902E+03  0.89832386903E+03  0.50400001928E-02 0.  1.
    10030    2    1    2    0    0  0.00000000000E+00  0.00000000000E+00 -0.42769307978E+03  0.13689546583E+04  0.13004289623E+04 0.  0.
        2    1    3    3  502    0  0.60638326838E+03 -0.21761924821E+03 -0.30634040777E+03  0.71337455155E+03  0.25500000920E-02 0. -1.
       -2    1    3    3    0  502 -0.60638326838E+03  0.21761924821E+03 -0.12135267201E+03  0.65558010675E+03  0.25500000920E-02 0.  1.
</event>
<event>
 5   0  0.3718559E-05  0.1300560E+04  0.7818609E-02  0.9029121E-01
       -1   -1    0    0    0  501  0.00000000000E+00  0.00000000000E+00  0.44305629556E+03  0.44305629559E+03  0.50400001928E-02 0.  1.
        1   -1    0    0  501    0  0.00000000000E+00  0.00000000000E+00 -0.95442587559E+03  0.95442587561E+03  0.50400001928E-02 0. -1.
    10030    2    1    2    0    0  0.00000000000E+00  0.00000000000E+00 -0.51136958003E+03  0.13974821712E+04  0.13005604836E+04 0.  0.
        2    1    3    3  502    0  0.50964430847E+03 -0.16993706578E+03 -0.64938929720E+03  0.84280625698E+03  0.25500000920E-02 0. -1.
       -2    1    3    3    0  502 -0.50964430847E+03  0.16993706578E+03  0.13801971716E+03  0.55467591422E+03  0.25500000920E-02 0.  1.
</event>
<event>
 5   0  0.3551277E-05  0.1300300E+04  0.7818609E-02  0.9029327E-01
        1   -1    0    0  501    0  0.00000000000E+00  0.00000000000E+00  0.76536294784E+03  0.76536294786E+03  0.50400001928E-02 0.  1.
       -1   -1    0    0    0  501  0.00000000000E+00  0.00000000000E+00 -0.55228067445E+03  0.55228067448E+03  0.50400001928E-02 0. -1.
    10030    2    1    2    0    0  0.00000000000E+00  0.00000000000E+00  0.21308227339E+03  0.13176436223E+04  0.13003002193E+04 0.  0.
        4    1    3    3  502    0 -0.16935315022E+03  0.61594231694E+03 -0.16018836723E+02  0.63900206832E+03  0.12699999809E+01 0. -1.
       -4    1    3    3    0  502  0.16935315022E+03 -0.61594231694E+03  0.22910111011E+03  0.67864155402E+03  0.12699999809E+01 0.  1.
</event>
<event>
 5   0  0.6671239E-05  0.1300512E+04  0.7818609E-02  0.9029160E-01
        2   -1    0    0  501    0  0.00000000000E+00  0.00000000000E+00  0.37139426053E+03  0.37139426054E+03  0.25500000920E-02 0.  1.
       -2   -1    0    0    0  501  0.00000000000E+00  0.00000000000E+00 -0.11385006709E+04  0.11385006709E+04  0.25500000920E-02 0. -1.
    10030    2    1    2    0    0  0.00000000000E+00  0.00000000000E+00 -0.76710641039E+03  0.15098949315E+04  0.13005116144E+04 0.  0.
        1    1    3    3  502    0  0.28093904557E+03 -0.58628848394E+03 -0.36834094729E+03  0.74721883488E+03  0.50400001928E-02 0.  1.
       -1    1    3    3    0  502 -0.28093904557E+03  0.58628848394E+03 -0.39876546310E+03  0.76267609659E+03  0.50400001928E-02 0. -1.
</event>
<event>
 5   0  0.6742824E-05  0.1304393E+04  0.7818609E-02  0.9026089E-01
        2   -1    0    0  501    0  0.00000000000E+00  0.00000000000E+00  0.12257937908E+04  0.12257937908E+04  0.25500000920E-02 0. -1.
       -2   -1    0    0    0  501  0.00000000000E+00  0.00000000000E+00 -0.34700803439E+03  0.34700803440E+03  0.25500000920E-02 0.  1.
    10030    2    1    2    0    0  0.00000000000E+00  0.00000000000E+00  0.87878575643E+03  0.15728018252E+04  0.13043930296E+04 0.  0.
        4    1    3    3  502    0 -0.12001872114E+03 -0.17134137717E+03 -0.30545506709E+03  0.37022529879E+03  0.12699999809E+01 0.  1.
       -4    1    3    3    0  502  0.12001872114E+03  0.17134137717E+03  0.11842408235E+04  0.12025765264E+04  0.12699999809E+01 0. -1.
</event>
<event>
 5   0  0.3631841E-05  0.1298878E+04  0.7818609E-02  0.9030456E-01
       -1   -1    0    0    0  501  0.00000000000E+00  0.00000000000E+00  0.46455643016E+03  0.46455643018E+03  0.50400001928E-02 0.  1.
        1   -1    0    0  501    0  0.00000000000E+00  0.00000000000E+00 -0.90789985325E+03  0.90789985326E+03  0.50400001928E-02 0. -1.
    10030    2    1    2    0    0  0.00000000000E+00  0.00000000000E+00 -0.44334342309E+03  0.13724562834E+04  0.12988775382E+04 0.  0.
        3    1    3    3  502    0  0.41601395989E+03  0.41005404736E+03 -0.52157879354E+03  0.78310687946E+03  0.10100000352E+00 0. -1.
       -3    1    3    3    0  502 -0.41601395989E+03 -0.41005404736E+03  0.78235370454E+02  0.58934940398E+03  0.10100000352E+00 0.  1.
</event>
<event>
 5   0  0.6458698E-05  0.1299471E+04  0.7818609E-02  0.9029985E-01
        2   -1    0    0  501    0  0.00000000000E+00  0.00000000000E+00  0.12484739361E+04  0.12484739361E+04  0.25500000920E-02 0.  1.
       -2   -1    0    0    0  501  0.00000000000E+00  0.00000000000E+00 -0.33813773755E+03  0.33813773756E+03  0.25500000920E-02 0. -1.
    10030    2    1    2    0    0  0.00000000000E+00  0.00000000000E+00  0.91033619856E+03  0.15866116737E+04  0.12994708956E+04 0.  0.
        3    1    3    3  502    0 -0.48939950201E+03  0.35231914755E+03  0.15981638043E+03  0.62384448379E+03  0.10100000352E+00 0.  1.
       -3    1    3    3    0  502  0.48939950201E+03 -0.35231914755E+03  0.75051981813E+03  0.96276718988E+03  0.10100000352E+00 0. -1.
</event>
<event>
 5   0  0.3631841E-05  0.1299509E+04  0.7818609E-02  0.9029954E-01
        1   -1    0    0  501    0  0.00000000000E+00  0.00000000000E+00  0.71005711286E+03  0.71005711287E+03  0.50400001928E-02 0. -1.
       -1   -1    0    0    0  501  0.00000000000E+00  0.00000000000E+00 -0.59457333617E+03  0.59457333619E+03  0.50400001928E-02 0.  1.
    10030    2    1    2    0    0  0.00000000000E+00  0.00000000000E+00  0.11548377669E+03  0.13046304491E+04  0.12995091789E+04 0.  0.
        3    1    3    3  502    0 -0.36168532632E+02  0.50314681669E+03 -0.35340364926E+03  0.61592128670E+03  0.10100000352E+00 0.  1.
       -3    1    3    3    0  502  0.36168532632E+02 -0.50314681669E+03  0.46888742595E+03  0.68870916236E+03  0.10100000352E+00 0. -1.
</event>
<event>
 5   0  0.3718559E-05  0.1295262E+04  0.7818609E-02  0.9033331E-01
       -1   -1    0    0    0  501  0.00000000000E+00  0.00000000000E+00  0.16435549289E+04  0.16435549289E+04  0.50400001928E-02 0. -1.
        1   -1    0    0  501    0  0.00000000000E+00  0.00000000000E+00 -0.25519426138E+03  0.25519426143E+03  0.50400001928E-02 0.  1.
    10030    2    1    2    0    0  0.00000000000E+00  0.00000000000E+00  0.13883606675E+04  0.18987491903E+04  0.12952618054E+04 0.  0.
        2    1    3    3  502    0 -0.44102103055E+03  0.24356846871E+03  0.12907223599E+04  0.13855646353E+04  0.25500000920E-02 0. -1.
       -2    1    3    3    0  502  0.44102103055E+03 -0.24356846871E+03  0.97638307582E+02  0.51318455496E+03  0.25500000920E-02 0.  1.
</event>
<event>
 5   0  0.6618060E-05  0.1299827E+04  0.7818609E-02  0.9029703E-01
        2   -1    0    0  501    0  0.00000000000E+00  0.00000000000E+00  0.19385987496E+03  0.19385987497E+03  0.25500000920E-02 0. -1.
       -2   -1    0    0    0  501  0.00000000000E+00  0.00000000000E+00 -0.21788283098E+04  0.21788283098E+04  0.25500000920E-02 0.  1.
    10030    2    1    2    0    0  0.00000000000E+00  0.00000000000E+00 -0.19849684349E+04  0.23726881848E+04  0.12998267326E+04 0.  0.
        2    1    3    3  502    0  0.54350169990E+03  0.32020825824E+03 -0.70699937806E+03  0.94751018308E+03  0.25500000920E-02 0. -1.
       -2    1    3    3    0  502 -0.54350169990E+03 -0.32020825824E+03 -0.12779690568E+04  0.14251780017E+04  0.25500000920E-02 0.  1.
</event>
<event>
 5   0  0.3552698E-05  0.1300610E+04  0.7818609E-02  0.9029082E-01
        1   -1    0    0  501    0  0.00000000000E+00  0.00000000000E+00  0.25998621711E+03  0.25998621716E+03  0.50400001928E-02 0.  1.
       -1   -1    0    0    0  501  0.00000000000E+00  0.00000000000E+00 -0.16266107386E+04  0.16266107386E+04  0.50400001928E-02 0. -1.
    10030    2    1    2    0    0  0.00000000000E+00  0.00000000000E+00 -0.13666245215E+04  0.18865969558E+04  0.13006096612E+04 0.  0.
        5    1    3    3  502    0 -0.25064279209E+03  0.49909991553E+03 -0.20014307686E+03  0.59329746007E+03  0.46999998093E+01 0.  1.
       -5    1    3    3    0  502  0.25064279209E+03 -0.49909991553E+03 -0.11664814447E+04  0.12932994957E+04  0.46999998093E+01 0. -1.
</event>
<event>
 5   0  0.3689707E-05  0.1301439E+04  0.7818609E-02  0.9028425E-01
        1   -1    0    0  501    0  0.00000000000E+00  0.00000000000E+00  0.74984825476E+03  0.74984825478E+03  0.50400001928E-02 0. -1.
       -1   -1    0    0    0  501  0.00000000000E+00  0.00000000000E+00 -0.56469563464E+03  0.56469563466E+03  0.50400001928E-02 0.  1.
    10030    2    1    2    0    0  0.00000000000E+00  0.00000000000E+00  0.18515262012E+03  0.13145438894E+04  0.13014392589E+04 0.  0.
        1    1    3    3  502    0  0.19733407692E+03  0.61950679116E+03  0.65726054555E+02  0.65349010434E+03  0.50400001928E-02 0. -1.
       -1    1    3    3    0  502 -0.19733407692E+03 -0.61950679116E+03  0.11942656557E+03  0.66105378509E+03  0.50400001928E-02 0.  1.
</event>
<event>
 5   0  0.6742824E-05  0.1300613E+04  0.7818609E-02  0.9029079E-01
        2   -1    0    0  501    0  0.00000000000E+00  0.00000000000E+00  0.34603763229E+03  0.34603763230E+03  0.25500000920E-02 0.  1.
       -2   -1    0    0    0  501  0.00000000000E+00  0.00000000000E+00 -0.12221179061E+04  0.12221179061E+04  0.25500000920E-02 0. -1.
    10030    2    1    2    0    0  0.00000000000E+00  0.00000000000E+00 -0.87608027376E+03  0.15681555384E+04  0.13006133731E+04 0.  0.
        4    1    3    3  502    0  0.31845526496E+03 -0.33953244599E+03 -0.98554306710E+03  0.10899508189E+04  0.12699999809E+01 0. -1.
       -4    1    3    3    0  502 -0.31845526496E+03  0.33953244599E+03  0.10946279334E+03  0.47820471943E+03  0.12699999809E+01 0.  1.
</event>
<event>
 5   0  0.3689707E-05  0.1300358E+04  0.7818609E-02  0.9029282E-01
       -1   -1    0    0    0  501  0.00000000000E+00  0.00000000000E+00  0.72045586560E+03  0.72045586562E+03  0.50400001928E-02 0.  1.
        1   -1    0    0  501    0  0.00000000000E+00  0.00000000000E+00 -0.58675692730E+03  0.58675692732E+03  0.50400001928E-02 0. -1.
    10030    2    1    2    0    0  0.00000000000E+00  0.00000000000E+00  0.13369893830E+03  0.13072127929E+04  0.13003575969E+04 0.  0.
        1    1    3    3  502    0  0.47576204018E+03 -0.47647831449E+02  0.50975427519E+03  0.69890575603E+03  0.50400001928E-02 0.  1.
       -1    1    3    3    0  502 -0.47576204018E+03  0.47647831449E+02 -0.37605533689E+03  0.60830703691E+03  0.50400001928E-02 0. -1.
</event>
<event>
 5   0  0.6742824E-05  0.1299105E+04  0.7818609E-02  0.9030275E-01
        2   -1    0    0  501    0  0.00000000000E+00  0.00000000000E+00  0.21159899042E+04  0.21159899042E+04  0.25500000920E-02 0. -1.
       -2   -1    0    0    0  501  0.00000000000E+00  0.00000000000E+00 -0.19939519780E+03  0.19939519781E+03  0.25500000920E-02 0.  1.
    10030    2    1    2    0    0  0.00000000000E+00  0.00000000000E+00  0.19165947064E+04  0.23153851020E+04  0.12991046540E+04 0.  0.
        4    1    3    3  502    0  0.48631044465E+03 -0.29700667606E+03  0.40261682112E+03  0.69771966559E+03  0.12699999809E+01 0.  1.
       -4    1    3    3    0  502 -0.48631044465E+03  0.29700667606E+03  0.15139778853E+04  0.16176654364E+04  0.12699999809E+01 0. -1.
</event>
<event>
 5   0  0.6688086E-05  0.1298711E+04  0.7818609E-02  0.9030588E-01
       -2   -1    0    0    0  501  0.00000000000E+00  0.00000000000E+00  0.26324194467E+03  0.26324194469E+03  0.25500000920E-02 0.  1.
        2   -1    0    0  501    0  0.00000000000E+00  0.00000000000E+00 -0.16018058813E+04  0.16018058813E+04  0.25500000920E-02 0. -1.
    10030    2    1    2    0    0  0.00000000000E+00  0.00000000000E+00 -0.13385639367E+04  0.18650478260E+04  0.12987108919E+04 0.  0.
        5    1    3    3  502    0  0.12968625425E+03 -0.28018520300E+03  0.15106597523E+03  0.34375178747E+03  0.46999998093E+01 0.  1.
       -5    1    3    3    0  502 -0.12968625425E+03  0.28018520300E+03 -0.14896299119E+04  0.15212960385E+04  0.46999998093E+01 0. -1.
</event>
<event>
 5   0  0.3551277E-05  0.1299858E+04  0.7818609E-02  0.9029678E-01
       -1   -1    0    0    0  501  0.00000000000E+00  0.00000000000E+00  0.22028935817E+03  0.22028935822E+03  0.50400001928E-02 0.  1.
        1   -1    0    0  501    0  0.00000000000E+00  0.00000000000E+00 -0.19175129169E+04  0.19175129169E+04  0.50400001928E-02 0. -1.
    10030    2    1    2    0    0  0.00000000000E+00  0.00000000000E+00 -0.16972235588E+04  0.21378022752E+04  0.12998579766E+04 0.  0.
        4    1    3    3  502    0 -0.30163576207E+03  0.57318525989E+03 -0.76034175530E+03  0.99882264335E+03  0.12699999809E+01 0. -1.
       -4    1    3    3    0  502  0.30163576207E+03 -0.57318525989E+03 -0.93688180346E+03  0.11389796318E+04  0.12699999809E+01 0.  1.
</event>
<event>
 5   0  0.6688086E-05  0.1300619E+04  0.7818609E-02  0.9029074E-01
        2   -1    0    0  501    0  0.00000000000E+00  0.00000000000E+00  0.18254321514E+04  0.18254321514E+04  0.25500000920E-02 0.  1.
       -2   -1    0    0    0  501  0.00000000000E+00  0.00000000000E+00 -0.23167252486E+03  0.23167252488E+03  0.25500000920E-02 0. -1.
    10030    2    1    2    0    0  0.00000000000E+00  0.00000000000E+00  0.15937596266E+04  0.20571046763E+04  0.13006190457E+04 0.  0.
        5    1    3    3  502    0 -0.48399703548E+03  0.38258133313E+03  0.11220155845E+04  0.12804540869E+04  0.46999998093E+01 0.  1.
       -5    1    3    3    0  502  0.48399703548E+03 -0.38258133313E+03  0.47174404209E+03  0.77665058942E+03  0.46999998093E+01 0. -1.
</event>
<event>
 5   0  0.3718559E-05  0.1299986E+04  0.7818609E-02  0.9029576E-01
       -1   -1    0    0    0  501  0.00000000000E+00  0.00000000000E+00  0.12267454998E+04  0.12267454998E+04  0.50400001928E-02 0.  1.
        1   -1    0    0  501    0  0.00000000000E+00  0.00000000000E+00 -0.34439986509E+03  0.34439986512E+03  0.50400001928E-02 0. -1.
    10030    2    1    2    0    0  0.00000000000E+00  0.00000000000E+00  0.88234563469E+03  0.15711453649E+04  0.12999861302E+04 0.  0.
        2    1    3    3  502    0 -0.50884955006E+03 -0.35804324201E+03  0.66846466763E+03  0.91321839646E+03  0.25500000920E-02 0. -1.
       -2    1    3    3    0  502  0.50884955006E+03  0.35804324201E+03  0.21388096706E+03  0.65792696846E+03  0.25500000920E-02 0.  1.
</event>
<event>
 5   0  0.6618060E-05  0.1299698E+04  0.7818609E-02  0.9029805E-01
       -2   -1    0    0    0  501  0.00000000000E+00  0.00000000000E+00  0.22655409527E+03  0.22655409528E+03  0.25500000920E-02 0. -1.
        2   -1    0    0  501    0  0.00000000000E+00  0.00000000000E+00 -0.18640310424E+04  0.18640310424E+04  0.25500000920E-02 0.  1.
    10030    2    1    2    0    0  0.00000000000E+00  0.00000000000E+00 -0.16374769471E+04  0.20905851377E+04  0.12996982209E+04 0.  0.
        2    1    3    3  502    0  0.70967252403E+02  0.64019191278E+03 -0.95731218332E+03  0.11538321596E+04  0.25500000920E-02 0. -1.
       -2    1    3    3    0  502 -0.70967252403E+02 -0.64019191278E+03 -0.68016476383E+03  0.93675297814E+03  0.25500000920E-02 0.  1.
</event>
<event>
 5   0  0.3631841E-05  0.1299712E+04  0.7818609E-02  0.9029794E-01
        1   -1    0    0  501    0  0.00000000000E+00  0.00000000000E+00  0.84094124280E+03  0.84094124282E+03  0.50400001928E-02 0.  1.
       -1   -1    0    0    0  501  0.00000000000E+00  0.00000000000E+00 -0.50219061139E+03  0.50219061141E+03  0.50400001928E-02 0. -1.
    10030    2    1    2    0    0  0.00000000000E+00  0.00000000000E+00  0.33875063141E+03  0.13431318542E+04  0.12997119633E+04 0.  0.
        3    1    3    3  502    0 -0.25066376528E+03 -0.31531466518E+03  0.69636960795E+03  0.80447890114E+03  0.10100000352E+00 0.  1.
       -3    1    3    3    0  502  0.25066376528E+03  0.31531466518E+03 -0.35761897653E+03  0.53865295310E+03  0.10100000352E+00 0. -1.
</event>
</LesHouchesEvents>
