<LesHouchesEvents version="3.0">
<header>
<!--
#*********************************************************************
#                                                                    *
#                        MadGraph5_aMC@NLO                           *
#                                                                    *
#                           Going Beyond                             *
#                                                                    *
#                   http://madgraph.hep.uiuc.edu                     *
#                   http://madgraph.phys.ucl.ac.be                   *
#                   http://amcatnlo.cern.ch                          *
#                                                                    *
#                     The MadGraph5_aMC@NLO team                     *
#                                                                    *
#....................................................................*
#                                                                    *
# This file contains all the information necessary to reproduce      *
# the events generated:                                              *
#                                                                    *
# 1. software version                                                *
# 2. proc_card          : code generation info including model       *
# 3. param_card         : model primary parameters in the LH format  *
# 4. run_card           : running parameters (collider and cuts)     *
# 5. pythia_card        : present only if pythia has been run        *
# 6. pgs_card           : present only if pgs has been run           *
# 7. delphes_cards      : present only if delphes has been run       *
#                                                                    *
#                                                                    *
#*********************************************************************
-->
<MGVersion>
#5.2.2.3
</MGVersion>
<MG5ProcCard>
#************************************************************
#*                     MadGraph5_aMC@NLO                    *
#*                                                          *
#*                *                       *                 *
#*                  *        * *        *                   *
#*                    * * * * 5 * * * *                     *
#*                  *        * *        *                   *
#*                *                       *                 *
#*                                                          *
#*                                                          *
#*         VERSION 2.2.3                 2015-02-10         *
#*                                                          *
#*    The MadGraph5_aMC@NLO Development Team - Find us at   *
#*    https://server06.fynu.ucl.ac.be/projects/madgraph     *
#*                                                          *
#************************************************************
#*                                                          *
#*               Command File for MadGraph5_aMC@NLO         *
#*                                                          *
#*     run as ./bin/mg5_aMC  filename                       *
#*                                                          *
#************************************************************
set group_subprocesses Auto
set ignore_six_quark_processes False
set loop_optimized_output True
set gauge unitary
set complex_mass_scheme False
import model sm
define p = g u c d s u~ c~ d~ s~
define j = g u c d s u~ c~ d~ s~
define l+ = e+ mu+
define l- = e- mu-
define vl = ve vm vt
define vl~ = ve~ vm~ vt~
import model Zprime_UFO
generate p p > zph, zph > j j
add process p p > zph, zph > b b~
output Dijet_signal
</MG5ProcCard>
<MGProcCard>
#*********************************************************************
#                        MadGraph/MadEvent                           *
#                   http://madgraph.hep.uiuc.edu                     *
#                                                                    *
#                          proc_card.dat                             *
#*********************************************************************
#                                                                    *
#            This Files is generated by MADGRAPH 5                   *
#                                                                    *
# WARNING: This Files is generated for MADEVENT (compatibility issue)*
#          This files is NOT a valid MG4 proc_card.dat               *
#          Running this in MG4 will NEVER reproduce the result of MG5*
#                                                                    *
#*********************************************************************
#*********************************************************************
# Process(es) requested : mg2 input                                  *
#*********************************************************************
# Begin PROCESS # This is TAG. Do not modify this line
p p > zph , zph > j j           #Process
# Be carefull the coupling are here in MG5 convention
          
end_coup           # End the couplings input

done               # this tells MG there are no more procs
# End PROCESS  # This is TAG. Do not modify this line
#*********************************************************************
# Model information                                                  *
#*********************************************************************
# Begin MODEL  # This is TAG. Do not modify this line
Zprime_UFO
# End   MODEL  # This is TAG. Do not modify this line
#*********************************************************************
# Start multiparticle definitions                                    *
#*********************************************************************
# Begin MULTIPARTICLES # This is TAG. Do not modify this line

# End  MULTIPARTICLES # This is TAG. Do not modify this line
</MGProcCard>
<MGRunCard>
#*********************************************************************
#                       MadGraph5_aMC@NLO                            *
#                                                                    *
#                     run_card.dat MadEvent                          *
#                                                                    *
#  This file is used to set the parameters of the run.               *
#                                                                    *
#  Some notation/conventions:                                        *
#                                                                    *
#   Lines starting with a '# ' are info or comments                  *
#                                                                    *
#   mind the format:   value    = variable     ! comment             *
#*********************************************************************
#
#*******************                                                 
# Running parameters
#*******************                                                 
#                                                                    
#*********************************************************************
# Tag name for the run (one word)                                    *
#*********************************************************************
  tag_1     = run_tag ! name of the run 
#*********************************************************************
# Run to generate the grid pack                                      *
#*********************************************************************
  .false.     = gridpack  !True = setting up the grid pack
#*********************************************************************
# Number of events and rnd seed                                      *
# Warning: Do not generate more than 1M events in a single run       *
# If you want to run Pythia, avoid more than 50k events in a run.    *
#*********************************************************************
  2000 = nevents ! Number of unweighted events requested 
 2955 = iseed   ! rnd seed (0=assigned automatically=default))
#*********************************************************************
# Collider type and energy                                           *
# lpp: 0=No PDF, 1=proton, -1=antiproton, 2=photon from proton,      *
#                                         3=photon from electron     *
#*********************************************************************
        1     = lpp1    ! beam 1 type 
        1     = lpp2    ! beam 2 type
     4000     = ebeam1  ! beam 1 total energy in GeV
     4000     = ebeam2  ! beam 2 total energy in GeV
#*********************************************************************
# Beam polarization from -100 (left-handed) to 100 (right-handed)    *
#*********************************************************************
        0     = polbeam1 ! beam polarization for beam 1
        0     = polbeam2 ! beam polarization for beam 2
#*********************************************************************
# PDF CHOICE: this automatically fixes also alpha_s and its evol.    *
#*********************************************************************
 'nn23lo1'    = pdlabel     ! PDF set                                     
 230000    = lhaid     ! if pdlabel=lhapdf, this is the lhapdf number
#*********************************************************************
# Renormalization and factorization scales                           *
#*********************************************************************
 F        = fixed_ren_scale  ! if .true. use fixed ren scale
 F        = fixed_fac_scale  ! if .true. use fixed fac scale
 91.1880  = scale            ! fixed ren scale
 91.1880  = dsqrt_q2fact1    ! fixed fact scale for pdf1
 91.1880  = dsqrt_q2fact2    ! fixed fact scale for pdf2
 1        = scalefact        ! scale factor for event-by-event scales
#*********************************************************************
# Matching - Warning! ickkw > 1 is still beta
#*********************************************************************
 0        = ickkw            ! 0 no matching, 1 MLM, 2 CKKW matching
 1        = highestmult      ! for ickkw=2, highest mult group
 1        = ktscheme         ! for ickkw=1, 1 Durham kT, 2 Pythia pTE
 1        = alpsfact         ! scale factor for QCD emission vx
 F        = chcluster        ! cluster only according to channel diag
 T        = pdfwgt           ! for ickkw=1, perform pdf reweighting
 5        = asrwgtflavor     ! highest quark flavor for a_s reweight
 T        = clusinfo         ! include clustering tag in output
 3.0      = lhe_version       ! Change the way clustering information pass to shower.        
#*********************************************************************
#**********************************************************
#
#**********************************************************
# Automatic ptj and mjj cuts if xqcut > 0
# (turn off for VBF and single top processes)
#**********************************************************
   T  = auto_ptj_mjj  ! Automatic setting of ptj and mjj
#**********************************************************
#                                                                    
#**********************************
# BW cutoff (M+/-bwcutoff*Gamma)
#**********************************
  15  = bwcutoff      ! (M+/-bwcutoff*Gamma)
#**********************************************************
# Apply pt/E/eta/dr/mij cuts on decay products or not
# (note that etmiss/ptll/ptheavy/ht/sorted cuts always apply)
#**********************************************************
   T  = cut_decays    ! Cut decay products 
#*************************************************************
# Number of helicities to sum per event (0 = all helicities)
# 0 gives more stable result, but longer run time (needed for
# long decay chains e.g.).
# Use >=2 if most helicities contribute, e.g. pure QCD.
#*************************************************************
   0  = nhel          ! Number of helicities used per event
#*******************                                                 
# Standard Cuts
#*******************                                                 
#                                                                    
#*********************************************************************
# Minimum and maximum pt's (for max, -1 means no cut)                *
#*********************************************************************
 20  = ptj       ! minimum pt for the jets 
  0  = ptb       ! minimum pt for the b 
 10  = pta       ! minimum pt for the photons 
 10  = ptl       ! minimum pt for the charged leptons 
  0  = misset    ! minimum missing Et (sum of neutrino's momenta)
  0  = ptheavy   ! minimum pt for one heavy final state
 1.0 = ptonium   ! minimum pt for the quarkonium states
 -1  = ptjmax    ! maximum pt for the jets
 -1  = ptbmax    ! maximum pt for the b
 -1  = ptamax    ! maximum pt for the photons
 -1  = ptlmax    ! maximum pt for the charged leptons
 -1  = missetmax ! maximum missing Et (sum of neutrino's momenta)
#*********************************************************************
# Minimum and maximum E's (in the center of mass frame)              *
#*********************************************************************
  0  = ej     ! minimum E for the jets 
  0  = eb     ! minimum E for the b 
  0  = ea     ! minimum E for the photons 
  0  = el     ! minimum E for the charged leptons 
 -1   = ejmax ! maximum E for the jets
 -1   = ebmax ! maximum E for the b
 -1   = eamax ! maximum E for the photons
 -1   = elmax ! maximum E for the charged leptons
#*********************************************************************
# Maximum and minimum absolute rapidity (for max, -1 means no cut)   *
#*********************************************************************
   5  = etaj    ! max rap for the jets 
  -1  = etab    ! max rap for the b
 2.5  = etaa    ! max rap for the photons 
 2.5  = etal    ! max rap for the charged leptons 
 0.6  = etaonium ! max rap for the quarkonium states
   0  = etajmin ! min rap for the jets
   0  = etabmin ! min rap for the b
   0  = etaamin ! min rap for the photons
   0  = etalmin ! main rap for the charged leptons
#*********************************************************************
# Minimum and maximum DeltaR distance                                *
#*********************************************************************
 0.4 = drjj    ! min distance between jets 
 0   = drbb    ! min distance between b's 
 0.4 = drll    ! min distance between leptons 
 0.4 = draa    ! min distance between gammas 
 0   = drbj    ! min distance between b and jet 
 0.4 = draj    ! min distance between gamma and jet 
 0.4 = drjl    ! min distance between jet and lepton 
 0   = drab    ! min distance between gamma and b 
 0   = drbl    ! min distance between b and lepton 
 0.4 = dral    ! min distance between gamma and lepton 
 -1  = drjjmax ! max distance between jets
 -1  = drbbmax ! max distance between b's
 -1  = drllmax ! max distance between leptons
 -1  = draamax ! max distance between gammas
 -1  = drbjmax ! max distance between b and jet
 -1  = drajmax ! max distance between gamma and jet
 -1  = drjlmax ! max distance between jet and lepton
 -1  = drabmax ! max distance between gamma and b
 -1  = drblmax ! max distance between b and lepton
 -1  = dralmax ! maxdistance between gamma and lepton
#*********************************************************************
# Minimum and maximum invariant mass for pairs                       *
# WARNING: for four lepton final state mmll cut require to have      *
#          different lepton masses for each flavor!                  *           
#*********************************************************************
 0   = mmjj    ! min invariant mass of a jet pair 
 0   = mmbb    ! min invariant mass of a b pair 
 0   = mmaa    ! min invariant mass of gamma gamma pair
 0   = mmll    ! min invariant mass of l+l- (same flavour) lepton pair
 -1  = mmjjmax ! max invariant mass of a jet pair
 -1  = mmbbmax ! max invariant mass of a b pair
 -1  = mmaamax ! max invariant mass of gamma gamma pair
 -1  = mmllmax ! max invariant mass of l+l- (same flavour) lepton pair
#*********************************************************************
# Minimum and maximum invariant mass for all letpons                 *
#*********************************************************************
 0   = mmnl    ! min invariant mass for all letpons (l+- and vl) 
 -1  = mmnlmax ! max invariant mass for all letpons (l+- and vl) 
#*********************************************************************
# Minimum and maximum pt for 4-momenta sum of leptons                *
#*********************************************************************
 0   = ptllmin  ! Minimum pt for 4-momenta sum of leptons(l and vl)
 -1  = ptllmax  ! Maximum pt for 4-momenta sum of leptons(l and vl)
#*********************************************************************
# Inclusive cuts                                                     *
#*********************************************************************
 0  = xptj ! minimum pt for at least one jet  
 0  = xptb ! minimum pt for at least one b 
 0  = xpta ! minimum pt for at least one photon 
 0  = xptl ! minimum pt for at least one charged lepton 
#*********************************************************************
# Control the pt's of the jets sorted by pt                          *
#*********************************************************************
 0   = ptj1min ! minimum pt for the leading jet in pt
 0   = ptj2min ! minimum pt for the second jet in pt
 0   = ptj3min ! minimum pt for the third jet in pt
 0   = ptj4min ! minimum pt for the fourth jet in pt
 -1  = ptj1max ! maximum pt for the leading jet in pt 
 -1  = ptj2max ! maximum pt for the second jet in pt
 -1  = ptj3max ! maximum pt for the third jet in pt
 -1  = ptj4max ! maximum pt for the fourth jet in pt
 0   = cutuse  ! reject event if fails any (0) / all (1) jet pt cuts
#*********************************************************************
# Control the pt's of leptons sorted by pt                           *
#*********************************************************************
 0   = ptl1min ! minimum pt for the leading lepton in pt
 0   = ptl2min ! minimum pt for the second lepton in pt
 0   = ptl3min ! minimum pt for the third lepton in pt
 0   = ptl4min ! minimum pt for the fourth lepton in pt
 -1  = ptl1max ! maximum pt for the leading lepton in pt 
 -1  = ptl2max ! maximum pt for the second lepton in pt
 -1  = ptl3max ! maximum pt for the third lepton in pt
 -1  = ptl4max ! maximum pt for the fourth lepton in pt
#*********************************************************************
# Control the Ht(k)=Sum of k leading jets                            *
#*********************************************************************
 0   = htjmin ! minimum jet HT=Sum(jet pt)
 -1  = htjmax ! maximum jet HT=Sum(jet pt)
 0   = ihtmin  !inclusive Ht for all partons (including b)
 -1  = ihtmax  !inclusive Ht for all partons (including b)
 0   = ht2min ! minimum Ht for the two leading jets
 0   = ht3min ! minimum Ht for the three leading jets
 0   = ht4min ! minimum Ht for the four leading jets
 -1  = ht2max ! maximum Ht for the two leading jets
 -1  = ht3max ! maximum Ht for the three leading jets
 -1  = ht4max ! maximum Ht for the four leading jets
#***********************************************************************
# Photon-isolation cuts, according to hep-ph/9801442                   *
# When ptgmin=0, all the other parameters are ignored                  *
# When ptgmin>0, pta and draj are not going to be used                 *
#***********************************************************************
   0 = ptgmin ! Min photon transverse momentum
 0.4 = R0gamma ! Radius of isolation code
 1.0 = xn ! n parameter of eq.(3.4) in hep-ph/9801442
 1.0 = epsgamma ! epsilon_gamma parameter of eq.(3.4) in hep-ph/9801442
 .true. = isoEM ! isolate photons from EM energy (photons and leptons)
#*********************************************************************
# WBF cuts                                                           *
#*********************************************************************
 0   = xetamin ! minimum rapidity for two jets in the WBF case  
 0   = deltaeta ! minimum rapidity for two jets in the WBF case 
#*********************************************************************
# KT DURHAM CUT                                                      *
#*********************************************************************
 -1    =  ktdurham        
 0.4  =  dparameter 
#*********************************************************************
# maximal pdg code for quark to be considered as a light jet         *
# (otherwise b cuts are applied)                                     *
#*********************************************************************
 4 = maxjetflavor    ! Maximum jet pdg code
#*********************************************************************
# Jet measure cuts                                                   *
#*********************************************************************
 0   = xqcut   ! minimum kt jet measure between partons
#*********************************************************************
#
#*********************************************************************
# Store info for systematics studies                                 *
# WARNING: If use_syst is T, matched Pythia output is                *
#          meaningful ONLY if plotted taking matchscale              *
#          reweighting into account!                                 *
#*********************************************************************
   F  = use_syst      ! Enable systematics studies
#
#**************************************
# Parameter of the systematics study
#  will be used by SysCalc (if installed)
#**************************************                                  
#
0.5 1 2 = sys_scalefact  # factorization/renormalization scale factor
0.5 1 2 = sys_alpsfact  # \alpha_s emission scale factors
30 50 = sys_matchscale # variation of merging scale
# PDF sets and number of members (0 or none for all members).
CT10nlo.LHgrid = sys_pdf # matching scales
# MSTW2008nlo68cl.LHgrid 1  = sys_pdf
</MGRunCard>
<slha>
######################################################################
## PARAM_CARD AUTOMATICALY GENERATED BY MG5 FOLLOWING UFO MODEL   ####
######################################################################
##                                                                  ##
##  Width set on Auto will be computed following the information    ##
##        present in the decay.py files of the model.               ##
##        See  arXiv:1402.1178 for more details.                    ##
##                                                                  ##
######################################################################

###################################
## INFORMATION FOR CKMBLOCK
###################################
Block ckmblock 
    1 2.277360e-01 # cabi 

###################################
## INFORMATION FOR FRBLOCK
###################################
Block frblock 
    1 1.600000e+00 # gz 

###################################
## INFORMATION FOR MASS
###################################
Block mass 
    1 5.040000e-03 # MD 
    2 2.550000e-03 # MU 
    3 1.010000e-01 # MS 
    4 1.270000e+00 # MC 
    5 4.700000e+00 # MB 
    6 1.720000e+02 # MT 
   11 5.110000e-04 # Me 
   13 1.056600e-01 # MM 
   15 1.777000e+00 # MTA 
   23 9.118760e+01 # MZ 
   25 1.200000e+02 # MH 
  10030 2.600000e+03 # MZph 
  10031 3.000000e+02 # MZpl 
## Dependent parameters, given by model restrictions.
## Those values should be edited following the 
## analytical expression. MG5 ignores those values 
## but they are important for interfacing the output of MG5
## to external program such as Pythia.
  12 0.000000 # ve : 0.0 
  14 0.000000 # vm : 0.0 
  16 0.000000 # vt : 0.0 
  21 0.000000 # g : 0.0 
  22 0.000000 # a : 0.0 
  24 79.824360 # w+ : cmath.sqrt(MZ__exp__2/2. + cmath.sqrt(MZ__exp__4/4. - (aEW*cmath.pi*MZ__exp__2)/(Gf*sqrt__2))) 

###################################
## INFORMATION FOR SMINPUTS
###################################
Block sminputs 
    1 1.279000e+02 # aEWM1 
    2 1.166370e-05 # Gf 
    3 1.184000e-01 # aS 

###################################
## INFORMATION FOR YUKAWA
###################################
Block yukawa 
    1 5.040000e-03 # ymdo 
    2 2.550000e-03 # ymup 
    3 1.010000e-01 # yms 
    4 1.270000e+00 # ymc 
    5 4.700000e+00 # ymb 
    6 1.720000e+02 # ymt 
   11 5.110000e-04 # yme 
   13 1.056600e-01 # ymm 
   15 1.777000e+00 # ymtau 

###################################
## INFORMATION FOR DECAY
###################################
DECAY   6 1.508336e+00 # WT 
DECAY  23 2.495200e+00 # WZ 
DECAY  24 2.085000e+00 # WW 
DECAY  25 5.753088e-03 # WH 
## Dependent parameters, given by model restrictions.
## Those values should be edited following the 
## analytical expression. MG5 ignores those values 
## but they are important for interfacing the output of MG5
## to external program such as Pythia.
DECAY  1 0.000000 # d : 0.0 
DECAY  2 0.000000 # u : 0.0 
DECAY  3 0.000000 # s : 0.0 
DECAY  4 0.000000 # c : 0.0 
DECAY  5 0.000000 # b : 0.0 
DECAY  11 0.000000 # e- : 0.0 
DECAY  12 0.000000 # ve : 0.0 
DECAY  13 0.000000 # mu- : 0.0 
DECAY  14 0.000000 # vm : 0.0 
DECAY  15 0.000000 # ta- : 0.0 
DECAY  16 0.000000 # vt : 0.0 
DECAY  21 0.000000 # g : 0.0 
DECAY  22 0.000000 # a : 0.0 
DECAY  10030 0.308725 # zph : (gz__exp__2*MZph*(5 + cmath.sqrt(1 - (4*MT__exp__2)/MZph__exp__2)))/(144.*cmath.pi) 
DECAY  10031 0.132629 # zpl : (5*gz__exp__2*MZpl)/(144.*cmath.pi) 
#===========================================================
# QUANTUM NUMBERS OF NEW STATE(S) (NON SM PDG CODE)
#===========================================================

Block QNUMBERS 10030  # zph 
        1 0  # 3 times electric charge
        2 3  # number of spin states (2S+1)
        3 1  # colour rep (1: singlet, 3: triplet, 8: octet)
        4 0  # Particle/Antiparticle distinction (0=own anti)
Block QNUMBERS 10031  # zpl 
        1 0  # 3 times electric charge
        2 3  # number of spin states (2S+1)
        3 1  # colour rep (1: singlet, 3: triplet, 8: octet)
        4 0  # Particle/Antiparticle distinction (0=own anti)
</slha>
## END BANNER##
<MGGenerationInfo>
#  Number of Events        :         3891
#  Integrated weight (pb)  :  0.13589E-01
#  Max wgt                 :  0.51822E-05
#  Average wgt             :  0.34924E-05
</MGGenerationInfo>
</header>
<init>
     2212     2212  0.40000000000E+04  0.40000000000E+04 0 0  247000  247000 2   1
  0.13597311312E-01  0.38240374304E-04  0.51821790000E-05   0
</init>
<event>
 5   0  0.5170532E-05  0.2346587E+04  0.7818609E-02  0.8459776E-01
       -2   -1    0    0    0  501  0.00000000000E+00  0.00000000000E+00  0.11576479324E+04  0.11576479324E+04  0.25500000920E-02 0. -1.
        2   -1    0    0  501    0  0.00000000000E+00  0.00000000000E+00 -0.11891502762E+04  0.11891502762E+04  0.25500000920E-02 0.  1.
    10030    2    1    2    0    0  0.00000000000E+00  0.00000000000E+00 -0.31502343757E+02  0.23467982086E+04  0.23465867626E+04 0.  0.
        1    1    3    3  502    0  0.34506935662E+03  0.83570518350E+03  0.73207375053E+03  0.11633606452E+04  0.50400001928E-02 0. -1.
       -1    1    3    3    0  502 -0.34506935662E+03 -0.83570518350E+03 -0.76357609429E+03  0.11834375634E+04  0.50400001928E-02 0.  1.
</event>
<event>
 5   0  0.5170532E-05  0.2620525E+04  0.7818609E-02  0.8361263E-01
        2   -1    0    0  501    0  0.00000000000E+00  0.00000000000E+00  0.18011732220E+04  0.18011732220E+04  0.25500000920E-02 0. -1.
       -2   -1    0    0    0  501  0.00000000000E+00  0.00000000000E+00 -0.95314947453E+03  0.95314947453E+03  0.25500000920E-02 0.  1.
    10030    2    1    2    0    0  0.00000000000E+00  0.00000000000E+00  0.84802374752E+03  0.27543226966E+04  0.26205246117E+04 0.  0.
        1    1    3    3  502    0 -0.11204793377E+04 -0.67715012656E+03  0.36858344977E+03  0.13600955848E+04  0.50400001928E-02 0.  1.
       -1    1    3    3    0  502  0.11204793377E+04  0.67715012656E+03  0.47944029774E+03  0.13942271118E+04  0.50400001928E-02 0. -1.
</event>
<event>
 5   0  0.5182179E-05  0.2647819E+04  0.7818609E-02  0.8352137E-01
       -2   -1    0    0    0  501  0.00000000000E+00  0.00000000000E+00  0.86348360398E+03  0.86348360399E+03  0.25500000920E-02 0.  1.
        2   -1    0    0  501    0  0.00000000000E+00  0.00000000000E+00 -0.20298439919E+04  0.20298439919E+04  0.25500000920E-02 0. -1.
    10030    2    1    2    0    0  0.00000000000E+00  0.00000000000E+00 -0.11663603880E+04  0.28933275959E+04  0.26478194846E+04 0.  0.
        3    1    3    3  502    0  0.52512334021E+01 -0.61855527807E+03 -0.18622232865E+04  0.19622726076E+04  0.10100000352E+00 0. -1.
       -3    1    3    3    0  502 -0.52512334021E+01  0.61855527807E+03  0.69586289857E+03  0.93105498833E+03  0.10100000352E+00 0.  1.
</event>
<event>
 5   0  0.5170532E-05  0.2615178E+04  0.7818609E-02  0.8363064E-01
        2   -1    0    0  501    0  0.00000000000E+00  0.00000000000E+00  0.13898912803E+04  0.13898912803E+04  0.25500000920E-02 0.  1.
       -2   -1    0    0    0  501  0.00000000000E+00  0.00000000000E+00 -0.12301606510E+04  0.12301606510E+04  0.25500000920E-02 0. -1.
    10030    2    1    2    0    0  0.00000000000E+00  0.00000000000E+00  0.15973062931E+03  0.26200519313E+04  0.26151784353E+04 0.  0.
        1    1    3    3  502    0 -0.59746772848E+03 -0.83981138169E+03  0.88606280860E+03  0.13591755384E+04  0.50400001928E-02 0.  1.
       -1    1    3    3    0  502  0.59746772848E+03  0.83981138169E+03 -0.72633217930E+03  0.12608763929E+04  0.50400001928E-02 0. -1.
</event>
<event>
 5   0  0.5182179E-05  0.1661196E+04  0.7818609E-02  0.8783810E-01
        2   -1    0    0  501    0  0.00000000000E+00  0.00000000000E+00  0.14687367818E+04  0.14687367818E+04  0.25500000920E-02 0.  1.
       -2   -1    0    0    0  501  0.00000000000E+00  0.00000000000E+00 -0.46971881428E+03  0.46971881429E+03  0.25500000920E-02 0. -1.
    10030    2    1    2    0    0  0.00000000000E+00  0.00000000000E+00  0.99901796749E+03  0.19384555961E+04  0.16611963155E+04 0.  0.
        3    1    3    3  502    0 -0.53485081424E+03 -0.39664852691E+03  0.10788595807E+04  0.12678065516E+04  0.10100000352E+00 0.  1.
       -3    1    3    3    0  502  0.53485081424E+03  0.39664852691E+03 -0.79841613174E+02  0.67064904442E+03  0.10100000352E+00 0. -1.
</event>
<event>
 5   0  0.2163800E-05  0.1377337E+04  0.7818609E-02  0.8970389E-01
        1   -1    0    0  501    0  0.00000000000E+00  0.00000000000E+00  0.15707817097E+04  0.15707817097E+04  0.50400001928E-02 0. -1.
       -1   -1    0    0    0  501  0.00000000000E+00  0.00000000000E+00 -0.30192869370E+03  0.30192869374E+03  0.50400001928E-02 0.  1.
    10030    2    1    2    0    0  0.00000000000E+00  0.00000000000E+00  0.12688530160E+04  0.18727104035E+04  0.13773366614E+04 0.  0.
        1    1    3    3  502    0  0.15244295809E+03 -0.44540412096E+03  0.13178374082E+04  0.13993995572E+04  0.50400001928E-02 0. -1.
       -1    1    3    3    0  502 -0.15244295809E+03  0.44540412096E+03 -0.48984392151E+02  0.47331084621E+03  0.50400001928E-02 0.  1.
</event>
<event>
 5   0  0.2159405E-05  0.2296086E+04  0.7818609E-02  0.8479466E-01
       -1   -1    0    0    0  501  0.00000000000E+00  0.00000000000E+00  0.95335488785E+03  0.95335488787E+03  0.50400001928E-02 0.  1.
        1   -1    0    0  501    0  0.00000000000E+00  0.00000000000E+00 -0.13824890571E+04  0.13824890571E+04  0.50400001928E-02 0. -1.
    10030    2    1    2    0    0  0.00000000000E+00  0.00000000000E+00 -0.42913416922E+03  0.23358439449E+04  0.22960859740E+04 0.  0.
        3    1    3    3  502    0 -0.65188609660E+03  0.69143222383E+01  0.74678232154E+03  0.99130577359E+03  0.10100000352E+00 0.  1.
       -3    1    3    3    0  502  0.65188609660E+03 -0.69143222383E+01 -0.11759164908E+04  0.13445381714E+04  0.10100000352E+00 0. -1.
</event>
<event>
 5   0  0.5170532E-05  0.2242138E+04  0.7818609E-02  0.8501091E-01
        2   -1    0    0  501    0  0.00000000000E+00  0.00000000000E+00  0.18450366930E+04  0.18450366930E+04  0.25500000920E-02 0.  1.
       -2   -1    0    0    0  501  0.00000000000E+00  0.00000000000E+00 -0.68117642588E+03  0.68117642588E+03  0.25500000920E-02 0. -1.
    10030    2    1    2    0    0  0.00000000000E+00  0.00000000000E+00  0.11638602671E+04  0.25262131188E+04  0.22421378193E+04 0.  0.
        1    1    3    3  502    0 -0.10690426430E+04 -0.28643138277E+03  0.78316613605E+03  0.13558186849E+04  0.50400001928E-02 0.  1.
       -1    1    3    3    0  502  0.10690426430E+04  0.28643138277E+03  0.38069413103E+03  0.11703944340E+04  0.50400001928E-02 0. -1.
</event>
<event>
 5   0  0.2072710E-05  0.2624579E+04  0.7818609E-02  0.8359900E-01
       -1   -1    0    0    0  501  0.00000000000E+00  0.00000000000E+00  0.94163090083E+03  0.94163090084E+03  0.50400001928E-02 0.  1.
        1   -1    0    0  501    0  0.00000000000E+00  0.00000000000E+00 -0.18288521155E+04  0.18288521155E+04  0.50400001928E-02 0. -1.
    10030    2    1    2    0    0  0.00000000000E+00  0.00000000000E+00 -0.88722121470E+03  0.27704830164E+04  0.26245789491E+04 0.  0.
        2    1    3    3  502    0 -0.11779739025E+03  0.11471010192E+04 -0.11048412716E+04  0.15969944299E+04  0.25500000920E-02 0. -1.
       -2    1    3    3    0  502  0.11779739025E+03 -0.11471010192E+04  0.21762005693E+03  0.11734885865E+04  0.25500000920E-02 0.  1.
</event>
<event>
 5   0  0.5170532E-05  0.2587054E+04  0.7818609E-02  0.8372612E-01
       -2   -1    0    0    0  501  0.00000000000E+00  0.00000000000E+00  0.18280303531E+04  0.18280303531E+04  0.25500000920E-02 0.  1.
        2   -1    0    0  501    0  0.00000000000E+00  0.00000000000E+00 -0.91530861910E+03  0.91530861910E+03  0.25500000920E-02 0. -1.
    10030    2    1    2    0    0  0.00000000000E+00  0.00000000000E+00  0.91272173404E+03  0.27433389723E+04  0.25870538751E+04 0.  0.
        1    1    3    3  502    0 -0.43704112744E+03  0.53445013534E+03  0.16163210005E+04  0.17575936593E+04  0.50400001928E-02 0.  1.
       -1    1    3    3    0  502  0.43704112744E+03 -0.53445013534E+03 -0.70359926650E+03  0.98574531299E+03  0.50400001928E-02 0. -1.
</event>
<event>
 5   0  0.2072710E-05  0.1357525E+04  0.7818609E-02  0.8985151E-01
        1   -1    0    0  501    0  0.00000000000E+00  0.00000000000E+00  0.14793773335E+04  0.14793773335E+04  0.50400001928E-02 0. -1.
       -1   -1    0    0    0  501  0.00000000000E+00  0.00000000000E+00 -0.31142722401E+03  0.31142722405E+03  0.50400001928E-02 0.  1.
    10030    2    1    2    0    0  0.00000000000E+00  0.00000000000E+00  0.11679501095E+04  0.17908045576E+04  0.13575247715E+04 0.  0.
        2    1    3    3  502    0 -0.41938988108E+03 -0.46855000219E+03  0.24689860097E+03  0.67556339160E+03  0.25500000920E-02 0.  1.
       -2    1    3    3    0  502  0.41938988108E+03  0.46855000219E+03  0.92105150854E+03  0.11152411660E+04  0.25500000920E-02 0. -1.
</event>
<event>
 5   0  0.4955675E-05  0.2546159E+04  0.7818609E-02  0.8386723E-01
       -2   -1    0    0    0  501  0.00000000000E+00  0.00000000000E+00  0.84886728868E+03  0.84886728868E+03  0.25500000920E-02 0. -1.
        2   -1    0    0  501    0  0.00000000000E+00  0.00000000000E+00 -0.19092864248E+04  0.19092864248E+04  0.25500000920E-02 0.  1.
    10030    2    1    2    0    0  0.00000000000E+00  0.00000000000E+00 -0.10604191361E+04  0.27581537135E+04  0.25461585110E+04 0.  0.
        5    1    3    3  502    0 -0.50228957998E+02 -0.46942942512E+03  0.75052440076E+03  0.88667688564E+03  0.46999998093E+01 0. -1.
       -5    1    3    3    0  502  0.50228957998E+02  0.46942942512E+03 -0.18109435369E+04  0.18714768279E+04  0.46999998093E+01 0.  1.
</event>
<event>
 5   0  0.1993815E-05  0.2571796E+04  0.7818609E-02  0.8377845E-01
        1   -1    0    0  501    0  0.00000000000E+00  0.00000000000E+00  0.14081580381E+04  0.14081580381E+04  0.50400001928E-02 0.  1.
       -1   -1    0    0    0  501  0.00000000000E+00  0.00000000000E+00 -0.11742530194E+04  0.11742530194E+04  0.50400001928E-02 0. -1.
    10030    2    1    2    0    0  0.00000000000E+00  0.00000000000E+00  0.23390501870E+03  0.25824110575E+04  0.25717961257E+04 0.  0.
        5    1    3    3  502    0  0.22569439125E+03  0.74321582647E+03 -0.91207188891E+03  0.11980003938E+04  0.46999998093E+01 0. -1.
       -5    1    3    3    0  502 -0.22569439125E+03 -0.74321582647E+03  0.11459769076E+04  0.13844106637E+04  0.46999998093E+01 0.  1.
</event>
<event>
 5   0  0.2163800E-05  0.2625164E+04  0.7818609E-02  0.8359704E-01
       -1   -1    0    0    0  501  0.00000000000E+00  0.00000000000E+00  0.10049559822E+04  0.10049559822E+04  0.50400001928E-02 0.  1.
        1   -1    0    0  501    0  0.00000000000E+00  0.00000000000E+00 -0.17143747992E+04  0.17143747992E+04  0.50400001928E-02 0. -1.
    10030    2    1    2    0    0  0.00000000000E+00  0.00000000000E+00 -0.70941881699E+03  0.27193307813E+04  0.26251637740E+04 0.  0.
        1    1    3    3  502    0  0.30956271659E+03 -0.11814896494E+04 -0.85270842009E+03  0.14895833367E+04  0.50400001928E-02 0. -1.
       -1    1    3    3    0  502 -0.30956271659E+03  0.11814896494E+04  0.14328960310E+03  0.12297474446E+04  0.50400001928E-02 0.  1.
</event>
<event>
 5   0  0.2159405E-05  0.2578127E+04  0.7818609E-02  0.8375669E-01
        1   -1    0    0  501    0  0.00000000000E+00  0.00000000000E+00  0.16898704797E+04  0.16898704797E+04  0.50400001928E-02 0.  1.
       -1   -1    0    0    0  501  0.00000000000E+00  0.00000000000E+00 -0.98332074077E+03  0.98332074078E+03  0.50400001928E-02 0. -1.
    10030    2    1    2    0    0  0.00000000000E+00  0.00000000000E+00  0.70654973895E+03  0.26731912205E+04  0.25781269883E+04 0.  0.
        3    1    3    3  502    0  0.89357594745E+03 -0.16522716231E+03 -0.59471702090E+03  0.10860323817E+04  0.10100000352E+00 0. -1.
       -3    1    3    3    0  502 -0.89357594745E+03  0.16522716231E+03  0.13012667599E+04  0.15871588388E+04  0.10100000352E+00 0.  1.
</event>
<event>
 5   0  0.2159405E-05  0.2639023E+04  0.7818609E-02  0.8355066E-01
        1   -1    0    0  501    0  0.00000000000E+00  0.00000000000E+00  0.21727711169E+04  0.21727711169E+04  0.50400001928E-02 0. -1.
       -1   -1    0    0    0  501  0.00000000000E+00  0.00000000000E+00 -0.80133167284E+03  0.80133167286E+03  0.50400001928E-02 0.  1.
    10030    2    1    2    0    0  0.00000000000E+00  0.00000000000E+00  0.13714394440E+04  0.29741027897E+04  0.26390227841E+04 0.  0.
        3    1    3    3  502    0 -0.40028662993E+03  0.15510545912E+03  0.20918724185E+04  0.21354665334E+04  0.10100000352E+00 0. -1.
       -3    1    3    3    0  502  0.40028662993E+03 -0.15510545912E+03 -0.72043297450E+03  0.83863625637E+03  0.10100000352E+00 0.  1.
</event>
<event>
 5   0  0.5170532E-05  0.2674812E+04  0.7818609E-02  0.8343224E-01
        2   -1    0    0  501    0  0.00000000000E+00  0.00000000000E+00  0.27232782928E+04  0.27232782928E+04  0.25500000920E-02 0. -1.
       -2   -1    0    0    0  501  0.00000000000E+00  0.00000000000E+00 -0.65680220184E+03  0.65680220184E+03  0.25500000920E-02 0.  1.
    10030    2    1    2    0    0  0.00000000000E+00  0.00000000000E+00  0.20664760910E+04  0.33800804946E+04  0.26748122767E+04 0.  0.
        1    1    3    3  502    0  0.11747914867E+04  0.79385353615E+02  0.18346661055E+04  0.21800084381E+04  0.50400001928E-02 0. -1.
       -1    1    3    3    0  502 -0.11747914867E+04 -0.79385353615E+02  0.23180998547E+03  0.12000720565E+04  0.50400001928E-02 0.  1.
</event>
<event>
 5   0  0.1954502E-05  0.2606445E+04  0.7818609E-02  0.8366015E-01
       -1   -1    0    0    0  501  0.00000000000E+00  0.00000000000E+00  0.11102398488E+04  0.11102398489E+04  0.50400001928E-02 0. -1.
        1   -1    0    0  501    0  0.00000000000E+00  0.00000000000E+00 -0.15297499544E+04  0.15297499544E+04  0.50400001928E-02 0.  1.
    10030    2    1    2    0    0  0.00000000000E+00  0.00000000000E+00 -0.41951010555E+03  0.26399898033E+04  0.26064453634E+04 0.  0.
        4    1    3    3  502    0  0.57876140537E+03 -0.10920487120E+04  0.20890778149E+03  0.12534668834E+04  0.12699999809E+01 0. -1.
       -4    1    3    3    0  502 -0.57876140537E+03  0.10920487120E+04 -0.62841788704E+03  0.13865229199E+04  0.12699999809E+01 0.  1.
</event>
<event>
 5   0  0.2163800E-05  0.2610274E+04  0.7818609E-02  0.8364720E-01
       -1   -1    0    0    0  501  0.00000000000E+00  0.00000000000E+00  0.17520620029E+04  0.17520620030E+04  0.50400001928E-02 0. -1.
        1   -1    0    0  501    0  0.00000000000E+00  0.00000000000E+00 -0.97221562171E+03  0.97221562172E+03  0.50400001928E-02 0.  1.
    10030    2    1    2    0    0  0.00000000000E+00  0.00000000000E+00  0.77984638124E+03  0.27242776247E+04  0.26102735868E+04 0.  0.
        1    1    3    3  502    0 -0.61684964617E+03  0.11389260175E+04  0.55732194741E+03  0.14100580528E+04  0.50400001928E-02 0.  1.
       -1    1    3    3    0  502  0.61684964617E+03 -0.11389260175E+04  0.22252443383E+03  0.13142195718E+04  0.50400001928E-02 0. -1.
</event>
<event>
 5   0  0.5036452E-05  0.2594049E+04  0.7818609E-02  0.8370225E-01
        2   -1    0    0  501    0  0.00000000000E+00  0.00000000000E+00  0.14891686388E+04  0.14891686388E+04  0.25500000920E-02 0. -1.
       -2   -1    0    0    0  501  0.00000000000E+00  0.00000000000E+00 -0.11296724410E+04  0.11296724410E+04  0.25500000920E-02 0.  1.
    10030    2    1    2    0    0  0.00000000000E+00  0.00000000000E+00  0.35949619773E+03  0.26188410798E+04  0.25940491678E+04 0.  0.
        2    1    3    3  502    0 -0.17399535521E+03 -0.51375893559E+03  0.13691633941E+04  0.14726951576E+04  0.25500000920E-02 0. -1.
       -2    1    3    3    0  502  0.17399535521E+03  0.51375893559E+03 -0.10096671963E+04  0.11461459222E+04  0.25500000920E-02 0.  1.
</event>
<event>
 5   0  0.2159405E-05  0.2188152E+04  0.7818609E-02  0.8523376E-01
        1   -1    0    0  501    0  0.00000000000E+00  0.00000000000E+00  0.18242322143E+04  0.18242322143E+04  0.50400001928E-02 0. -1.
       -1   -1    0    0    0  501  0.00000000000E+00  0.00000000000E+00 -0.65616752371E+03  0.65616752373E+03  0.50400001928E-02 0.  1.
    10030    2    1    2    0    0  0.00000000000E+00  0.00000000000E+00  0.11680646906E+04  0.24803997380E+04  0.21881516718E+04 0.  0.
        3    1    3    3  502    0 -0.45553554808E+03 -0.97968818637E+03  0.77938756186E+03  0.13321961417E+04  0.10100000352E+00 0.  1.
       -3    1    3    3    0  502  0.45553554808E+03  0.97968818637E+03  0.38867712872E+03  0.11482035964E+04  0.10100000352E+00 0. -1.
</event>
<event>
 5   0  0.5182179E-05  0.2533487E+04  0.7818609E-02  0.8391152E-01
       -2   -1    0    0    0  501  0.00000000000E+00  0.00000000000E+00  0.85771696692E+03  0.85771696692E+03  0.25500000920E-02 0.  1.
        2   -1    0    0  501    0  0.00000000000E+00  0.00000000000E+00 -0.18708260780E+04  0.18708260780E+04  0.25500000920E-02 0. -1.
    10030    2    1    2    0    0  0.00000000000E+00  0.00000000000E+00 -0.10131091110E+04  0.27285430449E+04  0.25334871377E+04 0.  0.
        3    1    3    3  502    0 -0.11710631109E+03  0.36912544804E+03 -0.18055110685E+04  0.18465745891E+04  0.10100000352E+00 0. -1.
       -3    1    3    3    0  502  0.11710631109E+03 -0.36912544804E+03  0.79240195749E+03  0.88196845574E+03  0.10100000352E+00 0.  1.
</event>
<event>
 5   0  0.2163800E-05  0.2657761E+04  0.7818609E-02  0.8348842E-01
        1   -1    0    0  501    0  0.00000000000E+00  0.00000000000E+00  0.13784032748E+04  0.13784032748E+04  0.50400001928E-02 0. -1.
       -1   -1    0    0    0  501  0.00000000000E+00  0.00000000000E+00 -0.12811369910E+04  0.12811369910E+04  0.50400001928E-02 0.  1.
    10030    2    1    2    0    0  0.00000000000E+00  0.00000000000E+00  0.97266283795E+02  0.26595402658E+04  0.26577610305E+04 0.  0.
        1    1    3    3  502    0  0.69997250467E+03 -0.17558915023E+03 -0.10679679629E+04  0.12889331351E+04  0.50400001928E-02 0.  1.
       -1    1    3    3    0  502 -0.69997250467E+03  0.17558915023E+03  0.11652342467E+04  0.13706071307E+04  0.50400001928E-02 0. -1.
</event>
<event>
 5   0  0.5036452E-05  0.2549079E+04  0.7818609E-02  0.8385707E-01
       -2   -1    0    0    0  501  0.00000000000E+00  0.00000000000E+00  0.88080628744E+03  0.88080628744E+03  0.25500000920E-02 0.  1.
        2   -1    0    0  501    0  0.00000000000E+00  0.00000000000E+00 -0.18442768163E+04  0.18442768163E+04  0.25500000920E-02 0. -1.
    10030    2    1    2    0    0  0.00000000000E+00  0.00000000000E+00 -0.96347052887E+03  0.27250831037E+04  0.25490787478E+04 0.  0.
        2    1    3    3  502    0 -0.35052565966E+03 -0.85709572152E+03 -0.14179715943E+04  0.16935538834E+04  0.25500000920E-02 0. -1.
       -2    1    3    3    0  502  0.35052565966E+03  0.85709572152E+03  0.45450106539E+03  0.10315292203E+04  0.25500000920E-02 0.  1.
</event>
<event>
 5   0  0.2072710E-05  0.2592713E+04  0.7818609E-02  0.8370681E-01
       -1   -1    0    0    0  501  0.00000000000E+00  0.00000000000E+00  0.64304279524E+03  0.64304279526E+03  0.50400001928E-02 0.  1.
        1   -1    0    0  501    0  0.00000000000E+00  0.00000000000E+00 -0.26134186095E+04  0.26134186095E+04  0.50400001928E-02 0. -1.
    10030    2    1    2    0    0  0.00000000000E+00  0.00000000000E+00 -0.19703758142E+04  0.32564614047E+04  0.25927128710E+04 0.  0.
        2    1    3    3  502    0 -0.14666189069E+03 -0.51177922293E+03  0.49940428986E+03  0.72995364781E+03  0.25500000920E-02 0.  1.
       -2    1    3    3    0  502  0.14666189069E+03  0.51177922293E+03 -0.24697801041E+04  0.25265077569E+04  0.25500000920E-02 0. -1.
</event>
<event>
 5   0  0.5182179E-05  0.2582719E+04  0.7818609E-02  0.8374095E-01
       -2   -1    0    0    0  501  0.00000000000E+00  0.00000000000E+00  0.12236708336E+04  0.12236708336E+04  0.25500000920E-02 0.  1.
        2   -1    0    0  501    0  0.00000000000E+00  0.00000000000E+00 -0.13627928597E+04  0.13627928598E+04  0.25500000920E-02 0. -1.
    10030    2    1    2    0    0  0.00000000000E+00  0.00000000000E+00 -0.13912202611E+03  0.25864636934E+04  0.25827194000E+04 0.  0.
        3    1    3    3  502    0 -0.95069835192E+03  0.30438531488E+03  0.75085317762E+03  0.12491029905E+04  0.10100000352E+00 0.  1.
       -3    1    3    3    0  502  0.95069835192E+03 -0.30438531488E+03 -0.88997520373E+03  0.13373607029E+04  0.10100000352E+00 0. -1.
</event>
<event>
 5   0  0.4955675E-05  0.2633072E+04  0.7818609E-02  0.8357053E-01
       -2   -1    0    0    0  501  0.00000000000E+00  0.00000000000E+00  0.14550024578E+04  0.14550024578E+04  0.25500000920E-02 0.  1.
        2   -1    0    0  501    0  0.00000000000E+00  0.00000000000E+00 -0.11912465922E+04  0.11912465922E+04  0.25500000920E-02 0. -1.
    10030    2    1    2    0    0  0.00000000000E+00  0.00000000000E+00  0.26375586558E+03  0.26462490500E+04  0.26330717571E+04 0.  0.
        5    1    3    3  502    0 -0.19382249550E+03 -0.32770478977E+03  0.13984576135E+04  0.14493665429E+04  0.46999998093E+01 0.  1.
       -5    1    3    3    0  502  0.19382249550E+03  0.32770478977E+03 -0.11347017479E+04  0.11968825071E+04  0.46999998093E+01 0. -1.
</event>
<event>
 5   0  0.2072710E-05  0.2150579E+04  0.7818609E-02  0.8539284E-01
       -1   -1    0    0    0  501  0.00000000000E+00  0.00000000000E+00  0.12305698407E+04  0.12305698407E+04  0.50400001928E-02 0. -1.
        1   -1    0    0  501    0  0.00000000000E+00  0.00000000000E+00 -0.93960358983E+03  0.93960358984E+03  0.50400001928E-02 0.  1.
    10030    2    1    2    0    0  0.00000000000E+00  0.00000000000E+00  0.29096625086E+03  0.21701734305E+04  0.21505793079E+04 0.  0.
        2    1    3    3  502    0  0.59249336399E+03 -0.78786028646E+02 -0.75652459173E+03  0.96414992744E+03  0.25500000920E-02 0.  1.
       -2    1    3    3    0  502 -0.59249336399E+03  0.78786028646E+02  0.10474908426E+04  0.12060235031E+04  0.25500000920E-02 0. -1.
</event>
<event>
 5   0  0.5182179E-05  0.2366018E+04  0.7818609E-02  0.8452336E-01
       -2   -1    0    0    0  501  0.00000000000E+00  0.00000000000E+00  0.77683732422E+03  0.77683732422E+03  0.25500000920E-02 0. -1.
        2   -1    0    0  501    0  0.00000000000E+00  0.00000000000E+00 -0.18015492921E+04  0.18015492921E+04  0.25500000920E-02 0.  1.
    10030    2    1    2    0    0  0.00000000000E+00  0.00000000000E+00 -0.10247119679E+04  0.25783866163E+04  0.23660183698E+04 0.  0.
        3    1    3    3  502    0  0.56165104528E+03 -0.91940237848E+02 -0.16425590919E+04  0.17383628173E+04  0.10100000352E+00 0.  1.
       -3    1    3    3    0  502 -0.56165104528E+03  0.91940237848E+02  0.61784712404E+03  0.84002379900E+03  0.10100000352E+00 0. -1.
</event>
<event>
 5   0  0.5170532E-05  0.2615652E+04  0.7818609E-02  0.8362904E-01
       -2   -1    0    0    0  501  0.00000000000E+00  0.00000000000E+00  0.10754786601E+04  0.10754786602E+04  0.25500000920E-02 0.  1.
        2   -1    0    0  501    0  0.00000000000E+00  0.00000000000E+00 -0.15903702241E+04  0.15903702241E+04  0.25500000920E-02 0. -1.
    10030    2    1    2    0    0  0.00000000000E+00  0.00000000000E+00 -0.51489156392E+03  0.26658488842E+04  0.26156522993E+04 0.  0.
        1    1    3    3  502    0 -0.16673467923E+03  0.71061990457E+03  0.84856561361E+03  0.11193054555E+04  0.50400001928E-02 0.  1.
       -1    1    3    3    0  502  0.16673467923E+03 -0.71061990457E+03 -0.13634571775E+04  0.15465434288E+04  0.50400001928E-02 0. -1.
</event>
<event>
 5   0  0.1993815E-05  0.2627591E+04  0.7818609E-02  0.8358889E-01
       -1   -1    0    0    0  501  0.00000000000E+00  0.00000000000E+00  0.10859527948E+04  0.10859527948E+04  0.50400001928E-02 0.  1.
        1   -1    0    0  501    0  0.00000000000E+00  0.00000000000E+00 -0.15894410880E+04  0.15894410880E+04  0.50400001928E-02 0. -1.
    10030    2    1    2    0    0  0.00000000000E+00  0.00000000000E+00 -0.50348829320E+03  0.26753938829E+04  0.26275905250E+04 0.  0.
        5    1    3    3  502    0 -0.53124905151E+03 -0.14753225055E+03  0.96244584470E+03  0.11091958410E+04  0.46999998093E+01 0.  1.
       -5    1    3    3    0  502  0.53124905151E+03  0.14753225055E+03 -0.14659341379E+04  0.15661980419E+04  0.46999998093E+01 0. -1.
</event>
<event>
 5   0  0.5182179E-05  0.2331089E+04  0.7818609E-02  0.8465763E-01
       -2   -1    0    0    0  501  0.00000000000E+00  0.00000000000E+00  0.59435830219E+03  0.59435830220E+03  0.25500000920E-02 0. -1.
        2   -1    0    0  501    0  0.00000000000E+00  0.00000000000E+00 -0.22856490414E+04  0.22856490414E+04  0.25500000920E-02 0.  1.
    10030    2    1    2    0    0  0.00000000000E+00  0.00000000000E+00 -0.16912907392E+04  0.28800073436E+04  0.23310894309E+04 0.  0.
        3    1    3    3  502    0  0.20984269341E+03 -0.79824304429E+02  0.56739067392E+03  0.61019510208E+03  0.10100000352E+00 0. -1.
       -3    1    3    3    0  502 -0.20984269341E+03  0.79824304429E+02 -0.22586814131E+04  0.22698122415E+04  0.10100000352E+00 0.  1.
</event>
<event>
 5   0  0.1954502E-05  0.1401793E+04  0.7818609E-02  0.8952522E-01
       -1   -1    0    0    0  501  0.00000000000E+00  0.00000000000E+00  0.39804837860E+03  0.39804837863E+03  0.50400001928E-02 0.  1.
        1   -1    0    0  501    0  0.00000000000E+00  0.00000000000E+00 -0.12341610948E+04  0.12341610948E+04  0.50400001928E-02 0. -1.
    10030    2    1    2    0    0  0.00000000000E+00  0.00000000000E+00 -0.83611271619E+03  0.16322094734E+04  0.14017928845E+04 0.  0.
        4    1    3    3  502    0 -0.23158109279E+03  0.54208906283E+03  0.23429603406E+02  0.58994992482E+03  0.12699999809E+01 0.  1.
       -4    1    3    3    0  502  0.23158109279E+03 -0.54208906283E+03 -0.85954231960E+03  0.10422595486E+04  0.12699999809E+01 0. -1.
</event>
<event>
 5   0  0.2163800E-05  0.2446470E+04  0.7818609E-02  0.8422308E-01
        1   -1    0    0  501    0  0.00000000000E+00  0.00000000000E+00  0.14880937108E+04  0.14880937108E+04  0.50400001928E-02 0. -1.
       -1   -1    0    0    0  501  0.00000000000E+00  0.00000000000E+00 -0.10055173363E+04  0.10055173363E+04  0.50400001928E-02 0.  1.
    10030    2    1    2    0    0  0.00000000000E+00  0.00000000000E+00  0.48257637446E+03  0.24936110471E+04  0.24464701300E+04 0.  0.
        1    1    3    3  502    0 -0.12185445159E+04  0.73845595728E+02  0.16233519676E+03  0.12315261367E+04  0.50400001928E-02 0.  1.
       -1    1    3    3    0  502  0.12185445159E+04 -0.73845595728E+02  0.32024117771E+03  0.12620849104E+04  0.50400001928E-02 0. -1.
</event>
<event>
 5   0  0.1993815E-05  0.2491751E+04  0.7818609E-02  0.8405930E-01
        1   -1    0    0  501    0  0.00000000000E+00  0.00000000000E+00  0.72782536064E+03  0.72782536066E+03  0.50400001928E-02 0. -1.
       -1   -1    0    0    0  501  0.00000000000E+00  0.00000000000E+00 -0.21326627196E+04  0.21326627196E+04  0.50400001928E-02 0.  1.
    10030    2    1    2    0    0  0.00000000000E+00  0.00000000000E+00 -0.14048373590E+04  0.28604880803E+04  0.24917512019E+04 0.  0.
        5    1    3    3  502    0  0.61287555933E+03  0.31179636772E+03  0.49024148515E+03  0.84450709287E+03  0.46999998093E+01 0. -1.
       -5    1    3    3    0  502 -0.61287555933E+03 -0.31179636772E+03 -0.18950788441E+04  0.20159809874E+04  0.46999998093E+01 0.  1.
</event>
<event>
 5   0  0.5049803E-05  0.2362139E+04  0.7818609E-02  0.8453816E-01
        2   -1    0    0  501    0  0.00000000000E+00  0.00000000000E+00  0.11960417560E+04  0.11960417560E+04  0.25500000920E-02 0.  1.
       -2   -1    0    0    0  501  0.00000000000E+00  0.00000000000E+00 -0.11662850706E+04  0.11662850706E+04  0.25500000920E-02 0. -1.
    10030    2    1    2    0    0  0.00000000000E+00  0.00000000000E+00  0.29756685422E+02  0.23623268266E+04  0.23621394064E+04 0.  0.
        4    1    3    3  502    0  0.12955219237E+03  0.53825756855E+03  0.10582343581E+04  0.11943058864E+04  0.12699999809E+01 0.  1.
       -4    1    3    3    0  502 -0.12955219237E+03 -0.53825756855E+03 -0.10284776727E+04  0.11680209402E+04  0.12699999809E+01 0. -1.
</event>
<event>
 5   0  0.5049803E-05  0.2596907E+04  0.7818609E-02  0.8369253E-01
       -2   -1    0    0    0  501  0.00000000000E+00  0.00000000000E+00  0.11249186434E+04  0.11249186434E+04  0.25500000920E-02 0. -1.
        2   -1    0    0  501    0  0.00000000000E+00  0.00000000000E+00 -0.14987583486E+04  0.14987583486E+04  0.25500000920E-02 0.  1.
    10030    2    1    2    0    0  0.00000000000E+00  0.00000000000E+00 -0.37383970519E+03  0.26236769919E+04  0.25969067817E+04 0.  0.
        4    1    3    3  502    0 -0.27307289540E+03  0.12600989734E+04 -0.31840405960E+02  0.12897417002E+04  0.12699999809E+01 0. -1.
       -4    1    3    3    0  502  0.27307289540E+03 -0.12600989734E+04 -0.34199929923E+03  0.13339352917E+04  0.12699999809E+01 0.  1.
</event>
<event>
 5   0  0.2072710E-05  0.1398226E+04  0.7818609E-02  0.8955103E-01
       -1   -1    0    0    0  501  0.00000000000E+00  0.00000000000E+00  0.17583398019E+03  0.17583398026E+03  0.50400001928E-02 0.  1.
        1   -1    0    0  501    0  0.00000000000E+00  0.00000000000E+00 -0.27796629428E+04  0.27796629428E+04  0.50400001928E-02 0. -1.
    10030    2    1    2    0    0  0.00000000000E+00  0.00000000000E+00 -0.26038289626E+04  0.29554969231E+04  0.13982263035E+04 0.  0.
        2    1    3    3  502    0 -0.10217936380E+03 -0.17038404049E+03  0.11490781735E+03  0.22951067543E+03  0.25500000920E-02 0.  1.
       -2    1    3    3    0  502  0.10217936380E+03  0.17038404049E+03 -0.27187367799E+04  0.27259862476E+04  0.25500000920E-02 0. -1.
</event>
<event>
 5   0  0.1993815E-05  0.2539775E+04  0.7818609E-02  0.8388951E-01
       -1   -1    0    0    0  501  0.00000000000E+00  0.00000000000E+00  0.71352361893E+03  0.71352361895E+03  0.50400001928E-02 0. -1.
        1   -1    0    0  501    0  0.00000000000E+00  0.00000000000E+00 -0.22600715440E+04  0.22600715440E+04  0.50400001928E-02 0.  1.
    10030    2    1    2    0    0  0.00000000000E+00  0.00000000000E+00 -0.15465479251E+04  0.29735951630E+04  0.25397751295E+04 0.  0.
        5    1    3    3  502    0  0.62777872799E+03 -0.60375672503E+03 -0.18552218985E+04  0.20495118192E+04  0.46999998093E+01 0.  1.
       -5    1    3    3    0  502 -0.62777872799E+03  0.60375672503E+03  0.30867397343E+03  0.92408334376E+03  0.46999998093E+01 0. -1.
</event>
<event>
 5   0  0.1993815E-05  0.2246427E+04  0.7818609E-02  0.8499349E-01
        1   -1    0    0  501    0  0.00000000000E+00  0.00000000000E+00  0.17694041092E+04  0.17694041092E+04  0.50400001928E-02 0. -1.
       -1   -1    0    0    0  501  0.00000000000E+00  0.00000000000E+00 -0.71301335991E+03  0.71301335993E+03  0.50400001928E-02 0.  1.
    10030    2    1    2    0    0  0.00000000000E+00  0.00000000000E+00  0.10563907493E+04  0.24824174692E+04  0.22464271802E+04 0.  0.
        5    1    3    3  502    0 -0.35638050985E+03  0.16903714659E+03  0.16903428037E+04  0.17357596345E+04  0.46999998093E+01 0. -1.
       -5    1    3    3    0  502  0.35638050985E+03 -0.16903714659E+03 -0.63395205442E+03  0.74665783464E+03  0.46999998093E+01 0.  1.
</event>
<event>
 5   0  0.5036452E-05  0.2700534E+04  0.7818609E-02  0.8334832E-01
       -2   -1    0    0    0  501  0.00000000000E+00  0.00000000000E+00  0.18024181742E+04  0.18024181742E+04  0.25500000920E-02 0.  1.
        2   -1    0    0  501    0  0.00000000000E+00  0.00000000000E+00 -0.10115414777E+04  0.10115414777E+04  0.25500000920E-02 0. -1.
    10030    2    1    2    0    0  0.00000000000E+00  0.00000000000E+00  0.79087669651E+03  0.28139596519E+04  0.27005338312E+04 0.  0.
        2    1    3    3  502    0 -0.13082001951E+03 -0.93317685938E+03 -0.61228398104E+03  0.11237546893E+04  0.25500000920E-02 0. -1.
       -2    1    3    3    0  502  0.13082001951E+03  0.93317685938E+03  0.14031606775E+04  0.16902049625E+04  0.25500000920E-02 0.  1.
</event>
<event>
 5   0  0.5182179E-05  0.2577575E+04  0.7818609E-02  0.8375859E-01
        2   -1    0    0  501    0  0.00000000000E+00  0.00000000000E+00  0.11798302485E+04  0.11798302485E+04  0.25500000920E-02 0. -1.
       -2   -1    0    0    0  501  0.00000000000E+00  0.00000000000E+00 -0.14078071269E+04  0.14078071269E+04  0.25500000920E-02 0.  1.
    10030    2    1    2    0    0  0.00000000000E+00  0.00000000000E+00 -0.22797687833E+03  0.25876373754E+04  0.25775751647E+04 0.  0.
        3    1    3    3  502    0  0.18770401580E+03  0.11828068897E+04 -0.59198631357E+03  0.13359314135E+04  0.10100000352E+00 0.  1.
       -3    1    3    3    0  502 -0.18770401580E+03 -0.11828068897E+04  0.36400943524E+03  0.12517059619E+04  0.10100000352E+00 0. -1.
</event>
<event>
 5   0  0.5170532E-05  0.2595790E+04  0.7818609E-02  0.8369633E-01
        2   -1    0    0  501    0  0.00000000000E+00  0.00000000000E+00  0.75207814575E+03  0.75207814575E+03  0.25500000920E-02 0.  1.
       -2   -1    0    0    0  501  0.00000000000E+00  0.00000000000E+00 -0.22398361052E+04  0.22398361052E+04  0.25500000920E-02 0. -1.
    10030    2    1    2    0    0  0.00000000000E+00  0.00000000000E+00 -0.14877579594E+04  0.29919142509E+04  0.25957902725E+04 0.  0.
        1    1    3    3  502    0 -0.69064870753E+03 -0.51694384763E+03 -0.18615499269E+04  0.20517296872E+04  0.50400001928E-02 0. -1.
       -1    1    3    3    0  502  0.69064870753E+03  0.51694384763E+03  0.37379196754E+03  0.94018456371E+03  0.50400001928E-02 0.  1.
</event>
<event>
 5   0  0.5036452E-05  0.2037771E+04  0.7818609E-02  0.8589162E-01
       -2   -1    0    0    0  501  0.00000000000E+00  0.00000000000E+00  0.42678095022E+03  0.42678095022E+03  0.25500000920E-02 0.  1.
        2   -1    0    0  501    0  0.00000000000E+00  0.00000000000E+00 -0.24324608445E+04  0.24324608445E+04  0.25500000920E-02 0. -1.
    10030    2    1    2    0    0  0.00000000000E+00  0.00000000000E+00 -0.20056798942E+04  0.28592417947E+04  0.20377712831E+04 0.  0.
        2    1    3    3  502    0  0.54534621856E+03 -0.55894571663E+03 -0.84566369686E+02  0.78547710541E+03  0.25500000920E-02 0.  1.
       -2    1    3    3    0  502 -0.54534621856E+03  0.55894571663E+03 -0.19211135246E+04  0.20737646893E+04  0.25500000920E-02 0. -1.
</event>
<event>
 5   0  0.5182179E-05  0.2661798E+04  0.7818609E-02  0.8347507E-01
        2   -1    0    0  501    0  0.00000000000E+00  0.00000000000E+00  0.11419183014E+04  0.11419183014E+04  0.25500000920E-02 0.  1.
       -2   -1    0    0    0  501  0.00000000000E+00  0.00000000000E+00 -0.15511554621E+04  0.15511554621E+04  0.25500000920E-02 0. -1.
    10030    2    1    2    0    0  0.00000000000E+00  0.00000000000E+00 -0.40923716069E+03  0.26930737635E+04  0.26617984976E+04 0.  0.
        3    1    3    3  502    0 -0.31173331260E+03  0.14527811963E+02  0.11043775356E+04  0.11476229637E+04  0.10100000352E+00 0.  1.
       -3    1    3    3    0  502  0.31173331260E+03 -0.14527811963E+02 -0.15136146963E+04  0.15454507998E+04  0.10100000352E+00 0. -1.
</event>
<event>
 5   0  0.1993815E-05  0.2526435E+04  0.7818609E-02  0.8393628E-01
        1   -1    0    0  501    0  0.00000000000E+00  0.00000000000E+00  0.10764493895E+04  0.10764493895E+04  0.50400001928E-02 0.  1.
       -1   -1    0    0    0  501  0.00000000000E+00  0.00000000000E+00 -0.14823903067E+04  0.14823903067E+04  0.50400001928E-02 0. -1.
    10030    2    1    2    0    0  0.00000000000E+00  0.00000000000E+00 -0.40594091713E+03  0.25588396962E+04  0.25264347533E+04 0.  0.
        5    1    3    3  502    0  0.10627455251E+04  0.37803505660E+03 -0.77890941991E+03  0.13707882877E+04  0.46999998093E+01 0. -1.
       -5    1    3    3    0  502 -0.10627455251E+04 -0.37803505660E+03  0.37296850278E+03  0.11880514085E+04  0.46999998093E+01 0.  1.
</event>
<event>
 5   0  0.4955675E-05  0.2566230E+04  0.7818609E-02  0.8379764E-01
       -2   -1    0    0    0  501  0.00000000000E+00  0.00000000000E+00  0.87432638950E+03  0.87432638951E+03  0.25500000920E-02 0. -1.
        2   -1    0    0  501    0  0.00000000000E+00  0.00000000000E+00 -0.18830308900E+04  0.18830308900E+04  0.25500000920E-02 0.  1.
    10030    2    1    2    0    0  0.00000000000E+00  0.00000000000E+00 -0.10087045005E+04  0.27573572795E+04  0.25662296073E+04 0.  0.
        5    1    3    3  502    0  0.11082431789E+04 -0.64660643271E+03 -0.51258355010E+03  0.13816898379E+04  0.46999998093E+01 0. -1.
       -5    1    3    3    0  502 -0.11082431789E+04  0.64660643271E+03 -0.49612095039E+03  0.13756674416E+04  0.46999998093E+01 0.  1.
</event>
<event>
 5   0  0.1993815E-05  0.2716721E+04  0.7818609E-02  0.8329600E-01
       -1   -1    0    0    0  501  0.00000000000E+00  0.00000000000E+00  0.20437644705E+04  0.20437644705E+04  0.50400001928E-02 0. -1.
        1   -1    0    0  501    0  0.00000000000E+00  0.00000000000E+00 -0.90281628213E+03  0.90281628214E+03  0.50400001928E-02 0.  1.
    10030    2    1    2    0    0  0.00000000000E+00  0.00000000000E+00  0.11409481884E+04  0.29465807526E+04  0.27167214365E+04 0.  0.
        5    1    3    3  502    0 -0.11883809404E+04 -0.23363459206E+03  0.12375636759E+04  0.17315947344E+04  0.46999998093E+01 0. -1.
       -5    1    3    3    0  502  0.11883809404E+04  0.23363459206E+03 -0.96615487499E+02  0.12149860183E+04  0.46999998093E+01 0.  1.
</event>
<event>
 5   0  0.2159405E-05  0.2136292E+04  0.7818609E-02  0.8545423E-01
       -1   -1    0    0    0  501  0.00000000000E+00  0.00000000000E+00  0.44690291297E+03  0.44690291300E+03  0.50400001928E-02 0.  1.
        1   -1    0    0  501    0  0.00000000000E+00  0.00000000000E+00 -0.25529840444E+04  0.25529840444E+04  0.50400001928E-02 0. -1.
    10030    2    1    2    0    0  0.00000000000E+00  0.00000000000E+00 -0.21060811314E+04  0.29998869574E+04  0.21362921207E+04 0.  0.
        3    1    3    3  502    0  0.17082581111E+03  0.10425823103E+04 -0.83200321198E+03  0.13447634314E+04  0.10100000352E+00 0.  1.
       -3    1    3    3    0  502 -0.17082581111E+03 -0.10425823103E+04 -0.12740779194E+04  0.16551235260E+04  0.10100000352E+00 0. -1.
</event>
<event>
 5   0  0.5182179E-05  0.1754323E+04  0.7818609E-02  0.8730975E-01
        2   -1    0    0  501    0  0.00000000000E+00  0.00000000000E+00  0.10841150589E+04  0.10841150589E+04  0.25500000920E-02 0. -1.
       -2   -1    0    0    0  501  0.00000000000E+00  0.00000000000E+00 -0.70971424136E+03  0.70971424137E+03  0.25500000920E-02 0.  1.
    10030    2    1    2    0    0  0.00000000000E+00  0.00000000000E+00  0.37440081751E+03  0.17938293002E+04  0.17543225434E+04 0.  0.
        3    1    3    3  502    0 -0.51888190354E+03  0.70673949139E+03  0.21411323214E+03  0.90253178608E+03  0.10100000352E+00 0. -1.
       -3    1    3    3    0  502  0.51888190354E+03 -0.70673949139E+03  0.16028758537E+03  0.89129751415E+03  0.10100000352E+00 0.  1.
</event>
<event>
 5   0  0.2163800E-05  0.2789737E+04  0.7818609E-02  0.8306462E-01
        1   -1    0    0  501    0  0.00000000000E+00  0.00000000000E+00  0.11095672844E+04  0.11095672845E+04  0.50400001928E-02 0. -1.
       -1   -1    0    0    0  501  0.00000000000E+00  0.00000000000E+00 -0.17535284524E+04  0.17535284524E+04  0.50400001928E-02 0.  1.
    10030    2    1    2    0    0  0.00000000000E+00  0.00000000000E+00 -0.64396116797E+03  0.28630957369E+04  0.27897367641E+04 0.  0.
        1    1    3    3  502    0  0.66422386351E+03 -0.10771112507E+04  0.28021631815E+03  0.12961030716E+04  0.50400001928E-02 0. -1.
       -1    1    3    3    0  502 -0.66422386351E+03  0.10771112507E+04 -0.92417748612E+03  0.15669926653E+04  0.50400001928E-02 0.  1.
</event>
<event>
 5   0  0.1993815E-05  0.2570445E+04  0.7818609E-02  0.8378310E-01
       -1   -1    0    0    0  501  0.00000000000E+00  0.00000000000E+00  0.98075967936E+03  0.98075967938E+03  0.50400001928E-02 0. -1.
        1   -1    0    0  501    0  0.00000000000E+00  0.00000000000E+00 -0.16842013679E+04  0.16842013679E+04  0.50400001928E-02 0.  1.
    10030    2    1    2    0    0  0.00000000000E+00  0.00000000000E+00 -0.70344168854E+03  0.26649610473E+04  0.25704449370E+04 0.  0.
        5    1    3    3  502    0 -0.96991175451E+03  0.67851400675E+03 -0.87079462575E+03  0.14694949606E+04  0.46999998093E+01 0.  1.
       -5    1    3    3    0  502  0.96991175451E+03 -0.67851400675E+03  0.16735293721E+03  0.11954660867E+04  0.46999998093E+01 0. -1.
</event>
<event>
 5   0  0.1954502E-05  0.2465472E+04  0.7818609E-02  0.8415391E-01
        1   -1    0    0  501    0  0.00000000000E+00  0.00000000000E+00  0.12547619522E+04  0.12547619523E+04  0.50400001928E-02 0. -1.
       -1   -1    0    0    0  501  0.00000000000E+00  0.00000000000E+00 -0.12110963583E+04  0.12110963583E+04  0.50400001928E-02 0.  1.
    10030    2    1    2    0    0  0.00000000000E+00  0.00000000000E+00  0.43665593982E+02  0.24658583105E+04  0.24654716635E+04 0.  0.
        4    1    3    3  502    0  0.30770754916E+03  0.87040747688E+03 -0.79520590134E+03  0.12184609760E+04  0.12699999809E+01 0.  1.
       -4    1    3    3    0  502 -0.30770754916E+03 -0.87040747688E+03  0.83887149532E+03  0.12473973345E+04  0.12699999809E+01 0. -1.
</event>
<event>
 5   0  0.1993815E-05  0.1728099E+04  0.7818609E-02  0.8745499E-01
        1   -1    0    0  501    0  0.00000000000E+00  0.00000000000E+00  0.83711302855E+03  0.83711302857E+03  0.50400001928E-02 0. -1.
       -1   -1    0    0    0  501  0.00000000000E+00  0.00000000000E+00 -0.89185309749E+03  0.89185309750E+03  0.50400001928E-02 0.  1.
    10030    2    1    2    0    0  0.00000000000E+00  0.00000000000E+00 -0.54740068932E+02  0.17289661261E+04  0.17280993577E+04 0.  0.
        5    1    3    3  502    0  0.99442665095E+02  0.84644594701E+03 -0.16956863310E+03  0.86898515302E+03  0.46999998093E+01 0.  1.
       -5    1    3    3    0  502 -0.99442665095E+02 -0.84644594701E+03  0.11482856417E+03  0.85998097304E+03  0.46999998093E+01 0. -1.
</event>
<event>
 5   0  0.5049803E-05  0.2637436E+04  0.7818609E-02  0.8355595E-01
       -2   -1    0    0    0  501  0.00000000000E+00  0.00000000000E+00  0.14390553722E+04  0.14390553722E+04  0.25500000920E-02 0.  1.
        2   -1    0    0  501    0  0.00000000000E+00  0.00000000000E+00 -0.12084435221E+04  0.12084435221E+04  0.25500000920E-02 0. -1.
    10030    2    1    2    0    0  0.00000000000E+00  0.00000000000E+00  0.23061185004E+03  0.26474988943E+04  0.26374359840E+04 0.  0.
        4    1    3    3  502    0  0.10099860234E+04 -0.79068171208E+03 -0.19207506173E+03  0.12969748569E+04  0.12699999809E+01 0. -1.
       -4    1    3    3    0  502 -0.10099860234E+04  0.79068171208E+03  0.42268691177E+03  0.13505240374E+04  0.12699999809E+01 0.  1.
</event>
<event>
 5   0  0.5170532E-05  0.2304064E+04  0.7818609E-02  0.8476321E-01
       -2   -1    0    0    0  501  0.00000000000E+00  0.00000000000E+00  0.10059321141E+04  0.10059321141E+04  0.25500000920E-02 0.  1.
        2   -1    0    0  501    0  0.00000000000E+00  0.00000000000E+00 -0.13193510208E+04  0.13193510208E+04  0.25500000920E-02 0. -1.
    10030    2    1    2    0    0  0.00000000000E+00  0.00000000000E+00 -0.31341890671E+03  0.23252831349E+04  0.23040638546E+04 0.  0.
        1    1    3    3  502    0 -0.28218493169E+03 -0.92641635904E+03 -0.78639630275E+03  0.12475154312E+04  0.50400001928E-02 0. -1.
       -1    1    3    3    0  502  0.28218493169E+03  0.92641635904E+03  0.47297739604E+03  0.10777677037E+04  0.50400001928E-02 0.  1.
</event>
<event>
 5   0  0.1954502E-05  0.2696652E+04  0.7818609E-02  0.8336092E-01
       -1   -1    0    0    0  501  0.00000000000E+00  0.00000000000E+00  0.13818993984E+04  0.13818993984E+04  0.50400001928E-02 0.  1.
        1   -1    0    0  501    0  0.00000000000E+00  0.00000000000E+00 -0.13155684055E+04  0.13155684055E+04  0.50400001928E-02 0. -1.
    10030    2    1    2    0    0  0.00000000000E+00  0.00000000000E+00  0.66330992954E+02  0.26974678039E+04  0.26966521379E+04 0.  0.
        4    1    3    3  502    0 -0.42173495874E+03 -0.10796549404E+04  0.72218906642E+03  0.13656770579E+04  0.12699999809E+01 0.  1.
       -4    1    3    3    0  502  0.42173495874E+03  0.10796549404E+04 -0.65585807347E+03  0.13317907461E+04  0.12699999809E+01 0. -1.
</event>
<event>
 5   0  0.5036452E-05  0.2622481E+04  0.7818609E-02  0.8360605E-01
        2   -1    0    0  501    0  0.00000000000E+00  0.00000000000E+00  0.13437364761E+04  0.13437364761E+04  0.25500000920E-02 0.  1.
       -2   -1    0    0    0  501  0.00000000000E+00  0.00000000000E+00 -0.12795304399E+04  0.12795304399E+04  0.25500000920E-02 0. -1.
    10030    2    1    2    0    0  0.00000000000E+00  0.00000000000E+00  0.64206036245E+02  0.26232669160E+04  0.26224810576E+04 0.  0.
        2    1    3    3  502    0  0.45695652916E+03 -0.84137733687E+03 -0.86405976707E+03  0.12896993346E+04  0.25500000920E-02 0. -1.
       -2    1    3    3    0  502 -0.45695652916E+03  0.84137733687E+03  0.92826580331E+03  0.13335675814E+04  0.25500000920E-02 0.  1.
</event>
<event>
 5   0  0.1993815E-05  0.2272391E+04  0.7818609E-02  0.8488887E-01
       -1   -1    0    0    0  501  0.00000000000E+00  0.00000000000E+00  0.24341659167E+04  0.24341659167E+04  0.50400001928E-02 0.  1.
        1   -1    0    0  501    0  0.00000000000E+00  0.00000000000E+00 -0.53034211647E+03  0.53034211650E+03  0.50400001928E-02 0. -1.
    10030    2    1    2    0    0  0.00000000000E+00  0.00000000000E+00  0.19038238002E+04  0.29645080332E+04  0.22723914312E+04 0.  0.
        5    1    3    3  502    0 -0.30280183137E+03 -0.90021664630E+03  0.17654066660E+04  0.20046849493E+04  0.46999998093E+01 0.  1.
       -5    1    3    3    0  502  0.30280183137E+03  0.90021664630E+03  0.13841713416E+03  0.95982308390E+03  0.46999998093E+01 0. -1.
</event>
<event>
 5   0  0.5036452E-05  0.2365491E+04  0.7818609E-02  0.8452537E-01
        2   -1    0    0  501    0  0.00000000000E+00  0.00000000000E+00  0.12367372203E+04  0.12367372203E+04  0.25500000920E-02 0. -1.
       -2   -1    0    0    0  501  0.00000000000E+00  0.00000000000E+00 -0.11311106088E+04  0.11311106088E+04  0.25500000920E-02 0.  1.
    10030    2    1    2    0    0  0.00000000000E+00  0.00000000000E+00  0.10562661146E+03  0.23678478291E+04  0.23654907230E+04 0.  0.
        2    1    3    3  502    0 -0.10349825681E+04  0.30811564957E+03 -0.43012201725E+03  0.11623807980E+04  0.25500000920E-02 0.  1.
       -2    1    3    3    0  502  0.10349825681E+04 -0.30811564957E+03  0.53574862871E+03  0.12054670311E+04  0.25500000920E-02 0. -1.
</event>
<event>
 5   0  0.1954502E-05  0.2463154E+04  0.7818609E-02  0.8416231E-01
        1   -1    0    0  501    0  0.00000000000E+00  0.00000000000E+00  0.14244576452E+04  0.14244576452E+04  0.50400001928E-02 0. -1.
       -1   -1    0    0    0  501  0.00000000000E+00  0.00000000000E+00 -0.10648132706E+04  0.10648132706E+04  0.50400001928E-02 0.  1.
    10030    2    1    2    0    0  0.00000000000E+00  0.00000000000E+00  0.35964437459E+03  0.24892709159E+04  0.24631535917E+04 0.  0.
        4    1    3    3  502    0  0.42176324467E+03 -0.52207831996E+03  0.12234038553E+04  0.13954098369E+04  0.12699999809E+01 0. -1.
       -4    1    3    3    0  502 -0.42176324467E+03  0.52207831996E+03 -0.86375948072E+03  0.10938610790E+04  0.12699999809E+01 0.  1.
</event>
<event>
 5   0  0.1954502E-05  0.2239165E+04  0.7818609E-02  0.8502301E-01
        1   -1    0    0  501    0  0.00000000000E+00  0.00000000000E+00  0.26755937354E+04  0.26755937354E+04  0.50400001928E-02 0. -1.
       -1   -1    0    0    0  501  0.00000000000E+00  0.00000000000E+00 -0.46848117993E+03  0.46848117996E+03  0.50400001928E-02 0.  1.
    10030    2    1    2    0    0  0.00000000000E+00  0.00000000000E+00  0.22071125555E+04  0.31440749154E+04  0.22391653000E+04 0.  0.
        4    1    3    3  502    0  0.30470729086E+03 -0.42971086388E+03 -0.28359560635E+03  0.59826920402E+03  0.12699999809E+01 0.  1.
       -4    1    3    3    0  502 -0.30470729086E+03  0.42971086388E+03  0.24907081618E+04  0.25458057113E+04  0.12699999809E+01 0. -1.
</event>
<event>
 5   0  0.1954502E-05  0.2577448E+04  0.7818609E-02  0.8375902E-01
       -1   -1    0    0    0  501  0.00000000000E+00  0.00000000000E+00  0.10866669365E+04  0.10866669366E+04  0.50400001928E-02 0. -1.
        1   -1    0    0  501    0  0.00000000000E+00  0.00000000000E+00 -0.15283523693E+04  0.15283523693E+04  0.50400001928E-02 0.  1.
    10030    2    1    2    0    0  0.00000000000E+00  0.00000000000E+00 -0.44168543277E+03  0.26150193059E+04  0.25774483406E+04 0.  0.
        4    1    3    3  502    0 -0.23609723432E+03  0.85698275866E+03 -0.11675287919E+04  0.14674080705E+04  0.12699999809E+01 0.  1.
       -4    1    3    3    0  502  0.23609723432E+03 -0.85698275866E+03  0.72584335908E+03  0.11476112354E+04  0.12699999809E+01 0. -1.
</event>
<event>
 5   0  0.5036452E-05  0.2308585E+04  0.7818609E-02  0.8474544E-01
        2   -1    0    0  501    0  0.00000000000E+00  0.00000000000E+00  0.10418157931E+04  0.10418157931E+04  0.25500000920E-02 0.  1.
       -2   -1    0    0    0  501  0.00000000000E+00  0.00000000000E+00 -0.12789120514E+04  0.12789120514E+04  0.25500000920E-02 0. -1.
    10030    2    1    2    0    0  0.00000000000E+00  0.00000000000E+00 -0.23709625827E+03  0.23207278445E+04  0.23085846513E+04 0.  0.
        2    1    3    3  502    0  0.10895964133E+04 -0.19066545229E+03  0.21306140772E+03  0.11264851628E+04  0.25500000920E-02 0.  1.
       -2    1    3    3    0  502 -0.10895964133E+04  0.19066545229E+03 -0.45015766598E+03  0.11942426817E+04  0.25500000920E-02 0. -1.
</event>
<event>
 5   0  0.1698625E-05  0.2583556E+04  0.7818609E-02  0.8373809E-01
       -3   -1    0    0    0  501  0.00000000000E+00  0.00000000000E+00  0.95337982398E+03  0.95337982933E+03  0.10100000352E+00 0.  1.
        3   -1    0    0  501    0  0.00000000000E+00  0.00000000000E+00 -0.17502886315E+04  0.17502886344E+04  0.10100000352E+00 0. -1.
    10030    2    1    2    0    0  0.00000000000E+00  0.00000000000E+00 -0.79690880752E+03  0.27036684638E+04  0.25835555954E+04 0.  0.
        3    1    3    3  502    0  0.10209230610E+04  0.79090193385E+03 -0.42950016952E+03  0.13609850004E+04  0.10100000352E+00 0.  1.
       -3    1    3    3    0  502 -0.10209230610E+04 -0.79090193385E+03 -0.36740863801E+03  0.13426834634E+04  0.10100000352E+00 0. -1.
</event>
<event>
 5   0  0.4955675E-05  0.2591973E+04  0.7818609E-02  0.8370933E-01
        2   -1    0    0  501    0  0.00000000000E+00  0.00000000000E+00  0.12024089387E+04  0.12024089387E+04  0.25500000920E-02 0.  1.
       -2   -1    0    0    0  501  0.00000000000E+00  0.00000000000E+00 -0.13968466926E+04  0.13968466926E+04  0.25500000920E-02 0. -1.
    10030    2    1    2    0    0  0.00000000000E+00  0.00000000000E+00 -0.19443775397E+03  0.25992556313E+04  0.25919729545E+04 0.  0.
        5    1    3    3  502    0 -0.66151040207E+03 -0.92425125770E+03 -0.72164204386E+03  0.13463378955E+04  0.46999998093E+01 0. -1.
       -5    1    3    3    0  502  0.66151040207E+03  0.92425125770E+03  0.52720428989E+03  0.12529177358E+04  0.46999998093E+01 0.  1.
</event>
<event>
 5   0  0.4955675E-05  0.1702583E+04  0.7818609E-02  0.8759892E-01
       -2   -1    0    0    0  501  0.00000000000E+00  0.00000000000E+00  0.63882599324E+03  0.63882599324E+03  0.25500000920E-02 0. -1.
        2   -1    0    0  501    0  0.00000000000E+00  0.00000000000E+00 -0.11344206644E+04  0.11344206644E+04  0.25500000920E-02 0.  1.
    10030    2    1    2    0    0  0.00000000000E+00  0.00000000000E+00 -0.49559467114E+03  0.17732466576E+04  0.17025832228E+04 0.  0.
        5    1    3    3  502    0 -0.60362254133E+03 -0.11778169913E+03 -0.86081989276E+03  0.10579535334E+04  0.46999998093E+01 0.  1.
       -5    1    3    3    0  502  0.60362254133E+03  0.11778169913E+03  0.36522522162E+03  0.71529312422E+03  0.46999998093E+01 0. -1.
</event>
<event>
 5   0  0.5049803E-05  0.2521949E+04  0.7818609E-02  0.8395208E-01
        2   -1    0    0  501    0  0.00000000000E+00  0.00000000000E+00  0.10494472567E+04  0.10494472567E+04  0.25500000920E-02 0. -1.
       -2   -1    0    0    0  501  0.00000000000E+00  0.00000000000E+00 -0.15151372568E+04  0.15151372568E+04  0.25500000920E-02 0.  1.
    10030    2    1    2    0    0  0.00000000000E+00  0.00000000000E+00 -0.46569000009E+03  0.25645845135E+04  0.25219489588E+04 0.  0.
        4    1    3    3  502    0 -0.51982697840E+03 -0.72100265719E+03 -0.11423875701E+04  0.14474515164E+04  0.12699999809E+01 0.  1.
       -4    1    3    3    0  502  0.51982697840E+03  0.72100265719E+03  0.67669756999E+03  0.11171329971E+04  0.12699999809E+01 0. -1.
</event>
<event>
 5   0  0.1954502E-05  0.1665660E+04  0.7818609E-02  0.8781196E-01
       -1   -1    0    0    0  501  0.00000000000E+00  0.00000000000E+00  0.66436745380E+03  0.66436745382E+03  0.50400001928E-02 0.  1.
        1   -1    0    0  501    0  0.00000000000E+00  0.00000000000E+00 -0.10440094142E+04  0.10440094142E+04  0.50400001928E-02 0. -1.
    10030    2    1    2    0    0  0.00000000000E+00  0.00000000000E+00 -0.37964196035E+03  0.17083768680E+04  0.16656600809E+04 0.  0.
        4    1    3    3  502    0 -0.54065283457E+03 -0.14412640726E+03  0.44286713288E+03  0.71359009177E+03  0.12699999809E+01 0.  1.
       -4    1    3    3    0  502  0.54065283457E+03  0.14412640726E+03 -0.82250909322E+03  0.99478677621E+03  0.12699999809E+01 0. -1.
</event>
<event>
 5   0  0.2072710E-05  0.2588791E+04  0.7818609E-02  0.8372019E-01
       -1   -1    0    0    0  501  0.00000000000E+00  0.00000000000E+00  0.89399250865E+03  0.89399250866E+03  0.50400001928E-02 0. -1.
        1   -1    0    0  501    0  0.00000000000E+00  0.00000000000E+00 -0.18741320392E+04  0.18741320392E+04  0.50400001928E-02 0.  1.
    10030    2    1    2    0    0  0.00000000000E+00  0.00000000000E+00 -0.98013953053E+03  0.27681245479E+04  0.25887912262E+04 0.  0.
        2    1    3    3  502    0  0.14095372820E+03 -0.12140103740E+04 -0.94594996666E+03  0.15454806635E+04  0.25500000920E-02 0. -1.
       -2    1    3    3    0  502 -0.14095372820E+03  0.12140103740E+04 -0.34189563876E+02  0.12226438844E+04  0.25500000920E-02 0.  1.
</event>
<event>
 5   0  0.5036452E-05  0.2543410E+04  0.7818609E-02  0.8387682E-01
        2   -1    0    0  501    0  0.00000000000E+00  0.00000000000E+00  0.20452475520E+04  0.20452475520E+04  0.25500000920E-02 0.  1.
       -2   -1    0    0    0  501  0.00000000000E+00  0.00000000000E+00 -0.79072757446E+03  0.79072757446E+03  0.25500000920E-02 0. -1.
    10030    2    1    2    0    0  0.00000000000E+00  0.00000000000E+00  0.12545199775E+04  0.28359751264E+04  0.25434100227E+04 0.  0.
        2    1    3    3  502    0 -0.52524469913E+03  0.10602789877E+04  0.11468682721E+04  0.16478411208E+04  0.25500000920E-02 0.  1.
       -2    1    3    3    0  502  0.52524469913E+03 -0.10602789877E+04  0.10765170543E+03  0.11881340057E+04  0.25500000920E-02 0. -1.
</event>
<event>
 5   0  0.2072710E-05  0.2624004E+04  0.7818609E-02  0.8360093E-01
       -1   -1    0    0    0  501  0.00000000000E+00  0.00000000000E+00  0.14672544513E+04  0.14672544513E+04  0.50400001928E-02 0. -1.
        1   -1    0    0  501    0  0.00000000000E+00  0.00000000000E+00 -0.11731769407E+04  0.11731769407E+04  0.50400001928E-02 0.  1.
    10030    2    1    2    0    0  0.00000000000E+00  0.00000000000E+00  0.29407751057E+03  0.26404313921E+04  0.26240038784E+04 0.  0.
        2    1    3    3  502    0 -0.54712479081E+03  0.86908569050E+03  0.96866359871E+03  0.14117239963E+04  0.25500000920E-02 0. -1.
       -2    1    3    3    0  502  0.54712479081E+03 -0.86908569050E+03 -0.67458608814E+03  0.12287073958E+04  0.25500000920E-02 0.  1.
</event>
<event>
 5   0  0.5182179E-05  0.2608588E+04  0.7818609E-02  0.8365290E-01
        2   -1    0    0  501    0  0.00000000000E+00  0.00000000000E+00  0.13704845876E+04  0.13704845876E+04  0.25500000920E-02 0.  1.
       -2   -1    0    0    0  501  0.00000000000E+00  0.00000000000E+00 -0.12413000933E+04  0.12413000933E+04  0.25500000920E-02 0. -1.
    10030    2    1    2    0    0  0.00000000000E+00  0.00000000000E+00  0.12918449424E+03  0.26117846809E+04  0.26085878528E+04 0.  0.
        3    1    3    3  502    0 -0.73798253980E+03  0.56196319718E+03  0.98264657251E+03  0.13513012842E+04  0.10100000352E+00 0.  1.
       -3    1    3    3    0  502  0.73798253980E+03 -0.56196319718E+03 -0.85346207827E+03  0.12604833967E+04  0.10100000352E+00 0. -1.
</event>
<event>
 5   0  0.4955675E-05  0.2741043E+04  0.7818609E-02  0.8321809E-01
       -2   -1    0    0    0  501  0.00000000000E+00  0.00000000000E+00  0.15125006944E+04  0.15125006944E+04  0.25500000920E-02 0.  1.
        2   -1    0    0  501    0  0.00000000000E+00  0.00000000000E+00 -0.12418701222E+04  0.12418701222E+04  0.25500000920E-02 0. -1.
    10030    2    1    2    0    0  0.00000000000E+00  0.00000000000E+00  0.27063057220E+03  0.27543708167E+04  0.27410431754E+04 0.  0.
        5    1    3    3  502    0 -0.62048242968E+03 -0.11490350908E+04  0.55330325428E+03  0.14182547961E+04  0.46999998093E+01 0.  1.
       -5    1    3    3    0  502  0.62048242968E+03  0.11490350908E+04 -0.28267268207E+03  0.13361160206E+04  0.46999998093E+01 0. -1.
</event>
<event>
 5   0  0.1993815E-05  0.2436012E+04  0.7818609E-02  0.8426143E-01
       -1   -1    0    0    0  501  0.00000000000E+00  0.00000000000E+00  0.86509739428E+03  0.86509739430E+03  0.50400001928E-02 0.  1.
        1   -1    0    0  501    0  0.00000000000E+00  0.00000000000E+00 -0.17148807267E+04  0.17148807267E+04  0.50400001928E-02 0. -1.
    10030    2    1    2    0    0  0.00000000000E+00  0.00000000000E+00 -0.84978333241E+03  0.25799781210E+04  0.24360121906E+04 0.  0.
        5    1    3    3  502    0 -0.37974408456E+03 -0.10913105233E+04 -0.83282016253E+03  0.14243509894E+04  0.46999998093E+01 0. -1.
       -5    1    3    3    0  502  0.37974408456E+03  0.10913105233E+04 -0.16963169880E+02  0.11556271315E+04  0.46999998093E+01 0.  1.
</event>
<event>
 5   0  0.2159405E-05  0.2570096E+04  0.7818609E-02  0.8378431E-01
        1   -1    0    0  501    0  0.00000000000E+00  0.00000000000E+00  0.11944784596E+04  0.11944784597E+04  0.50400001928E-02 0. -1.
       -1   -1    0    0    0  501  0.00000000000E+00  0.00000000000E+00 -0.13824845288E+04  0.13824845288E+04  0.50400001928E-02 0.  1.
    10030    2    1    2    0    0  0.00000000000E+00  0.00000000000E+00 -0.18800606919E+03  0.25769629885E+04  0.25700957107E+04 0.  0.
        3    1    3    3  502    0  0.43587480058E+03 -0.49177868838E+03  0.10132641587E+04  0.12076992116E+04  0.10100000352E+00 0. -1.
       -3    1    3    3    0  502 -0.43587480058E+03  0.49177868838E+03 -0.12012702279E+04  0.13692637769E+04  0.10100000352E+00 0.  1.
</event>
<event>
 5   0  0.5182179E-05  0.1674540E+04  0.7818609E-02  0.8776020E-01
       -2   -1    0    0    0  501  0.00000000000E+00  0.00000000000E+00  0.96396484956E+03  0.96396484956E+03  0.25500000920E-02 0. -1.
        2   -1    0    0  501    0  0.00000000000E+00  0.00000000000E+00 -0.72722670906E+03  0.72722670906E+03  0.25500000920E-02 0.  1.
    10030    2    1    2    0    0  0.00000000000E+00  0.00000000000E+00  0.23673814050E+03  0.16911915586E+04  0.16745399191E+04 0.  0.
        3    1    3    3  502    0 -0.22689392142E+03  0.17926754994E+03 -0.67519456725E+03  0.73451032660E+03  0.10100000352E+00 0.  1.
       -3    1    3    3    0  502  0.22689392142E+03 -0.17926754994E+03  0.91193270775E+03  0.95668123202E+03  0.10100000352E+00 0. -1.
</event>
<event>
 5   0  0.5170532E-05  0.2636763E+04  0.7818609E-02  0.8355820E-01
       -2   -1    0    0    0  501  0.00000000000E+00  0.00000000000E+00  0.11968460941E+04  0.11968460941E+04  0.25500000920E-02 0.  1.
        2   -1    0    0  501    0  0.00000000000E+00  0.00000000000E+00 -0.14522582505E+04  0.14522582505E+04  0.25500000920E-02 0. -1.
    10030    2    1    2    0    0  0.00000000000E+00  0.00000000000E+00 -0.25541215634E+03  0.26491043446E+04  0.26367628750E+04 0.  0.
        1    1    3    3  502    0  0.10346424314E+04 -0.72916035672E+03  0.24276069610E+03  0.12888337915E+04  0.50400001928E-02 0.  1.
       -1    1    3    3    0  502 -0.10346424314E+04  0.72916035672E+03 -0.49817285244E+03  0.13602705530E+04  0.50400001928E-02 0. -1.
</event>
<event>
 5   0  0.5170532E-05  0.2529083E+04  0.7818609E-02  0.8392697E-01
       -2   -1    0    0    0  501  0.00000000000E+00  0.00000000000E+00  0.10859985091E+04  0.10859985091E+04  0.25500000920E-02 0. -1.
        2   -1    0    0  501    0  0.00000000000E+00  0.00000000000E+00 -0.14724376229E+04  0.14724376229E+04  0.25500000920E-02 0.  1.
    10030    2    1    2    0    0  0.00000000000E+00  0.00000000000E+00 -0.38643911382E+03  0.25584361319E+04  0.25290828876E+04 0.  0.
        1    1    3    3  502    0  0.56547109749E+03  0.22100947614E+02  0.95075420917E+03  0.11064264911E+04  0.50400001928E-02 0. -1.
       -1    1    3    3    0  502 -0.56547109749E+03 -0.22100947614E+02 -0.13371933230E+04  0.14520096408E+04  0.50400001928E-02 0.  1.
</event>
<event>
 5   0  0.5036452E-05  0.2280781E+04  0.7818609E-02  0.8485538E-01
        2   -1    0    0  501    0  0.00000000000E+00  0.00000000000E+00  0.18019584236E+04  0.18019584236E+04  0.25500000920E-02 0. -1.
       -2   -1    0    0    0  501  0.00000000000E+00  0.00000000000E+00 -0.72170933352E+03  0.72170933353E+03  0.25500000920E-02 0.  1.
    10030    2    1    2    0    0  0.00000000000E+00  0.00000000000E+00  0.10802490901E+04  0.25236677572E+04  0.22807807549E+04 0.  0.
        2    1    3    3  502    0 -0.25555790991E+03  0.88884324703E+03  0.12783618694E+04  0.15778343488E+04  0.25500000920E-02 0. -1.
       -2    1    3    3    0  502  0.25555790991E+03 -0.88884324703E+03 -0.19811277926E+03  0.94583340839E+03  0.25500000920E-02 0.  1.
</event>
<event>
 5   0  0.2163800E-05  0.2588296E+04  0.7818609E-02  0.8372188E-01
       -1   -1    0    0    0  501  0.00000000000E+00  0.00000000000E+00  0.10748780975E+04  0.10748780975E+04  0.50400001928E-02 0.  1.
        1   -1    0    0  501    0  0.00000000000E+00  0.00000000000E+00 -0.15581475334E+04  0.15581475334E+04  0.50400001928E-02 0. -1.
    10030    2    1    2    0    0  0.00000000000E+00  0.00000000000E+00 -0.48326943594E+03  0.26330256309E+04  0.25882956990E+04 0.  0.
        1    1    3    3  502    0 -0.89313602539E+03  0.65760818270E+03  0.43673132945E+03  0.11920045033E+04  0.50400001928E-02 0.  1.
       -1    1    3    3    0  502  0.89313602539E+03 -0.65760818270E+03 -0.92000076540E+03  0.14410211276E+04  0.50400001928E-02 0. -1.
</event>
<event>
 5   0  0.5170532E-05  0.2562483E+04  0.7818609E-02  0.8381058E-01
       -2   -1    0    0    0  501  0.00000000000E+00  0.00000000000E+00  0.92537009771E+03  0.92537009771E+03  0.25500000920E-02 0.  1.
        2   -1    0    0  501    0  0.00000000000E+00  0.00000000000E+00 -0.17739710570E+04  0.17739710570E+04  0.25500000920E-02 0. -1.
    10030    2    1    2    0    0  0.00000000000E+00  0.00000000000E+00 -0.84860095925E+03  0.26993411547E+04  0.25624829914E+04 0.  0.
        1    1    3    3  502    0  0.12068035738E+04  0.17715690069E+03 -0.83744658594E+03  0.14795527086E+04  0.50400001928E-02 0. -1.
       -1    1    3    3    0  502 -0.12068035738E+04 -0.17715690069E+03 -0.11154373311E+02  0.12197884461E+04  0.50400001928E-02 0.  1.
</event>
<event>
 5   0  0.5049803E-05  0.2551926E+04  0.7818609E-02  0.8384717E-01
       -2   -1    0    0    0  501  0.00000000000E+00  0.00000000000E+00  0.90297399263E+03  0.90297399263E+03  0.25500000920E-02 0. -1.
        2   -1    0    0  501    0  0.00000000000E+00  0.00000000000E+00 -0.18030210217E+04  0.18030210217E+04  0.25500000920E-02 0.  1.
    10030    2    1    2    0    0  0.00000000000E+00  0.00000000000E+00 -0.90004702909E+03  0.27059950144E+04  0.25519256187E+04 0.  0.
        4    1    3    3  502    0 -0.27055331696E+03  0.51232106368E+03  0.75545289666E+03  0.95204131296E+03  0.12699999809E+01 0. -1.
       -4    1    3    3    0  502  0.27055331696E+03 -0.51232106368E+03 -0.16554999257E+04  0.17539537014E+04  0.12699999809E+01 0.  1.
</event>
<event>
 5   0  0.5182179E-05  0.2585778E+04  0.7818609E-02  0.8373048E-01
       -2   -1    0    0    0  501  0.00000000000E+00  0.00000000000E+00  0.62171942891E+03  0.62171942892E+03  0.25500000920E-02 0.  1.
        2   -1    0    0  501    0  0.00000000000E+00  0.00000000000E+00 -0.26886113838E+04  0.26886113838E+04  0.25500000920E-02 0. -1.
    10030    2    1    2    0    0  0.00000000000E+00  0.00000000000E+00 -0.20668919549E+04  0.33103308127E+04  0.25857779751E+04 0.  0.
        3    1    3    3  502    0 -0.61716625435E+02 -0.10836728826E+04 -0.19327000360E+04  0.22166382875E+04  0.10100000352E+00 0. -1.
       -3    1    3    3    0  502  0.61716625435E+02  0.10836728826E+04 -0.13419191891E+03  0.10936925252E+04  0.10100000352E+00 0.  1.
</event>
<event>
 5   0  0.1993815E-05  0.2704966E+04  0.7818609E-02  0.8333396E-01
       -1   -1    0    0    0  501  0.00000000000E+00  0.00000000000E+00  0.68640313376E+03  0.68640313377E+03  0.50400001928E-02 0. -1.
        1   -1    0    0  501    0  0.00000000000E+00  0.00000000000E+00 -0.26649204952E+04  0.26649204952E+04  0.50400001928E-02 0.  1.
    10030    2    1    2    0    0  0.00000000000E+00  0.00000000000E+00 -0.19785173615E+04  0.33513236290E+04  0.27049656406E+04 0.  0.
        5    1    3    3  502    0  0.31691439309E+03 -0.12150734229E+04 -0.36687833594E+03  0.13082277932E+04  0.46999998093E+01 0.  1.
       -5    1    3    3    0  502 -0.31691439309E+03  0.12150734229E+04 -0.16116390255E+04  0.20430958358E+04  0.46999998093E+01 0. -1.
</event>
<event>
 5   0  0.2072710E-05  0.2727683E+04  0.7818609E-02  0.8326078E-01
       -1   -1    0    0    0  501  0.00000000000E+00  0.00000000000E+00  0.10266505119E+04  0.10266505119E+04  0.50400001928E-02 0. -1.
        1   -1    0    0  501    0  0.00000000000E+00  0.00000000000E+00 -0.18117790243E+04  0.18117790243E+04  0.50400001928E-02 0.  1.
    10030    2    1    2    0    0  0.00000000000E+00  0.00000000000E+00 -0.78512851236E+03  0.28384295362E+04  0.27276831654E+04 0.  0.
        2    1    3    3  502    0 -0.50005013905E+03 -0.26630017455E+01 -0.17129414859E+04  0.17844399029E+04  0.25500000920E-02 0.  1.
       -2    1    3    3    0  502  0.50005013905E+03  0.26630017455E+01  0.92781297353E+03  0.10539896332E+04  0.25500000920E-02 0. -1.
</event>
<event>
 5   0  0.5170532E-05  0.2596519E+04  0.7818609E-02  0.8369385E-01
       -2   -1    0    0    0  501  0.00000000000E+00  0.00000000000E+00  0.86318212163E+03  0.86318212163E+03  0.25500000920E-02 0.  1.
        2   -1    0    0  501    0  0.00000000000E+00  0.00000000000E+00 -0.19526320900E+04  0.19526320900E+04  0.25500000920E-02 0. -1.
    10030    2    1    2    0    0  0.00000000000E+00  0.00000000000E+00 -0.10894499683E+04  0.28158142116E+04  0.25965185231E+04 0.  0.
        1    1    3    3  502    0  0.19778314485E+03  0.43128540647E+02  0.84596190610E+03  0.86984469304E+03  0.50400001928E-02 0.  1.
       -1    1    3    3    0  502 -0.19778314485E+03 -0.43128540647E+02 -0.19354118744E+04  0.19459695185E+04  0.50400001928E-02 0. -1.
</event>
<event>
 5   0  0.5049803E-05  0.2548576E+04  0.7818609E-02  0.8385881E-01
        2   -1    0    0  501    0  0.00000000000E+00  0.00000000000E+00  0.11702539944E+04  0.11702539944E+04  0.25500000920E-02 0.  1.
       -2   -1    0    0    0  501  0.00000000000E+00  0.00000000000E+00 -0.13875710050E+04  0.13875710050E+04  0.25500000920E-02 0. -1.
    10030    2    1    2    0    0  0.00000000000E+00  0.00000000000E+00 -0.21731701062E+03  0.25578249994E+04  0.25485764741E+04 0.  0.
        4    1    3    3  502    0 -0.42136098369E+03 -0.83399363430E+03 -0.97824282305E+03  0.13527938107E+04  0.12699999809E+01 0. -1.
       -4    1    3    3    0  502  0.42136098369E+03  0.83399363430E+03  0.76092581243E+03  0.12050311886E+04  0.12699999809E+01 0.  1.
</event>
<event>
 5   0  0.5182179E-05  0.2625165E+04  0.7818609E-02  0.8359703E-01
        2   -1    0    0  501    0  0.00000000000E+00  0.00000000000E+00  0.22768661491E+04  0.22768661491E+04  0.25500000920E-02 0.  1.
       -2   -1    0    0    0  501  0.00000000000E+00  0.00000000000E+00 -0.75668586089E+03  0.75668586090E+03  0.25500000920E-02 0. -1.
    10030    2    1    2    0    0  0.00000000000E+00  0.00000000000E+00  0.15201802882E+04  0.30335520100E+04  0.26251646975E+04 0.  0.
        3    1    3    3  502    0  0.12513466369E+04  0.22562009882E+03  0.11364919661E+04  0.17053993180E+04  0.10100000352E+00 0.  1.
       -3    1    3    3    0  502 -0.12513466369E+04 -0.22562009882E+03  0.38368832212E+03  0.13281526920E+04  0.10100000352E+00 0. -1.
</event>
<event>
 5   0  0.2159405E-05  0.2243035E+04  0.7818609E-02  0.8500727E-01
        1   -1    0    0  501    0  0.00000000000E+00  0.00000000000E+00  0.10820042501E+04  0.10820042501E+04  0.50400001928E-02 0.  1.
       -1   -1    0    0    0  501  0.00000000000E+00  0.00000000000E+00 -0.11624736443E+04  0.11624736443E+04  0.50400001928E-02 0. -1.
    10030    2    1    2    0    0  0.00000000000E+00  0.00000000000E+00 -0.80469394168E+02  0.22444778944E+04  0.22430349295E+04 0.  0.
        3    1    3    3  502    0  0.82137172004E+02 -0.34457290529E+03 -0.11050265778E+04  0.11604140425E+04  0.10100000352E+00 0. -1.
       -3    1    3    3    0  502 -0.82137172004E+02  0.34457290529E+03  0.10245571837E+04  0.10840638519E+04  0.10100000352E+00 0.  1.
</event>
<event>
 5   0  0.5036452E-05  0.2578497E+04  0.7818609E-02  0.8375542E-01
       -2   -1    0    0    0  501  0.00000000000E+00  0.00000000000E+00  0.73912905665E+03  0.73912905666E+03  0.25500000920E-02 0. -1.
        2   -1    0    0  501    0  0.00000000000E+00  0.00000000000E+00 -0.22488115563E+04  0.22488115563E+04  0.25500000920E-02 0.  1.
    10030    2    1    2    0    0  0.00000000000E+00  0.00000000000E+00 -0.15096824997E+04  0.29879406130E+04  0.25784972090E+04 0.  0.
        2    1    3    3  502    0 -0.86817728626E+03  0.68574169037E+03  0.12230135956E+02  0.11064009411E+04  0.25500000920E-02 0. -1.
       -2    1    3    3    0  502  0.86817728626E+03 -0.68574169037E+03 -0.15219126356E+04  0.18815396719E+04  0.25500000920E-02 0.  1.
</event>
<event>
 5   0  0.2163800E-05  0.2657566E+04  0.7818609E-02  0.8348906E-01
        1   -1    0    0  501    0  0.00000000000E+00  0.00000000000E+00  0.19836560173E+04  0.19836560173E+04  0.50400001928E-02 0. -1.
       -1   -1    0    0    0  501  0.00000000000E+00  0.00000000000E+00 -0.89010586060E+03  0.89010586061E+03  0.50400001928E-02 0.  1.
    10030    2    1    2    0    0  0.00000000000E+00  0.00000000000E+00  0.10935501567E+04  0.28737618779E+04  0.26575656879E+04 0.  0.
        1    1    3    3  502    0  0.19112402277E+03  0.11518628053E+04  0.12326855644E+04  0.16978898713E+04  0.50400001928E-02 0.  1.
       -1    1    3    3    0  502 -0.19112402277E+03 -0.11518628053E+04 -0.13913540766E+03  0.11758720067E+04  0.50400001928E-02 0. -1.
</event>
<event>
 5   0  0.2072710E-05  0.2576462E+04  0.7818609E-02  0.8376241E-01
       -1   -1    0    0    0  501  0.00000000000E+00  0.00000000000E+00  0.11332523356E+04  0.11332523356E+04  0.50400001928E-02 0.  1.
        1   -1    0    0  501    0  0.00000000000E+00  0.00000000000E+00 -0.14644039520E+04  0.14644039520E+04  0.50400001928E-02 0. -1.
    10030    2    1    2    0    0  0.00000000000E+00  0.00000000000E+00 -0.33115161641E+03  0.25976562876E+04  0.25764620695E+04 0.  0.
        2    1    3    3  502    0  0.97413860879E+03  0.71315496436E+02  0.68127845791E+03  0.11908703819E+04  0.25500000920E-02 0.  1.
       -2    1    3    3    0  502 -0.97413860879E+03 -0.71315496436E+02 -0.10124300743E+04  0.14067859057E+04  0.25500000920E-02 0. -1.
</event>
<event>
 5   0  0.4955675E-05  0.2643511E+04  0.7818609E-02  0.8353570E-01
        2   -1    0    0  501    0  0.00000000000E+00  0.00000000000E+00  0.13531001473E+04  0.13531001473E+04  0.25500000920E-02 0. -1.
       -2   -1    0    0    0  501  0.00000000000E+00  0.00000000000E+00 -0.12911371298E+04  0.12911371298E+04  0.25500000920E-02 0.  1.
    10030    2    1    2    0    0  0.00000000000E+00  0.00000000000E+00  0.61963017471E+02  0.26442372771E+04  0.26435111806E+04 0.  0.
        5    1    3    3  502    0  0.78851647660E+03  0.10558178203E+04  0.13350964752E+03  0.13245212039E+04  0.46999998093E+01 0.  1.
       -5    1    3    3    0  502 -0.78851647660E+03 -0.10558178203E+04 -0.71546630053E+02  0.13197160732E+04  0.46999998093E+01 0. -1.
</event>
<event>
 5   0  0.2163800E-05  0.2539673E+04  0.7818609E-02  0.8388987E-01
        1   -1    0    0  501    0  0.00000000000E+00  0.00000000000E+00  0.74876215132E+03  0.74876215133E+03  0.50400001928E-02 0. -1.
       -1   -1    0    0    0  501  0.00000000000E+00  0.00000000000E+00 -0.21535332150E+04  0.21535332150E+04  0.50400001928E-02 0.  1.
    10030    2    1    2    0    0  0.00000000000E+00  0.00000000000E+00 -0.14047710637E+04  0.29022953663E+04  0.25396725482E+04 0.  0.
        1    1    3    3  502    0 -0.12633586460E+04  0.12796288124E+03 -0.69566391846E+03  0.14478942831E+04  0.50400001928E-02 0.  1.
       -1    1    3    3    0  502  0.12633586460E+04 -0.12796288124E+03 -0.70910714519E+03  0.14544010832E+04  0.50400001928E-02 0. -1.
</event>
<event>
 5   0  0.5049803E-05  0.2375794E+04  0.7818609E-02  0.8448622E-01
       -2   -1    0    0    0  501  0.00000000000E+00  0.00000000000E+00  0.91883242457E+03  0.91883242457E+03  0.25500000920E-02 0. -1.
        2   -1    0    0  501    0  0.00000000000E+00  0.00000000000E+00 -0.15357525442E+04  0.15357525442E+04  0.25500000920E-02 0.  1.
    10030    2    1    2    0    0  0.00000000000E+00  0.00000000000E+00 -0.61692011967E+03  0.24545849688E+04  0.23757939589E+04 0.  0.
        4    1    3    3  502    0  0.86318652853E+03  0.55456192666E+03  0.31011772046E+03  0.10718229924E+04  0.12699999809E+01 0. -1.
       -4    1    3    3    0  502 -0.86318652853E+03 -0.55456192666E+03 -0.92703784014E+03  0.13827619764E+04  0.12699999809E+01 0.  1.
</event>
<event>
 5   0  0.1698625E-05  0.1309284E+04  0.7818609E-02  0.9022235E-01
        3   -1    0    0  501    0  0.00000000000E+00  0.00000000000E+00  0.39470885201E+03  0.39470886493E+03  0.10100000352E+00 0.  1.
       -3   -1    0    0    0  501  0.00000000000E+00  0.00000000000E+00 -0.10857525610E+04  0.10857525657E+04  0.10100000352E+00 0. -1.
    10030    2    1    2    0    0  0.00000000000E+00  0.00000000000E+00 -0.69104370904E+03  0.14804614307E+04  0.13092840181E+04 0.  0.
        3    1    3    3  502    0 -0.10073598504E+03  0.42012837278E+03  0.21061499091E+03  0.48063944168E+03  0.10100000352E+00 0.  1.
       -3    1    3    3    0  502  0.10073598504E+03 -0.42012837278E+03 -0.90165869995E+03  0.99982198900E+03  0.10100000352E+00 0. -1.
</event>
<event>
 5   0  0.5182179E-05  0.2568147E+04  0.7818609E-02  0.8379102E-01
       -2   -1    0    0    0  501  0.00000000000E+00  0.00000000000E+00  0.12353042233E+04  0.12353042233E+04  0.25500000920E-02 0. -1.
        2   -1    0    0  501    0  0.00000000000E+00  0.00000000000E+00 -0.13347682959E+04  0.13347682959E+04  0.25500000920E-02 0.  1.
    10030    2    1    2    0    0  0.00000000000E+00  0.00000000000E+00 -0.99464072551E+02  0.25700725192E+04  0.25681471243E+04 0.  0.
        3    1    3    3  502    0 -0.55586632702E+03  0.82964311572E+03  0.75805949489E+03  0.12537740151E+04  0.10100000352E+00 0. -1.
       -3    1    3    3    0  502  0.55586632702E+03 -0.82964311572E+03 -0.85752356744E+03  0.13162985041E+04  0.10100000352E+00 0.  1.
</event>
<event>
 5   0  0.4955675E-05  0.2505188E+04  0.7818609E-02  0.8401140E-01
        2   -1    0    0  501    0  0.00000000000E+00  0.00000000000E+00  0.81823211849E+03  0.81823211849E+03  0.25500000920E-02 0. -1.
       -2   -1    0    0    0  501  0.00000000000E+00  0.00000000000E+00 -0.19175388875E+04  0.19175388875E+04  0.25500000920E-02 0.  1.
    10030    2    1    2    0    0  0.00000000000E+00  0.00000000000E+00 -0.10993067690E+04  0.27357710059E+04  0.25051881416E+04 0.  0.
        5    1    3    3  502    0 -0.45001504800E+03  0.97099038209E+02 -0.18217901598E+04  0.18790644595E+04  0.46999998093E+01 0.  1.
       -5    1    3    3    0  502  0.45001504800E+03 -0.97099038209E+02  0.72248339084E+03  0.85670654643E+03  0.46999998093E+01 0. -1.
</event>
<event>
 5   0  0.1993815E-05  0.2575709E+04  0.7818609E-02  0.8376499E-01
       -1   -1    0    0    0  501  0.00000000000E+00  0.00000000000E+00  0.68886083489E+03  0.68886083491E+03  0.50400001928E-02 0. -1.
        1   -1    0    0  501    0  0.00000000000E+00  0.00000000000E+00 -0.24076990293E+04  0.24076990293E+04  0.50400001928E-02 0.  1.
    10030    2    1    2    0    0  0.00000000000E+00  0.00000000000E+00 -0.17188381944E+04  0.30965598642E+04  0.25757092720E+04 0.  0.
        5    1    3    3  502    0 -0.89244425118E+03  0.91970733810E+03 -0.10125738399E+04  0.16332930540E+04  0.46999998093E+01 0. -1.
       -5    1    3    3    0  502  0.89244425118E+03 -0.91970733810E+03 -0.70626435452E+03  0.14632668102E+04  0.46999998093E+01 0.  1.
</event>
<event>
 5   0  0.5036452E-05  0.2580957E+04  0.7818609E-02  0.8374699E-01
        2   -1    0    0  501    0  0.00000000000E+00  0.00000000000E+00  0.15193745305E+04  0.15193745305E+04  0.25500000920E-02 0. -1.
       -2   -1    0    0    0  501  0.00000000000E+00  0.00000000000E+00 -0.10960656461E+04  0.10960656461E+04  0.25500000920E-02 0.  1.
    10030    2    1    2    0    0  0.00000000000E+00  0.00000000000E+00  0.42330888441E+03  0.26154401766E+04  0.25809565873E+04 0.  0.
        2    1    3    3  502    0 -0.12636817169E+04  0.21103139837E+03  0.54964832262E+02  0.12823598814E+04  0.25500000920E-02 0. -1.
       -2    1    3    3    0  502  0.12636817169E+04 -0.21103139837E+03  0.36834405215E+03  0.13330802952E+04  0.25500000920E-02 0.  1.
</event>
<event>
 5   0  0.5049803E-05  0.2569144E+04  0.7818609E-02  0.8378759E-01
        2   -1    0    0  501    0  0.00000000000E+00  0.00000000000E+00  0.25011075436E+04  0.25011075436E+04  0.25500000920E-02 0.  1.
       -2   -1    0    0    0  501  0.00000000000E+00  0.00000000000E+00 -0.65975767917E+03  0.65975767918E+03  0.25500000920E-02 0. -1.
    10030    2    1    2    0    0  0.00000000000E+00  0.00000000000E+00  0.18413498644E+04  0.31608652228E+04  0.25691437549E+04 0.  0.
        4    1    3    3  502    0  0.61371271778E+00  0.10822209952E+04  0.17721057155E+04  0.20764303357E+04  0.12699999809E+01 0.  1.
       -4    1    3    3    0  502 -0.61371271778E+00 -0.10822209952E+04  0.69244148891E+02  0.10844348871E+04  0.12699999809E+01 0. -1.
</event>
<event>
 5   0  0.5049803E-05  0.2607497E+04  0.7818609E-02  0.8365659E-01
        2   -1    0    0  501    0  0.00000000000E+00  0.00000000000E+00  0.13312060142E+04  0.13312060142E+04  0.25500000920E-02 0. -1.
       -2   -1    0    0    0  501  0.00000000000E+00  0.00000000000E+00 -0.12768569758E+04  0.12768569758E+04  0.25500000920E-02 0.  1.
    10030    2    1    2    0    0  0.00000000000E+00  0.00000000000E+00  0.54349038356E+02  0.26080629900E+04  0.26074966427E+04 0.  0.
        4    1    3    3  502    0 -0.10066977956E+04  0.37818206859E+03 -0.71007169263E+03  0.12886681304E+04  0.12699999809E+01 0.  1.
       -4    1    3    3    0  502  0.10066977956E+04 -0.37818206859E+03  0.76442073098E+03  0.13193948596E+04  0.12699999809E+01 0. -1.
</event>
<event>
 5   0  0.1954502E-05  0.2624659E+04  0.7818609E-02  0.8359873E-01
       -1   -1    0    0    0  501  0.00000000000E+00  0.00000000000E+00  0.80694697076E+03  0.80694697078E+03  0.50400001928E-02 0.  1.
        1   -1    0    0  501    0  0.00000000000E+00  0.00000000000E+00 -0.21342285768E+04  0.21342285768E+04  0.50400001928E-02 0. -1.
    10030    2    1    2    0    0  0.00000000000E+00  0.00000000000E+00 -0.13272816060E+04  0.29411755476E+04  0.26246594331E+04 0.  0.
        4    1    3    3  502    0 -0.55042676304E+03  0.29135522609E+03 -0.19580837025E+04  0.20547386423E+04  0.12699999809E+01 0. -1.
       -4    1    3    3    0  502  0.55042676304E+03 -0.29135522609E+03  0.63080209647E+03  0.88643690529E+03  0.12699999809E+01 0.  1.
</event>
<event>
 5   0  0.1993815E-05  0.2637854E+04  0.7818609E-02  0.8355456E-01
        1   -1    0    0  501    0  0.00000000000E+00  0.00000000000E+00  0.11352374464E+04  0.11352374464E+04  0.50400001928E-02 0.  1.
       -1   -1    0    0    0  501  0.00000000000E+00  0.00000000000E+00 -0.15323383393E+04  0.15323383393E+04  0.50400001928E-02 0. -1.
    10030    2    1    2    0    0  0.00000000000E+00  0.00000000000E+00 -0.39710089290E+03  0.26675757858E+04  0.26378535694E+04 0.  0.
        5    1    3    3  502    0 -0.11209826404E+04 -0.21898570291E+03 -0.86551875403E+03  0.14330741857E+04  0.46999998093E+01 0. -1.
       -5    1    3    3    0  502  0.11209826404E+04  0.21898570291E+03  0.46841786113E+03  0.12345016001E+04  0.46999998093E+01 0.  1.
</event>
<event>
 5   0  0.2163800E-05  0.2704100E+04  0.7818609E-02  0.8333676E-01
        1   -1    0    0  501    0  0.00000000000E+00  0.00000000000E+00  0.15573183227E+04  0.15573183227E+04  0.50400001928E-02 0. -1.
       -1   -1    0    0    0  501  0.00000000000E+00  0.00000000000E+00 -0.11738377570E+04  0.11738377570E+04  0.50400001928E-02 0.  1.
    10030    2    1    2    0    0  0.00000000000E+00  0.00000000000E+00  0.38348056573E+03  0.27311560797E+04  0.27040998849E+04 0.  0.
        1    1    3    3  502    0 -0.89505502528E+03  0.34249126154E+03 -0.77153998642E+03  0.12303242309E+04  0.50400001928E-02 0.  1.
       -1    1    3    3    0  502  0.89505502528E+03 -0.34249126154E+03  0.11550205522E+04  0.15008318488E+04  0.50400001928E-02 0. -1.
</event>
<event>
 5   0  0.1954502E-05  0.2298736E+04  0.7818609E-02  0.8478420E-01
        1   -1    0    0  501    0  0.00000000000E+00  0.00000000000E+00  0.11890949361E+04  0.11890949361E+04  0.50400001928E-02 0. -1.
       -1   -1    0    0    0  501  0.00000000000E+00  0.00000000000E+00 -0.11109679849E+04  0.11109679849E+04  0.50400001928E-02 0.  1.
    10030    2    1    2    0    0  0.00000000000E+00  0.00000000000E+00  0.78126951191E+02  0.23000629210E+04  0.22987356569E+04 0.  0.
        4    1    3    3  502    0  0.26656310438E+03 -0.79621571431E+03 -0.74626513216E+03  0.11233559599E+04  0.12699999809E+01 0.  1.
       -4    1    3    3    0  502 -0.26656310438E+03  0.79621571431E+03  0.82439208335E+03  0.11767069611E+04  0.12699999809E+01 0. -1.
</event>
<event>
 5   0  0.2163800E-05  0.2465616E+04  0.7818609E-02  0.8415338E-01
        1   -1    0    0  501    0  0.00000000000E+00  0.00000000000E+00  0.10375207816E+04  0.10375207816E+04  0.50400001928E-02 0.  1.
       -1   -1    0    0    0  501  0.00000000000E+00  0.00000000000E+00 -0.14648533851E+04  0.14648533851E+04  0.50400001928E-02 0. -1.
    10030    2    1    2    0    0  0.00000000000E+00  0.00000000000E+00 -0.42733260349E+03  0.25023741667E+04  0.24656162143E+04 0.  0.
        1    1    3    3  502    0  0.21999051325E+03  0.22489486428E+03 -0.14234276649E+04  0.14577790790E+04  0.50400001928E-02 0. -1.
       -1    1    3    3    0  502 -0.21999051325E+03 -0.22489486428E+03  0.99609506142E+03  0.10445950877E+04  0.50400001928E-02 0.  1.
</event>
<event>
 5   0  0.5036452E-05  0.2599406E+04  0.7818609E-02  0.8368403E-01
       -2   -1    0    0    0  501  0.00000000000E+00  0.00000000000E+00  0.66377117764E+03  0.66377117765E+03  0.25500000920E-02 0.  1.
        2   -1    0    0  501    0  0.00000000000E+00  0.00000000000E+00 -0.25448945350E+04  0.25448945350E+04  0.25500000920E-02 0. -1.
    10030    2    1    2    0    0  0.00000000000E+00  0.00000000000E+00 -0.18811233573E+04  0.32086657126E+04  0.25994058109E+04 0.  0.
        2    1    3    3  502    0  0.18931188726E+03 -0.12762461231E+04 -0.74701712857E+03  0.14908647651E+04  0.25500000920E-02 0.  1.
       -2    1    3    3    0  502 -0.18931188726E+03  0.12762461231E+04 -0.11341062288E+04  0.17178009476E+04  0.25500000920E-02 0. -1.
</event>
<event>
 5   0  0.1954502E-05  0.2353186E+04  0.7818609E-02  0.8457241E-01
       -1   -1    0    0    0  501  0.00000000000E+00  0.00000000000E+00  0.14791086071E+04  0.14791086071E+04  0.50400001928E-02 0. -1.
        1   -1    0    0  501    0  0.00000000000E+00  0.00000000000E+00 -0.93594940867E+03  0.93594940868E+03  0.50400001928E-02 0.  1.
    10030    2    1    2    0    0  0.00000000000E+00  0.00000000000E+00  0.54315919839E+03  0.24150580157E+04  0.23531857778E+04 0.  0.
        4    1    3    3  502    0  0.45477244925E+03  0.81144421193E+03 -0.46785684465E+03  0.10412258783E+04  0.12699999809E+01 0.  1.
       -4    1    3    3    0  502 -0.45477244925E+03 -0.81144421193E+03  0.10110160430E+04  0.13738321374E+04  0.12699999809E+01 0. -1.
</event>
<event>
 5   0  0.5049803E-05  0.2481094E+04  0.7818609E-02  0.8409752E-01
       -2   -1    0    0    0  501  0.00000000000E+00  0.00000000000E+00  0.83986775542E+03  0.83986775543E+03  0.25500000920E-02 0.  1.
        2   -1    0    0  501    0  0.00000000000E+00  0.00000000000E+00 -0.18323804455E+04  0.18323804455E+04  0.25500000920E-02 0. -1.
    10030    2    1    2    0    0  0.00000000000E+00  0.00000000000E+00 -0.99251269012E+03  0.26722482010E+04  0.24810943165E+04 0.  0.
        4    1    3    3  502    0 -0.58236524528E+03  0.51334909055E+03  0.54590791957E+03  0.94904880656E+03  0.12699999809E+01 0.  1.
       -4    1    3    3    0  502  0.58236524528E+03 -0.51334909055E+03 -0.15384206097E+04  0.17231993944E+04  0.12699999809E+01 0. -1.
</event>
<event>
 5   0  0.2163800E-05  0.2621083E+04  0.7818609E-02  0.8361075E-01
       -1   -1    0    0    0  501  0.00000000000E+00  0.00000000000E+00  0.16170832248E+04  0.16170832248E+04  0.50400001928E-02 0. -1.
        1   -1    0    0  501    0  0.00000000000E+00  0.00000000000E+00 -0.10621092843E+04  0.10621092843E+04  0.50400001928E-02 0.  1.
    10030    2    1    2    0    0  0.00000000000E+00  0.00000000000E+00  0.55497394055E+03  0.26791925091E+04  0.26210830635E+04 0.  0.
        1    1    3    3  502    0 -0.32786521665E+03 -0.44584910372E+03  0.14917810995E+04  0.15911278618E+04  0.50400001928E-02 0. -1.
       -1    1    3    3    0  502  0.32786521665E+03  0.44584910372E+03 -0.93680715897E+03  0.10880646473E+04  0.50400001928E-02 0.  1.
</event>
<event>
 5   0  0.1993815E-05  0.2635746E+04  0.7818609E-02  0.8356160E-01
        1   -1    0    0  501    0  0.00000000000E+00  0.00000000000E+00  0.14479752021E+04  0.14479752021E+04  0.50400001928E-02 0. -1.
       -1   -1    0    0    0  501  0.00000000000E+00  0.00000000000E+00 -0.11994602793E+04  0.11994602793E+04  0.50400001928E-02 0.  1.
    10030    2    1    2    0    0  0.00000000000E+00  0.00000000000E+00  0.24851492278E+03  0.26474354814E+04  0.26357456177E+04 0.  0.
        5    1    3    3  502    0  0.27909853241E+03  0.12645529833E+04 -0.12131904298E+03  0.13006654599E+04  0.46999998093E+01 0.  1.
       -5    1    3    3    0  502 -0.27909853241E+03 -0.12645529833E+04  0.36983396576E+03  0.13467700215E+04  0.46999998093E+01 0. -1.
</event>
<event>
 5   0  0.5036452E-05  0.2622994E+04  0.7818609E-02  0.8360432E-01
       -2   -1    0    0    0  501  0.00000000000E+00  0.00000000000E+00  0.10474458301E+04  0.10474458301E+04  0.25500000920E-02 0. -1.
        2   -1    0    0  501    0  0.00000000000E+00  0.00000000000E+00 -0.16421127801E+04  0.16421127801E+04  0.25500000920E-02 0.  1.
    10030    2    1    2    0    0  0.00000000000E+00  0.00000000000E+00 -0.59466694998E+03  0.26895586101E+04  0.26229938498E+04 0.  0.
        2    1    3    3  502    0  0.37769341024E+03 -0.12522356789E+04 -0.39609853959E+03  0.13666164643E+04  0.25500000920E-02 0. -1.
       -2    1    3    3    0  502 -0.37769341024E+03  0.12522356789E+04 -0.19856841040E+03  0.13229421458E+04  0.25500000920E-02 0.  1.
</event>
<event>
 5   0  0.5182179E-05  0.2499633E+04  0.7818609E-02  0.8403116E-01
        2   -1    0    0  501    0  0.00000000000E+00  0.00000000000E+00  0.11426892821E+04  0.11426892821E+04  0.25500000920E-02 0.  1.
       -2   -1    0    0    0  501  0.00000000000E+00  0.00000000000E+00 -0.13669870914E+04  0.13669870914E+04  0.25500000920E-02 0. -1.
    10030    2    1    2    0    0  0.00000000000E+00  0.00000000000E+00 -0.22429780925E+03  0.25096763735E+04  0.24996331716E+04 0.  0.
        3    1    3    3  502    0  0.11332177632E+04  0.50862456377E+03  0.26827052292E+02  0.12424174607E+04  0.10100000352E+00 0.  1.
       -3    1    3    3    0  502 -0.11332177632E+04 -0.50862456377E+03 -0.25112486154E+03  0.12672589128E+04  0.10100000352E+00 0. -1.
</event>
<event>
 5   0  0.4955675E-05  0.2390091E+04  0.7818609E-02  0.8443223E-01
        2   -1    0    0  501    0  0.00000000000E+00  0.00000000000E+00  0.13610511189E+04  0.13610511189E+04  0.25500000920E-02 0. -1.
       -2   -1    0    0    0  501  0.00000000000E+00  0.00000000000E+00 -0.10492872652E+04  0.10492872652E+04  0.25500000920E-02 0.  1.
    10030    2    1    2    0    0  0.00000000000E+00  0.00000000000E+00  0.31176385364E+03  0.24103383841E+04  0.23900908823E+04 0.  0.
        5    1    3    3  502    0  0.78366262248E+03  0.66494102983E+03  0.77083275677E+03  0.12847096590E+04  0.46999998093E+01 0. -1.
       -5    1    3    3    0  502 -0.78366262248E+03 -0.66494102983E+03 -0.45906890313E+03  0.11256287251E+04  0.46999998093E+01 0.  1.
</event>
<event>
 5   0  0.1954502E-05  0.2620162E+04  0.7818609E-02  0.8361385E-01
       -1   -1    0    0    0  501  0.00000000000E+00  0.00000000000E+00  0.10279606152E+04  0.10279606153E+04  0.50400001928E-02 0. -1.
        1   -1    0    0  501    0  0.00000000000E+00  0.00000000000E+00 -0.16696287721E+04  0.16696287721E+04  0.50400001928E-02 0.  1.
    10030    2    1    2    0    0  0.00000000000E+00  0.00000000000E+00 -0.64166815689E+03  0.26975893874E+04  0.26201623002E+04 0.  0.
        4    1    3    3  502    0 -0.97870353381E+03 -0.86901475339E+03 -0.37965158943E+03  0.13627854530E+04  0.12699999809E+01 0. -1.
       -4    1    3    3    0  502  0.97870353381E+03  0.86901475339E+03 -0.26201656747E+03  0.13348039344E+04  0.12699999809E+01 0.  1.
</event>
<event>
 5   0  0.2163800E-05  0.1448464E+04  0.7818609E-02  0.8919466E-01
        1   -1    0    0  501    0  0.00000000000E+00  0.00000000000E+00  0.74789107779E+03  0.74789107781E+03  0.50400001928E-02 0. -1.
       -1   -1    0    0    0  501  0.00000000000E+00  0.00000000000E+00 -0.70132172117E+03  0.70132172118E+03  0.50400001928E-02 0.  1.
    10030    2    1    2    0    0  0.00000000000E+00  0.00000000000E+00  0.46569356624E+02  0.14492127990E+04  0.14484643702E+04 0.  0.
        1    1    3    3  502    0 -0.60715618667E+03 -0.23536096479E+03  0.34043243855E+03  0.73479770277E+03  0.50400001928E-02 0. -1.
       -1    1    3    3    0  502  0.60715618667E+03  0.23536096479E+03 -0.29386308193E+03  0.71441509622E+03  0.50400001928E-02 0.  1.
</event>
<event>
 5   0  0.1993815E-05  0.2651877E+04  0.7818609E-02  0.8350790E-01
       -1   -1    0    0    0  501  0.00000000000E+00  0.00000000000E+00  0.79160744564E+03  0.79160744566E+03  0.50400001928E-02 0.  1.
        1   -1    0    0  501    0  0.00000000000E+00  0.00000000000E+00 -0.22209407445E+04  0.22209407445E+04  0.50400001928E-02 0. -1.
    10030    2    1    2    0    0  0.00000000000E+00  0.00000000000E+00 -0.14293332989E+04  0.30125481902E+04  0.26518772443E+04 0.  0.
        5    1    3    3  502    0 -0.10800447715E+04 -0.72691168642E+03 -0.10002401663E+04  0.16417672760E+04  0.46999998093E+01 0.  1.
       -5    1    3    3    0  502  0.10800447715E+04  0.72691168642E+03 -0.42909313258E+03  0.13707809142E+04  0.46999998093E+01 0. -1.
</event>
<event>
 5   0  0.5182179E-05  0.2533240E+04  0.7818609E-02  0.8391238E-01
        2   -1    0    0  501    0  0.00000000000E+00  0.00000000000E+00  0.19458425015E+04  0.19458425015E+04  0.25500000920E-02 0. -1.
       -2   -1    0    0    0  501  0.00000000000E+00  0.00000000000E+00 -0.82448930513E+03  0.82448930514E+03  0.25500000920E-02 0.  1.
    10030    2    1    2    0    0  0.00000000000E+00  0.00000000000E+00  0.11213531963E+04  0.27703318066E+04  0.25332400849E+04 0.  0.
        3    1    3    3  502    0 -0.80567010651E+02  0.69950303982E+03  0.17120847878E+04  0.18512238862E+04  0.10100000352E+00 0. -1.
       -3    1    3    3    0  502  0.80567010651E+02 -0.69950303982E+03 -0.59073159151E+03  0.91910792039E+03  0.10100000352E+00 0.  1.
</event>
<event>
 5   0  0.5036452E-05  0.2561779E+04  0.7818609E-02  0.8381301E-01
       -2   -1    0    0    0  501  0.00000000000E+00  0.00000000000E+00  0.14746514451E+04  0.14746514451E+04  0.25500000920E-02 0. -1.
        2   -1    0    0  501    0  0.00000000000E+00  0.00000000000E+00 -0.11125870622E+04  0.11125870622E+04  0.25500000920E-02 0.  1.
    10030    2    1    2    0    0  0.00000000000E+00  0.00000000000E+00  0.36206438295E+03  0.25872385073E+04  0.25617791623E+04 0.  0.
        2    1    3    3  502    0  0.11317727955E+04  0.47541977086E+03 -0.18831325021E+03  0.12419321637E+04  0.25500000920E-02 0.  1.
       -2    1    3    3    0  502 -0.11317727955E+04 -0.47541977086E+03  0.55037763316E+03  0.13453063436E+04  0.25500000920E-02 0. -1.
</event>
<event>
 5   0  0.2072710E-05  0.2592001E+04  0.7818609E-02  0.8370923E-01
        1   -1    0    0  501    0  0.00000000000E+00  0.00000000000E+00  0.17828612781E+04  0.17828612781E+04  0.50400001928E-02 0.  1.
       -1   -1    0    0    0  501  0.00000000000E+00  0.00000000000E+00 -0.94209066852E+03  0.94209066854E+03  0.50400001928E-02 0. -1.
    10030    2    1    2    0    0  0.00000000000E+00  0.00000000000E+00  0.84077060955E+03  0.27249519466E+04  0.25920007511E+04 0.  0.
        2    1    3    3  502    0  0.11464317085E+02  0.12838678051E+03  0.17761057953E+04  0.17807769069E+04  0.25500000920E-02 0.  1.
       -2    1    3    3    0  502 -0.11464317085E+02 -0.12838678051E+03 -0.93533518575E+03  0.94417503974E+03  0.25500000920E-02 0. -1.
</event>
<event>
 5   0  0.2072710E-05  0.2572835E+04  0.7818609E-02  0.8377487E-01
       -1   -1    0    0    0  501  0.00000000000E+00  0.00000000000E+00  0.15106507098E+04  0.15106507098E+04  0.50400001928E-02 0. -1.
        1   -1    0    0  501    0  0.00000000000E+00  0.00000000000E+00 -0.10954683258E+04  0.10954683258E+04  0.50400001928E-02 0.  1.
    10030    2    1    2    0    0  0.00000000000E+00  0.00000000000E+00  0.41518238401E+03  0.26061190356E+04  0.25728350152E+04 0.  0.
        2    1    3    3  502    0  0.55694241188E+03 -0.48307313145E+03  0.12754232409E+04  0.14731764809E+04  0.25500000920E-02 0. -1.
       -2    1    3    3    0  502 -0.55694241188E+03  0.48307313145E+03 -0.86024085684E+03  0.11329425547E+04  0.25500000920E-02 0.  1.
</event>
<event>
 5   0  0.5170532E-05  0.2615437E+04  0.7818609E-02  0.8362977E-01
        2   -1    0    0  501    0  0.00000000000E+00  0.00000000000E+00  0.11808023697E+04  0.11808023697E+04  0.25500000920E-02 0. -1.
       -2   -1    0    0    0  501  0.00000000000E+00  0.00000000000E+00 -0.14482754871E+04  0.14482754871E+04  0.25500000920E-02 0.  1.
    10030    2    1    2    0    0  0.00000000000E+00  0.00000000000E+00 -0.26747311744E+03  0.26290778568E+04  0.26154365808E+04 0.  0.
        1    1    3    3  502    0 -0.54639724780E+03  0.18122616565E+03 -0.13140559335E+04  0.14346204627E+04  0.50400001928E-02 0.  1.
       -1    1    3    3    0  502  0.54639724780E+03 -0.18122616565E+03  0.10465828160E+04  0.11944573941E+04  0.50400001928E-02 0. -1.
</event>
<event>
 5   0  0.2159405E-05  0.2529538E+04  0.7818609E-02  0.8392538E-01
        1   -1    0    0  501    0  0.00000000000E+00  0.00000000000E+00  0.11854208223E+04  0.11854208223E+04  0.50400001928E-02 0. -1.
       -1   -1    0    0    0  501  0.00000000000E+00  0.00000000000E+00 -0.13494279776E+04  0.13494279776E+04  0.50400001928E-02 0.  1.
    10030    2    1    2    0    0  0.00000000000E+00  0.00000000000E+00 -0.16400715535E+03  0.25348487999E+04  0.25295375252E+04 0.  0.
        3    1    3    3  502    0  0.92572601752E+03 -0.45909357378E+02 -0.94437059637E+03  0.13232203755E+04  0.10100000352E+00 0.  1.
       -3    1    3    3    0  502 -0.92572601752E+03  0.45909357378E+02  0.78036344102E+03  0.12116284244E+04  0.10100000352E+00 0. -1.
</event>
<event>
 5   0  0.5170532E-05  0.1916085E+04  0.7818609E-02  0.8646891E-01
        2   -1    0    0  501    0  0.00000000000E+00  0.00000000000E+00  0.94431219031E+03  0.94431219032E+03  0.25500000920E-02 0.  1.
       -2   -1    0    0    0  501  0.00000000000E+00  0.00000000000E+00 -0.97197284085E+03  0.97197284085E+03  0.25500000920E-02 0. -1.
    10030    2    1    2    0    0  0.00000000000E+00  0.00000000000E+00 -0.27660650536E+02  0.19162850312E+04  0.19160853867E+04 0.  0.
        1    1    3    3  502    0  0.73582701752E+03 -0.25116254646E+03 -0.57364018017E+03  0.96622310094E+03  0.50400001928E-02 0. -1.
       -1    1    3    3    0  502 -0.73582701752E+03  0.25116254646E+03  0.54597952964E+03  0.95006193023E+03  0.50400001928E-02 0.  1.
</event>
<event>
 5   0  0.2072710E-05  0.1402327E+04  0.7818609E-02  0.8952136E-01
        1   -1    0    0  501    0  0.00000000000E+00  0.00000000000E+00  0.84512904426E+03  0.84512904428E+03  0.50400001928E-02 0.  1.
       -1   -1    0    0    0  501  0.00000000000E+00  0.00000000000E+00 -0.58172198160E+03  0.58172198163E+03  0.50400001928E-02 0. -1.
    10030    2    1    2    0    0  0.00000000000E+00  0.00000000000E+00  0.26340706266E+03  0.14268510259E+04  0.14023268412E+04 0.  0.
        2    1    3    3  502    0  0.24605004587E+03  0.31919302384E+03  0.71550181612E+03  0.82119891647E+03  0.25500000920E-02 0.  1.
       -2    1    3    3    0  502 -0.24605004587E+03 -0.31919302384E+03 -0.45209475346E+03  0.60565210943E+03  0.25500000920E-02 0. -1.
</event>
<event>
 5   0  0.1954502E-05  0.2647059E+04  0.7818609E-02  0.8352390E-01
       -1   -1    0    0    0  501  0.00000000000E+00  0.00000000000E+00  0.99924126064E+03  0.99924126065E+03  0.50400001928E-02 0.  1.
        1   -1    0    0  501    0  0.00000000000E+00  0.00000000000E+00 -0.17530600119E+04  0.17530600119E+04  0.50400001928E-02 0. -1.
    10030    2    1    2    0    0  0.00000000000E+00  0.00000000000E+00 -0.75381875129E+03  0.27523012726E+04  0.26470586668E+04 0.  0.
        4    1    3    3  502    0  0.12686714474E+04  0.63695780450E+02  0.95450134484E+01  0.12703059136E+04  0.12699999809E+01 0.  1.
       -4    1    3    3    0  502 -0.12686714474E+04 -0.63695780450E+02 -0.76336376474E+03  0.14819953590E+04  0.12699999809E+01 0. -1.
</event>
<event>
 5   0  0.5049803E-05  0.2563950E+04  0.7818609E-02  0.8380551E-01
       -2   -1    0    0    0  501  0.00000000000E+00  0.00000000000E+00  0.86069061694E+03  0.86069061695E+03  0.25500000920E-02 0. -1.
        2   -1    0    0  501    0  0.00000000000E+00  0.00000000000E+00 -0.19094667500E+04  0.19094667500E+04  0.25500000920E-02 0.  1.
    10030    2    1    2    0    0  0.00000000000E+00  0.00000000000E+00 -0.10487761330E+04  0.27701573669E+04  0.25639501673E+04 0.  0.
        4    1    3    3  502    0  0.78723184681E+03  0.58070304124E+02 -0.16157528810E+04  0.17982672566E+04  0.12699999809E+01 0.  1.
       -4    1    3    3    0  502 -0.78723184681E+03 -0.58070304124E+02  0.56697674798E+03  0.97189011030E+03  0.12699999809E+01 0. -1.
</event>
<event>
 5   0  0.5036452E-05  0.2513504E+04  0.7818609E-02  0.8398191E-01
       -2   -1    0    0    0  501  0.00000000000E+00  0.00000000000E+00  0.82531183828E+03  0.82531183828E+03  0.25500000920E-02 0.  1.
        2   -1    0    0  501    0  0.00000000000E+00  0.00000000000E+00 -0.19137313067E+04  0.19137313067E+04  0.25500000920E-02 0. -1.
    10030    2    1    2    0    0  0.00000000000E+00  0.00000000000E+00 -0.10884194685E+04  0.27390431450E+04  0.25135036127E+04 0.  0.
        2    1    3    3  502    0  0.26834942472E+03  0.47115378429E+03 -0.17797110256E+04  0.18604753792E+04  0.25500000920E-02 0. -1.
       -2    1    3    3    0  502 -0.26834942472E+03 -0.47115378429E+03  0.69129155709E+03  0.87856776580E+03  0.25500000920E-02 0.  1.
</event>
<event>
 5   0  0.1993815E-05  0.2656921E+04  0.7818609E-02  0.8349119E-01
        1   -1    0    0  501    0  0.00000000000E+00  0.00000000000E+00  0.15211490037E+04  0.15211490037E+04  0.50400001928E-02 0.  1.
       -1   -1    0    0    0  501  0.00000000000E+00  0.00000000000E+00 -0.11601803535E+04  0.11601803536E+04  0.50400001928E-02 0. -1.
    10030    2    1    2    0    0  0.00000000000E+00  0.00000000000E+00  0.36096865011E+03  0.26813293572E+04  0.26569209163E+04 0.  0.
        5    1    3    3  502    0  0.66030565181E+03 -0.11149406308E+04  0.47590025302E+03  0.13804344624E+04  0.46999998093E+01 0.  1.
       -5    1    3    3    0  502 -0.66030565181E+03  0.11149406308E+04 -0.11493160291E+03  0.13008948948E+04  0.46999998093E+01 0. -1.
</event>
<event>
 5   0  0.4955675E-05  0.2315904E+04  0.7818609E-02  0.8471677E-01
       -2   -1    0    0    0  501  0.00000000000E+00  0.00000000000E+00  0.50512960869E+03  0.50512960870E+03  0.25500000920E-02 0. -1.
        2   -1    0    0  501    0  0.00000000000E+00  0.00000000000E+00 -0.26544727279E+04  0.26544727279E+04  0.25500000920E-02 0.  1.
    10030    2    1    2    0    0  0.00000000000E+00  0.00000000000E+00 -0.21493431192E+04  0.31596023366E+04  0.23159039448E+04 0.  0.
        5    1    3    3  502    0  0.39042388102E+03 -0.69639179969E+03  0.69588923471E+02  0.80140941710E+03  0.46999998093E+01 0. -1.
       -5    1    3    3    0  502 -0.39042388102E+03  0.69639179969E+03 -0.22189320427E+04  0.23581929195E+04  0.46999998093E+01 0.  1.
</event>
<event>
 5   0  0.5036452E-05  0.2591248E+04  0.7818609E-02  0.8371180E-01
        2   -1    0    0  501    0  0.00000000000E+00  0.00000000000E+00  0.12237693952E+04  0.12237693952E+04  0.25500000920E-02 0.  1.
       -2   -1    0    0    0  501  0.00000000000E+00  0.00000000000E+00 -0.13716971345E+04  0.13716971345E+04  0.25500000920E-02 0. -1.
    10030    2    1    2    0    0  0.00000000000E+00  0.00000000000E+00 -0.14792773936E+03  0.25954665297E+04  0.25912475549E+04 0.  0.
        2    1    3    3  502    0 -0.43298825853E+03 -0.18223867261E+03  0.11354585701E+04  0.12288026409E+04  0.25500000920E-02 0.  1.
       -2    1    3    3    0  502  0.43298825853E+03  0.18223867261E+03 -0.12833863094E+04  0.13666638889E+04  0.25500000920E-02 0. -1.
</event>
<event>
 5   0  0.2072710E-05  0.2565057E+04  0.7818609E-02  0.8380168E-01
        1   -1    0    0  501    0  0.00000000000E+00  0.00000000000E+00  0.12190975723E+04  0.12190975723E+04  0.50400001928E-02 0. -1.
       -1   -1    0    0    0  501  0.00000000000E+00  0.00000000000E+00 -0.13492596125E+04  0.13492596125E+04  0.50400001928E-02 0.  1.
    10030    2    1    2    0    0  0.00000000000E+00  0.00000000000E+00 -0.13016204018E+03  0.25683571849E+04  0.25650568166E+04 0.  0.
        2    1    3    3  502    0  0.11560591399E+04  0.40333074110E+03  0.31715706117E+03  0.12648071091E+04  0.25500000920E-02 0. -1.
       -2    1    3    3    0  502 -0.11560591399E+04 -0.40333074110E+03 -0.44731910135E+03  0.13035500758E+04  0.25500000920E-02 0.  1.
</event>
<event>
 5   0  0.2159405E-05  0.1927845E+04  0.7818609E-02  0.8641119E-01
        1   -1    0    0  501    0  0.00000000000E+00  0.00000000000E+00  0.89155930916E+03  0.89155930918E+03  0.50400001928E-02 0. -1.
       -1   -1    0    0    0  501  0.00000000000E+00  0.00000000000E+00 -0.10421586627E+04  0.10421586628E+04  0.50400001928E-02 0.  1.
    10030    2    1    2    0    0  0.00000000000E+00  0.00000000000E+00 -0.15059935359E+03  0.19337179719E+04  0.19278446591E+04 0.  0.
        3    1    3    3  502    0  0.78166360915E+03 -0.54273146261E+03  0.78761252304E+02  0.95486060944E+03  0.10100000352E+00 0.  1.
       -3    1    3    3    0  502 -0.78166360915E+03  0.54273146261E+03 -0.22936060589E+03  0.97885736250E+03  0.10100000352E+00 0. -1.
</event>
<event>
 5   0  0.5170532E-05  0.2618132E+04  0.7818609E-02  0.8362068E-01
       -2   -1    0    0    0  501  0.00000000000E+00  0.00000000000E+00  0.21930713602E+04  0.21930713602E+04  0.25500000920E-02 0. -1.
        2   -1    0    0  501    0  0.00000000000E+00  0.00000000000E+00 -0.78139445695E+03  0.78139445695E+03  0.25500000920E-02 0.  1.
    10030    2    1    2    0    0  0.00000000000E+00  0.00000000000E+00  0.14116769033E+04  0.29744658172E+04  0.26181320093E+04 0.  0.
        1    1    3    3  502    0 -0.96354196757E+03 -0.59005393498E+03 -0.45259255330E+02  0.11307630918E+04  0.50400001928E-02 0.  1.
       -1    1    3    3    0  502  0.96354196757E+03  0.59005393498E+03  0.14569361586E+04  0.18437027254E+04  0.50400001928E-02 0. -1.
</event>
<event>
 5   0  0.2159405E-05  0.2602038E+04  0.7818609E-02  0.8367509E-01
       -1   -1    0    0    0  501  0.00000000000E+00  0.00000000000E+00  0.97560239202E+03  0.97560239203E+03  0.50400001928E-02 0.  1.
        1   -1    0    0  501    0  0.00000000000E+00  0.00000000000E+00 -0.17349798735E+04  0.17349798735E+04  0.50400001928E-02 0. -1.
    10030    2    1    2    0    0  0.00000000000E+00  0.00000000000E+00 -0.75937748150E+03  0.27105822656E+04  0.26020380587E+04 0.  0.
        3    1    3    3  502    0  0.65704342453E+03 -0.86170292488E+03 -0.11297326445E+04  0.15654181073E+04  0.10100000352E+00 0. -1.
       -3    1    3    3    0  502 -0.65704342453E+03  0.86170292488E+03  0.37035516296E+03  0.11451641583E+04  0.10100000352E+00 0.  1.
</event>
<event>
 5   0  0.5036452E-05  0.2595376E+04  0.7818609E-02  0.8369773E-01
       -2   -1    0    0    0  501  0.00000000000E+00  0.00000000000E+00  0.70079670839E+03  0.70079670840E+03  0.25500000920E-02 0.  1.
        2   -1    0    0  501    0  0.00000000000E+00  0.00000000000E+00 -0.24029717168E+04  0.24029717168E+04  0.25500000920E-02 0. -1.
    10030    2    1    2    0    0  0.00000000000E+00  0.00000000000E+00 -0.17021750084E+04  0.31037684252E+04  0.25953764039E+04 0.  0.
        2    1    3    3  502    0 -0.76098158493E+03  0.37861710335E+03  0.32158049098E+03  0.90876723958E+03  0.25500000920E-02 0.  1.
       -2    1    3    3    0  502  0.76098158493E+03 -0.37861710335E+03 -0.20237554993E+04  0.21950011856E+04  0.25500000920E-02 0. -1.
</event>
<event>
 5   0  0.5182179E-05  0.2501230E+04  0.7818609E-02  0.8402547E-01
        2   -1    0    0  501    0  0.00000000000E+00  0.00000000000E+00  0.11528055238E+04  0.11528055238E+04  0.25500000920E-02 0. -1.
       -2   -1    0    0    0  501  0.00000000000E+00  0.00000000000E+00 -0.13567231042E+04  0.13567231042E+04  0.25500000920E-02 0.  1.
    10030    2    1    2    0    0  0.00000000000E+00  0.00000000000E+00 -0.20391758047E+03  0.25095286280E+04  0.25012300084E+04 0.  0.
        3    1    3    3  502    0  0.88277557505E+03  0.45459052262E+03 -0.86480542768E+03  0.13167511903E+04  0.10100000352E+00 0.  1.
       -3    1    3    3    0  502 -0.88277557505E+03 -0.45459052262E+03  0.66088784721E+03  0.11927774377E+04  0.10100000352E+00 0. -1.
</event>
<event>
 5   0  0.5170532E-05  0.2567814E+04  0.7818609E-02  0.8379217E-01
        2   -1    0    0  501    0  0.00000000000E+00  0.00000000000E+00  0.10619732224E+04  0.10619732225E+04  0.25500000920E-02 0.  1.
       -2   -1    0    0    0  501  0.00000000000E+00  0.00000000000E+00 -0.15522215028E+04  0.15522215028E+04  0.25500000920E-02 0. -1.
    10030    2    1    2    0    0  0.00000000000E+00  0.00000000000E+00 -0.49024828035E+03  0.26141947253E+04  0.25678143790E+04 0.  0.
        1    1    3    3  502    0 -0.50335453978E+03 -0.11662087144E+04 -0.43561092916E+03  0.13428199581E+04  0.50400001928E-02 0. -1.
       -1    1    3    3    0  502  0.50335453978E+03  0.11662087144E+04 -0.54637351189E+02  0.12713747671E+04  0.50400001928E-02 0.  1.
</event>
<event>
 5   0  0.4955675E-05  0.2504852E+04  0.7818609E-02  0.8401259E-01
        2   -1    0    0  501    0  0.00000000000E+00  0.00000000000E+00  0.24206253719E+04  0.24206253719E+04  0.25500000920E-02 0. -1.
       -2   -1    0    0    0  501  0.00000000000E+00  0.00000000000E+00 -0.64800218028E+03  0.64800218028E+03  0.25500000920E-02 0.  1.
    10030    2    1    2    0    0  0.00000000000E+00  0.00000000000E+00  0.17726231916E+04  0.30686275522E+04  0.25048517071E+04 0.  0.
        5    1    3    3  502    0 -0.36654729251E+03  0.17323774501E+03  0.23380005823E+04  0.23728963413E+04  0.46999998093E+01 0. -1.
       -5    1    3    3    0  502  0.36654729251E+03 -0.17323774501E+03 -0.56537739064E+03  0.69573121088E+03  0.46999998093E+01 0.  1.
</event>
<event>
 5   0  0.1954502E-05  0.2610948E+04  0.7818609E-02  0.8364492E-01
       -1   -1    0    0    0  501  0.00000000000E+00  0.00000000000E+00  0.84861649806E+03  0.84861649808E+03  0.50400001928E-02 0.  1.
        1   -1    0    0  501    0  0.00000000000E+00  0.00000000000E+00 -0.20082835581E+04  0.20082835581E+04  0.50400001928E-02 0. -1.
    10030    2    1    2    0    0  0.00000000000E+00  0.00000000000E+00 -0.11596670601E+04  0.28569000562E+04  0.26109481498E+04 0.  0.
        4    1    3    3  502    0 -0.85161328744E+03 -0.98852022663E+03 -0.62681433333E+03  0.14475203802E+04  0.12699999809E+01 0. -1.
       -4    1    3    3    0  502  0.85161328744E+03  0.98852022663E+03 -0.53285272674E+03  0.14093796760E+04  0.12699999809E+01 0.  1.
</event>
<event>
 5   0  0.1993815E-05  0.2553392E+04  0.7818609E-02  0.8384207E-01
       -1   -1    0    0    0  501  0.00000000000E+00  0.00000000000E+00  0.14525019802E+04  0.14525019803E+04  0.50400001928E-02 0. -1.
        1   -1    0    0  501    0  0.00000000000E+00  0.00000000000E+00 -0.11221693716E+04  0.11221693717E+04  0.50400001928E-02 0.  1.
    10030    2    1    2    0    0  0.00000000000E+00  0.00000000000E+00  0.33033260860E+03  0.25746713519E+04  0.25533924371E+04 0.  0.
        5    1    3    3  502    0  0.10258903087E+04 -0.49743282865E+03 -0.41411304758E+03  0.12130136234E+04  0.46999998093E+01 0. -1.
       -5    1    3    3    0  502 -0.10258903087E+04  0.49743282865E+03  0.74444565618E+03  0.13616577285E+04  0.46999998093E+01 0.  1.
</event>
<event>
 5   0  0.5049803E-05  0.2584220E+04  0.7818609E-02  0.8373581E-01
        2   -1    0    0  501    0  0.00000000000E+00  0.00000000000E+00  0.15333102670E+04  0.15333102670E+04  0.25500000920E-02 0. -1.
       -2   -1    0    0    0  501  0.00000000000E+00  0.00000000000E+00 -0.10888525822E+04  0.10888525822E+04  0.25500000920E-02 0.  1.
    10030    2    1    2    0    0  0.00000000000E+00  0.00000000000E+00  0.44445768487E+03  0.26221628492E+04  0.25842204577E+04 0.  0.
        4    1    3    3  502    0 -0.92732021538E+03 -0.39068599432E+03  0.10446781073E+04  0.14504869144E+04  0.12699999809E+01 0. -1.
       -4    1    3    3    0  502  0.92732021538E+03  0.39068599432E+03 -0.60022042239E+03  0.11716759349E+04  0.12699999809E+01 0.  1.
</event>
<event>
 5   0  0.1954502E-05  0.2602151E+04  0.7818609E-02  0.8367471E-01
       -1   -1    0    0    0  501  0.00000000000E+00  0.00000000000E+00  0.14453511735E+04  0.14453511735E+04  0.50400001928E-02 0. -1.
        1   -1    0    0  501    0  0.00000000000E+00  0.00000000000E+00 -0.11712017544E+04  0.11712017544E+04  0.50400001928E-02 0.  1.
    10030    2    1    2    0    0  0.00000000000E+00  0.00000000000E+00  0.27414941911E+03  0.26165529279E+04  0.26021512870E+04 0.  0.
        4    1    3    3  502    0  0.68598377083E+03  0.94753312255E+03 -0.43564182799E+03  0.12482700699E+04  0.12699999809E+01 0.  1.
       -4    1    3    3    0  502 -0.68598377083E+03 -0.94753312255E+03  0.70979124710E+03  0.13682828580E+04  0.12699999809E+01 0. -1.
</event>
<event>
 5   0  0.2159405E-05  0.2594761E+04  0.7818609E-02  0.8369983E-01
        1   -1    0    0  501    0  0.00000000000E+00  0.00000000000E+00  0.99792088246E+03  0.99792088247E+03  0.50400001928E-02 0. -1.
       -1   -1    0    0    0  501  0.00000000000E+00  0.00000000000E+00 -0.16867035051E+04  0.16867035051E+04  0.50400001928E-02 0.  1.
    10030    2    1    2    0    0  0.00000000000E+00  0.00000000000E+00 -0.68878262264E+03  0.26846243876E+04  0.25947613765E+04 0.  0.
        3    1    3    3  502    0  0.31398832932E+02  0.60706661820E+03  0.84146220281E+03  0.10380628182E+04  0.10100000352E+00 0. -1.
       -3    1    3    3    0  502 -0.31398832932E+02 -0.60706661820E+03 -0.15302448254E+04  0.16465615693E+04  0.10100000352E+00 0.  1.
</event>
<event>
 5   0  0.5170532E-05  0.1846844E+04  0.7818609E-02  0.8681777E-01
        2   -1    0    0  501    0  0.00000000000E+00  0.00000000000E+00  0.18008529030E+04  0.18008529030E+04  0.25500000920E-02 0. -1.
       -2   -1    0    0    0  501  0.00000000000E+00  0.00000000000E+00 -0.47350246647E+03  0.47350246648E+03  0.25500000920E-02 0.  1.
    10030    2    1    2    0    0  0.00000000000E+00  0.00000000000E+00  0.13273504365E+04  0.22743553695E+04  0.18468441096E+04 0.  0.
        1    1    3    3  502    0 -0.13173788503E+03  0.30287025361E+03  0.17256262756E+04  0.17569494313E+04  0.50400001928E-02 0. -1.
       -1    1    3    3    0  502  0.13173788503E+03 -0.30287025361E+03 -0.39827583910E+03  0.51740593822E+03  0.50400001928E-02 0.  1.
</event>
<event>
 5   0  0.1993815E-05  0.2014697E+04  0.7818609E-02  0.8599780E-01
       -1   -1    0    0    0  501  0.00000000000E+00  0.00000000000E+00  0.45268515162E+03  0.45268515165E+03  0.50400001928E-02 0.  1.
        1   -1    0    0  501    0  0.00000000000E+00  0.00000000000E+00 -0.22416255584E+04  0.22416255584E+04  0.50400001928E-02 0. -1.
    10030    2    1    2    0    0  0.00000000000E+00  0.00000000000E+00 -0.17889404068E+04  0.26943107100E+04  0.20146966083E+04 0.  0.
        5    1    3    3  502    0  0.33429947386E+03 -0.48202109241E+03  0.20069308589E+03  0.62000022296E+03  0.46999998093E+01 0.  1.
       -5    1    3    3    0  502 -0.33429947386E+03  0.48202109241E+03 -0.19896334926E+04  0.20743104871E+04  0.46999998093E+01 0. -1.
</event>
<event>
 5   0  0.5049803E-05  0.2584510E+04  0.7818609E-02  0.8373482E-01
        2   -1    0    0  501    0  0.00000000000E+00  0.00000000000E+00  0.21791461518E+04  0.21791461518E+04  0.25500000920E-02 0. -1.
       -2   -1    0    0    0  501  0.00000000000E+00  0.00000000000E+00 -0.76631966341E+03  0.76631966341E+03  0.25500000920E-02 0.  1.
    10030    2    1    2    0    0  0.00000000000E+00  0.00000000000E+00  0.14128264884E+04  0.29454658152E+04  0.25845096599E+04 0.  0.
        4    1    3    3  502    0  0.87730770356E+03 -0.88980698510E+02 -0.37015033684E+03  0.95634682840E+03  0.12699999809E+01 0.  1.
       -4    1    3    3    0  502 -0.87730770356E+03  0.88980698510E+02  0.17829768252E+04  0.19891189868E+04  0.12699999809E+01 0. -1.
</event>
<event>
 5   0  0.5170532E-05  0.2590482E+04  0.7818609E-02  0.8371441E-01
       -2   -1    0    0    0  501  0.00000000000E+00  0.00000000000E+00  0.86176982185E+03  0.86176982186E+03  0.25500000920E-02 0. -1.
        2   -1    0    0  501    0  0.00000000000E+00  0.00000000000E+00 -0.19467486747E+04  0.19467486747E+04  0.25500000920E-02 0.  1.
    10030    2    1    2    0    0  0.00000000000E+00  0.00000000000E+00 -0.10849788529E+04  0.28085184966E+04  0.25904820081E+04 0.  0.
        1    1    3    3  502    0 -0.30421331400E+03 -0.71028066952E+03 -0.16695056611E+04  0.18396449447E+04  0.50400001928E-02 0.  1.
       -1    1    3    3    0  502  0.30421331400E+03  0.71028066952E+03  0.58452680829E+03  0.96887355188E+03  0.50400001928E-02 0. -1.
</event>
<event>
 5   0  0.5182179E-05  0.2575947E+04  0.7818609E-02  0.8376418E-01
       -2   -1    0    0    0  501  0.00000000000E+00  0.00000000000E+00  0.14907121606E+04  0.14907121606E+04  0.25500000920E-02 0.  1.
        2   -1    0    0  501    0  0.00000000000E+00  0.00000000000E+00 -0.11128074830E+04  0.11128074830E+04  0.25500000920E-02 0. -1.
    10030    2    1    2    0    0  0.00000000000E+00  0.00000000000E+00  0.37790467764E+03  0.26035196437E+04  0.25759469307E+04 0.  0.
        3    1    3    3  502    0 -0.10999678402E+04  0.15939139534E+03  0.84671854733E+03  0.13972355474E+04  0.10100000352E+00 0.  1.
       -3    1    3    3    0  502  0.10999678402E+04 -0.15939139534E+03 -0.46881386969E+03  0.12062840963E+04  0.10100000352E+00 0. -1.
</event>
<event>
 5   0  0.5036452E-05  0.2496933E+04  0.7818609E-02  0.8404079E-01
        2   -1    0    0  501    0  0.00000000000E+00  0.00000000000E+00  0.19891988897E+04  0.19891988897E+04  0.25500000920E-02 0. -1.
       -2   -1    0    0    0  501  0.00000000000E+00  0.00000000000E+00 -0.78356588190E+03  0.78356588190E+03  0.25500000920E-02 0.  1.
    10030    2    1    2    0    0  0.00000000000E+00  0.00000000000E+00  0.12056330078E+04  0.27727647716E+04  0.24969328243E+04 0.  0.
        2    1    3    3  502    0  0.27083516925E+03  0.11377101244E+04  0.11758840030E+03  0.11753991015E+04  0.25500000920E-02 0.  1.
       -2    1    3    3    0  502 -0.27083516925E+03 -0.11377101244E+04  0.10880446075E+04  0.15973656701E+04  0.25500000920E-02 0. -1.
</event>
<event>
 5   0  0.5170532E-05  0.2545766E+04  0.7818609E-02  0.8386860E-01
       -2   -1    0    0    0  501  0.00000000000E+00  0.00000000000E+00  0.14915430784E+04  0.14915430784E+04  0.25500000920E-02 0. -1.
        2   -1    0    0  501    0  0.00000000000E+00  0.00000000000E+00 -0.10862788859E+04  0.10862788859E+04  0.25500000920E-02 0.  1.
    10030    2    1    2    0    0  0.00000000000E+00  0.00000000000E+00  0.40526419254E+03  0.25778219643E+04  0.25457664885E+04 0.  0.
        1    1    3    3  502    0  0.18288958204E+03  0.18128644031E+03  0.14648910395E+04  0.14873530617E+04  0.50400001928E-02 0. -1.
       -1    1    3    3    0  502 -0.18288958204E+03 -0.18128644031E+03 -0.10596268469E+04  0.10904689026E+04  0.50400001928E-02 0.  1.
</event>
<event>
 5   0  0.4955675E-05  0.2674795E+04  0.7818609E-02  0.8343230E-01
        2   -1    0    0  501    0  0.00000000000E+00  0.00000000000E+00  0.12784153423E+04  0.12784153423E+04  0.25500000920E-02 0.  1.
       -2   -1    0    0    0  501  0.00000000000E+00  0.00000000000E+00 -0.13991005440E+04  0.13991005440E+04  0.25500000920E-02 0. -1.
    10030    2    1    2    0    0  0.00000000000E+00  0.00000000000E+00 -0.12068520170E+03  0.26775158864E+04  0.26747946471E+04 0.  0.
        5    1    3    3  502    0  0.44189662773E+03  0.33033354555E+03  0.11591811353E+04  0.12837896538E+04  0.46999998093E+01 0.  1.
       -5    1    3    3    0  502 -0.44189662773E+03 -0.33033354555E+03 -0.12798663369E+04  0.13937262326E+04  0.46999998093E+01 0. -1.
</event>
<event>
 5   0  0.5036452E-05  0.2580453E+04  0.7818609E-02  0.8374871E-01
        2   -1    0    0  501    0  0.00000000000E+00  0.00000000000E+00  0.21527024752E+04  0.21527024752E+04  0.25500000920E-02 0. -1.
       -2   -1    0    0    0  501  0.00000000000E+00  0.00000000000E+00 -0.77329964956E+03  0.77329964957E+03  0.25500000920E-02 0.  1.
    10030    2    1    2    0    0  0.00000000000E+00  0.00000000000E+00  0.13794028257E+04  0.29260021248E+04  0.25804527275E+04 0.  0.
        2    1    3    3  502    0 -0.67429032563E+03  0.66936465258E+03  0.16795003402E+04  0.19296211737E+04  0.25500000920E-02 0. -1.
       -2    1    3    3    0  502  0.67429032563E+03 -0.66936465258E+03 -0.30009751456E+03  0.99638095105E+03  0.25500000920E-02 0.  1.
</event>
<event>
 5   0  0.2159405E-05  0.2575683E+04  0.7818609E-02  0.8376508E-01
        1   -1    0    0  501    0  0.00000000000E+00  0.00000000000E+00  0.27252816982E+04  0.27252816982E+04  0.50400001928E-02 0. -1.
       -1   -1    0    0    0  501  0.00000000000E+00  0.00000000000E+00 -0.60857415410E+03  0.60857415413E+03  0.50400001928E-02 0.  1.
    10030    2    1    2    0    0  0.00000000000E+00  0.00000000000E+00  0.21167075441E+04  0.33338558523E+04  0.25756832136E+04 0.  0.
        3    1    3    3  502    0 -0.47726054252E+03  0.10916260141E+04  0.42542598746E+03  0.12650740141E+04  0.10100000352E+00 0.  1.
       -3    1    3    3    0  502  0.47726054252E+03 -0.10916260141E+04  0.16912815566E+04  0.20687818382E+04  0.10100000352E+00 0. -1.
</event>
<event>
 5   0  0.2163800E-05  0.2589245E+04  0.7818609E-02  0.8371864E-01
        1   -1    0    0  501    0  0.00000000000E+00  0.00000000000E+00  0.12313235125E+04  0.12313235125E+04  0.50400001928E-02 0.  1.
       -1   -1    0    0    0  501  0.00000000000E+00  0.00000000000E+00 -0.13611756004E+04  0.13611756004E+04  0.50400001928E-02 0. -1.
    10030    2    1    2    0    0  0.00000000000E+00  0.00000000000E+00 -0.12985208795E+03  0.25924991129E+04  0.25892450803E+04 0.  0.
        1    1    3    3  502    0  0.61348483667E+03  0.10412095086E+04  0.39994899612E+03  0.12729650761E+04  0.50400001928E-02 0.  1.
       -1    1    3    3    0  502 -0.61348483667E+03 -0.10412095086E+04 -0.52980108407E+03  0.13195340368E+04  0.50400001928E-02 0. -1.
</event>
<event>
 5   0  0.5036452E-05  0.2563389E+04  0.7818609E-02  0.8380745E-01
       -2   -1    0    0    0  501  0.00000000000E+00  0.00000000000E+00  0.15430549574E+04  0.15430549574E+04  0.25500000920E-02 0. -1.
        2   -1    0    0  501    0  0.00000000000E+00  0.00000000000E+00 -0.10646026568E+04  0.10646026568E+04  0.25500000920E-02 0.  1.
    10030    2    1    2    0    0  0.00000000000E+00  0.00000000000E+00  0.47845230065E+03  0.26076576142E+04  0.25633887003E+04 0.  0.
        2    1    3    3  502    0 -0.26083632905E+03  0.83333824089E+03  0.11936464332E+04  0.14789455777E+04  0.25500000920E-02 0. -1.
       -2    1    3    3    0  502  0.26083632905E+03 -0.83333824089E+03 -0.71519413252E+03  0.11287120366E+04  0.25500000920E-02 0.  1.
</event>
<event>
 5   0  0.4955675E-05  0.2575020E+04  0.7818609E-02  0.8376736E-01
       -2   -1    0    0    0  501  0.00000000000E+00  0.00000000000E+00  0.13258112685E+04  0.13258112685E+04  0.25500000920E-02 0.  1.
        2   -1    0    0  501    0  0.00000000000E+00  0.00000000000E+00 -0.12503149882E+04  0.12503149882E+04  0.25500000920E-02 0. -1.
    10030    2    1    2    0    0  0.00000000000E+00  0.00000000000E+00  0.75496280375E+02  0.25761262567E+04  0.25750197673E+04 0.  0.
        5    1    3    3  502    0  0.95924802341E+03  0.42671856126E+03  0.78332948149E+03  0.13099132290E+04  0.46999998093E+01 0.  1.
       -5    1    3    3    0  502 -0.95924802341E+03 -0.42671856126E+03 -0.70783320111E+03  0.12662130277E+04  0.46999998093E+01 0. -1.
</event>
<event>
 5   0  0.4955675E-05  0.2585887E+04  0.7818609E-02  0.8373011E-01
       -2   -1    0    0    0  501  0.00000000000E+00  0.00000000000E+00  0.10209059269E+04  0.10209059269E+04  0.25500000920E-02 0.  1.
        2   -1    0    0  501    0  0.00000000000E+00  0.00000000000E+00 -0.16374695289E+04  0.16374695289E+04  0.25500000920E-02 0. -1.
    10030    2    1    2    0    0  0.00000000000E+00  0.00000000000E+00 -0.61656360193E+03  0.26583754558E+04  0.25858865769E+04 0.  0.
        5    1    3    3  502    0  0.19162458990E+03 -0.82219636906E+03  0.69843101959E+03  0.10956983307E+04  0.46999998093E+01 0.  1.
       -5    1    3    3    0  502 -0.19162458990E+03  0.82219636906E+03 -0.13149946215E+04  0.15626771251E+04  0.46999998093E+01 0. -1.
</event>
<event>
 5   0  0.1954502E-05  0.2603057E+04  0.7818609E-02  0.8367164E-01
        1   -1    0    0  501    0  0.00000000000E+00  0.00000000000E+00  0.19549892746E+04  0.19549892746E+04  0.50400001928E-02 0. -1.
       -1   -1    0    0    0  501  0.00000000000E+00  0.00000000000E+00 -0.86648860038E+03  0.86648860040E+03  0.50400001928E-02 0.  1.
    10030    2    1    2    0    0  0.00000000000E+00  0.00000000000E+00  0.10885006742E+04  0.28214778750E+04  0.26030566035E+04 0.  0.
        4    1    3    3  502    0 -0.22532019295E+03  0.10244471728E+04  0.13794327795E+04  0.17329447785E+04  0.12699999809E+01 0. -1.
       -4    1    3    3    0  502  0.22532019295E+03 -0.10244471728E+04 -0.29093210535E+03  0.10885330965E+04  0.12699999809E+01 0.  1.
</event>
<event>
 5   0  0.1993815E-05  0.2597104E+04  0.7818609E-02  0.8369186E-01
       -1   -1    0    0    0  501  0.00000000000E+00  0.00000000000E+00  0.96188769868E+03  0.96188769870E+03  0.50400001928E-02 0. -1.
        1   -1    0    0  501    0  0.00000000000E+00  0.00000000000E+00 -0.17530499662E+04  0.17530499662E+04  0.50400001928E-02 0.  1.
    10030    2    1    2    0    0  0.00000000000E+00  0.00000000000E+00 -0.79116226756E+03  0.27149376649E+04  0.25971039238E+04 0.  0.
        5    1    3    3  502    0  0.69351828931E+03  0.10950075017E+04 -0.31322829637E+03  0.13334703229E+04  0.46999998093E+01 0. -1.
       -5    1    3    3    0  502 -0.69351828931E+03 -0.10950075017E+04 -0.47793397118E+03  0.13814673421E+04  0.46999998093E+01 0.  1.
</event>
<event>
 5   0  0.5170532E-05  0.2234597E+04  0.7818609E-02  0.8504164E-01
       -2   -1    0    0    0  501  0.00000000000E+00  0.00000000000E+00  0.71929344093E+03  0.71929344093E+03  0.25500000920E-02 0.  1.
        2   -1    0    0  501    0  0.00000000000E+00  0.00000000000E+00 -0.17355311664E+04  0.17355311664E+04  0.25500000920E-02 0. -1.
    10030    2    1    2    0    0  0.00000000000E+00  0.00000000000E+00 -0.10162377254E+04  0.24548246073E+04  0.22345972205E+04 0.  0.
        1    1    3    3  502    0 -0.89460423350E+03  0.55637680942E+03 -0.99308894110E+02  0.10581749124E+04  0.50400001928E-02 0.  1.
       -1    1    3    3    0  502  0.89460423350E+03 -0.55637680942E+03 -0.91692883132E+03  0.13966496949E+04  0.50400001928E-02 0. -1.
</event>
<event>
 5   0  0.5049803E-05  0.1728641E+04  0.7818609E-02  0.8745196E-01
        2   -1    0    0  501    0  0.00000000000E+00  0.00000000000E+00  0.15522232258E+04  0.15522232258E+04  0.25500000920E-02 0.  1.
       -2   -1    0    0    0  501  0.00000000000E+00  0.00000000000E+00 -0.48127754102E+03  0.48127754102E+03  0.25500000920E-02 0. -1.
    10030    2    1    2    0    0  0.00000000000E+00  0.00000000000E+00  0.10709456847E+04  0.20335007668E+04  0.17286412898E+04 0.  0.
        4    1    3    3  502    0 -0.27883448992E+03  0.80853030225E+03  0.38864640690E+03  0.93942406022E+03  0.12699999809E+01 0. -1.
       -4    1    3    3    0  502  0.27883448992E+03 -0.80853030225E+03  0.68229927784E+03  0.10940767066E+04  0.12699999809E+01 0.  1.
</event>
<event>
 5   0  0.5036452E-05  0.2613434E+04  0.7818609E-02  0.8363652E-01
       -2   -1    0    0    0  501  0.00000000000E+00  0.00000000000E+00  0.24160275531E+04  0.24160275532E+04  0.25500000920E-02 0.  1.
        2   -1    0    0  501    0  0.00000000000E+00  0.00000000000E+00 -0.70674239874E+03  0.70674239875E+03  0.25500000920E-02 0. -1.
    10030    2    1    2    0    0  0.00000000000E+00  0.00000000000E+00  0.17092851544E+04  0.31227699519E+04  0.26134338395E+04 0.  0.
        2    1    3    3  502    0  0.64670514771E+03 -0.42669716101E+03  0.21119564163E+04  0.22495906115E+04  0.25500000920E-02 0.  1.
       -2    1    3    3    0  502 -0.64670514771E+03  0.42669716101E+03 -0.40267126187E+03  0.87317934036E+03  0.25500000920E-02 0. -1.
</event>
<event>
 5   0  0.5036452E-05  0.2552551E+04  0.7818609E-02  0.8384499E-01
        2   -1    0    0  501    0  0.00000000000E+00  0.00000000000E+00  0.20853395723E+04  0.20853395723E+04  0.25500000920E-02 0.  1.
       -2   -1    0    0    0  501  0.00000000000E+00  0.00000000000E+00 -0.78110998297E+03  0.78110998298E+03  0.25500000920E-02 0. -1.
    10030    2    1    2    0    0  0.00000000000E+00  0.00000000000E+00  0.13042295893E+04  0.28664495553E+04  0.25525513181E+04 0.  0.
        2    1    3    3  502    0 -0.11104941333E+04  0.73666353184E+02 -0.49412214782E+02  0.11140312018E+04  0.25500000920E-02 0. -1.
       -2    1    3    3    0  502  0.11104941333E+04 -0.73666353184E+02  0.13536418041E+04  0.17524183535E+04  0.25500000920E-02 0.  1.
</event>
<event>
 5   0  0.2072710E-05  0.2433457E+04  0.7818609E-02  0.8427083E-01
        1   -1    0    0  501    0  0.00000000000E+00  0.00000000000E+00  0.17240892850E+04  0.17240892850E+04  0.50400001928E-02 0.  1.
       -1   -1    0    0    0  501  0.00000000000E+00  0.00000000000E+00 -0.85867281395E+03  0.85867281397E+03  0.50400001928E-02 0. -1.
    10030    2    1    2    0    0  0.00000000000E+00  0.00000000000E+00  0.86541647108E+03  0.25827620990E+04  0.24334572919E+04 0.  0.
        2    1    3    3  502    0  0.11981153426E+04  0.11460996872E+03  0.62201297115E+03  0.13548121477E+04  0.25500000920E-02 0.  1.
       -2    1    3    3    0  502 -0.11981153426E+04 -0.11460996872E+03  0.24340349994E+03  0.12279499513E+04  0.25500000920E-02 0. -1.
</event>
<event>
 5   0  0.2159405E-05  0.2610389E+04  0.7818609E-02  0.8364681E-01
        1   -1    0    0  501    0  0.00000000000E+00  0.00000000000E+00  0.10741004443E+04  0.10741004443E+04  0.50400001928E-02 0. -1.
       -1   -1    0    0    0  501  0.00000000000E+00  0.00000000000E+00 -0.15860093249E+04  0.15860093249E+04  0.50400001928E-02 0.  1.
    10030    2    1    2    0    0  0.00000000000E+00  0.00000000000E+00 -0.51190888060E+03  0.26601097692E+04  0.26103894886E+04 0.  0.
        3    1    3    3  502    0 -0.89070816689E+03 -0.91491876415E+03  0.19557759639E+02  0.12770355906E+04  0.10100000352E+00 0.  1.
       -3    1    3    3    0  502  0.89070816689E+03  0.91491876415E+03 -0.53146664024E+03  0.13830741786E+04  0.10100000352E+00 0. -1.
</event>
<event>
 5   0  0.4955675E-05  0.2586788E+04  0.7818609E-02  0.8372703E-01
        2   -1    0    0  501    0  0.00000000000E+00  0.00000000000E+00  0.18564009312E+04  0.18564009312E+04  0.25500000920E-02 0. -1.
       -2   -1    0    0    0  501  0.00000000000E+00  0.00000000000E+00 -0.90113542338E+03  0.90113542338E+03  0.25500000920E-02 0.  1.
    10030    2    1    2    0    0  0.00000000000E+00  0.00000000000E+00  0.95526550784E+03  0.27575363546E+04  0.25867884638E+04 0.  0.
        5    1    3    3  502    0  0.11137148327E+04 -0.24275382918E+03 -0.17390325240E+03  0.11530631298E+04  0.46999998093E+01 0.  1.
       -5    1    3    3    0  502 -0.11137148327E+04  0.24275382918E+03  0.11291687602E+04  0.16044732248E+04  0.46999998093E+01 0. -1.
</event>
<event>
 5   0  0.5170532E-05  0.1915596E+04  0.7818609E-02  0.8647132E-01
       -2   -1    0    0    0  501  0.00000000000E+00  0.00000000000E+00  0.51532525383E+03  0.51532525384E+03  0.25500000920E-02 0.  1.
        2   -1    0    0  501    0  0.00000000000E+00  0.00000000000E+00 -0.17801907414E+04  0.17801907414E+04  0.25500000920E-02 0. -1.
    10030    2    1    2    0    0  0.00000000000E+00  0.00000000000E+00 -0.12648654875E+04  0.22955159952E+04  0.19155962473E+04 0.  0.
        1    1    3    3  502    0 -0.80966228994E+03  0.13021611213E+03 -0.12254158905E+04  0.14745010560E+04  0.50400001928E-02 0. -1.
       -1    1    3    3    0  502  0.80966228994E+03 -0.13021611213E+03 -0.39449597075E+02  0.82101493917E+03  0.50400001928E-02 0.  1.
</event>
<event>
 5   0  0.1954502E-05  0.2592999E+04  0.7818609E-02  0.8370583E-01
       -1   -1    0    0    0  501  0.00000000000E+00  0.00000000000E+00  0.64677808477E+03  0.64677808479E+03  0.50400001928E-02 0.  1.
        1   -1    0    0  501    0  0.00000000000E+00  0.00000000000E+00 -0.25988993333E+04  0.25988993333E+04  0.50400001928E-02 0. -1.
    10030    2    1    2    0    0  0.00000000000E+00  0.00000000000E+00 -0.19521212485E+04  0.32456774181E+04  0.25929991387E+04 0.  0.
        4    1    3    3  502    0  0.96169533990E+03  0.78989994486E+03 -0.14310175562E+04  0.18964737564E+04  0.12699999809E+01 0. -1.
       -4    1    3    3    0  502 -0.96169533990E+03 -0.78989994486E+03 -0.52110369237E+03  0.13492036617E+04  0.12699999809E+01 0.  1.
</event>
<event>
 5   0  0.2159405E-05  0.2292670E+04  0.7818609E-02  0.8480817E-01
       -1   -1    0    0    0  501  0.00000000000E+00  0.00000000000E+00  0.72580010640E+03  0.72580010642E+03  0.50400001928E-02 0. -1.
        1   -1    0    0  501    0  0.00000000000E+00  0.00000000000E+00 -0.18105309552E+04  0.18105309552E+04  0.50400001928E-02 0.  1.
    10030    2    1    2    0    0  0.00000000000E+00  0.00000000000E+00 -0.10847308488E+04  0.25363310616E+04  0.22926696752E+04 0.  0.
        3    1    3    3  502    0 -0.43000333832E+03 -0.65965621065E+03  0.37926104738E+03  0.87400694476E+03  0.10100000352E+00 0. -1.
       -3    1    3    3    0  502  0.43000333832E+03  0.65965621065E+03 -0.14639918962E+04  0.16623241168E+04  0.10100000352E+00 0.  1.
</event>
<event>
 5   0  0.4955675E-05  0.2611368E+04  0.7818609E-02  0.8364350E-01
       -2   -1    0    0    0  501  0.00000000000E+00  0.00000000000E+00  0.12693248367E+04  0.12693248367E+04  0.25500000920E-02 0. -1.
        2   -1    0    0  501    0  0.00000000000E+00  0.00000000000E+00 -0.13430847178E+04  0.13430847179E+04  0.25500000920E-02 0.  1.
    10030    2    1    2    0    0  0.00000000000E+00  0.00000000000E+00 -0.73759881145E+02  0.26124095546E+04  0.26113680630E+04 0.  0.
        5    1    3    3  502    0 -0.11582972269E+04  0.57427087950E+03 -0.21957038348E+03  0.13113629369E+04  0.46999998093E+01 0. -1.
       -5    1    3    3    0  502  0.11582972269E+04 -0.57427087950E+03  0.14581050234E+03  0.13010466177E+04  0.46999998093E+01 0.  1.
</event>
<event>
 5   0  0.2072710E-05  0.2505827E+04  0.7818609E-02  0.8400913E-01
        1   -1    0    0  501    0  0.00000000000E+00  0.00000000000E+00  0.11134521137E+04  0.11134521138E+04  0.50400001928E-02 0. -1.
       -1   -1    0    0    0  501  0.00000000000E+00  0.00000000000E+00 -0.14098426207E+04  0.14098426207E+04  0.50400001928E-02 0.  1.
    10030    2    1    2    0    0  0.00000000000E+00  0.00000000000E+00 -0.29639050694E+03  0.25232947344E+04  0.25058270061E+04 0.  0.
        2    1    3    3  502    0 -0.63505122295E+03  0.73015716446E+03  0.65319963483E+03  0.11675141556E+04  0.25500000920E-02 0. -1.
       -2    1    3    3    0  502  0.63505122295E+03 -0.73015716446E+03 -0.94959014178E+03  0.13557805788E+04  0.25500000920E-02 0.  1.
</event>
<event>
 5   0  0.5036452E-05  0.2243799E+04  0.7818609E-02  0.8500416E-01
       -2   -1    0    0    0  501  0.00000000000E+00  0.00000000000E+00  0.13723234661E+04  0.13723234661E+04  0.25500000920E-02 0.  1.
        2   -1    0    0  501    0  0.00000000000E+00  0.00000000000E+00 -0.91717353217E+03  0.91717353217E+03  0.25500000920E-02 0. -1.
    10030    2    1    2    0    0  0.00000000000E+00  0.00000000000E+00  0.45514993394E+03  0.22894969983E+04  0.22437992430E+04 0.  0.
        2    1    3    3  502    0  0.77632660650E+03 -0.79141197962E+03  0.40325240147E+03  0.11796730143E+04  0.25500000920E-02 0. -1.
       -2    1    3    3    0  502 -0.77632660650E+03  0.79141197962E+03  0.51897532468E+02  0.11098239839E+04  0.25500000920E-02 0.  1.
</event>
<event>
 5   0  0.5049803E-05  0.2554307E+04  0.7818609E-02  0.8383890E-01
       -2   -1    0    0    0  501  0.00000000000E+00  0.00000000000E+00  0.12861149614E+04  0.12861149614E+04  0.25500000920E-02 0. -1.
        2   -1    0    0  501    0  0.00000000000E+00  0.00000000000E+00 -0.12682547512E+04  0.12682547512E+04  0.25500000920E-02 0.  1.
    10030    2    1    2    0    0  0.00000000000E+00  0.00000000000E+00  0.17860210164E+02  0.25543697126E+04  0.25543072723E+04 0.  0.
        4    1    3    3  502    0  0.11178231539E+04 -0.42952703029E+03 -0.43503764220E+03  0.12740806239E+04  0.12699999809E+01 0.  1.
       -4    1    3    3    0  502 -0.11178231539E+04  0.42952703029E+03  0.45289785236E+03  0.12802890887E+04  0.12699999809E+01 0. -1.
</event>
<event>
 5   0  0.2163800E-05  0.2667948E+04  0.7818609E-02  0.8345480E-01
       -1   -1    0    0    0  501  0.00000000000E+00  0.00000000000E+00  0.80325141022E+03  0.80325141023E+03  0.50400001928E-02 0. -1.
        1   -1    0    0  501    0  0.00000000000E+00  0.00000000000E+00 -0.22153542112E+04  0.22153542112E+04  0.50400001928E-02 0.  1.
    10030    2    1    2    0    0  0.00000000000E+00  0.00000000000E+00 -0.14121028009E+04  0.30186056214E+04  0.26679478213E+04 0.  0.
        1    1    3    3  502    0  0.67256538586E+03 -0.12727698081E+03  0.58939936103E+03  0.90329133446E+03  0.50400001928E-02 0. -1.
       -1    1    3    3    0  502 -0.67256538586E+03  0.12727698081E+03 -0.20015021620E+04  0.21153142869E+04  0.50400001928E-02 0.  1.
</event>
<event>
 5   0  0.2163800E-05  0.1982854E+04  0.7818609E-02  0.8614679E-01
        1   -1    0    0  501    0  0.00000000000E+00  0.00000000000E+00  0.12702530547E+04  0.12702530547E+04  0.50400001928E-02 0.  1.
       -1   -1    0    0    0  501  0.00000000000E+00  0.00000000000E+00 -0.77380437807E+03  0.77380437809E+03  0.50400001928E-02 0. -1.
    10030    2    1    2    0    0  0.00000000000E+00  0.00000000000E+00  0.49644867664E+03  0.20440574328E+04  0.19828538776E+04 0.  0.
        1    1    3    3  502    0  0.94353295857E+03 -0.15217065911E+03 -0.23574728704E+02  0.95601575367E+03  0.50400001928E-02 0. -1.
       -1    1    3    3    0  502 -0.94353295857E+03  0.15217065911E+03  0.52002340534E+03  0.10880416791E+04  0.50400001928E-02 0.  1.
</event>
<event>
 5   0  0.1993815E-05  0.1496347E+04  0.7818609E-02  0.8886886E-01
       -1   -1    0    0    0  501  0.00000000000E+00  0.00000000000E+00  0.93711192460E+03  0.93711192461E+03  0.50400001928E-02 0. -1.
        1   -1    0    0  501    0  0.00000000000E+00  0.00000000000E+00 -0.59732850353E+03  0.59732850355E+03  0.50400001928E-02 0.  1.
    10030    2    1    2    0    0  0.00000000000E+00  0.00000000000E+00  0.33978342107E+03  0.15344404282E+04  0.14963471036E+04 0.  0.
        5    1    3    3  502    0 -0.69218278535E+03 -0.13851850777E+03 -0.84283592976E+02  0.71093614297E+03  0.46999998093E+01 0.  1.
       -5    1    3    3    0  502  0.69218278535E+03  0.13851850777E+03  0.42406701404E+03  0.82350428519E+03  0.46999998093E+01 0. -1.
</event>
<event>
 5   0  0.5170532E-05  0.2455068E+04  0.7818609E-02  0.8419170E-01
        2   -1    0    0  501    0  0.00000000000E+00  0.00000000000E+00  0.17962416330E+04  0.17962416330E+04  0.25500000920E-02 0.  1.
       -2   -1    0    0    0  501  0.00000000000E+00  0.00000000000E+00 -0.83888508089E+03  0.83888508090E+03  0.25500000920E-02 0. -1.
    10030    2    1    2    0    0  0.00000000000E+00  0.00000000000E+00  0.95735655207E+03  0.26351267139E+04  0.24550684777E+04 0.  0.
        1    1    3    3  502    0 -0.95007245435E+03 -0.44383005211E+03 -0.20625950584E+03  0.10687215575E+04  0.50400001928E-02 0.  1.
       -1    1    3    3    0  502  0.95007245435E+03  0.44383005211E+03  0.11636160579E+04  0.15664051564E+04  0.50400001928E-02 0. -1.
</event>
<event>
 5   0  0.5049803E-05  0.1320654E+04  0.7818609E-02  0.9013345E-01
        2   -1    0    0  501    0  0.00000000000E+00  0.00000000000E+00  0.16056437714E+04  0.16056437714E+04  0.25500000920E-02 0. -1.
       -2   -1    0    0    0  501  0.00000000000E+00  0.00000000000E+00 -0.27156210231E+03  0.27156210232E+03  0.25500000920E-02 0.  1.
    10030    2    1    2    0    0  0.00000000000E+00  0.00000000000E+00  0.13340816691E+04  0.18772058737E+04  0.13206543804E+04 0.  0.
        4    1    3    3  502    0  0.11675688508E+03 -0.30706749434E+03 -0.14715895373E+03  0.35997220290E+03  0.12699999809E+01 0.  1.
       -4    1    3    3    0  502 -0.11675688508E+03  0.30706749434E+03  0.14812406228E+04  0.15172336708E+04  0.12699999809E+01 0. -1.
</event>
<event>
 5   0  0.1954502E-05  0.2707767E+04  0.7818609E-02  0.8332489E-01
        1   -1    0    0  501    0  0.00000000000E+00  0.00000000000E+00  0.14258852577E+04  0.14258852577E+04  0.50400001928E-02 0. -1.
       -1   -1    0    0    0  501  0.00000000000E+00  0.00000000000E+00 -0.12855178721E+04  0.12855178721E+04  0.50400001928E-02 0.  1.
    10030    2    1    2    0    0  0.00000000000E+00  0.00000000000E+00  0.14036738563E+03  0.27114031298E+04  0.27077673330E+04 0.  0.
        4    1    3    3  502    0 -0.49432677301E+03  0.62452958869E+03  0.11664611042E+04  0.14124550563E+04  0.12699999809E+01 0. -1.
       -4    1    3    3    0  502  0.49432677301E+03 -0.62452958869E+03 -0.10260937185E+04  0.12989480735E+04  0.12699999809E+01 0.  1.
</event>
<event>
 5   0  0.1993815E-05  0.2585586E+04  0.7818609E-02  0.8373114E-01
        1   -1    0    0  501    0  0.00000000000E+00  0.00000000000E+00  0.13763525153E+04  0.13763525153E+04  0.50400001928E-02 0.  1.
       -1   -1    0    0    0  501  0.00000000000E+00  0.00000000000E+00 -0.12143063845E+04  0.12143063845E+04  0.50400001928E-02 0. -1.
    10030    2    1    2    0    0  0.00000000000E+00  0.00000000000E+00  0.16204613077E+03  0.25906588998E+04  0.25855859272E+04 0.  0.
        5    1    3    3  502    0  0.29068606897E+02 -0.55257445875E+03 -0.10896476976E+04  0.12221038054E+04  0.46999998093E+01 0. -1.
       -5    1    3    3    0  502 -0.29068606897E+02  0.55257445875E+03  0.12516938284E+04  0.13685550944E+04  0.46999998093E+01 0.  1.
</event>
<event>
 5   0  0.5170532E-05  0.2578859E+04  0.7818609E-02  0.8375418E-01
        2   -1    0    0  501    0  0.00000000000E+00  0.00000000000E+00  0.15889129926E+04  0.15889129926E+04  0.25500000920E-02 0. -1.
       -2   -1    0    0    0  501  0.00000000000E+00  0.00000000000E+00 -0.10463934800E+04  0.10463934800E+04  0.25500000920E-02 0.  1.
    10030    2    1    2    0    0  0.00000000000E+00  0.00000000000E+00  0.54251951260E+03  0.26353064727E+04  0.25788588142E+04 0.  0.
        1    1    3    3  502    0  0.87347519562E+03 -0.38950094396E+03  0.11550358575E+04  0.14995925230E+04  0.50400001928E-02 0. -1.
       -1    1    3    3    0  502 -0.87347519562E+03  0.38950094396E+03 -0.61251634493E+03  0.11357139497E+04  0.50400001928E-02 0.  1.
</event>
<event>
 5   0  0.2159405E-05  0.2632112E+04  0.7818609E-02  0.8357375E-01
       -1   -1    0    0    0  501  0.00000000000E+00  0.00000000000E+00  0.15729627323E+04  0.15729627323E+04  0.50400001928E-02 0.  1.
        1   -1    0    0  501    0  0.00000000000E+00  0.00000000000E+00 -0.11011091100E+04  0.11011091100E+04  0.50400001928E-02 0. -1.
    10030    2    1    2    0    0  0.00000000000E+00  0.00000000000E+00  0.47185362235E+03  0.26740718423E+04  0.26321121513E+04 0.  0.
        3    1    3    3  502    0  0.30274948653E+03  0.63929723886E+03 -0.89156013039E+03  0.11380850968E+04  0.10100000352E+00 0. -1.
       -3    1    3    3    0  502 -0.30274948653E+03 -0.63929723886E+03  0.13634137527E+04  0.15359867456E+04  0.10100000352E+00 0.  1.
</event>
<event>
 5   0  0.5036452E-05  0.2629433E+04  0.7818609E-02  0.8358272E-01
       -2   -1    0    0    0  501  0.00000000000E+00  0.00000000000E+00  0.12946421059E+04  0.12946421060E+04  0.25500000920E-02 0. -1.
        2   -1    0    0  501    0  0.00000000000E+00  0.00000000000E+00 -0.13351022669E+04  0.13351022669E+04  0.25500000920E-02 0.  1.
    10030    2    1    2    0    0  0.00000000000E+00  0.00000000000E+00 -0.40460160902E+02  0.26297443728E+04  0.26294331027E+04 0.  0.
        2    1    3    3  502    0  0.86035941075E+03  0.71900860357E+03  0.66635531896E+03  0.13043086670E+04  0.25500000920E-02 0. -1.
       -2    1    3    3    0  502 -0.86035941075E+03 -0.71900860357E+03 -0.70681547986E+03  0.13254357058E+04  0.25500000920E-02 0.  1.
</event>
<event>
 5   0  0.5036452E-05  0.1658051E+04  0.7818609E-02  0.8785658E-01
        2   -1    0    0  501    0  0.00000000000E+00  0.00000000000E+00  0.56344422822E+03  0.56344422823E+03  0.25500000920E-02 0. -1.
       -2   -1    0    0    0  501  0.00000000000E+00  0.00000000000E+00 -0.12197890636E+04  0.12197890636E+04  0.25500000920E-02 0.  1.
    10030    2    1    2    0    0  0.00000000000E+00  0.00000000000E+00 -0.65634483533E+03  0.17832332918E+04  0.16580507924E+04 0.  0.
        2    1    3    3  502    0  0.12114452182E+03  0.68849491692E+02 -0.12071044248E+04  0.12151202986E+04  0.25500000920E-02 0.  1.
       -2    1    3    3    0  502 -0.12114452182E+03 -0.68849491692E+02  0.55075958945E+03  0.56811299321E+03  0.25500000920E-02 0. -1.
</event>
<event>
 5   0  0.5049803E-05  0.1536972E+04  0.7818609E-02  0.8860232E-01
        2   -1    0    0  501    0  0.00000000000E+00  0.00000000000E+00  0.10998602642E+04  0.10998602642E+04  0.25500000920E-02 0.  1.
       -2   -1    0    0    0  501  0.00000000000E+00  0.00000000000E+00 -0.53695095454E+03  0.53695095454E+03  0.25500000920E-02 0. -1.
    10030    2    1    2    0    0  0.00000000000E+00  0.00000000000E+00  0.56290930962E+03  0.16368112187E+04  0.15369723728E+04 0.  0.
        4    1    3    3  502    0 -0.31648330725E+03  0.67260959381E+03  0.73845018040E+02  0.74700739557E+03  0.12699999809E+01 0. -1.
       -4    1    3    3    0  502  0.31648330725E+03 -0.67260959381E+03  0.48906429158E+03  0.88980382313E+03  0.12699999809E+01 0.  1.
</event>
<event>
 5   0  0.4955675E-05  0.2553532E+04  0.7818609E-02  0.8384159E-01
       -2   -1    0    0    0  501  0.00000000000E+00  0.00000000000E+00  0.10243618964E+04  0.10243618965E+04  0.25500000920E-02 0. -1.
        2   -1    0    0  501    0  0.00000000000E+00  0.00000000000E+00 -0.15913625827E+04  0.15913625827E+04  0.25500000920E-02 0.  1.
    10030    2    1    2    0    0  0.00000000000E+00  0.00000000000E+00 -0.56700068622E+03  0.26157244791E+04  0.25535318233E+04 0.  0.
        5    1    3    3  502    0 -0.46247594866E+03 -0.11902867241E+01 -0.15025366724E+04  0.15721081266E+04  0.46999998093E+01 0.  1.
       -5    1    3    3    0  502  0.46247594866E+03  0.11902867241E+01  0.93553598616E+03  0.10436163525E+04  0.46999998093E+01 0. -1.
</event>
<event>
 5   0  0.5170532E-05  0.2604838E+04  0.7818609E-02  0.8366560E-01
        2   -1    0    0  501    0  0.00000000000E+00  0.00000000000E+00  0.14020616009E+04  0.14020616009E+04  0.25500000920E-02 0. -1.
       -2   -1    0    0    0  501  0.00000000000E+00  0.00000000000E+00 -0.12098574355E+04  0.12098574355E+04  0.25500000920E-02 0.  1.
    10030    2    1    2    0    0  0.00000000000E+00  0.00000000000E+00  0.19220416544E+03  0.26119190364E+04  0.26048375403E+04 0.  0.
        1    1    3    3  502    0  0.32899558915E+03  0.12592276689E+04  0.46956258038E+02  0.13023430079E+04  0.50400001928E-02 0. -1.
       -1    1    3    3    0  502 -0.32899558915E+03 -0.12592276689E+04  0.14524790741E+03  0.13095760285E+04  0.50400001928E-02 0.  1.
</event>
<event>
 5   0  0.4955675E-05  0.2430752E+04  0.7818609E-02  0.8428079E-01
       -2   -1    0    0    0  501  0.00000000000E+00  0.00000000000E+00  0.61678739881E+03  0.61678739881E+03  0.25500000920E-02 0.  1.
        2   -1    0    0  501    0  0.00000000000E+00  0.00000000000E+00 -0.23948912449E+04  0.23948912449E+04  0.25500000920E-02 0. -1.
    10030    2    1    2    0    0  0.00000000000E+00  0.00000000000E+00 -0.17781038461E+04  0.30116786438E+04  0.24307519342E+04 0.  0.
        5    1    3    3  502    0 -0.81838419900E+03  0.33744226542E+03 -0.19208392277E+04  0.21150095527E+04  0.46999998093E+01 0. -1.
       -5    1    3    3    0  502  0.81838419900E+03 -0.33744226542E+03  0.14273538151E+03  0.89666909103E+03  0.46999998093E+01 0.  1.
</event>
<event>
 5   0  0.1954502E-05  0.2586715E+04  0.7818609E-02  0.8372728E-01
        1   -1    0    0  501    0  0.00000000000E+00  0.00000000000E+00  0.10146901381E+04  0.10146901381E+04  0.50400001928E-02 0.  1.
       -1   -1    0    0    0  501  0.00000000000E+00  0.00000000000E+00 -0.16485562909E+04  0.16485562909E+04  0.50400001928E-02 0. -1.
    10030    2    1    2    0    0  0.00000000000E+00  0.00000000000E+00 -0.63386615282E+03  0.26632464290E+04  0.25867151451E+04 0.  0.
        4    1    3    3  502    0  0.10975165897E+04 -0.27659936530E+03  0.32746154784E+03  0.11782540269E+04  0.12699999809E+01 0.  1.
       -4    1    3    3    0  502 -0.10975165897E+04  0.27659936530E+03 -0.96132770066E+03  0.14849924022E+04  0.12699999809E+01 0. -1.
</event>
<event>
 5   0  0.1993815E-05  0.2640519E+04  0.7818609E-02  0.8354567E-01
        1   -1    0    0  501    0  0.00000000000E+00  0.00000000000E+00  0.14513959026E+04  0.14513959027E+04  0.50400001928E-02 0. -1.
       -1   -1    0    0    0  501  0.00000000000E+00  0.00000000000E+00 -0.12009716716E+04  0.12009716716E+04  0.50400001928E-02 0.  1.
    10030    2    1    2    0    0  0.00000000000E+00  0.00000000000E+00  0.25042423107E+03  0.26523675742E+04  0.26405191636E+04 0.  0.
        5    1    3    3  502    0 -0.42090254395E+03 -0.52446726492E+03 -0.10160366638E+04  0.12184323763E+04  0.46999998093E+01 0.  1.
       -5    1    3    3    0  502  0.42090254395E+03  0.52446726492E+03  0.12664608949E+04  0.14339351979E+04  0.46999998093E+01 0. -1.
</event>
<event>
 5   0  0.5049803E-05  0.2548401E+04  0.7818609E-02  0.8385942E-01
        2   -1    0    0  501    0  0.00000000000E+00  0.00000000000E+00  0.18163121804E+04  0.18163121804E+04  0.25500000920E-02 0.  1.
       -2   -1    0    0    0  501  0.00000000000E+00  0.00000000000E+00 -0.89389216984E+03  0.89389216984E+03  0.25500000920E-02 0. -1.
    10030    2    1    2    0    0  0.00000000000E+00  0.00000000000E+00  0.92242001057E+03  0.27102043503E+04  0.25484012526E+04 0.  0.
        4    1    3    3  502    0  0.28650792110E+03 -0.61848993155E+03 -0.68369682233E+03  0.96543230837E+03  0.12699999809E+01 0. -1.
       -4    1    3    3    0  502 -0.28650792110E+03  0.61848993155E+03  0.16061168329E+04  0.17447720419E+04  0.12699999809E+01 0.  1.
</event>
<event>
 5   0  0.5036452E-05  0.2751241E+04  0.7818609E-02  0.8318568E-01
        2   -1    0    0  501    0  0.00000000000E+00  0.00000000000E+00  0.15305103832E+04  0.15305103832E+04  0.25500000920E-02 0. -1.
       -2   -1    0    0    0  501  0.00000000000E+00  0.00000000000E+00 -0.12364059355E+04  0.12364059355E+04  0.25500000920E-02 0.  1.
    10030    2    1    2    0    0  0.00000000000E+00  0.00000000000E+00  0.29410444763E+03  0.27669163187E+04  0.27512412632E+04 0.  0.
        2    1    3    3  502    0 -0.44613781053E+03 -0.93430673983E+03  0.10579521559E+04  0.14802806471E+04  0.25500000920E-02 0. -1.
       -2    1    3    3    0  502  0.44613781053E+03  0.93430673983E+03 -0.76384770824E+03  0.12866356716E+04  0.25500000920E-02 0.  1.
</event>
<event>
 5   0  0.1993815E-05  0.2673369E+04  0.7818609E-02  0.8343698E-01
        1   -1    0    0  501    0  0.00000000000E+00  0.00000000000E+00  0.15818867207E+04  0.15818867207E+04  0.50400001928E-02 0.  1.
       -1   -1    0    0    0  501  0.00000000000E+00  0.00000000000E+00 -0.11294902834E+04  0.11294902834E+04  0.50400001928E-02 0. -1.
    10030    2    1    2    0    0  0.00000000000E+00  0.00000000000E+00  0.45239643733E+03  0.27113770042E+04  0.26733691706E+04 0.  0.
        5    1    3    3  502    0  0.12299134674E+04 -0.12860524320E+03  0.74083439917E+03  0.14415561532E+04  0.46999998093E+01 0.  1.
       -5    1    3    3    0  502 -0.12299134674E+04  0.12860524320E+03 -0.28843796184E+03  0.12698208510E+04  0.46999998093E+01 0. -1.
</event>
<event>
 5   0  0.1954502E-05  0.2609591E+04  0.7818609E-02  0.8364951E-01
        1   -1    0    0  501    0  0.00000000000E+00  0.00000000000E+00  0.13060334740E+04  0.13060334740E+04  0.50400001928E-02 0. -1.
       -1   -1    0    0    0  501  0.00000000000E+00  0.00000000000E+00 -0.13035582393E+04  0.13035582394E+04  0.50400001928E-02 0.  1.
    10030    2    1    2    0    0  0.00000000000E+00  0.00000000000E+00  0.24752346499E+01  0.26095917134E+04  0.26095905395E+04 0.  0.
        4    1    3    3  502    0 -0.39454709957E+03 -0.95149071068E+03  0.80216687378E+03  0.13055555494E+04  0.12699999809E+01 0. -1.
       -4    1    3    3    0  502  0.39454709957E+03  0.95149071068E+03 -0.79969163913E+03  0.13040361639E+04  0.12699999809E+01 0.  1.
</event>
<event>
 5   0  0.4955675E-05  0.2597477E+04  0.7818609E-02  0.8369059E-01
        2   -1    0    0  501    0  0.00000000000E+00  0.00000000000E+00  0.15463918206E+04  0.15463918206E+04  0.25500000920E-02 0.  1.
       -2   -1    0    0    0  501  0.00000000000E+00  0.00000000000E+00 -0.10907469564E+04  0.10907469564E+04  0.25500000920E-02 0. -1.
    10030    2    1    2    0    0  0.00000000000E+00  0.00000000000E+00  0.45564486422E+03  0.26371387771E+04  0.25974773699E+04 0.  0.
        5    1    3    3  502    0  0.52461504287E+03 -0.11542103526E+04  0.51368445372E+03  0.13679606315E+04  0.46999998093E+01 0. -1.
       -5    1    3    3    0  502 -0.52461504287E+03  0.11542103526E+04 -0.58039589505E+02  0.12691781456E+04  0.46999998093E+01 0.  1.
</event>
<event>
 5   0  0.2072710E-05  0.2620060E+04  0.7818609E-02  0.8361419E-01
        1   -1    0    0  501    0  0.00000000000E+00  0.00000000000E+00  0.94739178499E+03  0.94739178500E+03  0.50400001928E-02 0. -1.
       -1   -1    0    0    0  501  0.00000000000E+00  0.00000000000E+00 -0.18114776196E+04  0.18114776197E+04  0.50400001928E-02 0.  1.
    10030    2    1    2    0    0  0.00000000000E+00  0.00000000000E+00 -0.86408583466E+03  0.27588694047E+04  0.26200603165E+04 0.  0.
        2    1    3    3  502    0  0.78375490497E+01 -0.11388665296E+04 -0.11137204859E+04  0.15929380779E+04  0.25500000920E-02 0.  1.
       -2    1    3    3    0  502 -0.78375490497E+01  0.11388665296E+04  0.24963465122E+03  0.11659313267E+04  0.25500000920E-02 0. -1.
</event>
<event>
 5   0  0.2159405E-05  0.2596459E+04  0.7818609E-02  0.8369405E-01
        1   -1    0    0  501    0  0.00000000000E+00  0.00000000000E+00  0.19032933395E+04  0.19032933395E+04  0.50400001928E-02 0.  1.
       -1   -1    0    0    0  501  0.00000000000E+00  0.00000000000E+00 -0.88551772921E+03  0.88551772922E+03  0.50400001928E-02 0. -1.
    10030    2    1    2    0    0  0.00000000000E+00  0.00000000000E+00  0.10177756103E+04  0.27888110687E+04  0.25964591243E+04 0.  0.
        3    1    3    3  502    0  0.35072410889E+03 -0.12482781108E+04  0.57844941117E+03  0.14197920178E+04  0.10100000352E+00 0.  1.
       -3    1    3    3    0  502 -0.35072410889E+03  0.12482781108E+04  0.43932619913E+03  0.13690190509E+04  0.10100000352E+00 0. -1.
</event>
<event>
 5   0  0.2163800E-05  0.2194507E+04  0.7818609E-02  0.8520718E-01
       -1   -1    0    0    0  501  0.00000000000E+00  0.00000000000E+00  0.56489311023E+03  0.56489311025E+03  0.50400001928E-02 0. -1.
        1   -1    0    0  501    0  0.00000000000E+00  0.00000000000E+00 -0.21313149040E+04  0.21313149040E+04  0.50400001928E-02 0.  1.
    10030    2    1    2    0    0  0.00000000000E+00  0.00000000000E+00 -0.15664217938E+04  0.26962080143E+04  0.21945068740E+04 0.  0.
        1    1    3    3  502    0 -0.58820666822E+03  0.91306728067E+03 -0.97467875919E+03  0.14593415047E+04  0.50400001928E-02 0. -1.
       -1    1    3    3    0  502  0.58820666822E+03 -0.91306728067E+03 -0.59174303459E+03  0.12368665096E+04  0.50400001928E-02 0.  1.
</event>
<event>
 5   0  0.5170532E-05  0.2640863E+04  0.7818609E-02  0.8354452E-01
        2   -1    0    0  501    0  0.00000000000E+00  0.00000000000E+00  0.21293832163E+04  0.21293832163E+04  0.25500000920E-02 0.  1.
       -2   -1    0    0    0  501  0.00000000000E+00  0.00000000000E+00 -0.81880019971E+03  0.81880019972E+03  0.25500000920E-02 0. -1.
    10030    2    1    2    0    0  0.00000000000E+00  0.00000000000E+00  0.13105830166E+04  0.29481834160E+04  0.26408630429E+04 0.  0.
        1    1    3    3  502    0 -0.56281027383E+03  0.88781749470E+03  0.15473860200E+04  0.18706626642E+04  0.50400001928E-02 0.  1.
       -1    1    3    3    0  502  0.56281027383E+03 -0.88781749470E+03 -0.23680300341E+03  0.10775207519E+04  0.50400001928E-02 0. -1.
</event>
<event>
 5   0  0.5182179E-05  0.2596168E+04  0.7818609E-02  0.8369504E-01
       -2   -1    0    0    0  501  0.00000000000E+00  0.00000000000E+00  0.94621883119E+03  0.94621883119E+03  0.25500000920E-02 0. -1.
        2   -1    0    0  501    0  0.00000000000E+00  0.00000000000E+00 -0.17807952530E+04  0.17807952530E+04  0.25500000920E-02 0.  1.
    10030    2    1    2    0    0  0.00000000000E+00  0.00000000000E+00 -0.83457642184E+03  0.27270140842E+04  0.25961679475E+04 0.  0.
        3    1    3    3  502    0 -0.72678421130E+03  0.76882703460E+03 -0.12073338410E+04  0.16052929056E+04  0.10100000352E+00 0.  1.
       -3    1    3    3    0  502  0.72678421130E+03 -0.76882703460E+03  0.37275741912E+03  0.11217211787E+04  0.10100000352E+00 0. -1.
</event>
<event>
 5   0  0.4955675E-05  0.2610670E+04  0.7818609E-02  0.8364586E-01
       -2   -1    0    0    0  501  0.00000000000E+00  0.00000000000E+00  0.12262621320E+04  0.12262621320E+04  0.25500000920E-02 0.  1.
        2   -1    0    0  501    0  0.00000000000E+00  0.00000000000E+00 -0.13895062386E+04  0.13895062386E+04  0.25500000920E-02 0. -1.
    10030    2    1    2    0    0  0.00000000000E+00  0.00000000000E+00 -0.16324410661E+03  0.26157683706E+04  0.26106695559E+04 0.  0.
        5    1    3    3  502    0 -0.23504258504E+03 -0.95158699364E+03 -0.94534626151E+03  0.13617872328E+04  0.46999998093E+01 0. -1.
       -5    1    3    3    0  502  0.23504258504E+03  0.95158699364E+03  0.78210215491E+03  0.12539811378E+04  0.46999998093E+01 0.  1.
</event>
<event>
 5   0  0.5049803E-05  0.2634883E+04  0.7818609E-02  0.8356448E-01
        2   -1    0    0  501    0  0.00000000000E+00  0.00000000000E+00  0.14063941795E+04  0.14063941795E+04  0.25500000920E-02 0. -1.
       -2   -1    0    0    0  501  0.00000000000E+00  0.00000000000E+00 -0.12341152731E+04  0.12341152731E+04  0.25500000920E-02 0.  1.
    10030    2    1    2    0    0  0.00000000000E+00  0.00000000000E+00  0.17227890636E+03  0.26405094526E+04  0.26348833271E+04 0.  0.
        4    1    3    3  502    0  0.56319084301E+03  0.72656455598E+03  0.10318551513E+04  0.13819575413E+04  0.12699999809E+01 0. -1.
       -4    1    3    3    0  502 -0.56319084301E+03 -0.72656455598E+03 -0.85957624497E+03  0.12585519113E+04  0.12699999809E+01 0.  1.
</event>
<event>
 5   0  0.5170532E-05  0.2612605E+04  0.7818609E-02  0.8363932E-01
        2   -1    0    0  501    0  0.00000000000E+00  0.00000000000E+00  0.13536476698E+04  0.13536476698E+04  0.25500000920E-02 0. -1.
       -2   -1    0    0    0  501  0.00000000000E+00  0.00000000000E+00 -0.12606130737E+04  0.12606130737E+04  0.25500000920E-02 0.  1.
    10030    2    1    2    0    0  0.00000000000E+00  0.00000000000E+00  0.93034596039E+02  0.26142607435E+04  0.26126047920E+04 0.  0.
        1    1    3    3  502    0 -0.31762260664E+03  0.24868537001E+03 -0.11967264130E+04  0.12628866303E+04  0.50400001928E-02 0.  1.
       -1    1    3    3    0  502  0.31762260664E+03 -0.24868537001E+03  0.12897610090E+04  0.13513741132E+04  0.50400001928E-02 0. -1.
</event>
<event>
 5   0  0.1954502E-05  0.2617428E+04  0.7818609E-02  0.8362305E-01
       -1   -1    0    0    0  501  0.00000000000E+00  0.00000000000E+00  0.14361262445E+04  0.14361262445E+04  0.50400001928E-02 0. -1.
        1   -1    0    0  501    0  0.00000000000E+00  0.00000000000E+00 -0.11926055107E+04  0.11926055107E+04  0.50400001928E-02 0.  1.
    10030    2    1    2    0    0  0.00000000000E+00  0.00000000000E+00  0.24352073381E+03  0.26287317552E+04  0.26174278009E+04 0.  0.
        4    1    3    3  502    0 -0.12748334528E+04  0.11470054763E+03 -0.15213322672E+03  0.12889928936E+04  0.12699999809E+01 0.  1.
       -4    1    3    3    0  502  0.12748334528E+04 -0.11470054763E+03  0.39565396052E+03  0.13397388617E+04  0.12699999809E+01 0. -1.
</event>
<event>
 5   0  0.2159405E-05  0.2629765E+04  0.7818609E-02  0.8358161E-01
       -1   -1    0    0    0  501  0.00000000000E+00  0.00000000000E+00  0.88908335368E+03  0.88908335370E+03  0.50400001928E-02 0.  1.
        1   -1    0    0  501    0  0.00000000000E+00  0.00000000000E+00 -0.19446045406E+04  0.19446045406E+04  0.50400001928E-02 0. -1.
    10030    2    1    2    0    0  0.00000000000E+00  0.00000000000E+00 -0.10555211869E+04  0.28336878943E+04  0.26297646484E+04 0.  0.
        3    1    3    3  502    0  0.79064160002E+03  0.10028368411E+04 -0.19023001768E+03  0.12911170897E+04  0.10100000352E+00 0.  1.
       -3    1    3    3    0  502 -0.79064160002E+03 -0.10028368411E+04 -0.86529116920E+03  0.15425708046E+04  0.10100000352E+00 0. -1.
</event>
<event>
 5   0  0.4955675E-05  0.2620430E+04  0.7818609E-02  0.8361295E-01
        2   -1    0    0  501    0  0.00000000000E+00  0.00000000000E+00  0.13473195231E+04  0.13473195231E+04  0.25500000920E-02 0.  1.
       -2   -1    0    0    0  501  0.00000000000E+00  0.00000000000E+00 -0.12741318954E+04  0.12741318954E+04  0.25500000920E-02 0. -1.
    10030    2    1    2    0    0  0.00000000000E+00  0.00000000000E+00  0.73187627688E+02  0.26214514184E+04  0.26204295660E+04 0.  0.
        5    1    3    3  502    0 -0.28202925963E+03 -0.97106993816E+03  0.87005936222E+03  0.13339950194E+04  0.46999998093E+01 0.  1.
       -5    1    3    3    0  502  0.28202925963E+03  0.97106993816E+03 -0.79687173453E+03  0.12874563990E+04  0.46999998093E+01 0. -1.
</event>
<event>
 5   0  0.5182179E-05  0.2607174E+04  0.7818609E-02  0.8365768E-01
        2   -1    0    0  501    0  0.00000000000E+00  0.00000000000E+00  0.11908224440E+04  0.11908224440E+04  0.25500000920E-02 0. -1.
       -2   -1    0    0    0  501  0.00000000000E+00  0.00000000000E+00 -0.14270299943E+04  0.14270299943E+04  0.25500000920E-02 0.  1.
    10030    2    1    2    0    0  0.00000000000E+00  0.00000000000E+00 -0.23620755028E+03  0.26178524384E+04  0.26071742140E+04 0.  0.
        3    1    3    3  502    0 -0.35942620821E+03  0.11031301553E+03 -0.13714079673E+04  0.14220112459E+04  0.10100000352E+00 0.  1.
       -3    1    3    3    0  502  0.35942620821E+03 -0.11031301553E+03  0.11352004170E+04  0.11958411924E+04  0.10100000352E+00 0. -1.
</event>
<event>
 5   0  0.1954502E-05  0.1500509E+04  0.7818609E-02  0.8884115E-01
        1   -1    0    0  501    0  0.00000000000E+00  0.00000000000E+00  0.20594070427E+04  0.20594070427E+04  0.50400001928E-02 0.  1.
       -1   -1    0    0    0  501  0.00000000000E+00  0.00000000000E+00 -0.27332223824E+03  0.27332223829E+03  0.50400001928E-02 0. -1.
    10030    2    1    2    0    0  0.00000000000E+00  0.00000000000E+00  0.17860848045E+04  0.23327292810E+04  0.15005089036E+04 0.  0.
        4    1    3    3  502    0 -0.20528366136E+03  0.45215429215E+03  0.18719016240E+02  0.49692745950E+03  0.12699999809E+01 0. -1.
       -4    1    3    3    0  502  0.20528366136E+03 -0.45215429215E+03  0.17673657883E+04  0.18358018215E+04  0.12699999809E+01 0.  1.
</event>
<event>
 5   0  0.2163800E-05  0.2605508E+04  0.7818609E-02  0.8366333E-01
        1   -1    0    0  501    0  0.00000000000E+00  0.00000000000E+00  0.14273311668E+04  0.14273311668E+04  0.50400001928E-02 0. -1.
       -1   -1    0    0    0  501  0.00000000000E+00  0.00000000000E+00 -0.11890495986E+04  0.11890495986E+04  0.50400001928E-02 0.  1.
    10030    2    1    2    0    0  0.00000000000E+00  0.00000000000E+00  0.23828156821E+03  0.26163807655E+04  0.26055076673E+04 0.  0.
        1    1    3    3  502    0  0.10955504203E+04  0.39508725365E+02 -0.58762582665E+03  0.12438230481E+04  0.50400001928E-02 0.  1.
       -1    1    3    3    0  502 -0.10955504203E+04 -0.39508725365E+02  0.82590739486E+03  0.13725577174E+04  0.50400001928E-02 0. -1.
</event>
<event>
 5   0  0.4955675E-05  0.2641934E+04  0.7818609E-02  0.8354095E-01
       -2   -1    0    0    0  501  0.00000000000E+00  0.00000000000E+00  0.76458696181E+03  0.76458696181E+03  0.25500000920E-02 0.  1.
        2   -1    0    0  501    0  0.00000000000E+00  0.00000000000E+00 -0.22822177419E+04  0.22822177419E+04  0.25500000920E-02 0. -1.
    10030    2    1    2    0    0  0.00000000000E+00  0.00000000000E+00 -0.15176307801E+04  0.30468047037E+04  0.26419340866E+04 0.  0.
        5    1    3    3  502    0 -0.11644408474E+04 -0.32774900704E+03 -0.14684387576E+03  0.12185758543E+04  0.46999998093E+01 0.  1.
       -5    1    3    3    0  502  0.11644408474E+04  0.32774900704E+03 -0.13707869043E+04  0.18282288494E+04  0.46999998093E+01 0. -1.
</event>
<event>
 5   0  0.1954502E-05  0.1873869E+04  0.7818609E-02  0.8667974E-01
       -1   -1    0    0    0  501  0.00000000000E+00  0.00000000000E+00  0.82350947301E+03  0.82350947303E+03  0.50400001928E-02 0.  1.
        1   -1    0    0  501    0  0.00000000000E+00  0.00000000000E+00 -0.10659818592E+04  0.10659818592E+04  0.50400001928E-02 0. -1.
    10030    2    1    2    0    0  0.00000000000E+00  0.00000000000E+00 -0.24247238620E+03  0.18894913323E+04  0.18738688952E+04 0.  0.
        4    1    3    3  502    0 -0.49329662787E+03  0.26421682780E+03 -0.87896132627E+03  0.10419821117E+04  0.12699999809E+01 0. -1.
       -4    1    3    3    0  502  0.49329662787E+03 -0.26421682780E+03  0.63648894007E+03  0.84750922053E+03  0.12699999809E+01 0.  1.
</event>
<event>
 5   0  0.2163800E-05  0.2575256E+04  0.7818609E-02  0.8376655E-01
        1   -1    0    0  501    0  0.00000000000E+00  0.00000000000E+00  0.13671330782E+04  0.13671330782E+04  0.50400001928E-02 0.  1.
       -1   -1    0    0    0  501  0.00000000000E+00  0.00000000000E+00 -0.12127461123E+04  0.12127461123E+04  0.50400001928E-02 0. -1.
    10030    2    1    2    0    0  0.00000000000E+00  0.00000000000E+00  0.15438696587E+03  0.25798791905E+04  0.25752555800E+04 0.  0.
        1    1    3    3  502    0  0.25003828039E+02 -0.61777588794E+03  0.12086960352E+04  0.13576517760E+04  0.50400001928E-02 0.  1.
       -1    1    3    3    0  502 -0.25003828039E+02  0.61777588794E+03 -0.10543090694E+04  0.12222274146E+04  0.50400001928E-02 0. -1.
</event>
<event>
 5   0  0.5049803E-05  0.2540792E+04  0.7818609E-02  0.8388595E-01
       -2   -1    0    0    0  501  0.00000000000E+00  0.00000000000E+00  0.11931118912E+04  0.11931118912E+04  0.25500000920E-02 0. -1.
        2   -1    0    0  501    0  0.00000000000E+00  0.00000000000E+00 -0.13526866955E+04  0.13526866955E+04  0.25500000920E-02 0.  1.
    10030    2    1    2    0    0  0.00000000000E+00  0.00000000000E+00 -0.15957480428E+03  0.25457985868E+04  0.25407924603E+04 0.  0.
        4    1    3    3  502    0  0.43876468814E+01  0.87716337550E+03  0.84097376628E+03  0.12151844828E+04  0.12699999809E+01 0. -1.
       -4    1    3    3    0  502 -0.43876468814E+01 -0.87716337550E+03 -0.10005485706E+04  0.13306141040E+04  0.12699999809E+01 0.  1.
</event>
<event>
 5   0  0.2159405E-05  0.2535781E+04  0.7818609E-02  0.8390348E-01
       -1   -1    0    0    0  501  0.00000000000E+00  0.00000000000E+00  0.13095771056E+04  0.13095771056E+04  0.50400001928E-02 0.  1.
        1   -1    0    0  501    0  0.00000000000E+00  0.00000000000E+00 -0.12275304385E+04  0.12275304385E+04  0.50400001928E-02 0. -1.
    10030    2    1    2    0    0  0.00000000000E+00  0.00000000000E+00  0.82046667074E+02  0.25371075441E+04  0.25357805573E+04 0.  0.
        3    1    3    3  502    0  0.46878112263E+03  0.11671150519E+04  0.20120853034E+03  0.12737339472E+04  0.10100000352E+00 0.  1.
       -3    1    3    3    0  502 -0.46878112263E+03 -0.11671150519E+04 -0.11916186326E+03  0.12633735969E+04  0.10100000352E+00 0. -1.
</event>
<event>
 5   0  0.2159405E-05  0.2330088E+04  0.7818609E-02  0.8466152E-01
        1   -1    0    0  501    0  0.00000000000E+00  0.00000000000E+00  0.15366572165E+04  0.15366572165E+04  0.50400001928E-02 0.  1.
       -1   -1    0    0    0  501  0.00000000000E+00  0.00000000000E+00 -0.88329869757E+03  0.88329869758E+03  0.50400001928E-02 0. -1.
    10030    2    1    2    0    0  0.00000000000E+00  0.00000000000E+00  0.65335851890E+03  0.24199559141E+04  0.23300878249E+04 0.  0.
        3    1    3    3  502    0  0.15973450516E+03  0.11451205769E+04  0.47541975232E+03  0.12501360721E+04  0.10100000352E+00 0.  1.
       -3    1    3    3    0  502 -0.15973450516E+03 -0.11451205769E+04  0.17793876659E+03  0.11698198419E+04  0.10100000352E+00 0. -1.
</event>
<event>
 5   0  0.2163800E-05  0.2238134E+04  0.7818609E-02  0.8502721E-01
       -1   -1    0    0    0  501  0.00000000000E+00  0.00000000000E+00  0.49653622619E+03  0.49653622622E+03  0.50400001928E-02 0. -1.
        1   -1    0    0  501    0  0.00000000000E+00  0.00000000000E+00 -0.25220945210E+04  0.25220945210E+04  0.50400001928E-02 0.  1.
    10030    2    1    2    0    0  0.00000000000E+00  0.00000000000E+00 -0.20255582948E+04  0.30186307473E+04  0.22381343084E+04 0.  0.
        1    1    3    3  502    0 -0.58646173171E+03 -0.39986276067E+03  0.15407082928E+03  0.72633698142E+03  0.50400001928E-02 0. -1.
       -1    1    3    3    0  502  0.58646173171E+03  0.39986276067E+03 -0.21796291241E+04  0.22922937658E+04  0.50400001928E-02 0.  1.
</event>
<event>
 5   0  0.1993815E-05  0.2714061E+04  0.7818609E-02  0.8330457E-01
        1   -1    0    0  501    0  0.00000000000E+00  0.00000000000E+00  0.16802656762E+04  0.16802656762E+04  0.50400001928E-02 0. -1.
       -1   -1    0    0    0  501  0.00000000000E+00  0.00000000000E+00 -0.10959766133E+04  0.10959766133E+04  0.50400001928E-02 0.  1.
    10030    2    1    2    0    0  0.00000000000E+00  0.00000000000E+00  0.58428906297E+03  0.27762422895E+04  0.27140610791E+04 0.  0.
        5    1    3    3  502    0 -0.24581475170E+03 -0.13339092171E+04  0.24909586341E+03  0.13790611049E+04  0.46999998093E+01 0.  1.
       -5    1    3    3    0  502  0.24581475170E+03  0.13339092171E+04  0.33519319957E+03  0.13971811847E+04  0.46999998093E+01 0. -1.
</event>
<event>
 5   0  0.1993815E-05  0.2553936E+04  0.7818609E-02  0.8384018E-01
        1   -1    0    0  501    0  0.00000000000E+00  0.00000000000E+00  0.11222961025E+04  0.11222961025E+04  0.50400001928E-02 0. -1.
       -1   -1    0    0    0  501  0.00000000000E+00  0.00000000000E+00 -0.14529567299E+04  0.14529567299E+04  0.50400001928E-02 0.  1.
    10030    2    1    2    0    0  0.00000000000E+00  0.00000000000E+00 -0.33066062744E+03  0.25752528324E+04  0.25539363149E+04 0.  0.
        5    1    3    3  502    0 -0.61493959160E+02 -0.93805826148E+03  0.70611142690E+03  0.11757339181E+04  0.46999998093E+01 0. -1.
       -5    1    3    3    0  502  0.61493959160E+02  0.93805826148E+03 -0.10367720543E+04  0.13995189143E+04  0.46999998093E+01 0.  1.
</event>
<event>
 5   0  0.2072710E-05  0.2636310E+04  0.7818609E-02  0.8355971E-01
        1   -1    0    0  501    0  0.00000000000E+00  0.00000000000E+00  0.22458738650E+04  0.22458738650E+04  0.50400001928E-02 0.  1.
       -1   -1    0    0    0  501  0.00000000000E+00  0.00000000000E+00 -0.77365547013E+03  0.77365547015E+03  0.50400001928E-02 0. -1.
    10030    2    1    2    0    0  0.00000000000E+00  0.00000000000E+00  0.14722183948E+04  0.30195293351E+04  0.26363099976E+04 0.  0.
        2    1    3    3  502    0  0.51097782978E+02 -0.57399278212E+03 -0.62173856080E+03  0.84772491726E+03  0.25500000920E-02 0. -1.
       -2    1    3    3    0  502 -0.51097782978E+02  0.57399278212E+03  0.20939569556E+04  0.21718044179E+04  0.25500000920E-02 0.  1.
</event>
<event>
 5   0  0.2072710E-05  0.1724034E+04  0.7818609E-02  0.8747775E-01
        1   -1    0    0  501    0  0.00000000000E+00  0.00000000000E+00  0.13031586096E+04  0.13031586096E+04  0.50400001928E-02 0.  1.
       -1   -1    0    0    0  501  0.00000000000E+00  0.00000000000E+00 -0.57020908906E+03  0.57020908908E+03  0.50400001928E-02 0. -1.
    10030    2    1    2    0    0  0.00000000000E+00  0.00000000000E+00  0.73294952053E+03  0.18733676987E+04  0.17240335074E+04 0.  0.
        2    1    3    3  502    0 -0.58065907982E+03  0.50481780616E+03 -0.55865013562E+02  0.77144467342E+03  0.25500000920E-02 0. -1.
       -2    1    3    3    0  502  0.58065907982E+03 -0.50481780616E+03  0.78881453409E+03  0.11019230253E+04  0.25500000920E-02 0.  1.
</event>
<event>
 5   0  0.2072710E-05  0.2583090E+04  0.7818609E-02  0.8373968E-01
       -1   -1    0    0    0  501  0.00000000000E+00  0.00000000000E+00  0.23051101856E+04  0.23051101856E+04  0.50400001928E-02 0. -1.
        1   -1    0    0  501    0  0.00000000000E+00  0.00000000000E+00 -0.72364828423E+03  0.72364828425E+03  0.50400001928E-02 0.  1.
    10030    2    1    2    0    0  0.00000000000E+00  0.00000000000E+00  0.15814619014E+04  0.30287584699E+04  0.25830904210E+04 0.  0.
        2    1    3    3  502    0 -0.11449619564E+04 -0.54395969855E+03  0.50052255771E+03  0.13628473378E+04  0.25500000920E-02 0. -1.
       -2    1    3    3    0  502  0.11449619564E+04  0.54395969855E+03  0.10809393437E+04  0.16659111321E+04  0.25500000920E-02 0.  1.
</event>
<event>
 5   0  0.4955675E-05  0.2719146E+04  0.7818609E-02  0.8328819E-01
       -2   -1    0    0    0  501  0.00000000000E+00  0.00000000000E+00  0.87437556184E+03  0.87437556184E+03  0.25500000920E-02 0.  1.
        2   -1    0    0  501    0  0.00000000000E+00  0.00000000000E+00 -0.21140103118E+04  0.21140103118E+04  0.25500000920E-02 0. -1.
    10030    2    1    2    0    0  0.00000000000E+00  0.00000000000E+00 -0.12396347499E+04  0.29883858736E+04  0.27191461557E+04 0.  0.
        5    1    3    3  502    0  0.37278246936E+03 -0.12909148064E+04 -0.39194950997E+03  0.13996693593E+04  0.46999998093E+01 0. -1.
       -5    1    3    3    0  502 -0.37278246936E+03  0.12909148064E+04 -0.84768523995E+03  0.15887165143E+04  0.46999998093E+01 0.  1.
</event>
<event>
 5   0  0.2163800E-05  0.2502001E+04  0.7818609E-02  0.8402273E-01
       -1   -1    0    0    0  501  0.00000000000E+00  0.00000000000E+00  0.15997166017E+04  0.15997166017E+04  0.50400001928E-02 0. -1.
        1   -1    0    0  501    0  0.00000000000E+00  0.00000000000E+00 -0.97829953453E+03  0.97829953455E+03  0.50400001928E-02 0.  1.
    10030    2    1    2    0    0  0.00000000000E+00  0.00000000000E+00  0.62141706712E+03  0.25780161362E+04  0.25020008048E+04 0.  0.
        1    1    3    3  502    0 -0.60570768834E+02  0.27851078872E+03  0.15658154915E+04  0.15915449195E+04  0.50400001928E-02 0. -1.
       -1    1    3    3    0  502  0.60570768834E+02 -0.27851078872E+03 -0.94439842434E+03  0.98647121671E+03  0.50400001928E-02 0.  1.
</event>
<event>
 5   0  0.4955675E-05  0.2033122E+04  0.7818609E-02  0.8591290E-01
       -2   -1    0    0    0  501  0.00000000000E+00  0.00000000000E+00  0.54092985390E+03  0.54092985390E+03  0.25500000920E-02 0.  1.
        2   -1    0    0  501    0  0.00000000000E+00  0.00000000000E+00 -0.19104074341E+04  0.19104074341E+04  0.25500000920E-02 0. -1.
    10030    2    1    2    0    0  0.00000000000E+00  0.00000000000E+00 -0.13694775802E+04  0.24513372880E+04  0.20331221451E+04 0.  0.
        5    1    3    3  502    0  0.83658398533E+03 -0.32322448016E+03 -0.12617488864E+04  0.15480242800E+04  0.46999998093E+01 0. -1.
       -5    1    3    3    0  502 -0.83658398533E+03  0.32322448016E+03 -0.10772869386E+03  0.90331300808E+03  0.46999998093E+01 0.  1.
</event>
<event>
 5   0  0.1954502E-05  0.1740462E+04  0.7818609E-02  0.8738618E-01
       -1   -1    0    0    0  501  0.00000000000E+00  0.00000000000E+00  0.79025151663E+03  0.79025151665E+03  0.50400001928E-02 0.  1.
        1   -1    0    0  501    0  0.00000000000E+00  0.00000000000E+00 -0.95830547912E+03  0.95830547913E+03  0.50400001928E-02 0. -1.
    10030    2    1    2    0    0  0.00000000000E+00  0.00000000000E+00 -0.16805396249E+03  0.17485569958E+04  0.17404624193E+04 0.  0.
        4    1    3    3  502    0  0.21431570326E+03  0.42869886189E+03 -0.81375682460E+03  0.94441289557E+03  0.12699999809E+01 0. -1.
       -4    1    3    3    0  502 -0.21431570326E+03 -0.42869886189E+03  0.64570286211E+03  0.80414410020E+03  0.12699999809E+01 0.  1.
</event>
<event>
 5   0  0.5049803E-05  0.2396974E+04  0.7818609E-02  0.8440637E-01
       -2   -1    0    0    0  501  0.00000000000E+00  0.00000000000E+00  0.69436397233E+03  0.69436397234E+03  0.25500000920E-02 0. -1.
        2   -1    0    0  501    0  0.00000000000E+00  0.00000000000E+00 -0.20686144860E+04  0.20686144860E+04  0.25500000920E-02 0.  1.
    10030    2    1    2    0    0  0.00000000000E+00  0.00000000000E+00 -0.13742505136E+04  0.27629784583E+04  0.23969742357E+04 0.  0.
        4    1    3    3  502    0 -0.28081181097E+03 -0.91746218573E+03  0.14071278795E+03  0.96973905614E+03  0.12699999809E+01 0. -1.
       -4    1    3    3    0  502  0.28081181097E+03  0.91746218573E+03 -0.15149633016E+04  0.17932394022E+04  0.12699999809E+01 0.  1.
</event>
<event>
 5   0  0.5170532E-05  0.2687334E+04  0.7818609E-02  0.8339126E-01
       -2   -1    0    0    0  501  0.00000000000E+00  0.00000000000E+00  0.16281449686E+04  0.16281449686E+04  0.25500000920E-02 0.  1.
        2   -1    0    0  501    0  0.00000000000E+00  0.00000000000E+00 -0.11088947562E+04  0.11088947562E+04  0.25500000920E-02 0. -1.
    10030    2    1    2    0    0  0.00000000000E+00  0.00000000000E+00  0.51925021244E+03  0.27370397248E+04  0.26873343060E+04 0.  0.
        1    1    3    3  502    0 -0.12780332501E+04  0.45239888484E+01 -0.16283842097E+03  0.12883733179E+04  0.50400001928E-02 0. -1.
       -1    1    3    3    0  502  0.12780332501E+04 -0.45239888484E+01  0.68208863342E+03  0.14486664070E+04  0.50400001928E-02 0.  1.
</event>
<event>
 5   0  0.2159405E-05  0.2701511E+04  0.7818609E-02  0.8334515E-01
        1   -1    0    0  501    0  0.00000000000E+00  0.00000000000E+00  0.91087300809E+03  0.91087300810E+03  0.50400001928E-02 0.  1.
       -1   -1    0    0    0  501  0.00000000000E+00  0.00000000000E+00 -0.20030671094E+04  0.20030671094E+04  0.50400001928E-02 0. -1.
    10030    2    1    2    0    0  0.00000000000E+00  0.00000000000E+00 -0.10921941014E+04  0.29139401176E+04  0.27015105133E+04 0.  0.
        3    1    3    3  502    0 -0.89154377516E+02  0.68516458414E+03  0.70583410131E+03  0.98772506254E+03  0.10100000352E+00 0.  1.
       -3    1    3    3    0  502  0.89154377516E+02 -0.68516458414E+03 -0.17980282027E+04  0.19262150550E+04  0.10100000352E+00 0. -1.
</event>
<event>
 5   0  0.5182179E-05  0.2296735E+04  0.7818609E-02  0.8479210E-01
        2   -1    0    0  501    0  0.00000000000E+00  0.00000000000E+00  0.18949844285E+04  0.18949844285E+04  0.25500000920E-02 0. -1.
       -2   -1    0    0    0  501  0.00000000000E+00  0.00000000000E+00 -0.69591489303E+03  0.69591489303E+03  0.25500000920E-02 0.  1.
    10030    2    1    2    0    0  0.00000000000E+00  0.00000000000E+00  0.11990695355E+04  0.25908993216E+04  0.22967349746E+04 0.  0.
        3    1    3    3  502    0  0.86779973879E+03  0.18912013044E+03 -0.22164584745E+03  0.91540685069E+03  0.10100000352E+00 0.  1.
       -3    1    3    3    0  502 -0.86779973879E+03 -0.18912013044E+03  0.14207153830E+04  0.16754924709E+04  0.10100000352E+00 0. -1.
</event>
<event>
 5   0  0.1954502E-05  0.2679623E+04  0.7818609E-02  0.8341647E-01
        1   -1    0    0  501    0  0.00000000000E+00  0.00000000000E+00  0.11792712372E+04  0.11792712372E+04  0.50400001928E-02 0.  1.
       -1   -1    0    0    0  501  0.00000000000E+00  0.00000000000E+00 -0.15222065032E+04  0.15222065032E+04  0.50400001928E-02 0. -1.
    10030    2    1    2    0    0  0.00000000000E+00  0.00000000000E+00 -0.34293526594E+03  0.27014777404E+04  0.26796226199E+04 0.  0.
        4    1    3    3  502    0 -0.90090065911E+03 -0.47041296003E+03 -0.10516186827E+04  0.14624683987E+04  0.12699999809E+01 0. -1.
       -4    1    3    3    0  502  0.90090065911E+03  0.47041296003E+03  0.70868341680E+03  0.12390093416E+04  0.12699999809E+01 0.  1.
</event>
<event>
 5   0  0.5036452E-05  0.2105467E+04  0.7818609E-02  0.8558839E-01
        2   -1    0    0  501    0  0.00000000000E+00  0.00000000000E+00  0.25506542712E+04  0.25506542712E+04  0.25500000920E-02 0. -1.
       -2   -1    0    0    0  501  0.00000000000E+00  0.00000000000E+00 -0.43449569362E+03  0.43449569362E+03  0.25500000920E-02 0.  1.
    10030    2    1    2    0    0  0.00000000000E+00  0.00000000000E+00  0.21161585775E+04  0.29851499648E+04  0.21054674509E+04 0.  0.
        2    1    3    3  502    0  0.18367235754E+03  0.68696043393E+03  0.21586843595E+04  0.22727886696E+04  0.25500000920E-02 0. -1.
       -2    1    3    3    0  502 -0.18367235754E+03 -0.68696043393E+03 -0.42525781971E+02  0.71236129517E+03  0.25500000920E-02 0.  1.
</event>
<event>
 5   0  0.1954502E-05  0.2502493E+04  0.7818609E-02  0.8402098E-01
        1   -1    0    0  501    0  0.00000000000E+00  0.00000000000E+00  0.21468893011E+04  0.21468893011E+04  0.50400001928E-02 0. -1.
       -1   -1    0    0    0  501  0.00000000000E+00  0.00000000000E+00 -0.72924917035E+03  0.72924917037E+03  0.50400001928E-02 0.  1.
    10030    2    1    2    0    0  0.00000000000E+00  0.00000000000E+00  0.14176401307E+04  0.28761384714E+04  0.25024925508E+04 0.  0.
        4    1    3    3  502    0 -0.10586794336E+04  0.10405131122E+03 -0.48318317688E+02  0.10648779701E+04  0.12699999809E+01 0.  1.
       -4    1    3    3    0  502  0.10586794336E+04 -0.10405131122E+03  0.14659584484E+04  0.18112605014E+04  0.12699999809E+01 0. -1.
</event>
<event>
 5   0  0.1954502E-05  0.2731519E+04  0.7818609E-02  0.8324850E-01
       -1   -1    0    0    0  501  0.00000000000E+00  0.00000000000E+00  0.21290078027E+04  0.21290078027E+04  0.50400001928E-02 0.  1.
        1   -1    0    0  501    0  0.00000000000E+00  0.00000000000E+00 -0.87613514882E+03  0.87613514884E+03  0.50400001928E-02 0. -1.
    10030    2    1    2    0    0  0.00000000000E+00  0.00000000000E+00  0.12528726539E+04  0.30051429515E+04  0.27315186751E+04 0.  0.
        4    1    3    3  502    0 -0.10522318532E+04  0.82252576971E+03  0.94062468805E+03  0.16335595892E+04  0.12699999809E+01 0.  1.
       -4    1    3    3    0  502  0.10522318532E+04 -0.82252576971E+03  0.31224796583E+03  0.13715833623E+04  0.12699999809E+01 0. -1.
</event>
<event>
 5   0  0.2072710E-05  0.2622007E+04  0.7818609E-02  0.8360764E-01
        1   -1    0    0  501    0  0.00000000000E+00  0.00000000000E+00  0.17963170517E+04  0.17963170517E+04  0.50400001928E-02 0.  1.
       -1   -1    0    0    0  501  0.00000000000E+00  0.00000000000E+00 -0.95680760448E+03  0.95680760449E+03  0.50400001928E-02 0. -1.
    10030    2    1    2    0    0  0.00000000000E+00  0.00000000000E+00  0.83950944726E+03  0.27531246562E+04  0.26220067240E+04 0.  0.
        2    1    3    3  502    0  0.73437439124E+03  0.33987959922E+03  0.15027927090E+04  0.17068127650E+04  0.25500000920E-02 0.  1.
       -2    1    3    3    0  502 -0.73437439124E+03 -0.33987959922E+03 -0.66328326174E+03  0.10463118913E+04  0.25500000920E-02 0. -1.
</event>
<event>
 5   0  0.5036452E-05  0.2629161E+04  0.7818609E-02  0.8358363E-01
       -2   -1    0    0    0  501  0.00000000000E+00  0.00000000000E+00  0.89396313234E+03  0.89396313234E+03  0.25500000920E-02 0.  1.
        2   -1    0    0  501    0  0.00000000000E+00  0.00000000000E+00 -0.19331019379E+04  0.19331019379E+04  0.25500000920E-02 0. -1.
    10030    2    1    2    0    0  0.00000000000E+00  0.00000000000E+00 -0.10391388055E+04  0.28270650702E+04  0.26291609791E+04 0.  0.
        2    1    3    3  502    0 -0.38779822085E+03 -0.43545912607E+03 -0.17864349615E+04  0.18791918428E+04  0.25500000920E-02 0. -1.
       -2    1    3    3    0  502  0.38779822085E+03  0.43545912607E+03  0.74729615592E+03  0.94787322741E+03  0.25500000920E-02 0.  1.
</event>
<event>
 5   0  0.5170532E-05  0.2636429E+04  0.7818609E-02  0.8355931E-01
        2   -1    0    0  501    0  0.00000000000E+00  0.00000000000E+00  0.14880134593E+04  0.14880134593E+04  0.25500000920E-02 0.  1.
       -2   -1    0    0    0  501  0.00000000000E+00  0.00000000000E+00 -0.11677914444E+04  0.11677914444E+04  0.25500000920E-02 0. -1.
    10030    2    1    2    0    0  0.00000000000E+00  0.00000000000E+00  0.32022201493E+03  0.26558049037E+04  0.26364289385E+04 0.  0.
        1    1    3    3  502    0 -0.41507675980E+03  0.37907047972E+03  0.13612272324E+04  0.14727262893E+04  0.50400001928E-02 0.  1.
       -1    1    3    3    0  502  0.41507675980E+03 -0.37907047972E+03 -0.10410052174E+04  0.11830786144E+04  0.50400001928E-02 0. -1.
</event>
<event>
 5   0  0.2072710E-05  0.2627368E+04  0.7818609E-02  0.8358964E-01
        1   -1    0    0  501    0  0.00000000000E+00  0.00000000000E+00  0.12287532560E+04  0.12287532560E+04  0.50400001928E-02 0. -1.
       -1   -1    0    0    0  501  0.00000000000E+00  0.00000000000E+00 -0.14044854336E+04  0.14044854337E+04  0.50400001928E-02 0.  1.
    10030    2    1    2    0    0  0.00000000000E+00  0.00000000000E+00 -0.17573217767E+03  0.26332386897E+04  0.26273683028E+04 0.  0.
        2    1    3    3  502    0  0.11629593496E+04 -0.60713674287E+03 -0.19327796998E+02  0.13120453640E+04  0.25500000920E-02 0.  1.
       -2    1    3    3    0  502 -0.11629593496E+04  0.60713674287E+03 -0.15640438067E+03  0.13211933257E+04  0.25500000920E-02 0. -1.
</event>
<event>
 5   0  0.5170532E-05  0.2572373E+04  0.7818609E-02  0.8377646E-01
        2   -1    0    0  501    0  0.00000000000E+00  0.00000000000E+00  0.19325852502E+04  0.19325852503E+04  0.25500000920E-02 0. -1.
       -2   -1    0    0    0  501  0.00000000000E+00  0.00000000000E+00 -0.85599101424E+03  0.85599101425E+03  0.25500000920E-02 0.  1.
    10030    2    1    2    0    0  0.00000000000E+00  0.00000000000E+00  0.10765942360E+04  0.27885762645E+04  0.25723729189E+04 0.  0.
        1    1    3    3  502    0 -0.11717708979E+04  0.14198344332E+03 -0.15596648559E+02  0.11804446581E+04  0.50400001928E-02 0.  1.
       -1    1    3    3    0  502  0.11717708979E+04 -0.14198344332E+03  0.10921908846E+04  0.16081316064E+04  0.50400001928E-02 0. -1.
</event>
<event>
 5   0  0.2163800E-05  0.2578223E+04  0.7818609E-02  0.8375636E-01
        1   -1    0    0  501    0  0.00000000000E+00  0.00000000000E+00  0.20646014284E+04  0.20646014284E+04  0.50400001928E-02 0. -1.
       -1   -1    0    0    0  501  0.00000000000E+00  0.00000000000E+00 -0.80490495680E+03  0.80490495681E+03  0.50400001928E-02 0.  1.
    10030    2    1    2    0    0  0.00000000000E+00  0.00000000000E+00  0.12596964716E+04  0.28695063852E+04  0.25782225843E+04 0.  0.
        1    1    3    3  502    0  0.32634891794E+02  0.12570928914E+04  0.31414593653E+03  0.12961617350E+04  0.50400001928E-02 0.  1.
       -1    1    3    3    0  502 -0.32634891794E+02 -0.12570928914E+04  0.94555053504E+03  0.15733446502E+04  0.50400001928E-02 0. -1.
</event>
<event>
 5   0  0.4955675E-05  0.2603316E+04  0.7818609E-02  0.8367076E-01
        2   -1    0    0  501    0  0.00000000000E+00  0.00000000000E+00  0.14993353120E+04  0.14993353120E+04  0.25500000920E-02 0. -1.
       -2   -1    0    0    0  501  0.00000000000E+00  0.00000000000E+00 -0.11300431920E+04  0.11300431920E+04  0.25500000920E-02 0.  1.
    10030    2    1    2    0    0  0.00000000000E+00  0.00000000000E+00  0.36929211997E+03  0.26293785041E+04  0.26033160868E+04 0.  0.
        5    1    3    3  502    0  0.34815532448E+03 -0.95839798546E+03 -0.63249781515E+03  0.11999226661E+04  0.46999998093E+01 0.  1.
       -5    1    3    3    0  502 -0.34815532448E+03  0.95839798546E+03  0.10017899351E+04  0.14294558379E+04  0.46999998093E+01 0. -1.
</event>
<event>
 5   0  0.5049803E-05  0.2594455E+04  0.7818609E-02  0.8370087E-01
       -2   -1    0    0    0  501  0.00000000000E+00  0.00000000000E+00  0.98379888446E+03  0.98379888446E+03  0.25500000920E-02 0. -1.
        2   -1    0    0  501    0  0.00000000000E+00  0.00000000000E+00 -0.17105110528E+04  0.17105110528E+04  0.25500000920E-02 0.  1.
    10030    2    1    2    0    0  0.00000000000E+00  0.00000000000E+00 -0.72671216831E+03  0.26943099372E+04  0.25944547524E+04 0.  0.
        4    1    3    3  502    0 -0.13613909865E+03  0.11341169627E+04 -0.10018717295E+04  0.15193760938E+04  0.12699999809E+01 0.  1.
       -4    1    3    3    0  502  0.13613909865E+03 -0.11341169627E+04  0.27515956116E+03  0.11749338434E+04  0.12699999809E+01 0. -1.
</event>
<event>
 5   0  0.5049803E-05  0.2821254E+04  0.7818609E-02  0.8296700E-01
        2   -1    0    0  501    0  0.00000000000E+00  0.00000000000E+00  0.23294723635E+04  0.23294723636E+04  0.25500000920E-02 0. -1.
       -2   -1    0    0    0  501  0.00000000000E+00  0.00000000000E+00 -0.85421419604E+03  0.85421419605E+03  0.25500000920E-02 0.  1.
    10030    2    1    2    0    0  0.00000000000E+00  0.00000000000E+00  0.14752581675E+04  0.31836865596E+04  0.28212538789E+04 0.  0.
        4    1    3    3  502    0  0.25146988140E+03 -0.97644418428E+03  0.18508622869E+04  0.21076938023E+04  0.12699999809E+01 0. -1.
       -4    1    3    3    0  502 -0.25146988140E+03  0.97644418428E+03 -0.37560411944E+03  0.10759927573E+04  0.12699999809E+01 0.  1.
</event>
<event>
 5   0  0.2072710E-05  0.2646984E+04  0.7818609E-02  0.8352415E-01
        1   -1    0    0  501    0  0.00000000000E+00  0.00000000000E+00  0.22184950936E+04  0.22184950936E+04  0.50400001928E-02 0. -1.
       -1   -1    0    0    0  501  0.00000000000E+00  0.00000000000E+00 -0.78955815680E+03  0.78955815682E+03  0.50400001928E-02 0.  1.
    10030    2    1    2    0    0  0.00000000000E+00  0.00000000000E+00  0.14289369368E+04  0.30080532504E+04  0.26469838662E+04 0.  0.
        2    1    3    3  502    0  0.39119564846E+03 -0.24040708252E+03 -0.69614343239E+03  0.83393361796E+03  0.25500000920E-02 0.  1.
       -2    1    3    3    0  502 -0.39119564846E+03  0.24040708252E+03  0.21250803692E+04  0.21741196324E+04  0.25500000920E-02 0. -1.
</event>
<event>
 5   0  0.2159405E-05  0.2608077E+04  0.7818609E-02  0.8365463E-01
        1   -1    0    0  501    0  0.00000000000E+00  0.00000000000E+00  0.14376113045E+04  0.14376113045E+04  0.50400001928E-02 0.  1.
       -1   -1    0    0    0  501  0.00000000000E+00  0.00000000000E+00 -0.11828765600E+04  0.11828765600E+04  0.50400001928E-02 0. -1.
    10030    2    1    2    0    0  0.00000000000E+00  0.00000000000E+00  0.25473474445E+03  0.26204878645E+04  0.26080772339E+04 0.  0.
        3    1    3    3  502    0 -0.12819026154E+04 -0.13494198779E+03  0.32587533981E+03  0.13295406736E+04  0.10100000352E+00 0.  1.
       -3    1    3    3    0  502  0.12819026154E+04  0.13494198779E+03 -0.71140595358E+02  0.12909471910E+04  0.10100000352E+00 0. -1.
</event>
<event>
 5   0  0.1993815E-05  0.2551929E+04  0.7818609E-02  0.8384716E-01
       -1   -1    0    0    0  501  0.00000000000E+00  0.00000000000E+00  0.13002779667E+04  0.13002779667E+04  0.50400001928E-02 0.  1.
        1   -1    0    0  501    0  0.00000000000E+00  0.00000000000E+00 -0.12521059912E+04  0.12521059912E+04  0.50400001928E-02 0. -1.
    10030    2    1    2    0    0  0.00000000000E+00  0.00000000000E+00  0.48171975446E+02  0.25523839579E+04  0.25519293347E+04 0.  0.
        5    1    3    3  502    0  0.36717009929E+03 -0.10924833510E+04 -0.52348756071E+03  0.12658574447E+04  0.46999998093E+01 0. -1.
       -5    1    3    3    0  502 -0.36717009929E+03  0.10924833510E+04  0.57165953615E+03  0.12865265132E+04  0.46999998093E+01 0.  1.
</event>
<event>
 5   0  0.5049803E-05  0.2601681E+04  0.7818609E-02  0.8367630E-01
       -2   -1    0    0    0  501  0.00000000000E+00  0.00000000000E+00  0.11954213495E+04  0.11954213495E+04  0.25500000920E-02 0. -1.
        2   -1    0    0  501    0  0.00000000000E+00  0.00000000000E+00 -0.14155566109E+04  0.14155566109E+04  0.25500000920E-02 0.  1.
    10030    2    1    2    0    0  0.00000000000E+00  0.00000000000E+00 -0.22013526142E+03  0.26109779604E+04  0.26016814517E+04 0.  0.
        4    1    3    3  502    0 -0.55777448917E+03 -0.10579115408E+04 -0.62365381091E+03  0.13487901607E+04  0.12699999809E+01 0.  1.
       -4    1    3    3    0  502  0.55777448917E+03  0.10579115408E+04  0.40351854949E+03  0.12621877996E+04  0.12699999809E+01 0. -1.
</event>
<event>
 5   0  0.4955675E-05  0.2597912E+04  0.7818609E-02  0.8368911E-01
        2   -1    0    0  501    0  0.00000000000E+00  0.00000000000E+00  0.15045998606E+04  0.15045998606E+04  0.25500000920E-02 0.  1.
       -2   -1    0    0    0  501  0.00000000000E+00  0.00000000000E+00 -0.11214187366E+04  0.11214187366E+04  0.25500000920E-02 0. -1.
    10030    2    1    2    0    0  0.00000000000E+00  0.00000000000E+00  0.38318112401E+03  0.26260185972E+04  0.25979118344E+04 0.  0.
        5    1    3    3  502    0 -0.72170914340E+03  0.10543468926E+04 -0.44934442985E+02  0.12784962463E+04  0.46999998093E+01 0. -1.
       -5    1    3    3    0  502  0.72170914340E+03 -0.10543468926E+04  0.42811556699E+03  0.13475223509E+04  0.46999998093E+01 0.  1.
</event>
<event>
 5   0  0.5170532E-05  0.2695263E+04  0.7818609E-02  0.8336544E-01
       -2   -1    0    0    0  501  0.00000000000E+00  0.00000000000E+00  0.91554666452E+03  0.91554666453E+03  0.25500000920E-02 0.  1.
        2   -1    0    0  501    0  0.00000000000E+00  0.00000000000E+00 -0.19836347548E+04  0.19836347548E+04  0.25500000920E-02 0. -1.
    10030    2    1    2    0    0  0.00000000000E+00  0.00000000000E+00 -0.10680880903E+04  0.28991814193E+04  0.26952626465E+04 0.  0.
        1    1    3    3  502    0  0.80439910986E+03 -0.67260259392E+03  0.37656147484E+03  0.11141143216E+04  0.50400001928E-02 0.  1.
       -1    1    3    3    0  502 -0.80439910986E+03  0.67260259392E+03 -0.14446495651E+04  0.17850670977E+04  0.50400001928E-02 0. -1.
</event>
<event>
 5   0  0.5170532E-05  0.2725520E+04  0.7818609E-02  0.8326772E-01
       -2   -1    0    0    0  501  0.00000000000E+00  0.00000000000E+00  0.90572328211E+03  0.90572328211E+03  0.25500000920E-02 0. -1.
        2   -1    0    0  501    0  0.00000000000E+00  0.00000000000E+00 -0.20504220192E+04  0.20504220192E+04  0.25500000920E-02 0.  1.
    10030    2    1    2    0    0  0.00000000000E+00  0.00000000000E+00 -0.11446987371E+04  0.29561453013E+04  0.27255201052E+04 0.  0.
        1    1    3    3  502    0 -0.45662751794E+02  0.53290372535E+02 -0.20484608408E+04  0.20496625983E+04  0.50400001928E-02 0.  1.
       -1    1    3    3    0  502  0.45662751794E+02 -0.53290372535E+02  0.90376210370E+03  0.90648270299E+03  0.50400001928E-02 0. -1.
</event>
<event>
 5   0  0.1698625E-05  0.2584327E+04  0.7818609E-02  0.8373545E-01
       -3   -1    0    0    0  501  0.00000000000E+00  0.00000000000E+00  0.18372216790E+04  0.18372216817E+04  0.10100000352E+00 0. -1.
        3   -1    0    0  501    0  0.00000000000E+00  0.00000000000E+00 -0.90881035999E+03  0.90881036560E+03  0.10100000352E+00 0.  1.
    10030    2    1    2    0    0  0.00000000000E+00  0.00000000000E+00  0.92841131897E+03  0.27460320473E+04  0.25843266875E+04 0.  0.
        1    1    3    3  502    0  0.23619687927E+03 -0.53150390418E+03  0.16902680935E+04  0.17875378580E+04  0.50400001928E-02 0. -1.
       -1    1    3    3    0  502 -0.23619687927E+03  0.53150390418E+03 -0.76185677455E+03  0.95849418929E+03  0.50400001928E-02 0.  1.
</event>
<event>
 5   0  0.1698625E-05  0.1550885E+04  0.7818609E-02  0.8851302E-01
        3   -1    0    0  501    0  0.00000000000E+00  0.00000000000E+00  0.15503886410E+04  0.15503886443E+04  0.10100000352E+00 0.  1.
       -3   -1    0    0    0  501  0.00000000000E+00  0.00000000000E+00 -0.38784553191E+03  0.38784554506E+03  0.10100000352E+00 0. -1.
    10030    2    1    2    0    0  0.00000000000E+00  0.00000000000E+00  0.11625431091E+04  0.19382341893E+04  0.15508853253E+04 0.  0.
        1    1    3    3  502    0 -0.34440811309E+03 -0.68882054036E+03  0.69458444585E+03  0.10370815964E+04  0.50400001928E-02 0.  1.
       -1    1    3    3    0  502  0.34440811309E+03  0.68882054036E+03  0.46795866321E+03  0.90115259290E+03  0.50400001928E-02 0. -1.
</event>
<event>
 5   0  0.5049803E-05  0.2488733E+04  0.7818609E-02  0.8407010E-01
        2   -1    0    0  501    0  0.00000000000E+00  0.00000000000E+00  0.12202572227E+04  0.12202572227E+04  0.25500000920E-02 0. -1.
       -2   -1    0    0    0  501  0.00000000000E+00  0.00000000000E+00 -0.12689523231E+04  0.12689523231E+04  0.25500000920E-02 0.  1.
    10030    2    1    2    0    0  0.00000000000E+00  0.00000000000E+00 -0.48695100354E+02  0.24892095458E+04  0.24887332019E+04 0.  0.
        4    1    3    3  502    0  0.18911540476E+03  0.11025723379E+04 -0.56944381397E+03  0.12552682051E+04  0.12699999809E+01 0. -1.
       -4    1    3    3    0  502 -0.18911540476E+03 -0.11025723379E+04  0.52074871361E+03  0.12339413407E+04  0.12699999809E+01 0.  1.
</event>
<event>
 5   0  0.1954502E-05  0.2534672E+04  0.7818609E-02  0.8390736E-01
       -1   -1    0    0    0  501  0.00000000000E+00  0.00000000000E+00  0.91180077704E+03  0.91180077705E+03  0.50400001928E-02 0. -1.
        1   -1    0    0  501    0  0.00000000000E+00  0.00000000000E+00 -0.17615041270E+04  0.17615041270E+04  0.50400001928E-02 0.  1.
    10030    2    1    2    0    0  0.00000000000E+00  0.00000000000E+00 -0.84970334994E+03  0.26733049040E+04  0.25346722327E+04 0.  0.
        4    1    3    3  502    0 -0.68823259784E+03 -0.73800130631E+03  0.38378281142E+03  0.10796299811E+04  0.12699999809E+01 0. -1.
       -4    1    3    3    0  502  0.68823259784E+03  0.73800130631E+03 -0.12334861614E+04  0.15936749229E+04  0.12699999809E+01 0.  1.
</event>
<event>
 5   0  0.5049803E-05  0.2597764E+04  0.7818609E-02  0.8368961E-01
        2   -1    0    0  501    0  0.00000000000E+00  0.00000000000E+00  0.22493801747E+04  0.22493801747E+04  0.25500000920E-02 0. -1.
       -2   -1    0    0    0  501  0.00000000000E+00  0.00000000000E+00 -0.75002641221E+03  0.75002641221E+03  0.25500000920E-02 0.  1.
    10030    2    1    2    0    0  0.00000000000E+00  0.00000000000E+00  0.14993537625E+04  0.29994065870E+04  0.25977640710E+04 0.  0.
        4    1    3    3  502    0 -0.63486833303E+03  0.11269491762E+04  0.61296060429E+03  0.14313610870E+04  0.12699999809E+01 0.  1.
       -4    1    3    3    0  502  0.63486833303E+03 -0.11269491762E+04  0.88639315825E+03  0.15680455000E+04  0.12699999809E+01 0. -1.
</event>
<event>
 5   0  0.2159405E-05  0.2534802E+04  0.7818609E-02  0.8390691E-01
        1   -1    0    0  501    0  0.00000000000E+00  0.00000000000E+00  0.25614897996E+04  0.25614897996E+04  0.50400001928E-02 0.  1.
       -1   -1    0    0    0  501  0.00000000000E+00  0.00000000000E+00 -0.62709801981E+03  0.62709801983E+03  0.50400001928E-02 0. -1.
    10030    2    1    2    0    0  0.00000000000E+00  0.00000000000E+00  0.19343917798E+04  0.31885878195E+04  0.25348019103E+04 0.  0.
        3    1    3    3  502    0 -0.73389042484E+03  0.10575654079E+03 -0.32579171923E+03  0.80988879243E+03  0.10100000352E+00 0. -1.
       -3    1    3    3    0  502  0.73389042484E+03 -0.10575654079E+03  0.22601834990E+04  0.23786990270E+04  0.10100000352E+00 0.  1.
</event>
<event>
 5   0  0.1954502E-05  0.2657959E+04  0.7818609E-02  0.8348776E-01
        1   -1    0    0  501    0  0.00000000000E+00  0.00000000000E+00  0.15369409499E+04  0.15369409499E+04  0.50400001928E-02 0. -1.
       -1   -1    0    0    0  501  0.00000000000E+00  0.00000000000E+00 -0.11491568671E+04  0.11491568671E+04  0.50400001928E-02 0.  1.
    10030    2    1    2    0    0  0.00000000000E+00  0.00000000000E+00  0.38778408285E+03  0.26860978170E+04  0.26579588010E+04 0.  0.
        4    1    3    3  502    0 -0.79334940555E+03  0.38154382374E+03  0.12000252108E+04  0.14883014104E+04  0.12699999809E+01 0. -1.
       -4    1    3    3    0  502  0.79334940555E+03 -0.38154382374E+03 -0.81224112798E+03  0.11977964066E+04  0.12699999809E+01 0.  1.
</event>
<event>
 5   0  0.2072710E-05  0.1847996E+04  0.7818609E-02  0.8681184E-01
        1   -1    0    0  501    0  0.00000000000E+00  0.00000000000E+00  0.14315006484E+04  0.14315006484E+04  0.50400001928E-02 0. -1.
       -1   -1    0    0    0  501  0.00000000000E+00  0.00000000000E+00 -0.59641765719E+03  0.59641765721E+03  0.50400001928E-02 0.  1.
    10030    2    1    2    0    0  0.00000000000E+00  0.00000000000E+00  0.83508299123E+03  0.20279183056E+04  0.18479959557E+04 0.  0.
        2    1    3    3  502    0 -0.50716839583E+03 -0.67649278972E+03  0.82653477722E+03  0.11823798096E+04  0.25500000920E-02 0. -1.
       -2    1    3    3    0  502  0.50716839583E+03  0.67649278972E+03  0.85482140048E+01  0.84553849601E+03  0.25500000920E-02 0.  1.
</event>
<event>
 5   0  0.5170532E-05  0.2616578E+04  0.7818609E-02  0.8362592E-01
        2   -1    0    0  501    0  0.00000000000E+00  0.00000000000E+00  0.13224077179E+04  0.13224077179E+04  0.25500000920E-02 0.  1.
       -2   -1    0    0    0  501  0.00000000000E+00  0.00000000000E+00 -0.12943207481E+04  0.12943207481E+04  0.25500000920E-02 0. -1.
    10030    2    1    2    0    0  0.00000000000E+00  0.00000000000E+00  0.28086969814E+02  0.26167284659E+04  0.26165777242E+04 0.  0.
        1    1    3    3  502    0  0.90025363631E+03 -0.14864939451E+03 -0.92359598946E+03  0.12982999669E+04  0.50400001928E-02 0. -1.
       -1    1    3    3    0  502 -0.90025363631E+03  0.14864939451E+03  0.95168295928E+03  0.13184284991E+04  0.50400001928E-02 0.  1.
</event>
<event>
 5   0  0.2159405E-05  0.2722129E+04  0.7818609E-02  0.8327860E-01
       -1   -1    0    0    0  501  0.00000000000E+00  0.00000000000E+00  0.11880169451E+04  0.11880169451E+04  0.50400001928E-02 0.  1.
        1   -1    0    0  501    0  0.00000000000E+00  0.00000000000E+00 -0.15593185953E+04  0.15593185953E+04  0.50400001928E-02 0. -1.
    10030    2    1    2    0    0  0.00000000000E+00  0.00000000000E+00 -0.37130165015E+03  0.27473355404E+04  0.27221292504E+04 0.  0.
        3    1    3    3  502    0  0.61835397124E+03 -0.12097248213E+04 -0.26826924343E+03  0.13848336269E+04  0.10100000352E+00 0. -1.
       -3    1    3    3    0  502 -0.61835397124E+03  0.12097248213E+04 -0.10303240673E+03  0.13625019135E+04  0.10100000352E+00 0.  1.
</event>
<event>
 5   0  0.5182179E-05  0.2582375E+04  0.7818609E-02  0.8374213E-01
        2   -1    0    0  501    0  0.00000000000E+00  0.00000000000E+00  0.11135594188E+04  0.11135594188E+04  0.25500000920E-02 0. -1.
       -2   -1    0    0    0  501  0.00000000000E+00  0.00000000000E+00 -0.14971497764E+04  0.14971497764E+04  0.25500000920E-02 0.  1.
    10030    2    1    2    0    0  0.00000000000E+00  0.00000000000E+00 -0.38359035752E+03  0.26107091952E+04  0.25823750579E+04 0.  0.
        3    1    3    3  502    0 -0.93266421023E+03 -0.14484507134E+03  0.69896397776E+03  0.11744757452E+04  0.10100000352E+00 0. -1.
       -3    1    3    3    0  502  0.93266421023E+03  0.14484507134E+03 -0.10825543353E+04  0.14362334500E+04  0.10100000352E+00 0.  1.
</event>
<event>
 5   0  0.5036452E-05  0.2526006E+04  0.7818609E-02  0.8393779E-01
        2   -1    0    0  501    0  0.00000000000E+00  0.00000000000E+00  0.16728630647E+04  0.16728630647E+04  0.25500000920E-02 0.  1.
       -2   -1    0    0    0  501  0.00000000000E+00  0.00000000000E+00 -0.95356085157E+03  0.95356085157E+03  0.25500000920E-02 0. -1.
    10030    2    1    2    0    0  0.00000000000E+00  0.00000000000E+00  0.71930221317E+03  0.26264239163E+04  0.25260061192E+04 0.  0.
        2    1    3    3  502    0 -0.43338481468E+03 -0.98892375358E+03  0.10409746963E+04  0.14998069564E+04  0.25500000920E-02 0.  1.
       -2    1    3    3    0  502  0.43338481468E+03  0.98892375358E+03 -0.32167248317E+03  0.11266169599E+04  0.25500000920E-02 0. -1.
</event>
<event>
 5   0  0.5049803E-05  0.1721963E+04  0.7818609E-02  0.8748936E-01
       -2   -1    0    0    0  501  0.00000000000E+00  0.00000000000E+00  0.10151413854E+04  0.10151413854E+04  0.25500000920E-02 0. -1.
        2   -1    0    0  501    0  0.00000000000E+00  0.00000000000E+00 -0.73023270493E+03  0.73023270493E+03  0.25500000920E-02 0.  1.
    10030    2    1    2    0    0  0.00000000000E+00  0.00000000000E+00  0.28490868046E+03  0.17453740903E+04  0.17219633443E+04 0.  0.
        4    1    3    3  502    0  0.54969178441E+03  0.65649517992E+03  0.23390765226E+03  0.88761555968E+03  0.12699999809E+01 0. -1.
       -4    1    3    3    0  502 -0.54969178441E+03 -0.65649517992E+03  0.51001028194E+02  0.85775853064E+03  0.12699999809E+01 0.  1.
</event>
<event>
 5   0  0.1954502E-05  0.2681875E+04  0.7818609E-02  0.8340910E-01
       -1   -1    0    0    0  501  0.00000000000E+00  0.00000000000E+00  0.17493418664E+04  0.17493418664E+04  0.50400001928E-02 0. -1.
        1   -1    0    0  501    0  0.00000000000E+00  0.00000000000E+00 -0.10278802519E+04  0.10278802519E+04  0.50400001928E-02 0.  1.
    10030    2    1    2    0    0  0.00000000000E+00  0.00000000000E+00  0.72146161447E+03  0.27772221183E+04  0.26818754321E+04 0.  0.
        4    1    3    3  502    0 -0.44010672778E+03 -0.10119183802E+04 -0.42822110406E+03  0.11836585939E+04  0.12699999809E+01 0.  1.
       -4    1    3    3    0  502  0.44010672778E+03  0.10119183802E+04  0.11496827185E+04  0.15935635244E+04  0.12699999809E+01 0. -1.
</event>
<event>
 5   0  0.2163800E-05  0.2571216E+04  0.7818609E-02  0.8378045E-01
        1   -1    0    0  501    0  0.00000000000E+00  0.00000000000E+00  0.15140948398E+04  0.15140948398E+04  0.50400001928E-02 0.  1.
       -1   -1    0    0    0  501  0.00000000000E+00  0.00000000000E+00 -0.10916015561E+04  0.10916015561E+04  0.50400001928E-02 0. -1.
    10030    2    1    2    0    0  0.00000000000E+00  0.00000000000E+00  0.42249328370E+03  0.26056963959E+04  0.25712162750E+04 0.  0.
        1    1    3    3  502    0  0.10971745477E+04 -0.16298622613E+03  0.86990999110E+03  0.14096453067E+04  0.50400001928E-02 0.  1.
       -1    1    3    3    0  502 -0.10971745477E+04  0.16298622613E+03 -0.44741670740E+03  0.11960510892E+04  0.50400001928E-02 0. -1.
</event>
<event>
 5   0  0.5049803E-05  0.2579172E+04  0.7818609E-02  0.8375311E-01
       -2   -1    0    0    0  501  0.00000000000E+00  0.00000000000E+00  0.11556811191E+04  0.11556811191E+04  0.25500000920E-02 0.  1.
        2   -1    0    0  501    0  0.00000000000E+00  0.00000000000E+00 -0.14390054739E+04  0.14390054739E+04  0.25500000920E-02 0. -1.
    10030    2    1    2    0    0  0.00000000000E+00  0.00000000000E+00 -0.28332435474E+03  0.25946865930E+04  0.25791715387E+04 0.  0.
        4    1    3    3  502    0 -0.23231427709E+03  0.78731097624E+03 -0.11422311459E+04  0.14065994811E+04  0.12699999809E+01 0. -1.
       -4    1    3    3    0  502  0.23231427709E+03 -0.78731097624E+03  0.85890679116E+03  0.11880871119E+04  0.12699999809E+01 0.  1.
</event>
<event>
 5   0  0.4955675E-05  0.2589780E+04  0.7818609E-02  0.8371681E-01
        2   -1    0    0  501    0  0.00000000000E+00  0.00000000000E+00  0.18973158007E+04  0.18973158007E+04  0.25500000920E-02 0.  1.
       -2   -1    0    0    0  501  0.00000000000E+00  0.00000000000E+00 -0.88374341139E+03  0.88374341139E+03  0.25500000920E-02 0. -1.
    10030    2    1    2    0    0  0.00000000000E+00  0.00000000000E+00  0.10135723893E+04  0.27810592121E+04  0.25897801746E+04 0.  0.
        5    1    3    3  502    0 -0.63503604640E+03 -0.33213597429E+03  0.16649288380E+04  0.18126210887E+04  0.46999998093E+01 0.  1.
       -5    1    3    3    0  502  0.63503604640E+03  0.33213597429E+03 -0.65135644867E+03  0.96843812341E+03  0.46999998093E+01 0. -1.
</event>
<event>
 5   0  0.2072710E-05  0.2462320E+04  0.7818609E-02  0.8416534E-01
        1   -1    0    0  501    0  0.00000000000E+00  0.00000000000E+00  0.12806047794E+04  0.12806047794E+04  0.50400001928E-02 0.  1.
       -1   -1    0    0    0  501  0.00000000000E+00  0.00000000000E+00 -0.11836240032E+04  0.11836240032E+04  0.50400001928E-02 0. -1.
    10030    2    1    2    0    0  0.00000000000E+00  0.00000000000E+00  0.96980776189E+02  0.24642287826E+04  0.24623196831E+04 0.  0.
        2    1    3    3  502    0  0.46495583930E+02  0.10145048175E+03  0.12755325692E+04  0.12804051604E+04  0.25500000920E-02 0.  1.
       -2    1    3    3    0  502 -0.46495583930E+02 -0.10145048175E+03 -0.11785517930E+04  0.11838236222E+04  0.25500000920E-02 0. -1.
</event>
<event>
 5   0  0.2159405E-05  0.1401358E+04  0.7818609E-02  0.8952836E-01
       -1   -1    0    0    0  501  0.00000000000E+00  0.00000000000E+00  0.60950692143E+03  0.60950692145E+03  0.50400001928E-02 0.  1.
        1   -1    0    0  501    0  0.00000000000E+00  0.00000000000E+00 -0.80548862327E+03  0.80548862328E+03  0.50400001928E-02 0. -1.
    10030    2    1    2    0    0  0.00000000000E+00  0.00000000000E+00 -0.19598170184E+03  0.14149955447E+04  0.14013577574E+04 0.  0.
        3    1    3    3  502    0 -0.40574204900E+02  0.27577136522E+02 -0.80375231949E+03  0.80524813930E+03  0.10100000352E+00 0. -1.
       -3    1    3    3    0  502  0.40574204900E+02 -0.27577136522E+02  0.60777061765E+03  0.60974740544E+03  0.10100000352E+00 0.  1.
</event>
<event>
 5   0  0.5036452E-05  0.2739940E+04  0.7818609E-02  0.8322161E-01
       -2   -1    0    0    0  501  0.00000000000E+00  0.00000000000E+00  0.10204200374E+04  0.10204200374E+04  0.25500000920E-02 0.  1.
        2   -1    0    0  501    0  0.00000000000E+00  0.00000000000E+00 -0.18392594347E+04  0.18392594347E+04  0.25500000920E-02 0. -1.
    10030    2    1    2    0    0  0.00000000000E+00  0.00000000000E+00 -0.81883939732E+03  0.28596794721E+04  0.27399395476E+04 0.  0.
        2    1    3    3  502    0  0.43907498227E+03  0.84761476654E+03  0.61616233988E+03  0.11361750136E+04  0.25500000920E-02 0.  1.
       -2    1    3    3    0  502 -0.43907498227E+03 -0.84761476654E+03 -0.14350017372E+04  0.17235044584E+04  0.25500000920E-02 0. -1.
</event>
<event>
 5   0  0.5049803E-05  0.2578107E+04  0.7818609E-02  0.8375676E-01
        2   -1    0    0  501    0  0.00000000000E+00  0.00000000000E+00  0.10775362469E+04  0.10775362469E+04  0.25500000920E-02 0.  1.
       -2   -1    0    0    0  501  0.00000000000E+00  0.00000000000E+00 -0.15420911234E+04  0.15420911234E+04  0.25500000920E-02 0. -1.
    10030    2    1    2    0    0  0.00000000000E+00  0.00000000000E+00 -0.46455487651E+03  0.26196273703E+04  0.25781071207E+04 0.  0.
        4    1    3    3  502    0  0.31685074985E+03  0.45354662802E+03 -0.14153127221E+04  0.15196087180E+04  0.12699999809E+01 0. -1.
       -4    1    3    3    0  502 -0.31685074985E+03 -0.45354662802E+03  0.95075784561E+03  0.11000186523E+04  0.12699999809E+01 0.  1.
</event>
<event>
 5   0  0.2163800E-05  0.2671594E+04  0.7818609E-02  0.8344281E-01
       -1   -1    0    0    0  501  0.00000000000E+00  0.00000000000E+00  0.10593008777E+04  0.10593008777E+04  0.50400001928E-02 0.  1.
        1   -1    0    0  501    0  0.00000000000E+00  0.00000000000E+00 -0.16844629282E+04  0.16844629282E+04  0.50400001928E-02 0. -1.
    10030    2    1    2    0    0  0.00000000000E+00  0.00000000000E+00 -0.62516205050E+03  0.27437638060E+04  0.26715935757E+04 0.  0.
        1    1    3    3  502    0  0.87115478831E+03 -0.99917862296E+03 -0.48160041302E+03  0.14103926913E+04  0.50400001928E-02 0.  1.
       -1    1    3    3    0  502 -0.87115478831E+03  0.99917862296E+03 -0.14356163748E+03  0.13333711147E+04  0.50400001928E-02 0. -1.
</event>
<event>
 5   0  0.2163800E-05  0.2604263E+04  0.7818609E-02  0.8366754E-01
       -1   -1    0    0    0  501  0.00000000000E+00  0.00000000000E+00  0.14741286956E+04  0.14741286956E+04  0.50400001928E-02 0. -1.
        1   -1    0    0  501    0  0.00000000000E+00  0.00000000000E+00 -0.11502028418E+04  0.11502028418E+04  0.50400001928E-02 0.  1.
    10030    2    1    2    0    0  0.00000000000E+00  0.00000000000E+00  0.32392585379E+03  0.26243315375E+04  0.26042634390E+04 0.  0.
        1    1    3    3  502    0 -0.40332625862E+03 -0.19491491003E+03 -0.10701128090E+04  0.11600884953E+04  0.50400001928E-02 0.  1.
       -1    1    3    3    0  502  0.40332625862E+03  0.19491491003E+03  0.13940386628E+04  0.14642430421E+04  0.50400001928E-02 0. -1.
</event>
<event>
 5   0  0.5182179E-05  0.2458606E+04  0.7818609E-02  0.8417883E-01
       -2   -1    0    0    0  501  0.00000000000E+00  0.00000000000E+00  0.12480233887E+04  0.12480233887E+04  0.25500000920E-02 0.  1.
        2   -1    0    0  501    0  0.00000000000E+00  0.00000000000E+00 -0.12108630909E+04  0.12108630909E+04  0.25500000920E-02 0. -1.
    10030    2    1    2    0    0  0.00000000000E+00  0.00000000000E+00  0.37160297817E+02  0.24588864795E+04  0.24586056682E+04 0.  0.
        3    1    3    3  502    0 -0.67837651804E+03  0.10137983392E+04 -0.13376477465E+03  0.12271409038E+04  0.10100000352E+00 0. -1.
       -3    1    3    3    0  502  0.67837651804E+03 -0.10137983392E+04  0.17092507247E+03  0.12317455757E+04  0.10100000352E+00 0.  1.
</event>
<event>
 5   0  0.1954502E-05  0.2041480E+04  0.7818609E-02  0.8587469E-01
        1   -1    0    0  501    0  0.00000000000E+00  0.00000000000E+00  0.11774712024E+04  0.11774712024E+04  0.50400001928E-02 0. -1.
       -1   -1    0    0    0  501  0.00000000000E+00  0.00000000000E+00 -0.88487130778E+03  0.88487130780E+03  0.50400001928E-02 0.  1.
    10030    2    1    2    0    0  0.00000000000E+00  0.00000000000E+00  0.29259989459E+03  0.20623425102E+04  0.20414803283E+04 0.  0.
        4    1    3    3  502    0 -0.93298109245E+03  0.40847701684E+03  0.77771057977E+02  0.10214485511E+04  0.12699999809E+01 0. -1.
       -4    1    3    3    0  502  0.93298109245E+03 -0.40847701684E+03  0.21482883662E+03  0.10408939591E+04  0.12699999809E+01 0.  1.
</event>
<event>
 5   0  0.2159405E-05  0.2605493E+04  0.7818609E-02  0.8366338E-01
        1   -1    0    0  501    0  0.00000000000E+00  0.00000000000E+00  0.20721807231E+04  0.20721807231E+04  0.50400001928E-02 0. -1.
       -1   -1    0    0    0  501  0.00000000000E+00  0.00000000000E+00 -0.81901566505E+03  0.81901566506E+03  0.50400001928E-02 0.  1.
    10030    2    1    2    0    0  0.00000000000E+00  0.00000000000E+00  0.12531650580E+04  0.28911963882E+04  0.26054930229E+04 0.  0.
        3    1    3    3  502    0  0.90482076782E+03 -0.14945375189E+03 -0.40013936368E+03  0.10005741184E+04  0.10100000352E+00 0.  1.
       -3    1    3    3    0  502 -0.90482076782E+03  0.14945375189E+03  0.16533044217E+04  0.18906222698E+04  0.10100000352E+00 0. -1.
</event>
<event>
 5   0  0.2163800E-05  0.1674487E+04  0.7818609E-02  0.8776051E-01
        1   -1    0    0  501    0  0.00000000000E+00  0.00000000000E+00  0.12433733166E+04  0.12433733166E+04  0.50400001928E-02 0. -1.
       -1   -1    0    0    0  501  0.00000000000E+00  0.00000000000E+00 -0.56376995976E+03  0.56376995979E+03  0.50400001928E-02 0.  1.
    10030    2    1    2    0    0  0.00000000000E+00  0.00000000000E+00  0.67960335680E+03  0.18071432764E+04  0.16744868165E+04 0.  0.
        1    1    3    3  502    0  0.64081955264E+03 -0.74120006021E+02  0.91577987542E+03  0.11201768854E+04  0.50400001928E-02 0. -1.
       -1    1    3    3    0  502 -0.64081955264E+03  0.74120006021E+02 -0.23617651861E+03  0.68696639096E+03  0.50400001928E-02 0.  1.
</event>
<event>
 5   0  0.2159405E-05  0.2079091E+04  0.7818609E-02  0.8570510E-01
        1   -1    0    0  501    0  0.00000000000E+00  0.00000000000E+00  0.12077977041E+04  0.12077977041E+04  0.50400001928E-02 0. -1.
       -1   -1    0    0    0  501  0.00000000000E+00  0.00000000000E+00 -0.89473182800E+03  0.89473182801E+03  0.50400001928E-02 0.  1.
    10030    2    1    2    0    0  0.00000000000E+00  0.00000000000E+00  0.31306587610E+03  0.21025295321E+04  0.20790911934E+04 0.  0.
        3    1    3    3  502    0  0.41507937660E+03 -0.94590712008E+03  0.38495767254E+02  0.10336890746E+04  0.10100000352E+00 0. -1.
       -3    1    3    3    0  502 -0.41507937660E+03  0.94590712008E+03  0.27457010884E+03  0.10688404575E+04  0.10100000352E+00 0.  1.
</event>
<event>
 5   0  0.1698625E-05  0.2709274E+04  0.7818609E-02  0.8332002E-01
       -4   -1    0    0    0  501  0.00000000000E+00  0.00000000000E+00  0.22142227830E+04  0.22142231472E+04  0.12699999809E+01 0. -1.
        4   -1    0    0  501    0  0.00000000000E+00  0.00000000000E+00 -0.82875127330E+03  0.82875224639E+03  0.12699999809E+01 0.  1.
    10030    2    1    2    0    0  0.00000000000E+00  0.00000000000E+00  0.13854715097E+04  0.30429753936E+04  0.27092744309E+04 0.  0.
        5    1    3    3  502    0  0.38723823754E+03 -0.51998289708E+03  0.20286395952E+04  0.21297268283E+04  0.46999998093E+01 0. -1.
       -5    1    3    3    0  502 -0.38723823754E+03  0.51998289708E+03 -0.64316808550E+03  0.91324856533E+03  0.46999998093E+01 0.  1.
</event>
<event>
 5   0  0.1954502E-05  0.2603315E+04  0.7818609E-02  0.8367076E-01
       -1   -1    0    0    0  501  0.00000000000E+00  0.00000000000E+00  0.10574419134E+04  0.10574419135E+04  0.50400001928E-02 0.  1.
        1   -1    0    0  501    0  0.00000000000E+00  0.00000000000E+00 -0.16022750599E+04  0.16022750599E+04  0.50400001928E-02 0. -1.
    10030    2    1    2    0    0  0.00000000000E+00  0.00000000000E+00 -0.54483314641E+03  0.26597169733E+04  0.26033154286E+04 0.  0.
        4    1    3    3  502    0  0.52879535312E+03 -0.96067313536E+03  0.44405696406E+03  0.11830915428E+04  0.12699999809E+01 0.  1.
       -4    1    3    3    0  502 -0.52879535312E+03  0.96067313536E+03 -0.98889011047E+03  0.14766254305E+04  0.12699999809E+01 0. -1.
</event>
<event>
 5   0  0.2163800E-05  0.2523723E+04  0.7818609E-02  0.8394582E-01
        1   -1    0    0  501    0  0.00000000000E+00  0.00000000000E+00  0.23641454491E+04  0.23641454491E+04  0.50400001928E-02 0.  1.
       -1   -1    0    0    0  501  0.00000000000E+00  0.00000000000E+00 -0.67351816902E+03  0.67351816904E+03  0.50400001928E-02 0. -1.
    10030    2    1    2    0    0  0.00000000000E+00  0.00000000000E+00  0.16906272801E+04  0.30376636181E+04  0.25237233717E+04 0.  0.
        1    1    3    3  502    0 -0.41370375228E+03  0.11296434014E+04  0.38690092568E+03  0.12636998597E+04  0.50400001928E-02 0. -1.
       -1    1    3    3    0  502  0.41370375228E+03 -0.11296434014E+04  0.13037263544E+04  0.17739637584E+04  0.50400001928E-02 0.  1.
</event>
<event>
 5   0  0.2159405E-05  0.2554962E+04  0.7818609E-02  0.8383663E-01
        1   -1    0    0  501    0  0.00000000000E+00  0.00000000000E+00  0.16124883134E+04  0.16124883134E+04  0.50400001928E-02 0. -1.
       -1   -1    0    0    0  501  0.00000000000E+00  0.00000000000E+00 -0.10120738563E+04  0.10120738564E+04  0.50400001928E-02 0.  1.
    10030    2    1    2    0    0  0.00000000000E+00  0.00000000000E+00  0.60041445704E+03  0.26245621697E+04  0.25549616558E+04 0.  0.
        3    1    3    3  502    0 -0.64497656535E+03 -0.83197008803E+03 -0.44324036019E+03  0.11422044582E+04  0.10100000352E+00 0.  1.
       -3    1    3    3    0  502  0.64497656535E+03  0.83197008803E+03  0.10436548172E+04  0.14823577115E+04  0.10100000352E+00 0. -1.
</event>
<event>
 5   0  0.4955675E-05  0.1554636E+04  0.7818609E-02  0.8848912E-01
        2   -1    0    0  501    0  0.00000000000E+00  0.00000000000E+00  0.15711752428E+04  0.15711752428E+04  0.25500000920E-02 0. -1.
       -2   -1    0    0    0  501  0.00000000000E+00  0.00000000000E+00 -0.38456794993E+03  0.38456794994E+03  0.25500000920E-02 0.  1.
    10030    2    1    2    0    0  0.00000000000E+00  0.00000000000E+00  0.11866072929E+04  0.19557431928E+04  0.15546364747E+04 0.  0.
        5    1    3    3  502    0  0.43016597340E+03 -0.34042958056E+03 -0.99476104762E+02  0.55754161226E+03  0.46999998093E+01 0.  1.
       -5    1    3    3    0  502 -0.43016597340E+03  0.34042958056E+03  0.12860833977E+04  0.13982015805E+04  0.46999998093E+01 0. -1.
</event>
<event>
 5   0  0.5049803E-05  0.2612713E+04  0.7818609E-02  0.8363896E-01
       -2   -1    0    0    0  501  0.00000000000E+00  0.00000000000E+00  0.10995040333E+04  0.10995040333E+04  0.25500000920E-02 0.  1.
        2   -1    0    0  501    0  0.00000000000E+00  0.00000000000E+00 -0.15521243769E+04  0.15521243769E+04  0.25500000920E-02 0. -1.
    10030    2    1    2    0    0  0.00000000000E+00  0.00000000000E+00 -0.45262034360E+03  0.26516284102E+04  0.26127127761E+04 0.  0.
        4    1    3    3  502    0  0.21653798841E+03 -0.16123407233E+03 -0.15235029644E+04  0.15472388381E+04  0.12699999809E+01 0. -1.
       -4    1    3    3    0  502 -0.21653798841E+03  0.16123407233E+03  0.10708826208E+04  0.11043895721E+04  0.12699999809E+01 0.  1.
</event>
<event>
 5   0  0.1993815E-05  0.1998389E+04  0.7818609E-02  0.8607374E-01
        1   -1    0    0  501    0  0.00000000000E+00  0.00000000000E+00  0.56785846316E+03  0.56785846319E+03  0.50400001928E-02 0.  1.
       -1   -1    0    0    0  501  0.00000000000E+00  0.00000000000E+00 -0.17581655123E+04  0.17581655123E+04  0.50400001928E-02 0. -1.
    10030    2    1    2    0    0  0.00000000000E+00  0.00000000000E+00 -0.11903070491E+04  0.23260239755E+04  0.19983885166E+04 0.  0.
        5    1    3    3  502    0 -0.30075326318E+03  0.91922186247E+03 -0.88717672589E+03  0.13124503765E+04  0.46999998093E+01 0. -1.
       -5    1    3    3    0  502  0.30075326318E+03 -0.91922186247E+03 -0.30313032326E+03  0.10135735990E+04  0.46999998093E+01 0.  1.
</event>
<event>
 5   0  0.5049803E-05  0.2558448E+04  0.7818609E-02  0.8382454E-01
       -2   -1    0    0    0  501  0.00000000000E+00  0.00000000000E+00  0.17777889217E+04  0.17777889217E+04  0.25500000920E-02 0. -1.
        2   -1    0    0  501    0  0.00000000000E+00  0.00000000000E+00 -0.92047707095E+03  0.92047707095E+03  0.25500000920E-02 0.  1.
    10030    2    1    2    0    0  0.00000000000E+00  0.00000000000E+00  0.85731185074E+03  0.26982659926E+04  0.25584479197E+04 0.  0.
        4    1    3    3  502    0 -0.12006864204E+03 -0.42277618447E+03  0.16956654706E+04  0.17516960872E+04  0.12699999809E+01 0. -1.
       -4    1    3    3    0  502  0.12006864204E+03  0.42277618447E+03 -0.83835361987E+03  0.94656990539E+03  0.12699999809E+01 0.  1.
</event>
<event>
 5   0  0.1993815E-05  0.2436307E+04  0.7818609E-02  0.8426035E-01
        1   -1    0    0  501    0  0.00000000000E+00  0.00000000000E+00  0.15067218549E+04  0.15067218549E+04  0.50400001928E-02 0.  1.
       -1   -1    0    0    0  501  0.00000000000E+00  0.00000000000E+00 -0.98485172998E+03  0.98485172999E+03  0.50400001928E-02 0. -1.
    10030    2    1    2    0    0  0.00000000000E+00  0.00000000000E+00  0.52187012491E+03  0.24915735849E+04  0.24363067339E+04 0.  0.
        5    1    3    3  502    0 -0.80451278607E+03 -0.50027925686E+03  0.10440440506E+04  0.14098121248E+04  0.46999998093E+01 0.  1.
       -5    1    3    3    0  502  0.80451278607E+03  0.50027925686E+03 -0.52217392568E+03  0.10817614600E+04  0.46999998093E+01 0. -1.
</event>
<event>
 5   0  0.5036452E-05  0.2723485E+04  0.7818609E-02  0.8327425E-01
        2   -1    0    0  501    0  0.00000000000E+00  0.00000000000E+00  0.14240864528E+04  0.14240864528E+04  0.25500000920E-02 0.  1.
       -2   -1    0    0    0  501  0.00000000000E+00  0.00000000000E+00 -0.13021278601E+04  0.13021278601E+04  0.25500000920E-02 0. -1.
    10030    2    1    2    0    0  0.00000000000E+00  0.00000000000E+00  0.12195859263E+03  0.27262143129E+04  0.27234850067E+04 0.  0.
        2    1    3    3  502    0  0.33380122877E+03 -0.12813184083E+04  0.37932712600E+03  0.13773486096E+04  0.25500000920E-02 0.  1.
       -2    1    3    3    0  502 -0.33380122877E+03  0.12813184083E+04 -0.25736853337E+03  0.13488657034E+04  0.25500000920E-02 0. -1.
</event>
<event>
 5   0  0.5170532E-05  0.2611009E+04  0.7818609E-02  0.8364471E-01
        2   -1    0    0  501    0  0.00000000000E+00  0.00000000000E+00  0.21810137369E+04  0.21810137369E+04  0.25500000920E-02 0. -1.
       -2   -1    0    0    0  501  0.00000000000E+00  0.00000000000E+00 -0.78144485556E+03  0.78144485557E+03  0.25500000920E-02 0.  1.
    10030    2    1    2    0    0  0.00000000000E+00  0.00000000000E+00  0.13995688814E+04  0.29624585925E+04  0.26110089733E+04 0.  0.
        1    1    3    3  502    0  0.10111792024E+03 -0.13012149039E+04  0.73488211020E+03  0.14978106609E+04  0.50400001928E-02 0. -1.
       -1    1    3    3    0  502 -0.10111792024E+03  0.13012149039E+04  0.66468677118E+03  0.14646479316E+04  0.50400001928E-02 0.  1.
</event>
<event>
 5   0  0.1954502E-05  0.2475988E+04  0.7818609E-02  0.8411590E-01
        1   -1    0    0  501    0  0.00000000000E+00  0.00000000000E+00  0.12547185957E+04  0.12547185958E+04  0.50400001928E-02 0. -1.
       -1   -1    0    0    0  501  0.00000000000E+00  0.00000000000E+00 -0.12214927960E+04  0.12214927961E+04  0.50400001928E-02 0.  1.
    10030    2    1    2    0    0  0.00000000000E+00  0.00000000000E+00  0.33225799693E+02  0.24762113918E+04  0.24759884699E+04 0.  0.
        4    1    3    3  502    0 -0.38193190626E+03 -0.36463326998E+03  0.11364452481E+04  0.12531316042E+04  0.12699999809E+01 0. -1.
       -4    1    3    3    0  502  0.38193190626E+03  0.36463326998E+03 -0.11032194484E+04  0.12230797876E+04  0.12699999809E+01 0.  1.
</event>
<event>
 5   0  0.5170532E-05  0.2599929E+04  0.7818609E-02  0.8368225E-01
        2   -1    0    0  501    0  0.00000000000E+00  0.00000000000E+00  0.24432688636E+04  0.24432688636E+04  0.25500000920E-02 0. -1.
       -2   -1    0    0    0  501  0.00000000000E+00  0.00000000000E+00 -0.69165872790E+03  0.69165872790E+03  0.25500000920E-02 0.  1.
    10030    2    1    2    0    0  0.00000000000E+00  0.00000000000E+00  0.17516101357E+04  0.31349275915E+04  0.25999294099E+04 0.  0.
        1    1    3    3  502    0  0.20809104035E+02  0.44881696607E+03  0.23466708617E+04  0.23892956747E+04  0.50400001928E-02 0. -1.
       -1    1    3    3    0  502 -0.20809104035E+02 -0.44881696607E+03 -0.59506072596E+03  0.74563191686E+03  0.50400001928E-02 0.  1.
</event>
<event>
 5   0  0.2072710E-05  0.2588663E+04  0.7818609E-02  0.8372062E-01
       -1   -1    0    0    0  501  0.00000000000E+00  0.00000000000E+00  0.81740029553E+03  0.81740029554E+03  0.50400001928E-02 0.  1.
        1   -1    0    0  501    0  0.00000000000E+00  0.00000000000E+00 -0.20495394749E+04  0.20495394749E+04  0.50400001928E-02 0. -1.
    10030    2    1    2    0    0  0.00000000000E+00  0.00000000000E+00 -0.12321391793E+04  0.28669397704E+04  0.25886631086E+04 0.  0.
        2    1    3    3  502    0 -0.45663699241E+03 -0.43613131601E+02 -0.19564969301E+04  0.20095521106E+04  0.25500000920E-02 0. -1.
       -2    1    3    3    0  502  0.45663699241E+03  0.43613131601E+02  0.72435775072E+03  0.85738765977E+03  0.25500000920E-02 0.  1.
</event>
<event>
 5   0  0.5049803E-05  0.2419626E+04  0.7818609E-02  0.8432192E-01
       -2   -1    0    0    0  501  0.00000000000E+00  0.00000000000E+00  0.87927297329E+03  0.87927297329E+03  0.25500000920E-02 0. -1.
        2   -1    0    0  501    0  0.00000000000E+00  0.00000000000E+00 -0.16646112179E+04  0.16646112179E+04  0.25500000920E-02 0.  1.
    10030    2    1    2    0    0  0.00000000000E+00  0.00000000000E+00 -0.78533824465E+03  0.25438841912E+04  0.24196261322E+04 0.  0.
        4    1    3    3  502    0  0.44650775007E+03  0.21759141391E+03  0.76712798223E+03  0.91389394807E+03  0.12699999809E+01 0. -1.
       -4    1    3    3    0  502 -0.44650775007E+03 -0.21759141391E+03 -0.15524662269E+04  0.16299902432E+04  0.12699999809E+01 0.  1.
</event>
<event>
 5   0  0.5182179E-05  0.2475047E+04  0.7818609E-02  0.8411930E-01
        2   -1    0    0  501    0  0.00000000000E+00  0.00000000000E+00  0.14147668166E+04  0.14147668166E+04  0.25500000920E-02 0. -1.
       -2   -1    0    0    0  501  0.00000000000E+00  0.00000000000E+00 -0.10824851850E+04  0.10824851850E+04  0.25500000920E-02 0.  1.
    10030    2    1    2    0    0  0.00000000000E+00  0.00000000000E+00  0.33228163160E+03  0.24972520016E+04  0.24750467625E+04 0.  0.
        3    1    3    3  502    0 -0.32800966578E+03 -0.28256883168E+03 -0.10035826978E+04  0.10929838640E+04  0.10100000352E+00 0.  1.
       -3    1    3    3    0  502  0.32800966578E+03  0.28256883168E+03  0.13358643294E+04  0.14042681376E+04  0.10100000352E+00 0. -1.
</event>
<event>
 5   0  0.2072710E-05  0.2520057E+04  0.7818609E-02  0.8395875E-01
       -1   -1    0    0    0  501  0.00000000000E+00  0.00000000000E+00  0.16082672962E+04  0.16082672962E+04  0.50400001928E-02 0. -1.
        1   -1    0    0  501    0  0.00000000000E+00  0.00000000000E+00 -0.98719412625E+03  0.98719412627E+03  0.50400001928E-02 0.  1.
    10030    2    1    2    0    0  0.00000000000E+00  0.00000000000E+00  0.62107316991E+03  0.25954614224E+04  0.25200571646E+04 0.  0.
        2    1    3    3  502    0  0.80554208468E+02  0.35849130019E+03  0.15518665138E+04  0.15947710398E+04  0.25500000920E-02 0. -1.
       -2    1    3    3    0  502 -0.80554208468E+02 -0.35849130019E+03 -0.93079334389E+03  0.10006903826E+04  0.25500000920E-02 0.  1.
</event>
<event>
 5   0  0.1954502E-05  0.2672516E+04  0.7818609E-02  0.8343978E-01
       -1   -1    0    0    0  501  0.00000000000E+00  0.00000000000E+00  0.10968172267E+04  0.10968172267E+04  0.50400001928E-02 0.  1.
        1   -1    0    0  501    0  0.00000000000E+00  0.00000000000E+00 -0.16279694500E+04  0.16279694500E+04  0.50400001928E-02 0. -1.
    10030    2    1    2    0    0  0.00000000000E+00  0.00000000000E+00 -0.53115222332E+03  0.27247866767E+04  0.26725156219E+04 0.  0.
        4    1    3    3  502    0  0.12886412989E+04 -0.10339792106E+02 -0.62587151994E+03  0.14326269859E+04  0.12699999809E+01 0.  1.
       -4    1    3    3    0  502 -0.12886412989E+04  0.10339792106E+02  0.94719296620E+02  0.12921596908E+04  0.12699999809E+01 0. -1.
</event>
<event>
 5   0  0.1993815E-05  0.2458465E+04  0.7818609E-02  0.8417934E-01
        1   -1    0    0  501    0  0.00000000000E+00  0.00000000000E+00  0.20555819577E+04  0.20555819577E+04  0.50400001928E-02 0. -1.
       -1   -1    0    0    0  501  0.00000000000E+00  0.00000000000E+00 -0.73507775934E+03  0.73507775935E+03  0.50400001928E-02 0.  1.
    10030    2    1    2    0    0  0.00000000000E+00  0.00000000000E+00  0.13205041984E+04  0.27906597171E+04  0.24584650330E+04 0.  0.
        5    1    3    3  502    0 -0.73057037888E+03  0.76035957467E+03  0.13773683244E+04  0.17346600106E+04  0.46999998093E+01 0. -1.
       -5    1    3    3    0  502  0.73057037888E+03 -0.76035957467E+03 -0.56864126012E+02  0.10559997065E+04  0.46999998093E+01 0.  1.
</event>
<event>
 5   0  0.2159405E-05  0.2165867E+04  0.7818609E-02  0.8532771E-01
       -1   -1    0    0    0  501  0.00000000000E+00  0.00000000000E+00  0.12477449798E+04  0.12477449798E+04  0.50400001928E-02 0.  1.
        1   -1    0    0  501    0  0.00000000000E+00  0.00000000000E+00 -0.93989121959E+03  0.93989121960E+03  0.50400001928E-02 0. -1.
    10030    2    1    2    0    0  0.00000000000E+00  0.00000000000E+00  0.30785376022E+03  0.21876361994E+04  0.21658666172E+04 0.  0.
        3    1    3    3  502    0  0.26045493408E+03 -0.10172329243E+04 -0.11358408329E+03  0.10561727837E+04  0.10100000352E+00 0. -1.
       -3    1    3    3    0  502 -0.26045493408E+03  0.10172329243E+04  0.42143784351E+03  0.11314634157E+04  0.10100000352E+00 0.  1.
</event>
<event>
 5   0  0.5182179E-05  0.2316095E+04  0.7818609E-02  0.8471602E-01
       -2   -1    0    0    0  501  0.00000000000E+00  0.00000000000E+00  0.14775348197E+04  0.14775348197E+04  0.25500000920E-02 0. -1.
        2   -1    0    0  501    0  0.00000000000E+00  0.00000000000E+00 -0.90764307758E+03  0.90764307758E+03  0.25500000920E-02 0.  1.
    10030    2    1    2    0    0  0.00000000000E+00  0.00000000000E+00  0.56989174217E+03  0.23851778973E+04  0.23160952062E+04 0.  0.
        3    1    3    3  502    0  0.17340426777E+03 -0.21071058576E+03  0.14439505304E+04  0.14695105088E+04  0.10100000352E+00 0. -1.
       -3    1    3    3    0  502 -0.17340426777E+03  0.21071058576E+03 -0.87405878820E+03  0.91566738856E+03  0.10100000352E+00 0.  1.
</event>
<event>
 5   0  0.4955675E-05  0.2564796E+04  0.7818609E-02  0.8380258E-01
       -2   -1    0    0    0  501  0.00000000000E+00  0.00000000000E+00  0.11010362822E+04  0.11010362822E+04  0.25500000920E-02 0. -1.
        2   -1    0    0  501    0  0.00000000000E+00  0.00000000000E+00 -0.14936338522E+04  0.14936338522E+04  0.25500000920E-02 0.  1.
    10030    2    1    2    0    0  0.00000000000E+00  0.00000000000E+00 -0.39259756995E+03  0.25946701344E+04  0.25647963378E+04 0.  0.
        5    1    3    3  502    0  0.92064847705E+03  0.82379905077E+03  0.15163223414E+03  0.12446898886E+04  0.46999998093E+01 0. -1.
       -5    1    3    3    0  502 -0.92064847705E+03 -0.82379905077E+03 -0.54422980409E+03  0.13499802458E+04  0.46999998093E+01 0.  1.
</event>
<event>
 5   0  0.5036452E-05  0.2586025E+04  0.7818609E-02  0.8372964E-01
       -2   -1    0    0    0  501  0.00000000000E+00  0.00000000000E+00  0.60294680645E+03  0.60294680646E+03  0.25500000920E-02 0.  1.
        2   -1    0    0  501    0  0.00000000000E+00  0.00000000000E+00 -0.27728508458E+04  0.27728508458E+04  0.25500000920E-02 0. -1.
    10030    2    1    2    0    0  0.00000000000E+00  0.00000000000E+00 -0.21699040394E+04  0.33757976523E+04  0.25860251834E+04 0.  0.
        2    1    3    3  502    0 -0.44444615591E+03  0.10618215037E+04 -0.18537920036E+04  0.21820958008E+04  0.25500000920E-02 0. -1.
       -2    1    3    3    0  502  0.44444615591E+03 -0.10618215037E+04 -0.31611203575E+03  0.11937018515E+04  0.25500000920E-02 0.  1.
</event>
<event>
 5   0  0.2159405E-05  0.2721835E+04  0.7818609E-02  0.8327955E-01
       -1   -1    0    0    0  501  0.00000000000E+00  0.00000000000E+00  0.71430295898E+03  0.71430295900E+03  0.50400001928E-02 0. -1.
        1   -1    0    0  501    0  0.00000000000E+00  0.00000000000E+00 -0.25928715584E+04  0.25928715584E+04  0.50400001928E-02 0.  1.
    10030    2    1    2    0    0  0.00000000000E+00  0.00000000000E+00 -0.18785685994E+04  0.33071745174E+04  0.27218345478E+04 0.  0.
        3    1    3    3  502    0  0.84611201578E+03 -0.87587806705E+03 -0.16774009168E+04  0.20728583592E+04  0.10100000352E+00 0.  1.
       -3    1    3    3    0  502 -0.84611201578E+03  0.87587806705E+03 -0.20116768264E+03  0.12343161582E+04  0.10100000352E+00 0. -1.
</event>
<event>
 5   0  0.5036452E-05  0.2578691E+04  0.7818609E-02  0.8375476E-01
        2   -1    0    0  501    0  0.00000000000E+00  0.00000000000E+00  0.21394381679E+04  0.21394381679E+04  0.25500000920E-02 0. -1.
       -2   -1    0    0    0  501  0.00000000000E+00  0.00000000000E+00 -0.77703202775E+03  0.77703202775E+03  0.25500000920E-02 0.  1.
    10030    2    1    2    0    0  0.00000000000E+00  0.00000000000E+00  0.13624061402E+04  0.29164701957E+04  0.25786911237E+04 0.  0.
        2    1    3    3  502    0  0.12787950020E+04  0.54243582245E+02  0.85697250178E+03  0.15403444070E+04  0.25500000920E-02 0. -1.
       -2    1    3    3    0  502 -0.12787950020E+04 -0.54243582245E+02  0.50543363842E+03  0.13761257887E+04  0.25500000920E-02 0.  1.
</event>
<event>
 5   0  0.2163800E-05  0.2602698E+04  0.7818609E-02  0.8367285E-01
       -1   -1    0    0    0  501  0.00000000000E+00  0.00000000000E+00  0.75892055738E+03  0.75892055739E+03  0.50400001928E-02 0. -1.
        1   -1    0    0  501    0  0.00000000000E+00  0.00000000000E+00 -0.22314705668E+04  0.22314705668E+04  0.50400001928E-02 0.  1.
    10030    2    1    2    0    0  0.00000000000E+00  0.00000000000E+00 -0.14725500094E+04  0.29903911242E+04  0.26026977438E+04 0.  0.
        1    1    3    3  502    0  0.11278631673E+04 -0.16539818166E+03 -0.14575399175E+04  0.18503660431E+04  0.50400001928E-02 0.  1.
       -1    1    3    3    0  502 -0.11278631673E+04  0.16539818166E+03 -0.15010091987E+02  0.11400250811E+04  0.50400001928E-02 0. -1.
</event>
<event>
 5   0  0.1993815E-05  0.2588646E+04  0.7818609E-02  0.8372068E-01
        1   -1    0    0  501    0  0.00000000000E+00  0.00000000000E+00  0.11505706903E+04  0.11505706903E+04  0.50400001928E-02 0. -1.
       -1   -1    0    0    0  501  0.00000000000E+00  0.00000000000E+00 -0.14560361311E+04  0.14560361311E+04  0.50400001928E-02 0.  1.
    10030    2    1    2    0    0  0.00000000000E+00  0.00000000000E+00 -0.30546544076E+03  0.26066068214E+04  0.25886463617E+04 0.  0.
        5    1    3    3  502    0  0.60369782494E+02 -0.10215654103E+04 -0.95070183984E+03  0.13968165508E+04  0.46999998093E+01 0.  1.
       -5    1    3    3    0  502 -0.60369782494E+02  0.10215654103E+04  0.64523639908E+03  0.12097902706E+04  0.46999998093E+01 0. -1.
</event>
<event>
 5   0  0.5049803E-05  0.2408058E+04  0.7818609E-02  0.8436493E-01
       -2   -1    0    0    0  501  0.00000000000E+00  0.00000000000E+00  0.61812767611E+03  0.61812767611E+03  0.25500000920E-02 0. -1.
        2   -1    0    0  501    0  0.00000000000E+00  0.00000000000E+00 -0.23452858633E+04  0.23452858633E+04  0.25500000920E-02 0.  1.
    10030    2    1    2    0    0  0.00000000000E+00  0.00000000000E+00 -0.17271581872E+04  0.29634135395E+04  0.24080582223E+04 0.  0.
        4    1    3    3  502    0 -0.81236242228E+03  0.78659838428E+03 -0.13724903779E+04  0.17783141381E+04  0.12699999809E+01 0. -1.
       -4    1    3    3    0  502  0.81236242228E+03 -0.78659838428E+03 -0.35466780931E+03  0.11850994014E+04  0.12699999809E+01 0.  1.
</event>
<event>
 5   0  0.2159405E-05  0.2594481E+04  0.7818609E-02  0.8370078E-01
       -1   -1    0    0    0  501  0.00000000000E+00  0.00000000000E+00  0.14255296523E+04  0.14255296523E+04  0.50400001928E-02 0. -1.
        1   -1    0    0  501    0  0.00000000000E+00  0.00000000000E+00 -0.11804967446E+04  0.11804967446E+04  0.50400001928E-02 0.  1.
    10030    2    1    2    0    0  0.00000000000E+00  0.00000000000E+00  0.24503290773E+03  0.26060263969E+04  0.25944811534E+04 0.  0.
        3    1    3    3  502    0 -0.55630270111E+03  0.11687302127E+04  0.20909804631E+03  0.13111540751E+04  0.10100000352E+00 0. -1.
       -3    1    3    3    0  502  0.55630270111E+03 -0.11687302127E+04  0.35934861428E+02  0.12948723218E+04  0.10100000352E+00 0.  1.
</event>
<event>
 5   0  0.2163800E-05  0.2643614E+04  0.7818609E-02  0.8353536E-01
       -1   -1    0    0    0  501  0.00000000000E+00  0.00000000000E+00  0.92584121895E+03  0.92584121896E+03  0.50400001928E-02 0.  1.
        1   -1    0    0  501    0  0.00000000000E+00  0.00000000000E+00 -0.18871207893E+04  0.18871207894E+04  0.50400001928E-02 0. -1.
    10030    2    1    2    0    0  0.00000000000E+00  0.00000000000E+00 -0.96127957040E+03  0.28129620083E+04  0.26436143531E+04 0.  0.
        1    1    3    3  502    0 -0.59065990300E+03  0.45411523690E+03  0.68112298245E+03  0.10094693094E+04  0.50400001928E-02 0.  1.
       -1    1    3    3    0  502  0.59065990300E+03 -0.45411523690E+03 -0.16424025528E+04  0.18034926989E+04  0.50400001928E-02 0. -1.
</event>
<event>
 5   0  0.2072710E-05  0.2524502E+04  0.7818609E-02  0.8394308E-01
       -1   -1    0    0    0  501  0.00000000000E+00  0.00000000000E+00  0.11303448009E+04  0.11303448009E+04  0.50400001928E-02 0.  1.
        1   -1    0    0  501    0  0.00000000000E+00  0.00000000000E+00 -0.14095499553E+04  0.14095499553E+04  0.50400001928E-02 0. -1.
    10030    2    1    2    0    0  0.00000000000E+00  0.00000000000E+00 -0.27920515445E+03  0.25398947562E+04  0.25245019022E+04 0.  0.
        2    1    3    3  502    0 -0.84306923588E+03 -0.69863624946E+03  0.49225470915E+03  0.12004886689E+04  0.25500000920E-02 0.  1.
       -2    1    3    3    0  502  0.84306923588E+03  0.69863624946E+03 -0.77145986360E+03  0.13394060873E+04  0.25500000920E-02 0. -1.
</event>
<event>
 5   0  0.1954502E-05  0.2830162E+04  0.7818609E-02  0.8293965E-01
        1   -1    0    0  501    0  0.00000000000E+00  0.00000000000E+00  0.10454334754E+04  0.10454334754E+04  0.50400001928E-02 0.  1.
       -1   -1    0    0    0  501  0.00000000000E+00  0.00000000000E+00 -0.19154290318E+04  0.19154290318E+04  0.50400001928E-02 0. -1.
    10030    2    1    2    0    0  0.00000000000E+00  0.00000000000E+00 -0.86999555636E+03  0.29608625072E+04  0.28301615711E+04 0.  0.
        4    1    3    3  502    0 -0.60418647911E+03  0.11841945285E+04  0.72258948663E+02  0.13313830971E+04  0.12699999809E+01 0.  1.
       -4    1    3    3    0  502  0.60418647911E+03 -0.11841945285E+04 -0.94225450502E+03  0.16294794101E+04  0.12699999809E+01 0. -1.
</event>
<event>
 5   0  0.1698625E-05  0.2545995E+04  0.7818609E-02  0.8386780E-01
       -3   -1    0    0    0  501  0.00000000000E+00  0.00000000000E+00  0.20674442263E+04  0.20674442287E+04  0.10100000352E+00 0. -1.
        3   -1    0    0  501    0  0.00000000000E+00  0.00000000000E+00 -0.78382888173E+03  0.78382888824E+03  0.10100000352E+00 0.  1.
    10030    2    1    2    0    0  0.00000000000E+00  0.00000000000E+00  0.12836153445E+04  0.28512731170E+04  0.25459949008E+04 0.  0.
        4    1    3    3  502    0 -0.60920981318E+03  0.94690238791E+03 -0.23344570406E+02  0.11261915071E+04  0.12699999809E+01 0.  1.
       -4    1    3    3    0  502  0.60920981318E+03 -0.94690238791E+03  0.13069599150E+04  0.17250816099E+04  0.12699999809E+01 0. -1.
</event>
<event>
 5   0  0.5170532E-05  0.2639862E+04  0.7818609E-02  0.8354786E-01
        2   -1    0    0  501    0  0.00000000000E+00  0.00000000000E+00  0.24263772400E+04  0.24263772400E+04  0.25500000920E-02 0. -1.
       -2   -1    0    0    0  501  0.00000000000E+00  0.00000000000E+00 -0.71803252692E+03  0.71803252693E+03  0.25500000920E-02 0.  1.
    10030    2    1    2    0    0  0.00000000000E+00  0.00000000000E+00  0.17083447131E+04  0.31444097669E+04  0.26398619516E+04 0.  0.
        1    1    3    3  502    0 -0.23872450491E+03 -0.92039551514E+03 -0.23627817021E+03  0.97976765984E+03  0.50400001928E-02 0.  1.
       -1    1    3    3    0  502  0.23872450491E+03  0.92039551514E+03  0.19446228833E+04  0.21646421071E+04  0.50400001928E-02 0. -1.
</event>
<event>
 5   0  0.2072710E-05  0.2299654E+04  0.7818609E-02  0.8478058E-01
       -1   -1    0    0    0  501  0.00000000000E+00  0.00000000000E+00  0.72416524350E+03  0.72416524352E+03  0.50400001928E-02 0. -1.
        1   -1    0    0  501    0  0.00000000000E+00  0.00000000000E+00 -0.18256908058E+04  0.18256908058E+04  0.50400001928E-02 0.  1.
    10030    2    1    2    0    0  0.00000000000E+00  0.00000000000E+00 -0.11015255623E+04  0.25498560493E+04  0.22996537365E+04 0.  0.
        2    1    3    3  502    0  0.83958319131E+03  0.70617447394E+03 -0.93248560503E+03  0.14398304506E+04  0.25500000920E-02 0.  1.
       -2    1    3    3    0  502 -0.83958319131E+03 -0.70617447394E+03 -0.16903995728E+03  0.11100255988E+04  0.25500000920E-02 0. -1.
</event>
<event>
 5   0  0.5182179E-05  0.2453948E+04  0.7818609E-02  0.8419578E-01
       -2   -1    0    0    0  501  0.00000000000E+00  0.00000000000E+00  0.90902341280E+03  0.90902341280E+03  0.25500000920E-02 0.  1.
        2   -1    0    0  501    0  0.00000000000E+00  0.00000000000E+00 -0.16561344204E+04  0.16561344204E+04  0.25500000920E-02 0. -1.
    10030    2    1    2    0    0  0.00000000000E+00  0.00000000000E+00 -0.74711100756E+03  0.25651578332E+04  0.24539478094E+04 0.  0.
        3    1    3    3  502    0  0.31139839750E+03 -0.23719466728E+03  0.84200003155E+03  0.92854420223E+03  0.10100000352E+00 0.  1.
       -3    1    3    3    0  502 -0.31139839750E+03  0.23719466728E+03 -0.15891110391E+04  0.16366136309E+04  0.10100000352E+00 0. -1.
</event>
<event>
 5   0  0.1954502E-05  0.1649049E+04  0.7818609E-02  0.8790969E-01
       -1   -1    0    0    0  501  0.00000000000E+00  0.00000000000E+00  0.16460422905E+04  0.16460422905E+04  0.50400001928E-02 0. -1.
        1   -1    0    0  501    0  0.00000000000E+00  0.00000000000E+00 -0.41301525539E+03  0.41301525542E+03  0.50400001928E-02 0.  1.
    10030    2    1    2    0    0  0.00000000000E+00  0.00000000000E+00  0.12330270351E+04  0.20590575459E+04  0.16490489101E+04 0.  0.
        4    1    3    3  502    0  0.51419955720E+03  0.49520384032E+03  0.11316575550E+04  0.13380128784E+04  0.12699999809E+01 0. -1.
       -4    1    3    3    0  502 -0.51419955720E+03 -0.49520384032E+03  0.10136948006E+03  0.72104466747E+03  0.12699999809E+01 0.  1.
</event>
<event>
 5   0  0.5170532E-05  0.2561983E+04  0.7818609E-02  0.8381231E-01
        2   -1    0    0  501    0  0.00000000000E+00  0.00000000000E+00  0.10977450533E+04  0.10977450533E+04  0.25500000920E-02 0. -1.
       -2   -1    0    0    0  501  0.00000000000E+00  0.00000000000E+00 -0.14948271672E+04  0.14948271672E+04  0.25500000920E-02 0.  1.
    10030    2    1    2    0    0  0.00000000000E+00  0.00000000000E+00 -0.39708211395E+03  0.25925722205E+04  0.25619829260E+04 0.  0.
        1    1    3    3  502    0  0.36751216869E+03  0.60255299528E+03  0.88324274481E+03  0.11305985373E+04  0.50400001928E-02 0. -1.
       -1    1    3    3    0  502 -0.36751216869E+03 -0.60255299528E+03 -0.12803248588E+04  0.14619736832E+04  0.50400001928E-02 0.  1.
</event>
<event>
 5   0  0.2159405E-05  0.2430545E+04  0.7818609E-02  0.8428156E-01
       -1   -1    0    0    0  501  0.00000000000E+00  0.00000000000E+00  0.65569603657E+03  0.65569603659E+03  0.50400001928E-02 0. -1.
        1   -1    0    0  501    0  0.00000000000E+00  0.00000000000E+00 -0.22523962220E+04  0.22523962220E+04  0.50400001928E-02 0.  1.
    10030    2    1    2    0    0  0.00000000000E+00  0.00000000000E+00 -0.15967001854E+04  0.29080922585E+04  0.24305450216E+04 0.  0.
        3    1    3    3  502    0  0.22391893047E+02  0.16928512915E+03  0.64127052987E+03  0.66361642122E+03  0.10100000352E+00 0. -1.
       -3    1    3    3    0  502 -0.22391893047E+02 -0.16928512915E+03 -0.22379707153E+04  0.22444758373E+04  0.10100000352E+00 0.  1.
</event>
<event>
 5   0  0.5049803E-05  0.1937856E+04  0.7818609E-02  0.8636239E-01
       -2   -1    0    0    0  501  0.00000000000E+00  0.00000000000E+00  0.59286616512E+03  0.59286616513E+03  0.25500000920E-02 0.  1.
        2   -1    0    0  501    0  0.00000000000E+00  0.00000000000E+00 -0.15835294990E+04  0.15835294990E+04  0.25500000920E-02 0. -1.
    10030    2    1    2    0    0  0.00000000000E+00  0.00000000000E+00 -0.99066333392E+03  0.21763956642E+04  0.19378555792E+04 0.  0.
        4    1    3    3  502    0 -0.47334061357E+02 -0.60456926575E+02 -0.15801063799E+04  0.15819713455E+04  0.12699999809E+01 0. -1.
       -4    1    3    3    0  502  0.47334061357E+02  0.60456926575E+02  0.58944304594E+03  0.59442431869E+03  0.12699999809E+01 0.  1.
</event>
<event>
 5   0  0.5049803E-05  0.2480585E+04  0.7818609E-02  0.8409935E-01
        2   -1    0    0  501    0  0.00000000000E+00  0.00000000000E+00  0.81385394214E+03  0.81385394215E+03  0.25500000920E-02 0. -1.
       -2   -1    0    0    0  501  0.00000000000E+00  0.00000000000E+00 -0.18901741307E+04  0.18901741307E+04  0.25500000920E-02 0.  1.
    10030    2    1    2    0    0  0.00000000000E+00  0.00000000000E+00 -0.10763201886E+04  0.27040280729E+04  0.24805851468E+04 0.  0.
        4    1    3    3  502    0 -0.23094350488E+03 -0.30995202255E+03 -0.18228416838E+04  0.18633729031E+04  0.12699999809E+01 0.  1.
       -4    1    3    3    0  502  0.23094350488E+03  0.30995202255E+03  0.74652149525E+03  0.84065516979E+03  0.12699999809E+01 0. -1.
</event>
<event>
 5   0  0.4955675E-05  0.2486552E+04  0.7818609E-02  0.8407792E-01
        2   -1    0    0  501    0  0.00000000000E+00  0.00000000000E+00  0.12993795222E+04  0.12993795222E+04  0.25500000920E-02 0. -1.
       -2   -1    0    0    0  501  0.00000000000E+00  0.00000000000E+00 -0.11895950877E+04  0.11895950877E+04  0.25500000920E-02 0.  1.
    10030    2    1    2    0    0  0.00000000000E+00  0.00000000000E+00  0.10978443455E+03  0.24889746099E+04  0.24865522289E+04 0.  0.
        5    1    3    3  502    0  0.78725261642E+03  0.28060764001E+03 -0.86644244778E+03  0.12038488007E+04  0.46999998093E+01 0.  1.
       -5    1    3    3    0  502 -0.78725261642E+03 -0.28060764001E+03  0.97622688234E+03  0.12851258092E+04  0.46999998093E+01 0. -1.
</event>
<event>
 5   0  0.5036452E-05  0.2612234E+04  0.7818609E-02  0.8364057E-01
       -2   -1    0    0    0  501  0.00000000000E+00  0.00000000000E+00  0.13636907395E+04  0.13636907395E+04  0.25500000920E-02 0.  1.
        2   -1    0    0  501    0  0.00000000000E+00  0.00000000000E+00 -0.12509742051E+04  0.12509742051E+04  0.25500000920E-02 0. -1.
    10030    2    1    2    0    0  0.00000000000E+00  0.00000000000E+00  0.11271653439E+03  0.26146649445E+04  0.26122342458E+04 0.  0.
        2    1    3    3  502    0  0.42196036527E+03  0.26523697183E+03 -0.11520516382E+04  0.12552386937E+04  0.25500000920E-02 0. -1.
       -2    1    3    3    0  502 -0.42196036527E+03 -0.26523697183E+03  0.12647681726E+04  0.13594262508E+04  0.25500000920E-02 0.  1.
</event>
<event>
 5   0  0.5182179E-05  0.2671144E+04  0.7818609E-02  0.8344429E-01
        2   -1    0    0  501    0  0.00000000000E+00  0.00000000000E+00  0.16097984811E+04  0.16097984811E+04  0.25500000920E-02 0.  1.
       -2   -1    0    0    0  501  0.00000000000E+00  0.00000000000E+00 -0.11080592444E+04  0.11080592444E+04  0.25500000920E-02 0. -1.
    10030    2    1    2    0    0  0.00000000000E+00  0.00000000000E+00  0.50173923668E+03  0.27178577255E+04  0.26711436417E+04 0.  0.
        3    1    3    3  502    0  0.86610051035E+03  0.86120219274E+03 -0.29890637741E+03  0.12574356220E+04  0.10100000352E+00 0. -1.
       -3    1    3    3    0  502 -0.86610051035E+03 -0.86120219274E+03  0.80064561409E+03  0.14604221035E+04  0.10100000352E+00 0.  1.
</event>
<event>
 5   0  0.5182179E-05  0.2609879E+04  0.7818609E-02  0.8364853E-01
       -2   -1    0    0    0  501  0.00000000000E+00  0.00000000000E+00  0.53089177108E+03  0.53089177108E+03  0.25500000920E-02 0. -1.
        2   -1    0    0  501    0  0.00000000000E+00  0.00000000000E+00 -0.32075608038E+04  0.32075608038E+04  0.25500000920E-02 0.  1.
    10030    2    1    2    0    0  0.00000000000E+00  0.00000000000E+00 -0.26766690327E+04  0.37384525749E+04  0.26098794117E+04 0.  0.
        3    1    3    3  502    0  0.81261263458E+03  0.31329996998E+03 -0.27303461384E+04  0.28658831467E+04  0.10100000352E+00 0.  1.
       -3    1    3    3    0  502 -0.81261263458E+03 -0.31329996998E+03  0.53677105676E+02  0.87256942815E+03  0.10100000352E+00 0. -1.
</event>
<event>
 5   0  0.5036452E-05  0.2597377E+04  0.7818609E-02  0.8369093E-01
       -2   -1    0    0    0  501  0.00000000000E+00  0.00000000000E+00  0.91069875960E+03  0.91069875960E+03  0.25500000920E-02 0.  1.
        2   -1    0    0  501    0  0.00000000000E+00  0.00000000000E+00 -0.18519758741E+04  0.18519758741E+04  0.25500000920E-02 0. -1.
    10030    2    1    2    0    0  0.00000000000E+00  0.00000000000E+00 -0.94127711447E+03  0.27626746337E+04  0.25973772397E+04 0.  0.
        2    1    3    3  502    0  0.64994490889E+03  0.11203931265E+04 -0.37039089156E+03  0.13471817082E+04  0.25500000920E-02 0.  1.
       -2    1    3    3    0  502 -0.64994490889E+03 -0.11203931265E+04 -0.57088622291E+03  0.14154929254E+04  0.25500000920E-02 0. -1.
</event>
<event>
 5   0  0.2072710E-05  0.2482582E+04  0.7818609E-02  0.8409217E-01
        1   -1    0    0  501    0  0.00000000000E+00  0.00000000000E+00  0.23095187376E+04  0.23095187376E+04  0.50400001928E-02 0. -1.
       -1   -1    0    0    0  501  0.00000000000E+00  0.00000000000E+00 -0.66715327321E+03  0.66715327323E+03  0.50400001928E-02 0.  1.
    10030    2    1    2    0    0  0.00000000000E+00  0.00000000000E+00  0.16423654644E+04  0.29766720109E+04  0.24825817089E+04 0.  0.
        2    1    3    3  502    0  0.11252405859E+04 -0.52346039759E+03  0.85117799011E+03  0.15048857548E+04  0.25500000920E-02 0. -1.
       -2    1    3    3    0  502 -0.11252405859E+04  0.52346039759E+03  0.79118747430E+03  0.14717862561E+04  0.25500000920E-02 0.  1.
</event>
<event>
 5   0  0.5182179E-05  0.2388814E+04  0.7818609E-02  0.8443703E-01
       -2   -1    0    0    0  501  0.00000000000E+00  0.00000000000E+00  0.96880192877E+03  0.96880192878E+03  0.25500000920E-02 0. -1.
        2   -1    0    0  501    0  0.00000000000E+00  0.00000000000E+00 -0.14725492530E+04  0.14725492530E+04  0.25500000920E-02 0.  1.
    10030    2    1    2    0    0  0.00000000000E+00  0.00000000000E+00 -0.50374732424E+03  0.24413511818E+04  0.23888143976E+04 0.  0.
        3    1    3    3  502    0 -0.55265112645E+03 -0.64026369633E+03 -0.11137764369E+04  0.13985202286E+04  0.10100000352E+00 0. -1.
       -3    1    3    3    0  502  0.55265112645E+03  0.64026369633E+03  0.61002911262E+03  0.10428309532E+04  0.10100000352E+00 0.  1.
</event>
<event>
 5   0  0.2163800E-05  0.2685142E+04  0.7818609E-02  0.8339842E-01
        1   -1    0    0  501    0  0.00000000000E+00  0.00000000000E+00  0.16565876455E+04  0.16565876456E+04  0.50400001928E-02 0.  1.
       -1   -1    0    0    0  501  0.00000000000E+00  0.00000000000E+00 -0.10880783550E+04  0.10880783550E+04  0.50400001928E-02 0. -1.
    10030    2    1    2    0    0  0.00000000000E+00  0.00000000000E+00  0.56850929058E+03  0.27446660005E+04  0.26851422013E+04 0.  0.
        1    1    3    3  502    0  0.68318360815E+03 -0.11501946121E+04  0.39994341969E+03  0.13962958952E+04  0.50400001928E-02 0. -1.
       -1    1    3    3    0  502 -0.68318360815E+03  0.11501946121E+04  0.16856587089E+03  0.13483701053E+04  0.50400001928E-02 0.  1.
</event>
<event>
 5   0  0.5170532E-05  0.2684748E+04  0.7818609E-02  0.8339971E-01
       -2   -1    0    0    0  501  0.00000000000E+00  0.00000000000E+00  0.90515945856E+03  0.90515945856E+03  0.25500000920E-02 0.  1.
        2   -1    0    0  501    0  0.00000000000E+00  0.00000000000E+00 -0.19907740497E+04  0.19907740497E+04  0.25500000920E-02 0. -1.
    10030    2    1    2    0    0  0.00000000000E+00  0.00000000000E+00 -0.10856145911E+04  0.28959335082E+04  0.26847480038E+04 0.  0.
        1    1    3    3  502    0  0.65028010550E+03 -0.56286981909E+03  0.56893679230E+03  0.10312011067E+04  0.50400001928E-02 0.  1.
       -1    1    3    3    0  502 -0.65028010550E+03  0.56286981909E+03 -0.16545513834E+04  0.18647324015E+04  0.50400001928E-02 0. -1.
</event>
<event>
 5   0  0.5036452E-05  0.2641129E+04  0.7818609E-02  0.8354363E-01
        2   -1    0    0  501    0  0.00000000000E+00  0.00000000000E+00  0.27153635587E+04  0.27153635587E+04  0.25500000920E-02 0. -1.
       -2   -1    0    0    0  501  0.00000000000E+00  0.00000000000E+00 -0.64223075787E+03  0.64223075787E+03  0.25500000920E-02 0.  1.
    10030    2    1    2    0    0  0.00000000000E+00  0.00000000000E+00  0.20731328008E+04  0.33575943165E+04  0.26411285438E+04 0.  0.
        2    1    3    3  502    0 -0.75808998377E+03  0.24793371399E+03 -0.30142516639E+03  0.85265976858E+03  0.25500000920E-02 0.  1.
       -2    1    3    3    0  502  0.75808998377E+03 -0.24793371399E+03  0.23745579672E+04  0.25049345479E+04  0.25500000920E-02 0. -1.
</event>
<event>
 5   0  0.1954502E-05  0.2612857E+04  0.7818609E-02  0.8363847E-01
       -1   -1    0    0    0  501  0.00000000000E+00  0.00000000000E+00  0.11764165598E+04  0.11764165598E+04  0.50400001928E-02 0. -1.
        1   -1    0    0  501    0  0.00000000000E+00  0.00000000000E+00 -0.14508085227E+04  0.14508085227E+04  0.50400001928E-02 0.  1.
    10030    2    1    2    0    0  0.00000000000E+00  0.00000000000E+00 -0.27439196291E+03  0.26272250826E+04  0.26128568053E+04 0.  0.
        4    1    3    3  502    0  0.10856541306E+04  0.32206867365E+03 -0.79222320492E+03  0.13820247252E+04  0.12699999809E+01 0. -1.
       -4    1    3    3    0  502 -0.10856541306E+04 -0.32206867365E+03  0.51783124201E+03  0.12452003573E+04  0.12699999809E+01 0.  1.
</event>
<event>
 5   0  0.4955675E-05  0.2345650E+04  0.7818609E-02  0.8460136E-01
       -2   -1    0    0    0  501  0.00000000000E+00  0.00000000000E+00  0.11195939185E+04  0.11195939185E+04  0.25500000920E-02 0.  1.
        2   -1    0    0  501    0  0.00000000000E+00  0.00000000000E+00 -0.12285869258E+04  0.12285869258E+04  0.25500000920E-02 0. -1.
    10030    2    1    2    0    0  0.00000000000E+00  0.00000000000E+00 -0.10899300727E+03  0.23481808443E+04  0.23456499743E+04 0.  0.
        5    1    3    3  502    0 -0.60873146814E+03  0.99178567789E+03  0.91618264724E+02  0.11673083687E+04  0.46999998093E+01 0. -1.
       -5    1    3    3    0  502  0.60873146814E+03 -0.99178567789E+03 -0.20061127200E+03  0.11808724756E+04  0.46999998093E+01 0.  1.
</event>
<event>
 5   0  0.2159405E-05  0.1497981E+04  0.7818609E-02  0.8885796E-01
       -1   -1    0    0    0  501  0.00000000000E+00  0.00000000000E+00  0.34040886384E+03  0.34040886388E+03  0.50400001928E-02 0.  1.
        1   -1    0    0  501    0  0.00000000000E+00  0.00000000000E+00 -0.16479799872E+04  0.16479799872E+04  0.50400001928E-02 0. -1.
    10030    2    1    2    0    0  0.00000000000E+00  0.00000000000E+00 -0.13075711234E+04  0.19883888511E+04  0.14979813018E+04 0.  0.
        3    1    3    3  502    0  0.55608235023E+03  0.14811464932E+03 -0.17444113165E+02  0.57573417205E+03  0.10100000352E+00 0.  1.
       -3    1    3    3    0  502 -0.55608235023E+03 -0.14811464932E+03 -0.12901270102E+04  0.14126546791E+04  0.10100000352E+00 0. -1.
</event>
<event>
 5   0  0.1993815E-05  0.2580227E+04  0.7818609E-02  0.8374949E-01
        1   -1    0    0  501    0  0.00000000000E+00  0.00000000000E+00  0.80188574278E+03  0.80188574280E+03  0.50400001928E-02 0.  1.
       -1   -1    0    0    0  501  0.00000000000E+00  0.00000000000E+00 -0.20755979362E+04  0.20755979362E+04  0.50400001928E-02 0. -1.
    10030    2    1    2    0    0  0.00000000000E+00  0.00000000000E+00 -0.12737121934E+04  0.28774836790E+04  0.25802266511E+04 0.  0.
        5    1    3    3  502    0 -0.84344526151E+03 -0.46577873011E+03  0.31989724488E+03  0.10152369536E+04  0.46999998093E+01 0.  1.
       -5    1    3    3    0  502  0.84344526151E+03  0.46577873011E+03 -0.15936094383E+04  0.18622467254E+04  0.46999998093E+01 0. -1.
</event>
<event>
 5   0  0.1954502E-05  0.1854947E+04  0.7818609E-02  0.8677613E-01
       -1   -1    0    0    0  501  0.00000000000E+00  0.00000000000E+00  0.47994799903E+03  0.47994799905E+03  0.50400001928E-02 0. -1.
        1   -1    0    0  501    0  0.00000000000E+00  0.00000000000E+00 -0.17922917755E+04  0.17922917755E+04  0.50400001928E-02 0.  1.
    10030    2    1    2    0    0  0.00000000000E+00  0.00000000000E+00 -0.13123437765E+04  0.22722397746E+04  0.18549467392E+04 0.  0.
        4    1    3    3  502    0  0.69518699736E+03 -0.27135428206E+03 -0.13307771195E+04  0.15257416106E+04  0.12699999809E+01 0.  1.
       -4    1    3    3    0  502 -0.69518699736E+03  0.27135428206E+03  0.18433343056E+02  0.74649816391E+03  0.12699999809E+01 0. -1.
</event>
<event>
 5   0  0.5049803E-05  0.2527286E+04  0.7818609E-02  0.8393329E-01
       -2   -1    0    0    0  501  0.00000000000E+00  0.00000000000E+00  0.85268989922E+03  0.85268989922E+03  0.25500000920E-02 0.  1.
        2   -1    0    0  501    0  0.00000000000E+00  0.00000000000E+00 -0.18726551936E+04  0.18726551936E+04  0.25500000920E-02 0. -1.
    10030    2    1    2    0    0  0.00000000000E+00  0.00000000000E+00 -0.10199652944E+04  0.27253450928E+04  0.25272864248E+04 0.  0.
        4    1    3    3  502    0  0.60567905260E+03 -0.53369371229E+03 -0.15583408588E+04  0.17550224894E+04  0.12699999809E+01 0. -1.
       -4    1    3    3    0  502 -0.60567905260E+03  0.53369371229E+03  0.53837556445E+03  0.97032260336E+03  0.12699999809E+01 0.  1.
</event>
<event>
 5   0  0.5036452E-05  0.2632170E+04  0.7818609E-02  0.8357355E-01
        2   -1    0    0  501    0  0.00000000000E+00  0.00000000000E+00  0.13615247697E+04  0.13615247697E+04  0.25500000920E-02 0.  1.
       -2   -1    0    0    0  501  0.00000000000E+00  0.00000000000E+00 -0.12721614992E+04  0.12721614992E+04  0.25500000920E-02 0. -1.
    10030    2    1    2    0    0  0.00000000000E+00  0.00000000000E+00  0.89363270529E+02  0.26336862689E+04  0.26321697454E+04 0.  0.
        2    1    3    3  502    0  0.91135496078E+01 -0.61116381750E+03  0.12108895688E+04  0.13564135860E+04  0.25500000920E-02 0.  1.
       -2    1    3    3    0  502 -0.91135496078E+01  0.61116381750E+03 -0.11215262983E+04  0.12772726828E+04  0.25500000920E-02 0. -1.
</event>
<event>
 5   0  0.5049803E-05  0.1512120E+04  0.7818609E-02  0.8876433E-01
       -2   -1    0    0    0  501  0.00000000000E+00  0.00000000000E+00  0.10603696869E+04  0.10603696869E+04  0.25500000920E-02 0. -1.
        2   -1    0    0  501    0  0.00000000000E+00  0.00000000000E+00 -0.53908268500E+03  0.53908268501E+03  0.25500000920E-02 0.  1.
    10030    2    1    2    0    0  0.00000000000E+00  0.00000000000E+00  0.52128700186E+03  0.15994523719E+04  0.15121202834E+04 0.  0.
        4    1    3    3  502    0 -0.62353402021E+02 -0.70171444596E+03  0.55096627547E+03  0.89434700202E+03  0.12699999809E+01 0. -1.
       -4    1    3    3    0  502  0.62353402021E+02  0.70171444596E+03 -0.29679273614E+02  0.70510536986E+03  0.12699999809E+01 0.  1.
</event>
<event>
 5   0  0.5170532E-05  0.2597686E+04  0.7818609E-02  0.8368988E-01
        2   -1    0    0  501    0  0.00000000000E+00  0.00000000000E+00  0.15003877878E+04  0.15003877878E+04  0.25500000920E-02 0.  1.
       -2   -1    0    0    0  501  0.00000000000E+00  0.00000000000E+00 -0.11243712317E+04  0.11243712317E+04  0.25500000920E-02 0. -1.
    10030    2    1    2    0    0  0.00000000000E+00  0.00000000000E+00  0.37601655611E+03  0.26247590194E+04  0.25976857892E+04 0.  0.
        1    1    3    3  502    0 -0.11827353439E+04  0.97094789904E+02 -0.34541664997E+03  0.12359623595E+04  0.50400001928E-02 0.  1.
       -1    1    3    3    0  502  0.11827353439E+04 -0.97094789904E+02  0.72143320609E+03  0.13887966600E+04  0.50400001928E-02 0. -1.
</event>
<event>
 5   0  0.5182179E-05  0.2597250E+04  0.7818609E-02  0.8369136E-01
        2   -1    0    0  501    0  0.00000000000E+00  0.00000000000E+00  0.25059667413E+04  0.25059667413E+04  0.25500000920E-02 0. -1.
       -2   -1    0    0    0  501  0.00000000000E+00  0.00000000000E+00 -0.67296438314E+03  0.67296438315E+03  0.25500000920E-02 0.  1.
    10030    2    1    2    0    0  0.00000000000E+00  0.00000000000E+00  0.18330023581E+04  0.31789311244E+04  0.25972495931E+04 0.  0.
        3    1    3    3  502    0 -0.42110163857E+03  0.10005835916E+04  0.17888101135E+04  0.20924473102E+04  0.10100000352E+00 0. -1.
       -3    1    3    3    0  502  0.42110163857E+03 -0.10005835916E+04  0.44192244599E+02  0.10864838142E+04  0.10100000352E+00 0.  1.
</event>
<event>
 5   0  0.2163800E-05  0.1768472E+04  0.7818609E-02  0.8723248E-01
       -1   -1    0    0    0  501  0.00000000000E+00  0.00000000000E+00  0.13146810995E+04  0.13146810995E+04  0.50400001928E-02 0.  1.
        1   -1    0    0  501    0  0.00000000000E+00  0.00000000000E+00 -0.59472482967E+03  0.59472482969E+03  0.50400001928E-02 0. -1.
    10030    2    1    2    0    0  0.00000000000E+00  0.00000000000E+00  0.71995626987E+03  0.19094059292E+04  0.17684722141E+04 0.  0.
        1    1    3    3  502    0 -0.66850235126E+03  0.48080256221E+03  0.12111050773E+02  0.82353699070E+03  0.50400001928E-02 0. -1.
       -1    1    3    3    0  502  0.66850235126E+03 -0.48080256221E+03  0.70784521909E+03  0.10858689385E+04  0.50400001928E-02 0.  1.
</event>
<event>
 5   0  0.5036452E-05  0.1683795E+04  0.7818609E-02  0.8770661E-01
        2   -1    0    0  501    0  0.00000000000E+00  0.00000000000E+00  0.88250928304E+03  0.88250928304E+03  0.25500000920E-02 0. -1.
       -2   -1    0    0    0  501  0.00000000000E+00  0.00000000000E+00 -0.80315466630E+03  0.80315466630E+03  0.25500000920E-02 0.  1.
    10030    2    1    2    0    0  0.00000000000E+00  0.00000000000E+00  0.79354616738E+02  0.16856639493E+04  0.16837950573E+04 0.  0.
        2    1    3    3  502    0 -0.72299070023E+02  0.42456743774E+03  0.76387969367E+03  0.87692465533E+03  0.25500000920E-02 0. -1.
       -2    1    3    3    0  502  0.72299070023E+02 -0.42456743774E+03 -0.68452507693E+03  0.80873929401E+03  0.25500000920E-02 0.  1.
</event>
<event>
 5   0  0.1954502E-05  0.2095871E+04  0.7818609E-02  0.8563065E-01
       -1   -1    0    0    0  501  0.00000000000E+00  0.00000000000E+00  0.74364723225E+03  0.74364723227E+03  0.50400001928E-02 0. -1.
        1   -1    0    0  501    0  0.00000000000E+00  0.00000000000E+00 -0.14767332078E+04  0.14767332078E+04  0.50400001928E-02 0.  1.
    10030    2    1    2    0    0  0.00000000000E+00  0.00000000000E+00 -0.73308597558E+03  0.22203804401E+04  0.20958707621E+04 0.  0.
        4    1    3    3  502    0 -0.54903101819E+03  0.84951919274E+03 -0.65676840328E+03  0.12060117189E+04  0.12699999809E+01 0. -1.
       -4    1    3    3    0  502  0.54903101819E+03 -0.84951919274E+03 -0.76317572297E+02  0.10143687212E+04  0.12699999809E+01 0.  1.
</event>
<event>
 5   0  0.5049803E-05  0.2614102E+04  0.7818609E-02  0.8363427E-01
        2   -1    0    0  501    0  0.00000000000E+00  0.00000000000E+00  0.24371943872E+04  0.24371943872E+04  0.25500000920E-02 0.  1.
       -2   -1    0    0    0  501  0.00000000000E+00  0.00000000000E+00 -0.70096287251E+03  0.70096287252E+03  0.25500000920E-02 0. -1.
    10030    2    1    2    0    0  0.00000000000E+00  0.00000000000E+00  0.17362315147E+04  0.31381572597E+04  0.26141023534E+04 0.  0.
        4    1    3    3  502    0 -0.31073215188E+02 -0.84599003864E+03  0.20636055690E+04  0.22305008961E+04  0.12699999809E+01 0.  1.
       -4    1    3    3    0  502  0.31073215188E+02  0.84599003864E+03 -0.32737405427E+03  0.90765636366E+03  0.12699999809E+01 0. -1.
</event>
<event>
 5   0  0.5049803E-05  0.2639636E+04  0.7818609E-02  0.8354861E-01
        2   -1    0    0  501    0  0.00000000000E+00  0.00000000000E+00  0.13604727562E+04  0.13604727562E+04  0.25500000920E-02 0.  1.
       -2   -1    0    0    0  501  0.00000000000E+00  0.00000000000E+00 -0.12803779996E+04  0.12803779996E+04  0.25500000920E-02 0. -1.
    10030    2    1    2    0    0  0.00000000000E+00  0.00000000000E+00  0.80094756576E+02  0.26408507558E+04  0.26396358734E+04 0.  0.
        4    1    3    3  502    0  0.22297854990E+02  0.90312604017E+03  0.10026668813E+04  0.13496208084E+04  0.12699999809E+01 0.  1.
       -4    1    3    3    0  502 -0.22297854990E+02 -0.90312604017E+03 -0.92257212470E+03  0.12912299474E+04  0.12699999809E+01 0. -1.
</event>
<event>
 5   0  0.2163800E-05  0.2804610E+04  0.7818609E-02  0.8301839E-01
       -1   -1    0    0    0  501  0.00000000000E+00  0.00000000000E+00  0.17085759148E+04  0.17085759149E+04  0.50400001928E-02 0.  1.
        1   -1    0    0  501    0  0.00000000000E+00  0.00000000000E+00 -0.11509344182E+04  0.11509344182E+04  0.50400001928E-02 0. -1.
    10030    2    1    2    0    0  0.00000000000E+00  0.00000000000E+00  0.55764149661E+03  0.28595103331E+04  0.28046096531E+04 0.  0.
        1    1    3    3  502    0 -0.98719795327E+03 -0.68065158833E+03 -0.46246890193E+03  0.12851940978E+04  0.50400001928E-02 0. -1.
       -1    1    3    3    0  502  0.98719795327E+03  0.68065158833E+03  0.10201103985E+04  0.15743162353E+04  0.50400001928E-02 0.  1.
</event>
<event>
 5   0  0.1993815E-05  0.2359202E+04  0.7818609E-02  0.8454938E-01
        1   -1    0    0  501    0  0.00000000000E+00  0.00000000000E+00  0.10057049757E+04  0.10057049758E+04  0.50400001928E-02 0. -1.
       -1   -1    0    0    0  501  0.00000000000E+00  0.00000000000E+00 -0.13835653617E+04  0.13835653617E+04  0.50400001928E-02 0.  1.
    10030    2    1    2    0    0  0.00000000000E+00  0.00000000000E+00 -0.37786038596E+03  0.23892703375E+04  0.23592020419E+04 0.  0.
        5    1    3    3  502    0 -0.31683854857E+01 -0.73937268374E+03 -0.11197495505E+04  0.13418431913E+04  0.46999998093E+01 0.  1.
       -5    1    3    3    0  502  0.31683854857E+01  0.73937268374E+03  0.74188916454E+03  0.10474271462E+04  0.46999998093E+01 0. -1.
</event>
<event>
 5   0  0.5182179E-05  0.2572182E+04  0.7818609E-02  0.8377712E-01
        2   -1    0    0  501    0  0.00000000000E+00  0.00000000000E+00  0.23205396743E+04  0.23205396743E+04  0.25500000920E-02 0. -1.
       -2   -1    0    0    0  501  0.00000000000E+00  0.00000000000E+00 -0.71277795669E+03  0.71277795669E+03  0.25500000920E-02 0.  1.
    10030    2    1    2    0    0  0.00000000000E+00  0.00000000000E+00  0.16077617176E+04  0.30333176310E+04  0.25721815857E+04 0.  0.
        3    1    3    3  502    0 -0.90111329842E+02  0.12775696229E+04  0.66572237092E+03  0.14434301086E+04  0.10100000352E+00 0.  1.
       -3    1    3    3    0  502  0.90111329842E+02 -0.12775696229E+04  0.94203934670E+03  0.15898875224E+04  0.10100000352E+00 0. -1.
</event>
<event>
 5   0  0.1993815E-05  0.2624335E+04  0.7818609E-02  0.8359982E-01
        1   -1    0    0  501    0  0.00000000000E+00  0.00000000000E+00  0.11329772932E+04  0.11329772932E+04  0.50400001928E-02 0.  1.
       -1   -1    0    0    0  501  0.00000000000E+00  0.00000000000E+00 -0.15196981547E+04  0.15196981547E+04  0.50400001928E-02 0. -1.
    10030    2    1    2    0    0  0.00000000000E+00  0.00000000000E+00 -0.38672086146E+03  0.26526754479E+04  0.26243349648E+04 0.  0.
        5    1    3    3  502    0  0.10945519640E+04  0.52667365410E+03 -0.69503895155E+03  0.13994750352E+04  0.46999998093E+01 0. -1.
       -5    1    3    3    0  502 -0.10945519640E+04 -0.52667365410E+03  0.30831809009E+03  0.12532004128E+04  0.46999998093E+01 0.  1.
</event>
<event>
 5   0  0.1954502E-05  0.1389814E+04  0.7818609E-02  0.8961225E-01
        1   -1    0    0  501    0  0.00000000000E+00  0.00000000000E+00  0.61348772826E+03  0.61348772829E+03  0.50400001928E-02 0. -1.
       -1   -1    0    0    0  501  0.00000000000E+00  0.00000000000E+00 -0.78713207420E+03  0.78713207422E+03  0.50400001928E-02 0.  1.
    10030    2    1    2    0    0  0.00000000000E+00  0.00000000000E+00 -0.17364434594E+03  0.14006198025E+04  0.13898141862E+04 0.  0.
        4    1    3    3  502    0  0.62438348790E+03 -0.15439206167E+03  0.17828699587E+03  0.66744251772E+03  0.12699999809E+01 0. -1.
       -4    1    3    3    0  502 -0.62438348790E+03  0.15439206167E+03 -0.35193134181E+03  0.73317728478E+03  0.12699999809E+01 0.  1.
</event>
<event>
 5   0  0.5049803E-05  0.2560771E+04  0.7818609E-02  0.8381650E-01
        2   -1    0    0  501    0  0.00000000000E+00  0.00000000000E+00  0.11535158337E+04  0.11535158337E+04  0.25500000920E-02 0.  1.
       -2   -1    0    0    0  501  0.00000000000E+00  0.00000000000E+00 -0.14212091526E+04  0.14212091527E+04  0.25500000920E-02 0. -1.
    10030    2    1    2    0    0  0.00000000000E+00  0.00000000000E+00 -0.26769331898E+03  0.25747249863E+04  0.25607711811E+04 0.  0.
        4    1    3    3  502    0  0.80364077693E+03  0.62617657759E+03 -0.91360468641E+03  0.13684336815E+04  0.12699999809E+01 0. -1.
       -4    1    3    3    0  502 -0.80364077693E+03 -0.62617657759E+03  0.64591136743E+03  0.12062913048E+04  0.12699999809E+01 0.  1.
</event>
<event>
 5   0  0.5170532E-05  0.2538407E+04  0.7818609E-02  0.8389429E-01
       -2   -1    0    0    0  501  0.00000000000E+00  0.00000000000E+00  0.12773525745E+04  0.12773525745E+04  0.25500000920E-02 0.  1.
        2   -1    0    0  501    0  0.00000000000E+00  0.00000000000E+00 -0.12611062790E+04  0.12611062790E+04  0.25500000920E-02 0. -1.
    10030    2    1    2    0    0  0.00000000000E+00  0.00000000000E+00  0.16246295536E+02  0.25384588535E+04  0.25384068643E+04 0.  0.
        1    1    3    3  502    0  0.34335732930E+03 -0.72514196808E+03 -0.97533597173E+03  0.12629352269E+04  0.50400001928E-02 0. -1.
       -1    1    3    3    0  502 -0.34335732930E+03  0.72514196808E+03  0.99158226726E+03  0.12755236267E+04  0.50400001928E-02 0.  1.
</event>
<event>
 5   0  0.2072710E-05  0.2566795E+04  0.7818609E-02  0.8379568E-01
       -1   -1    0    0    0  501  0.00000000000E+00  0.00000000000E+00  0.16832638518E+04  0.16832638518E+04  0.50400001928E-02 0.  1.
        1   -1    0    0  501    0  0.00000000000E+00  0.00000000000E+00 -0.97852109505E+03  0.97852109506E+03  0.50400001928E-02 0. -1.
    10030    2    1    2    0    0  0.00000000000E+00  0.00000000000E+00  0.70474275673E+03  0.26617849468E+04  0.25667950347E+04 0.  0.
        2    1    3    3  502    0 -0.92152785345E+03  0.79974976107E+03 -0.60216665099E+02  0.12216543340E+04  0.25500000920E-02 0. -1.
       -2    1    3    3    0  502  0.92152785345E+03 -0.79974976107E+03  0.76495942183E+03  0.14401306128E+04  0.25500000920E-02 0.  1.
</event>
<event>
 5   0  0.5036452E-05  0.2658129E+04  0.7818609E-02  0.8348720E-01
        2   -1    0    0  501    0  0.00000000000E+00  0.00000000000E+00  0.16409457360E+04  0.16409457360E+04  0.25500000920E-02 0. -1.
       -2   -1    0    0    0  501  0.00000000000E+00  0.00000000000E+00 -0.10764602812E+04  0.10764602812E+04  0.25500000920E-02 0.  1.
    10030    2    1    2    0    0  0.00000000000E+00  0.00000000000E+00  0.56448545480E+03  0.27174060172E+04  0.26581293485E+04 0.  0.
        2    1    3    3  502    0  0.41457776185E+03 -0.10849556570E+04 -0.37823707292E+03  0.12215018549E+04  0.25500000920E-02 0.  1.
       -2    1    3    3    0  502 -0.41457776185E+03  0.10849556570E+04  0.94272252772E+03  0.14959041622E+04  0.25500000920E-02 0. -1.
</event>
<event>
 5   0  0.5170532E-05  0.2425939E+04  0.7818609E-02  0.8429856E-01
       -2   -1    0    0    0  501  0.00000000000E+00  0.00000000000E+00  0.13414087887E+04  0.13414087887E+04  0.25500000920E-02 0.  1.
        2   -1    0    0  501    0  0.00000000000E+00  0.00000000000E+00 -0.10968283146E+04  0.10968283146E+04  0.25500000920E-02 0. -1.
    10030    2    1    2    0    0  0.00000000000E+00  0.00000000000E+00  0.24458047408E+03  0.24382371034E+04  0.24259391097E+04 0.  0.
        1    1    3    3  502    0 -0.11727790457E+04 -0.29030601163E+03  0.23057157447E+03  0.12299802931E+04  0.50400001928E-02 0.  1.
       -1    1    3    3    0  502  0.11727790457E+04  0.29030601163E+03  0.14008899606E+02  0.12082568103E+04  0.50400001928E-02 0. -1.
</event>
<event>
 5   0  0.5182179E-05  0.2576191E+04  0.7818609E-02  0.8376334E-01
       -2   -1    0    0    0  501  0.00000000000E+00  0.00000000000E+00  0.14057297264E+04  0.14057297264E+04  0.25500000920E-02 0.  1.
        2   -1    0    0  501    0  0.00000000000E+00  0.00000000000E+00 -0.11803047690E+04  0.11803047690E+04  0.25500000920E-02 0. -1.
    10030    2    1    2    0    0  0.00000000000E+00  0.00000000000E+00  0.22542495736E+03  0.25860344955E+04  0.25761905986E+04 0.  0.
        3    1    3    3  502    0  0.92627966598E+03  0.65229522256E+03  0.72800356949E+03  0.13466522507E+04  0.10100000352E+00 0.  1.
       -3    1    3    3    0  502 -0.92627966598E+03 -0.65229522256E+03 -0.50257861213E+03  0.12393822447E+04  0.10100000352E+00 0. -1.
</event>
<event>
 5   0  0.5036452E-05  0.2584098E+04  0.7818609E-02  0.8373623E-01
       -2   -1    0    0    0  501  0.00000000000E+00  0.00000000000E+00  0.12217249432E+04  0.12217249432E+04  0.25500000920E-02 0. -1.
        2   -1    0    0  501    0  0.00000000000E+00  0.00000000000E+00 -0.13664212507E+04  0.13664212507E+04  0.25500000920E-02 0.  1.
    10030    2    1    2    0    0  0.00000000000E+00  0.00000000000E+00 -0.14469630751E+03  0.25881461939E+04  0.25840982372E+04 0.  0.
        2    1    3    3  502    0 -0.54130035181E+03 -0.80988454612E+02 -0.12445771051E+04  0.13596092715E+04  0.25500000920E-02 0.  1.
       -2    1    3    3    0  502  0.54130035181E+03  0.80988454612E+02  0.10998807976E+04  0.12285369224E+04  0.25500000920E-02 0. -1.
</event>
<event>
 5   0  0.1993815E-05  0.2487143E+04  0.7818609E-02  0.8407580E-01
       -1   -1    0    0    0  501  0.00000000000E+00  0.00000000000E+00  0.10041249272E+04  0.10041249273E+04  0.50400001928E-02 0.  1.
        1   -1    0    0  501    0  0.00000000000E+00  0.00000000000E+00 -0.15401171053E+04  0.15401171053E+04  0.50400001928E-02 0. -1.
    10030    2    1    2    0    0  0.00000000000E+00  0.00000000000E+00 -0.53599217805E+03  0.25442420325E+04  0.24871429202E+04 0.  0.
        5    1    3    3  502    0  0.44755628080E+03  0.52552519664E+03  0.79014205777E+03  0.10492044216E+04  0.46999998093E+01 0.  1.
       -5    1    3    3    0  502 -0.44755628080E+03 -0.52552519664E+03 -0.13261342358E+04  0.14950376110E+04  0.46999998093E+01 0. -1.
</event>
<event>
 5   0  0.5049803E-05  0.2540574E+04  0.7818609E-02  0.8388672E-01
       -2   -1    0    0    0  501  0.00000000000E+00  0.00000000000E+00  0.11332644308E+04  0.11332644308E+04  0.25500000920E-02 0. -1.
        2   -1    0    0  501    0  0.00000000000E+00  0.00000000000E+00 -0.14238764395E+04  0.14238764395E+04  0.25500000920E-02 0.  1.
    10030    2    1    2    0    0  0.00000000000E+00  0.00000000000E+00 -0.29061200874E+03  0.25571408703E+04  0.25405735752E+04 0.  0.
        4    1    3    3  502    0 -0.27765012128E+03  0.10574231690E+04  0.50574553991E+03  0.12045802224E+04  0.12699999809E+01 0. -1.
       -4    1    3    3    0  502  0.27765012128E+03 -0.10574231690E+04 -0.79635754865E+03  0.13525606479E+04  0.12699999809E+01 0.  1.
</event>
<event>
 5   0  0.2159405E-05  0.2433440E+04  0.7818609E-02  0.8427089E-01
       -1   -1    0    0    0  501  0.00000000000E+00  0.00000000000E+00  0.85616149777E+03  0.85616149778E+03  0.50400001928E-02 0. -1.
        1   -1    0    0  501    0  0.00000000000E+00  0.00000000000E+00 -0.17291212464E+04  0.17291212464E+04  0.50400001928E-02 0.  1.
    10030    2    1    2    0    0  0.00000000000E+00  0.00000000000E+00 -0.87295974864E+03  0.25852827442E+04  0.24334395708E+04 0.  0.
        3    1    3    3  502    0  0.22608951515E+03  0.72059983589E+03 -0.14499582466E+04  0.16348576450E+04  0.10100000352E+00 0.  1.
       -3    1    3    3    0  502 -0.22608951515E+03 -0.72059983589E+03  0.57699849795E+03  0.95042509920E+03  0.10100000352E+00 0. -1.
</event>
<event>
 5   0  0.2159405E-05  0.2725027E+04  0.7818609E-02  0.8326930E-01
        1   -1    0    0  501    0  0.00000000000E+00  0.00000000000E+00  0.15371665761E+04  0.15371665761E+04  0.50400001928E-02 0. -1.
       -1   -1    0    0    0  501  0.00000000000E+00  0.00000000000E+00 -0.12077042322E+04  0.12077042322E+04  0.50400001928E-02 0.  1.
    10030    2    1    2    0    0  0.00000000000E+00  0.00000000000E+00  0.32946234388E+03  0.27448708083E+04  0.27250266638E+04 0.  0.
        3    1    3    3  502    0 -0.53066164280E+03  0.80638099403E+03 -0.80382733908E+03  0.12561809137E+04  0.10100000352E+00 0.  1.
       -3    1    3    3    0  502  0.53066164280E+03 -0.80638099403E+03  0.11332896830E+04  0.14886898946E+04  0.10100000352E+00 0. -1.
</event>
<event>
 5   0  0.5182179E-05  0.2635702E+04  0.7818609E-02  0.8356174E-01
       -2   -1    0    0    0  501  0.00000000000E+00  0.00000000000E+00  0.10896160717E+04  0.10896160717E+04  0.25500000920E-02 0.  1.
        2   -1    0    0  501    0  0.00000000000E+00  0.00000000000E+00 -0.15938927006E+04  0.15938927006E+04  0.25500000920E-02 0. -1.
    10030    2    1    2    0    0  0.00000000000E+00  0.00000000000E+00 -0.50427662892E+03  0.26835087724E+04  0.26357018824E+04 0.  0.
        3    1    3    3  502    0  0.95216103926E+03 -0.20758985646E+03 -0.11553749009E+04  0.15114877985E+04  0.10100000352E+00 0. -1.
       -3    1    3    3    0  502 -0.95216103926E+03  0.20758985646E+03  0.65109827198E+03  0.11720209739E+04  0.10100000352E+00 0.  1.
</event>
<event>
 5   0  0.2159405E-05  0.1603105E+04  0.7818609E-02  0.8818643E-01
        1   -1    0    0  501    0  0.00000000000E+00  0.00000000000E+00  0.92004634584E+03  0.92004634586E+03  0.50400001928E-02 0. -1.
       -1   -1    0    0    0  501  0.00000000000E+00  0.00000000000E+00 -0.69831954582E+03  0.69831954584E+03  0.50400001928E-02 0.  1.
    10030    2    1    2    0    0  0.00000000000E+00  0.00000000000E+00  0.22172680002E+03  0.16183658917E+04  0.16031049203E+04 0.  0.
        3    1    3    3  502    0 -0.32452672993E+03  0.62659082442E+03 -0.27295680969E+03  0.75659704589E+03  0.10100000352E+00 0.  1.
       -3    1    3    3    0  502  0.32452672993E+03 -0.62659082442E+03  0.49468360971E+03  0.86176884581E+03  0.10100000352E+00 0. -1.
</event>
<event>
 5   0  0.1954502E-05  0.2469244E+04  0.7818609E-02  0.8414025E-01
       -1   -1    0    0    0  501  0.00000000000E+00  0.00000000000E+00  0.15248740692E+04  0.15248740692E+04  0.50400001928E-02 0.  1.
        1   -1    0    0  501    0  0.00000000000E+00  0.00000000000E+00 -0.99961819302E+03  0.99961819303E+03  0.50400001928E-02 0. -1.
    10030    2    1    2    0    0  0.00000000000E+00  0.00000000000E+00  0.52525587619E+03  0.25244922622E+04  0.24692443068E+04 0.  0.
        4    1    3    3  502    0  0.68291633485E+03 -0.39435335738E+03 -0.70857448349E+03  0.10601739020E+04  0.12699999809E+01 0. -1.
       -4    1    3    3    0  502 -0.68291633485E+03  0.39435335738E+03  0.12338303597E+04  0.14643183603E+04  0.12699999809E+01 0.  1.
</event>
<event>
 5   0  0.1993815E-05  0.1532057E+04  0.7818609E-02  0.8863411E-01
        1   -1    0    0  501    0  0.00000000000E+00  0.00000000000E+00  0.72279025158E+03  0.72279025160E+03  0.50400001928E-02 0.  1.
       -1   -1    0    0    0  501  0.00000000000E+00  0.00000000000E+00 -0.81185319619E+03  0.81185319621E+03  0.50400001928E-02 0. -1.
    10030    2    1    2    0    0  0.00000000000E+00  0.00000000000E+00 -0.89062944611E+02  0.15346434478E+04  0.15320568866E+04 0.  0.
        5    1    3    3  502    0  0.82159889816E+02  0.14564852994E+02  0.71820999894E+03  0.72305606630E+03  0.46999998093E+01 0.  1.
       -5    1    3    3    0  502 -0.82159889816E+02 -0.14564852994E+02 -0.80727294355E+03  0.81158738151E+03  0.46999998093E+01 0. -1.
</event>
<event>
 5   0  0.1954502E-05  0.2677926E+04  0.7818609E-02  0.8342203E-01
       -1   -1    0    0    0  501  0.00000000000E+00  0.00000000000E+00  0.10397365185E+04  0.10397365185E+04  0.50400001928E-02 0. -1.
        1   -1    0    0  501    0  0.00000000000E+00  0.00000000000E+00 -0.17243039041E+04  0.17243039041E+04  0.50400001928E-02 0.  1.
    10030    2    1    2    0    0  0.00000000000E+00  0.00000000000E+00 -0.68456738556E+03  0.27640404226E+04  0.26779258676E+04 0.  0.
        4    1    3    3  502    0  0.11023633965E+04  0.67713860081E+03 -0.69848767588E+03  0.14702409288E+04  0.12699999809E+01 0.  1.
       -4    1    3    3    0  502 -0.11023633965E+04 -0.67713860081E+03  0.13920290316E+02  0.12937994937E+04  0.12699999809E+01 0. -1.
</event>
<event>
 5   0  0.5182179E-05  0.2591907E+04  0.7818609E-02  0.8370956E-01
        2   -1    0    0  501    0  0.00000000000E+00  0.00000000000E+00  0.13892082260E+04  0.13892082260E+04  0.25500000920E-02 0. -1.
       -2   -1    0    0    0  501  0.00000000000E+00  0.00000000000E+00 -0.12089583095E+04  0.12089583095E+04  0.25500000920E-02 0.  1.
    10030    2    1    2    0    0  0.00000000000E+00  0.00000000000E+00  0.18024991647E+03  0.25981665355E+04  0.25919065018E+04 0.  0.
        3    1    3    3  502    0  0.62425588112E+03 -0.73235179061E+03 -0.77999239774E+03  0.12387181685E+04  0.10100000352E+00 0.  1.
       -3    1    3    3    0  502 -0.62425588112E+03  0.73235179061E+03  0.96024231421E+03  0.13594483670E+04  0.10100000352E+00 0. -1.
</event>
<event>
 5   0  0.2163800E-05  0.2014140E+04  0.7818609E-02  0.8600038E-01
       -1   -1    0    0    0  501  0.00000000000E+00  0.00000000000E+00  0.19305878632E+04  0.19305878632E+04  0.50400001928E-02 0.  1.
        1   -1    0    0  501    0  0.00000000000E+00  0.00000000000E+00 -0.52532677744E+03  0.52532677747E+03  0.50400001928E-02 0. -1.
    10030    2    1    2    0    0  0.00000000000E+00  0.00000000000E+00  0.14052610858E+04  0.24559146407E+04  0.20141395193E+04 0.  0.
        1    1    3    3  502    0 -0.26471162993E+03  0.97161707571E+03  0.69189539538E+03  0.12218147270E+04  0.50400001928E-02 0. -1.
       -1    1    3    3    0  502  0.26471162993E+03 -0.97161707571E+03  0.71336569042E+03  0.12340999138E+04  0.50400001928E-02 0.  1.
</event>
<event>
 5   0  0.5182179E-05  0.2609037E+04  0.7818609E-02  0.8365138E-01
        2   -1    0    0  501    0  0.00000000000E+00  0.00000000000E+00  0.93426063687E+03  0.93426063688E+03  0.25500000920E-02 0. -1.
       -2   -1    0    0    0  501  0.00000000000E+00  0.00000000000E+00 -0.18215130483E+04  0.18215130483E+04  0.25500000920E-02 0.  1.
    10030    2    1    2    0    0  0.00000000000E+00  0.00000000000E+00 -0.88725241138E+03  0.27557736851E+04  0.26090365582E+04 0.  0.
        3    1    3    3  502    0  0.92518367599E+03  0.87087383211E+03 -0.13139663065E+03  0.12773610103E+04  0.10100000352E+00 0. -1.
       -3    1    3    3    0  502 -0.92518367599E+03 -0.87087383211E+03 -0.75585578073E+03  0.14784126749E+04  0.10100000352E+00 0.  1.
</event>
<event>
 5   0  0.5049803E-05  0.2453671E+04  0.7818609E-02  0.8419679E-01
       -2   -1    0    0    0  501  0.00000000000E+00  0.00000000000E+00  0.74673273480E+03  0.74673273480E+03  0.25500000920E-02 0.  1.
        2   -1    0    0  501    0  0.00000000000E+00  0.00000000000E+00 -0.20156146184E+04  0.20156146184E+04  0.25500000920E-02 0. -1.
    10030    2    1    2    0    0  0.00000000000E+00  0.00000000000E+00 -0.12688818836E+04  0.27623473532E+04  0.24536710589E+04 0.  0.
        4    1    3    3  502    0  0.93523611738E+02 -0.60807040907E+03  0.56051563729E+03  0.83227139857E+03  0.12699999809E+01 0.  1.
       -4    1    3    3    0  502 -0.93523611738E+02  0.60807040907E+03 -0.18293975209E+04  0.19300759547E+04  0.12699999809E+01 0. -1.
</event>
<event>
 5   0  0.1954502E-05  0.2285964E+04  0.7818609E-02  0.8483476E-01
       -1   -1    0    0    0  501  0.00000000000E+00  0.00000000000E+00  0.15355870040E+04  0.15355870040E+04  0.50400001928E-02 0. -1.
        1   -1    0    0  501    0  0.00000000000E+00  0.00000000000E+00 -0.85075488698E+03  0.85075488699E+03  0.50400001928E-02 0.  1.
    10030    2    1    2    0    0  0.00000000000E+00  0.00000000000E+00  0.68483211704E+03  0.23863418910E+04  0.22859642588E+04 0.  0.
        4    1    3    3  502    0  0.10846679049E+04 -0.10793047024E+03  0.70139541004E+03  0.12961907979E+04  0.12699999809E+01 0. -1.
       -4    1    3    3    0  502 -0.10846679049E+04  0.10793047024E+03 -0.16563293000E+02  0.10901510932E+04  0.12699999809E+01 0.  1.
</event>
<event>
 5   0  0.2163800E-05  0.2590326E+04  0.7818609E-02  0.8371495E-01
       -1   -1    0    0    0  501  0.00000000000E+00  0.00000000000E+00  0.10418595341E+04  0.10418595341E+04  0.50400001928E-02 0. -1.
        1   -1    0    0  501    0  0.00000000000E+00  0.00000000000E+00 -0.16100511841E+04  0.16100511841E+04  0.50400001928E-02 0.  1.
    10030    2    1    2    0    0  0.00000000000E+00  0.00000000000E+00 -0.56819165004E+03  0.26519107182E+04  0.25903259845E+04 0.  0.
        1    1    3    3  502    0 -0.14418482146E+03  0.12870971477E+04 -0.27771498507E+03  0.13245882166E+04  0.50400001928E-02 0.  1.
       -1    1    3    3    0  502  0.14418482146E+03 -0.12870971477E+04 -0.29047666496E+03  0.13273225016E+04  0.50400001928E-02 0. -1.
</event>
<event>
 5   0  0.5036452E-05  0.1874814E+04  0.7818609E-02  0.8667495E-01
        2   -1    0    0  501    0  0.00000000000E+00  0.00000000000E+00  0.15508206406E+04  0.15508206406E+04  0.25500000920E-02 0.  1.
       -2   -1    0    0    0  501  0.00000000000E+00  0.00000000000E+00 -0.56662405811E+03  0.56662405811E+03  0.25500000920E-02 0. -1.
    10030    2    1    2    0    0  0.00000000000E+00  0.00000000000E+00  0.98419658253E+03  0.21174446988E+04  0.18748144279E+04 0.  0.
        2    1    3    3  502    0  0.73369845917E+03  0.42143283466E+03  0.36377728882E+02  0.84690164853E+03  0.25500000920E-02 0. -1.
       -2    1    3    3    0  502 -0.73369845917E+03 -0.42143283466E+03  0.94781885365E+03  0.12705430502E+04  0.25500000920E-02 0.  1.
</event>
<event>
 5   0  0.5182179E-05  0.2570145E+04  0.7818609E-02  0.8378413E-01
        2   -1    0    0  501    0  0.00000000000E+00  0.00000000000E+00  0.12570244465E+04  0.12570244465E+04  0.25500000920E-02 0.  1.
       -2   -1    0    0    0  501  0.00000000000E+00  0.00000000000E+00 -0.13137464850E+04  0.13137464850E+04  0.25500000920E-02 0. -1.
    10030    2    1    2    0    0  0.00000000000E+00  0.00000000000E+00 -0.56722038420E+02  0.25707709315E+04  0.25701450917E+04 0.  0.
        3    1    3    3  502    0 -0.37030783401E+03  0.17449950528E+03  0.11900626323E+04  0.12585019063E+04  0.10100000352E+00 0.  1.
       -3    1    3    3    0  502  0.37030783401E+03 -0.17449950528E+03 -0.12467846707E+04  0.13122690252E+04  0.10100000352E+00 0. -1.
</event>
<event>
 5   0  0.1954502E-05  0.2576113E+04  0.7818609E-02  0.8376360E-01
       -1   -1    0    0    0  501  0.00000000000E+00  0.00000000000E+00  0.11981831252E+04  0.11981831252E+04  0.50400001928E-02 0. -1.
        1   -1    0    0  501    0  0.00000000000E+00  0.00000000000E+00 -0.13846714323E+04  0.13846714323E+04  0.50400001928E-02 0.  1.
    10030    2    1    2    0    0  0.00000000000E+00  0.00000000000E+00 -0.18648830707E+03  0.25828545575E+04  0.25761133082E+04 0.  0.
        4    1    3    3  502    0  0.12700203647E+04 -0.19911819315E+03 -0.12481829620E+02  0.12855960448E+04  0.12699999809E+01 0. -1.
       -4    1    3    3    0  502 -0.12700203647E+04  0.19911819315E+03 -0.17400647745E+03  0.12972585126E+04  0.12699999809E+01 0.  1.
</event>
<event>
 5   0  0.2072710E-05  0.2604255E+04  0.7818609E-02  0.8366757E-01
        1   -1    0    0  501    0  0.00000000000E+00  0.00000000000E+00  0.23799674540E+04  0.23799674540E+04  0.50400001928E-02 0.  1.
       -1   -1    0    0    0  501  0.00000000000E+00  0.00000000000E+00 -0.71241989840E+03  0.71241989842E+03  0.50400001928E-02 0. -1.
    10030    2    1    2    0    0  0.00000000000E+00  0.00000000000E+00  0.16675475556E+04  0.30923873524E+04  0.26042551118E+04 0.  0.
        2    1    3    3  502    0 -0.36523617085E+03 -0.91775042822E+03  0.18412580246E+04  0.20894722832E+04  0.25500000920E-02 0.  1.
       -2    1    3    3    0  502  0.36523617085E+03  0.91775042822E+03 -0.17371046904E+03  0.10029150692E+04  0.25500000920E-02 0. -1.
</event>
<event>
 5   0  0.2163800E-05  0.2591652E+04  0.7818609E-02  0.8371042E-01
       -1   -1    0    0    0  501  0.00000000000E+00  0.00000000000E+00  0.75668450560E+03  0.75668450562E+03  0.50400001928E-02 0.  1.
        1   -1    0    0  501    0  0.00000000000E+00  0.00000000000E+00 -0.22191079356E+04  0.22191079356E+04  0.50400001928E-02 0. -1.
    10030    2    1    2    0    0  0.00000000000E+00  0.00000000000E+00 -0.14624234300E+04  0.29757924412E+04  0.25916516673E+04 0.  0.
        1    1    3    3  502    0 -0.10644659625E+04 -0.73835390498E+03 -0.76585525785E+03  0.15049214432E+04  0.50400001928E-02 0. -1.
       -1    1    3    3    0  502  0.10644659625E+04  0.73835390498E+03 -0.69656817213E+03  0.14708709980E+04  0.50400001928E-02 0.  1.
</event>
<event>
 5   0  0.5036452E-05  0.2516261E+04  0.7818609E-02  0.8397215E-01
        2   -1    0    0  501    0  0.00000000000E+00  0.00000000000E+00  0.13512488862E+04  0.13512488862E+04  0.25500000920E-02 0.  1.
       -2   -1    0    0    0  501  0.00000000000E+00  0.00000000000E+00 -0.11714287189E+04  0.11714287189E+04  0.25500000920E-02 0. -1.
    10030    2    1    2    0    0  0.00000000000E+00  0.00000000000E+00  0.17982016737E+03  0.25226776051E+04  0.25162605205E+04 0.  0.
        2    1    3    3  502    0  0.10289689827E+04 -0.47261796501E+03  0.63971255428E+03  0.13005295307E+04  0.25500000920E-02 0.  1.
       -2    1    3    3    0  502 -0.10289689827E+04  0.47261796501E+03 -0.45989238691E+03  0.12221480744E+04  0.25500000920E-02 0. -1.
</event>
<event>
 5   0  0.1993815E-05  0.2804757E+04  0.7818609E-02  0.8301793E-01
        1   -1    0    0  501    0  0.00000000000E+00  0.00000000000E+00  0.14484939597E+04  0.14484939597E+04  0.50400001928E-02 0. -1.
       -1   -1    0    0    0  501  0.00000000000E+00  0.00000000000E+00 -0.13577309001E+04  0.13577309001E+04  0.50400001928E-02 0.  1.
    10030    2    1    2    0    0  0.00000000000E+00  0.00000000000E+00  0.90763059585E+02  0.28062248598E+04  0.28047566794E+04 0.  0.
        5    1    3    3  502    0  0.83677474281E+03 -0.64831750857E+03 -0.87495613915E+03  0.13733455128E+04  0.46999998093E+01 0.  1.
       -5    1    3    3    0  502 -0.83677474281E+03  0.64831750857E+03  0.96571919874E+03  0.14328793470E+04  0.46999998093E+01 0. -1.
</event>
<event>
 5   0  0.2159405E-05  0.2626522E+04  0.7818609E-02  0.8359248E-01
       -1   -1    0    0    0  501  0.00000000000E+00  0.00000000000E+00  0.78570562468E+03  0.78570562470E+03  0.50400001928E-02 0. -1.
        1   -1    0    0  501    0  0.00000000000E+00  0.00000000000E+00 -0.21950392934E+04  0.21950392934E+04  0.50400001928E-02 0.  1.
    10030    2    1    2    0    0  0.00000000000E+00  0.00000000000E+00 -0.14093336687E+04  0.29807449181E+04  0.26265222019E+04 0.  0.
        3    1    3    3  502    0  0.86594019057E+03  0.43738112080E+03  0.29986394982E+03  0.10154176762E+04  0.10100000352E+00 0. -1.
       -3    1    3    3    0  502 -0.86594019057E+03 -0.43738112080E+03 -0.17091976186E+04  0.19653272420E+04  0.10100000352E+00 0.  1.
</event>
<event>
 5   0  0.5182179E-05  0.2446178E+04  0.7818609E-02  0.8422415E-01
        2   -1    0    0  501    0  0.00000000000E+00  0.00000000000E+00  0.14937672116E+04  0.14937672116E+04  0.25500000920E-02 0.  1.
       -2   -1    0    0    0  501  0.00000000000E+00  0.00000000000E+00 -0.10014588599E+04  0.10014588599E+04  0.25500000920E-02 0. -1.
    10030    2    1    2    0    0  0.00000000000E+00  0.00000000000E+00  0.49230835176E+03  0.24952260715E+04  0.24461777603E+04 0.  0.
        3    1    3    3  502    0  0.95175802808E+03 -0.50019300656E+03 -0.34855393783E+03  0.11302770659E+04  0.10100000352E+00 0. -1.
       -3    1    3    3    0  502 -0.95175802808E+03  0.50019300656E+03  0.84086228959E+03  0.13649490057E+04  0.10100000352E+00 0.  1.
</event>
<event>
 5   0  0.5182179E-05  0.2652522E+04  0.7818609E-02  0.8350576E-01
        2   -1    0    0  501    0  0.00000000000E+00  0.00000000000E+00  0.16630265732E+04  0.16630265732E+04  0.25500000920E-02 0. -1.
       -2   -1    0    0    0  501  0.00000000000E+00  0.00000000000E+00 -0.10576912764E+04  0.10576912764E+04  0.25500000920E-02 0.  1.
    10030    2    1    2    0    0  0.00000000000E+00  0.00000000000E+00  0.60533529678E+03  0.27207178496E+04  0.26525223459E+04 0.  0.
        3    1    3    3  502    0  0.12254453743E+04 -0.27116808902E+03 -0.13697812109E+03  0.12625416879E+04  0.10100000352E+00 0.  1.
       -3    1    3    3    0  502 -0.12254453743E+04  0.27116808902E+03  0.74231341787E+03  0.14581761617E+04  0.10100000352E+00 0. -1.
</event>
<event>
 5   0  0.2163800E-05  0.2497728E+04  0.7818609E-02  0.8403795E-01
        1   -1    0    0  501    0  0.00000000000E+00  0.00000000000E+00  0.14842845068E+04  0.14842845068E+04  0.50400001928E-02 0.  1.
       -1   -1    0    0    0  501  0.00000000000E+00  0.00000000000E+00 -0.10507832634E+04  0.10507832634E+04  0.50400001928E-02 0. -1.
    10030    2    1    2    0    0  0.00000000000E+00  0.00000000000E+00  0.43350124338E+03  0.25350677702E+04  0.24977280219E+04 0.  0.
        1    1    3    3  502    0  0.50401811000E+03  0.11270617356E+04  0.25899884634E+02  0.12348980586E+04  0.50400001928E-02 0. -1.
       -1    1    3    3    0  502 -0.50401811000E+03 -0.11270617356E+04  0.40760135875E+03  0.13001697115E+04  0.50400001928E-02 0.  1.
</event>
<event>
 5   0  0.5170532E-05  0.2545095E+04  0.7818609E-02  0.8387094E-01
       -2   -1    0    0    0  501  0.00000000000E+00  0.00000000000E+00  0.89758845811E+03  0.89758845811E+03  0.25500000920E-02 0.  1.
        2   -1    0    0  501    0  0.00000000000E+00  0.00000000000E+00 -0.18041417785E+04  0.18041417785E+04  0.25500000920E-02 0. -1.
    10030    2    1    2    0    0  0.00000000000E+00  0.00000000000E+00 -0.90655332039E+03  0.27017302366E+04  0.25450947622E+04 0.  0.
        1    1    3    3  502    0 -0.18968284303E+03 -0.98738216008E+03  0.37477787700E+03  0.10730151761E+04  0.50400001928E-02 0. -1.
       -1    1    3    3    0  502  0.18968284303E+03  0.98738216008E+03 -0.12813311974E+04  0.16287150605E+04  0.50400001928E-02 0.  1.
</event>
<event>
 5   0  0.1954502E-05  0.2602017E+04  0.7818609E-02  0.8367517E-01
        1   -1    0    0  501    0  0.00000000000E+00  0.00000000000E+00  0.20789568425E+04  0.20789568425E+04  0.50400001928E-02 0. -1.
       -1   -1    0    0    0  501  0.00000000000E+00  0.00000000000E+00 -0.81416912562E+03  0.81416912564E+03  0.50400001928E-02 0.  1.
    10030    2    1    2    0    0  0.00000000000E+00  0.00000000000E+00  0.12647877168E+04  0.28931259681E+04  0.26020165062E+04 0.  0.
        4    1    3    3  502    0  0.11100624563E+03 -0.55842986141E+03  0.19330799238E+04  0.20151838382E+04  0.12699999809E+01 0. -1.
       -4    1    3    3    0  502 -0.11100624563E+03  0.55842986141E+03 -0.66829220701E+03  0.87794212995E+03  0.12699999809E+01 0.  1.
</event>
<event>
 5   0  0.2163800E-05  0.1773627E+04  0.7818609E-02  0.8720452E-01
        1   -1    0    0  501    0  0.00000000000E+00  0.00000000000E+00  0.12266733551E+04  0.12266733551E+04  0.50400001928E-02 0. -1.
       -1   -1    0    0    0  501  0.00000000000E+00  0.00000000000E+00 -0.64111430946E+03  0.64111430948E+03  0.50400001928E-02 0.  1.
    10030    2    1    2    0    0  0.00000000000E+00  0.00000000000E+00  0.58555904559E+03  0.18677876645E+04  0.17736266134E+04 0.  0.
        1    1    3    3  502    0 -0.60863256027E+02 -0.50411954818E+03 -0.47286582390E+03  0.69386089545E+03  0.50400001928E-02 0.  1.
       -1    1    3    3    0  502  0.60863256027E+02  0.50411954818E+03  0.10584248695E+04  0.11739267691E+04  0.50400001928E-02 0. -1.
</event>
<event>
 5   0  0.2072710E-05  0.2621920E+04  0.7818609E-02  0.8360793E-01
       -1   -1    0    0    0  501  0.00000000000E+00  0.00000000000E+00  0.69894366598E+03  0.69894366600E+03  0.50400001928E-02 0. -1.
        1   -1    0    0  501    0  0.00000000000E+00  0.00000000000E+00 -0.24588769706E+04  0.24588769706E+04  0.50400001928E-02 0.  1.
    10030    2    1    2    0    0  0.00000000000E+00  0.00000000000E+00 -0.17599333046E+04  0.31578206366E+04  0.26219202765E+04 0.  0.
        2    1    3    3  502    0  0.51874186049E+03 -0.11784208989E+04 -0.58287562960E+03  0.14133339777E+04  0.25500000920E-02 0. -1.
       -2    1    3    3    0  502 -0.51874186049E+03  0.11784208989E+04 -0.11770576750E+04  0.17444866589E+04  0.25500000920E-02 0.  1.
</event>
<event>
 5   0  0.5182179E-05  0.2595286E+04  0.7818609E-02  0.8369804E-01
       -2   -1    0    0    0  501  0.00000000000E+00  0.00000000000E+00  0.91961335363E+03  0.91961335364E+03  0.25500000920E-02 0.  1.
        2   -1    0    0  501    0  0.00000000000E+00  0.00000000000E+00 -0.18310711585E+04  0.18310711585E+04  0.25500000920E-02 0. -1.
    10030    2    1    2    0    0  0.00000000000E+00  0.00000000000E+00 -0.91145780483E+03  0.27506845121E+04  0.25952861028E+04 0.  0.
        3    1    3    3  502    0 -0.52578266273E+03 -0.58216389111E+03 -0.15513134753E+04  0.17383715695E+04  0.10100000352E+00 0. -1.
       -3    1    3    3    0  502  0.52578266273E+03  0.58216389111E+03  0.63985567052E+03  0.10123129426E+04  0.10100000352E+00 0.  1.
</event>
<event>
 5   0  0.1954502E-05  0.1484482E+04  0.7818609E-02  0.8894839E-01
       -1   -1    0    0    0  501  0.00000000000E+00  0.00000000000E+00  0.70580255557E+03  0.70580255559E+03  0.50400001928E-02 0. -1.
        1   -1    0    0  501    0  0.00000000000E+00  0.00000000000E+00 -0.78056025323E+03  0.78056025325E+03  0.50400001928E-02 0.  1.
    10030    2    1    2    0    0  0.00000000000E+00  0.00000000000E+00 -0.74757697660E+02  0.14863628088E+04  0.14844816220E+04 0.  0.
        4    1    3    3  502    0  0.49397878562E+03  0.10973722663E+03  0.50632171460E+03  0.71583558945E+03  0.12699999809E+01 0. -1.
       -4    1    3    3    0  502 -0.49397878562E+03 -0.10973722663E+03 -0.58107941226E+03  0.77052721938E+03  0.12699999809E+01 0.  1.
</event>
<event>
 5   0  0.2072710E-05  0.2790128E+04  0.7818609E-02  0.8306340E-01
        1   -1    0    0  501    0  0.00000000000E+00  0.00000000000E+00  0.14257528627E+04  0.14257528627E+04  0.50400001928E-02 0. -1.
       -1   -1    0    0    0  501  0.00000000000E+00  0.00000000000E+00 -0.13650360692E+04  0.13650360692E+04  0.50400001928E-02 0.  1.
    10030    2    1    2    0    0  0.00000000000E+00  0.00000000000E+00  0.60716793568E+02  0.27907889319E+04  0.27901283722E+04 0.  0.
        2    1    3    3  502    0  0.83598719890E+03  0.43874573970E+03 -0.99693473667E+03  0.13730445332E+04  0.25500000920E-02 0.  1.
       -2    1    3    3    0  502 -0.83598719890E+03 -0.43874573970E+03  0.10576515302E+04  0.14177443988E+04  0.25500000920E-02 0. -1.
</event>
<event>
 5   0  0.5036452E-05  0.2573122E+04  0.7818609E-02  0.8377389E-01
       -2   -1    0    0    0  501  0.00000000000E+00  0.00000000000E+00  0.10142241405E+04  0.10142241405E+04  0.25500000920E-02 0. -1.
        2   -1    0    0  501    0  0.00000000000E+00  0.00000000000E+00 -0.16320250221E+04  0.16320250221E+04  0.25500000920E-02 0.  1.
    10030    2    1    2    0    0  0.00000000000E+00  0.00000000000E+00 -0.61780088161E+03  0.26462491626E+04  0.25731219756E+04 0.  0.
        2    1    3    3  502    0 -0.78764330561E+01  0.19345407468E+03 -0.16169566923E+04  0.16285071268E+04  0.25500000920E-02 0.  1.
       -2    1    3    3    0  502  0.78764330561E+01 -0.19345407468E+03  0.99915581074E+03  0.10177420358E+04  0.25500000920E-02 0. -1.
</event>
<event>
 5   0  0.2159405E-05  0.2229804E+04  0.7818609E-02  0.8506125E-01
       -1   -1    0    0    0  501  0.00000000000E+00  0.00000000000E+00  0.11309373414E+04  0.11309373414E+04  0.50400001928E-02 0.  1.
        1   -1    0    0  501    0  0.00000000000E+00  0.00000000000E+00 -0.10990937712E+04  0.10990937712E+04  0.50400001928E-02 0. -1.
    10030    2    1    2    0    0  0.00000000000E+00  0.00000000000E+00  0.31843570181E+02  0.22300311126E+04  0.22298037470E+04 0.  0.
        3    1    3    3  502    0  0.23589221019E+03 -0.39381007253E+03  0.10320345717E+04  0.11295250663E+04  0.10100000352E+00 0.  1.
       -3    1    3    3    0  502 -0.23589221019E+03  0.39381007253E+03 -0.10001910015E+04  0.11005060462E+04  0.10100000352E+00 0. -1.
</event>
<event>
 5   0  0.4955675E-05  0.2683076E+04  0.7818609E-02  0.8340517E-01
       -2   -1    0    0    0  501  0.00000000000E+00  0.00000000000E+00  0.10973915598E+04  0.10973915598E+04  0.25500000920E-02 0. -1.
        2   -1    0    0  501    0  0.00000000000E+00  0.00000000000E+00 -0.16400024205E+04  0.16400024205E+04  0.25500000920E-02 0.  1.
    10030    2    1    2    0    0  0.00000000000E+00  0.00000000000E+00 -0.54261086071E+03  0.27373939803E+04  0.26830764539E+04 0.  0.
        5    1    3    3  502    0 -0.67216012509E+03  0.17054751844E+03 -0.14429517534E+04  0.16009427043E+04  0.46999998093E+01 0.  1.
       -5    1    3    3    0  502  0.67216012509E+03 -0.17054751844E+03  0.90034089267E+03  0.11364512760E+04  0.46999998093E+01 0. -1.
</event>
<event>
 5   0  0.2159405E-05  0.2624917E+04  0.7818609E-02  0.8359786E-01
       -1   -1    0    0    0  501  0.00000000000E+00  0.00000000000E+00  0.10949720503E+04  0.10949720503E+04  0.50400001928E-02 0. -1.
        1   -1    0    0  501    0  0.00000000000E+00  0.00000000000E+00 -0.15731431578E+04  0.15731431578E+04  0.50400001928E-02 0.  1.
    10030    2    1    2    0    0  0.00000000000E+00  0.00000000000E+00 -0.47817110750E+03  0.26681152081E+04  0.26249173617E+04 0.  0.
        3    1    3    3  502    0 -0.12279945999E+04  0.36088396419E+03 -0.53427800058E+03  0.13869610540E+04  0.10100000352E+00 0.  1.
       -3    1    3    3    0  502  0.12279945999E+04 -0.36088396419E+03  0.56106893072E+02  0.12811541542E+04  0.10100000352E+00 0. -1.
</event>
<event>
 5   0  0.5036452E-05  0.2589321E+04  0.7818609E-02  0.8371838E-01
       -2   -1    0    0    0  501  0.00000000000E+00  0.00000000000E+00  0.94481396281E+03  0.94481396281E+03  0.25500000920E-02 0. -1.
        2   -1    0    0  501    0  0.00000000000E+00  0.00000000000E+00 -0.17740488823E+04  0.17740488823E+04  0.25500000920E-02 0.  1.
    10030    2    1    2    0    0  0.00000000000E+00  0.00000000000E+00 -0.82923491947E+03  0.27188628451E+04  0.25893212660E+04 0.  0.
        2    1    3    3  502    0 -0.89929165308E+03 -0.50373499077E+03 -0.12371809371E+04  0.16103077623E+04  0.25500000920E-02 0.  1.
       -2    1    3    3    0  502  0.89929165308E+03  0.50373499077E+03  0.40794601763E+03  0.11085550828E+04  0.25500000920E-02 0. -1.
</event>
<event>
 5   0  0.5036452E-05  0.1652025E+04  0.7818609E-02  0.8789209E-01
        2   -1    0    0  501    0  0.00000000000E+00  0.00000000000E+00  0.72764118382E+03  0.72764118383E+03  0.25500000920E-02 0. -1.
       -2   -1    0    0    0  501  0.00000000000E+00  0.00000000000E+00 -0.93768330739E+03  0.93768330740E+03  0.25500000920E-02 0.  1.
    10030    2    1    2    0    0  0.00000000000E+00  0.00000000000E+00 -0.21004212357E+03  0.16653244912E+04  0.16520254137E+04 0.  0.
        2    1    3    3  502    0  0.46713225568E+03  0.13622016709E+03 -0.77787360319E+03  0.91752701364E+03  0.25500000920E-02 0.  1.
       -2    1    3    3    0  502 -0.46713225568E+03 -0.13622016709E+03  0.56783147962E+03  0.74779747758E+03  0.25500000920E-02 0. -1.
</event>
<event>
 5   0  0.2163800E-05  0.2627183E+04  0.7818609E-02  0.8359026E-01
       -1   -1    0    0    0  501  0.00000000000E+00  0.00000000000E+00  0.10059228099E+04  0.10059228099E+04  0.50400001928E-02 0.  1.
        1   -1    0    0  501    0  0.00000000000E+00  0.00000000000E+00 -0.17153634662E+04  0.17153634662E+04  0.50400001928E-02 0. -1.
    10030    2    1    2    0    0  0.00000000000E+00  0.00000000000E+00 -0.70944065622E+03  0.27212862761E+04  0.26271834637E+04 0.  0.
        1    1    3    3  502    0  0.40989282695E+02 -0.68323670956E+03 -0.15160533481E+04  0.16634032214E+04  0.50400001928E-02 0. -1.
       -1    1    3    3    0  502 -0.40989282695E+02  0.68323670956E+03  0.80661269192E+03  0.10578830547E+04  0.50400001928E-02 0.  1.
</event>
<event>
 5   0  0.5182179E-05  0.1418954E+04  0.7818609E-02  0.8940212E-01
        2   -1    0    0  501    0  0.00000000000E+00  0.00000000000E+00  0.10741026602E+04  0.10741026602E+04  0.25500000920E-02 0. -1.
       -2   -1    0    0    0  501  0.00000000000E+00  0.00000000000E+00 -0.46863111730E+03  0.46863111731E+03  0.25500000920E-02 0.  1.
    10030    2    1    2    0    0  0.00000000000E+00  0.00000000000E+00  0.60547154294E+03  0.15427337776E+04  0.14189544457E+04 0.  0.
        3    1    3    3  502    0 -0.52689919277E+03 -0.24457141229E+03 -0.14012976448E+03  0.59755693967E+03  0.10100000352E+00 0.  1.
       -3    1    3    3    0  502  0.52689919277E+03  0.24457141229E+03  0.74560130741E+03  0.94517683788E+03  0.10100000352E+00 0. -1.
</event>
<event>
 5   0  0.5036452E-05  0.2572513E+04  0.7818609E-02  0.8377598E-01
       -2   -1    0    0    0  501  0.00000000000E+00  0.00000000000E+00  0.69180859741E+03  0.69180859742E+03  0.25500000920E-02 0.  1.
        2   -1    0    0  501    0  0.00000000000E+00  0.00000000000E+00 -0.23914941421E+04  0.23914941421E+04  0.25500000920E-02 0. -1.
    10030    2    1    2    0    0  0.00000000000E+00  0.00000000000E+00 -0.16996855447E+04  0.30833027395E+04  0.25725133299E+04 0.  0.
        2    1    3    3  502    0 -0.11903586350E+02 -0.65567463566E+03  0.47639420573E+03  0.81055682248E+03  0.25500000920E-02 0.  1.
       -2    1    3    3    0  502  0.11903586350E+02  0.65567463566E+03 -0.21760797504E+04  0.22727459170E+04  0.25500000920E-02 0. -1.
</event>
<event>
 5   0  0.2159405E-05  0.2573034E+04  0.7818609E-02  0.8377419E-01
       -1   -1    0    0    0  501  0.00000000000E+00  0.00000000000E+00  0.24844529609E+04  0.24844529609E+04  0.50400001928E-02 0.  1.
        1   -1    0    0  501    0  0.00000000000E+00  0.00000000000E+00 -0.66619307406E+03  0.66619307408E+03  0.50400001928E-02 0. -1.
    10030    2    1    2    0    0  0.00000000000E+00  0.00000000000E+00  0.18182598868E+04  0.31506460350E+04  0.25730335057E+04 0.  0.
        3    1    3    3  502    0 -0.39005185608E+03 -0.53049695336E+03  0.22624832770E+04  0.23563527021E+04  0.10100000352E+00 0.  1.
       -3    1    3    3    0  502  0.39005185608E+03  0.53049695336E+03 -0.44422339019E+03  0.79429333281E+03  0.10100000352E+00 0. -1.
</event>
<event>
 5   0  0.1993815E-05  0.2759150E+04  0.7818609E-02  0.8316064E-01
        1   -1    0    0  501    0  0.00000000000E+00  0.00000000000E+00  0.15288086376E+04  0.15288086376E+04  0.50400001928E-02 0.  1.
       -1   -1    0    0    0  501  0.00000000000E+00  0.00000000000E+00 -0.12449086873E+04  0.12449086874E+04  0.50400001928E-02 0. -1.
    10030    2    1    2    0    0  0.00000000000E+00  0.00000000000E+00  0.28389995024E+03  0.27737173249E+04  0.27591499809E+04 0.  0.
        5    1    3    3  502    0  0.65754577901E+03  0.50972547788E+03 -0.96432296273E+03  0.12736276460E+04  0.46999998093E+01 0. -1.
       -5    1    3    3    0  502 -0.65754577901E+03 -0.50972547788E+03  0.12482229130E+04  0.15000896789E+04  0.46999998093E+01 0.  1.
</event>
<event>
 5   0  0.1954502E-05  0.2347631E+04  0.7818609E-02  0.8459374E-01
        1   -1    0    0  501    0  0.00000000000E+00  0.00000000000E+00  0.12946371407E+04  0.12946371407E+04  0.50400001928E-02 0. -1.
       -1   -1    0    0    0  501  0.00000000000E+00  0.00000000000E+00 -0.10642694632E+04  0.10642694632E+04  0.50400001928E-02 0.  1.
    10030    2    1    2    0    0  0.00000000000E+00  0.00000000000E+00  0.23036767744E+03  0.23589066039E+04  0.23476309546E+04 0.  0.
        4    1    3    3  502    0 -0.57425386786E+03  0.11902303521E+03 -0.90651216201E+03  0.10796758312E+04  0.12699999809E+01 0.  1.
       -4    1    3    3    0  502  0.57425386786E+03 -0.11902303521E+03  0.11368798394E+04  0.12792307727E+04  0.12699999809E+01 0. -1.
</event>
<event>
 5   0  0.5182179E-05  0.2560610E+04  0.7818609E-02  0.8381706E-01
       -2   -1    0    0    0  501  0.00000000000E+00  0.00000000000E+00  0.10565426140E+04  0.10565426140E+04  0.25500000920E-02 0.  1.
        2   -1    0    0  501    0  0.00000000000E+00  0.00000000000E+00 -0.15514573917E+04  0.15514573917E+04  0.25500000920E-02 0. -1.
    10030    2    1    2    0    0  0.00000000000E+00  0.00000000000E+00 -0.49491477771E+03  0.26080000058E+04  0.25606099650E+04 0.  0.
        3    1    3    3  502    0  0.81971748428E+03  0.69330877419E+02 -0.12466526895E+04  0.14936152326E+04  0.10100000352E+00 0. -1.
       -3    1    3    3    0  502 -0.81971748428E+03 -0.69330877419E+02  0.75173791175E+03  0.11143847732E+04  0.10100000352E+00 0.  1.
</event>
<event>
 5   0  0.5036452E-05  0.2582052E+04  0.7818609E-02  0.8374323E-01
        2   -1    0    0  501    0  0.00000000000E+00  0.00000000000E+00  0.15605893152E+04  0.15605893152E+04  0.25500000920E-02 0. -1.
       -2   -1    0    0    0  501  0.00000000000E+00  0.00000000000E+00 -0.10680251552E+04  0.10680251552E+04  0.25500000920E-02 0.  1.
    10030    2    1    2    0    0  0.00000000000E+00  0.00000000000E+00  0.49256416003E+03  0.26286144704E+04  0.25820523973E+04 0.  0.
        2    1    3    3  502    0  0.97822734246E+03  0.54655522175E+03 -0.40644879562E+03  0.11919949528E+04  0.25500000920E-02 0.  1.
       -2    1    3    3    0  502 -0.97822734246E+03 -0.54655522175E+03  0.89901295564E+03  0.14366195176E+04  0.25500000920E-02 0. -1.
</event>
<event>
 5   0  0.5049803E-05  0.2663934E+04  0.7818609E-02  0.8346803E-01
       -2   -1    0    0    0  501  0.00000000000E+00  0.00000000000E+00  0.18346752747E+04  0.18346752747E+04  0.25500000920E-02 0. -1.
        2   -1    0    0  501    0  0.00000000000E+00  0.00000000000E+00 -0.96700253282E+03  0.96700253283E+03  0.25500000920E-02 0.  1.
    10030    2    1    2    0    0  0.00000000000E+00  0.00000000000E+00  0.86767274185E+03  0.28016778075E+04  0.26639336610E+04 0.  0.
        4    1    3    3  502    0 -0.11562232732E+04  0.24648729570E+03 -0.21150891650E+03  0.12009770519E+04  0.12699999809E+01 0.  1.
       -4    1    3    3    0  502  0.11562232732E+04 -0.24648729570E+03  0.10791816584E+04  0.16007007556E+04  0.12699999809E+01 0. -1.
</event>
<event>
 5   0  0.2072710E-05  0.2537441E+04  0.7818609E-02  0.8389767E-01
        1   -1    0    0  501    0  0.00000000000E+00  0.00000000000E+00  0.14793781106E+04  0.14793781106E+04  0.50400001928E-02 0.  1.
       -1   -1    0    0    0  501  0.00000000000E+00  0.00000000000E+00 -0.10880595321E+04  0.10880595321E+04  0.50400001928E-02 0. -1.
    10030    2    1    2    0    0  0.00000000000E+00  0.00000000000E+00  0.39131857850E+03  0.25674376428E+04  0.25374408012E+04 0.  0.
        2    1    3    3  502    0  0.18143506613E+03  0.97399912498E+03  0.99752940070E+03  0.14059366572E+04  0.25500000920E-02 0.  1.
       -2    1    3    3    0  502 -0.18143506613E+03 -0.97399912498E+03 -0.60621082219E+03  0.11615009856E+04  0.25500000920E-02 0. -1.
</event>
<event>
 5   0  0.5182179E-05  0.2592568E+04  0.7818609E-02  0.8370730E-01
       -2   -1    0    0    0  501  0.00000000000E+00  0.00000000000E+00  0.94785718726E+03  0.94785718727E+03  0.25500000920E-02 0.  1.
        2   -1    0    0  501    0  0.00000000000E+00  0.00000000000E+00 -0.17727904965E+04  0.17727904965E+04  0.25500000920E-02 0. -1.
    10030    2    1    2    0    0  0.00000000000E+00  0.00000000000E+00 -0.82493330926E+03  0.27206476838E+04  0.25925680039E+04 0.  0.
        3    1    3    3  502    0  0.60061592934E+03  0.11101596493E+04 -0.10265594293E+03  0.12663854841E+04  0.10100000352E+00 0.  1.
       -3    1    3    3    0  502 -0.60061592934E+03 -0.11101596493E+04 -0.72227736633E+03  0.14542621997E+04  0.10100000352E+00 0. -1.
</event>
<event>
 5   0  0.5036452E-05  0.2539410E+04  0.7818609E-02  0.8389078E-01
        2   -1    0    0  501    0  0.00000000000E+00  0.00000000000E+00  0.13269878422E+04  0.13269878422E+04  0.25500000920E-02 0.  1.
       -2   -1    0    0    0  501  0.00000000000E+00  0.00000000000E+00 -0.12148951219E+04  0.12148951219E+04  0.25500000920E-02 0. -1.
    10030    2    1    2    0    0  0.00000000000E+00  0.00000000000E+00  0.11209272026E+03  0.25418829641E+04  0.25394102121E+04 0.  0.
        2    1    3    3  502    0 -0.18035654055E+03 -0.12125145162E+04 -0.27507951242E+03  0.12563393936E+04  0.25500000920E-02 0.  1.
       -2    1    3    3    0  502  0.18035654055E+03  0.12125145162E+04  0.38717223269E+03  0.12855435705E+04  0.25500000920E-02 0. -1.
</event>
<event>
 5   0  0.2163800E-05  0.1434746E+04  0.7818609E-02  0.8929044E-01
        1   -1    0    0  501    0  0.00000000000E+00  0.00000000000E+00  0.12088920369E+04  0.12088920369E+04  0.50400001928E-02 0.  1.
       -1   -1    0    0    0  501  0.00000000000E+00  0.00000000000E+00 -0.42569905273E+03  0.42569905276E+03  0.50400001928E-02 0. -1.
    10030    2    1    2    0    0  0.00000000000E+00  0.00000000000E+00  0.78319298415E+03  0.16345910897E+04  0.14347462424E+04 0.  0.
        1    1    3    3  502    0  0.20702953908E+03 -0.67594407048E+03  0.25270325114E+03  0.75074666142E+03  0.50400001928E-02 0. -1.
       -1    1    3    3    0  502 -0.20702953908E+03  0.67594407048E+03  0.53048973301E+03  0.88384442824E+03  0.50400001928E-02 0.  1.
</event>
<event>
 5   0  0.1993815E-05  0.2701194E+04  0.7818609E-02  0.8334618E-01
       -1   -1    0    0    0  501  0.00000000000E+00  0.00000000000E+00  0.16913256953E+04  0.16913256953E+04  0.50400001928E-02 0. -1.
        1   -1    0    0  501    0  0.00000000000E+00  0.00000000000E+00 -0.10785103593E+04  0.10785103594E+04  0.50400001928E-02 0.  1.
    10030    2    1    2    0    0  0.00000000000E+00  0.00000000000E+00  0.61281533597E+03  0.27698360547E+04  0.27011940200E+04 0.  0.
        5    1    3    3  502    0 -0.17604142873E+02  0.10171922840E+04  0.12172943369E+04  0.15864481212E+04  0.46999998093E+01 0. -1.
       -5    1    3    3    0  502  0.17604142873E+02 -0.10171922840E+04 -0.60447900095E+03  0.11833879335E+04  0.46999998093E+01 0.  1.
</event>
<event>
 5   0  0.1954502E-05  0.1543954E+04  0.7818609E-02  0.8855739E-01
       -1   -1    0    0    0  501  0.00000000000E+00  0.00000000000E+00  0.62271591773E+03  0.62271591775E+03  0.50400001928E-02 0.  1.
        1   -1    0    0  501    0  0.00000000000E+00  0.00000000000E+00 -0.95701534108E+03  0.95701534109E+03  0.50400001928E-02 0. -1.
    10030    2    1    2    0    0  0.00000000000E+00  0.00000000000E+00 -0.33429942335E+03  0.15797312588E+04  0.15439542564E+04 0.  0.
        4    1    3    3  502    0 -0.26632205272E+03 -0.30904522274E+03 -0.83770681962E+03  0.93176752144E+03  0.12699999809E+01 0. -1.
       -4    1    3    3    0  502  0.26632205272E+03  0.30904522274E+03  0.50340739628E+03  0.64796373740E+03  0.12699999809E+01 0.  1.
</event>
<event>
 5   0  0.2159405E-05  0.2612578E+04  0.7818609E-02  0.8363941E-01
        1   -1    0    0  501    0  0.00000000000E+00  0.00000000000E+00  0.19213621804E+04  0.19213621804E+04  0.50400001928E-02 0. -1.
       -1   -1    0    0    0  501  0.00000000000E+00  0.00000000000E+00 -0.88811537547E+03  0.88811537548E+03  0.50400001928E-02 0.  1.
    10030    2    1    2    0    0  0.00000000000E+00  0.00000000000E+00  0.10332468050E+04  0.28094775559E+04  0.26125782624E+04 0.  0.
        3    1    3    3  502    0  0.41719659361E+03 -0.38103146860E+03  0.17831621729E+04  0.18705361057E+04  0.10100000352E+00 0. -1.
       -3    1    3    3    0  502 -0.41719659361E+03  0.38103146860E+03 -0.74991536789E+03  0.93894145024E+03  0.10100000352E+00 0.  1.
</event>
<event>
 5   0  0.5182179E-05  0.2447527E+04  0.7818609E-02  0.8421921E-01
        2   -1    0    0  501    0  0.00000000000E+00  0.00000000000E+00  0.16448976670E+04  0.16448976670E+04  0.25500000920E-02 0. -1.
       -2   -1    0    0    0  501  0.00000000000E+00  0.00000000000E+00 -0.91045031462E+03  0.91045031462E+03  0.25500000920E-02 0.  1.
    10030    2    1    2    0    0  0.00000000000E+00  0.00000000000E+00  0.73444735234E+03  0.25553479816E+04  0.24475274041E+04 0.  0.
        3    1    3    3  502    0 -0.18717917580E+01 -0.26539412109E+03  0.16144889356E+04  0.16361577175E+04  0.10100000352E+00 0. -1.
       -3    1    3    3    0  502  0.18717917580E+01  0.26539412109E+03 -0.88004158327E+03  0.91919026409E+03  0.10100000352E+00 0.  1.
</event>
<event>
 5   0  0.1954502E-05  0.2683280E+04  0.7818609E-02  0.8340450E-01
       -1   -1    0    0    0  501  0.00000000000E+00  0.00000000000E+00  0.10955803342E+04  0.10955803342E+04  0.50400001928E-02 0. -1.
        1   -1    0    0  501    0  0.00000000000E+00  0.00000000000E+00 -0.16429630736E+04  0.16429630736E+04  0.50400001928E-02 0.  1.
    10030    2    1    2    0    0  0.00000000000E+00  0.00000000000E+00 -0.54738273938E+03  0.27385434078E+04  0.26832801071E+04 0.  0.
        4    1    3    3  502    0  0.89108125440E+03  0.41735820498E+03 -0.12044960797E+04  0.15553218613E+04  0.12699999809E+01 0.  1.
       -4    1    3    3    0  502 -0.89108125440E+03 -0.41735820498E+03  0.65711334037E+03  0.11832215465E+04  0.12699999809E+01 0. -1.
</event>
<event>
 5   0  0.5170532E-05  0.2497230E+04  0.7818609E-02  0.8403973E-01
       -2   -1    0    0    0  501  0.00000000000E+00  0.00000000000E+00  0.10430014809E+04  0.10430014809E+04  0.25500000920E-02 0. -1.
        2   -1    0    0  501    0  0.00000000000E+00  0.00000000000E+00 -0.14947621839E+04  0.14947621839E+04  0.25500000920E-02 0.  1.
    10030    2    1    2    0    0  0.00000000000E+00  0.00000000000E+00 -0.45176070297E+03  0.25377636648E+04  0.24972298023E+04 0.  0.
        1    1    3    3  502    0  0.35599170900E+03 -0.11935517106E+04 -0.31530519564E+03  0.12848008208E+04  0.50400001928E-02 0.  1.
       -1    1    3    3    0  502 -0.35599170900E+03  0.11935517106E+04 -0.13645550733E+03  0.12529628439E+04  0.50400001928E-02 0. -1.
</event>
<event>
 5   0  0.2072710E-05  0.2500699E+04  0.7818609E-02  0.8402736E-01
       -1   -1    0    0    0  501  0.00000000000E+00  0.00000000000E+00  0.10754231837E+04  0.10754231837E+04  0.50400001928E-02 0.  1.
        1   -1    0    0  501    0  0.00000000000E+00  0.00000000000E+00 -0.14537294832E+04  0.14537294832E+04  0.50400001928E-02 0. -1.
    10030    2    1    2    0    0  0.00000000000E+00  0.00000000000E+00 -0.37830629957E+03  0.25291526669E+04  0.25006994134E+04 0.  0.
        2    1    3    3  502    0  0.85687463136E+03 -0.91056828382E+03 -0.19155837935E+03  0.12649361036E+04  0.25500000920E-02 0.  1.
       -2    1    3    3    0  502 -0.85687463136E+03  0.91056828382E+03 -0.18674792023E+03  0.12642165634E+04  0.25500000920E-02 0. -1.
</event>
<event>
 5   0  0.2159405E-05  0.2491483E+04  0.7818609E-02  0.8406026E-01
        1   -1    0    0  501    0  0.00000000000E+00  0.00000000000E+00  0.11484324308E+04  0.11484324308E+04  0.50400001928E-02 0. -1.
       -1   -1    0    0    0  501  0.00000000000E+00  0.00000000000E+00 -0.13512955551E+04  0.13512955551E+04  0.50400001928E-02 0.  1.
    10030    2    1    2    0    0  0.00000000000E+00  0.00000000000E+00 -0.20286312427E+03  0.24997279859E+04  0.24914828027E+04 0.  0.
        3    1    3    3  502    0 -0.14117079919E+03  0.84406737117E+03  0.80682261755E+03  0.11761554608E+04  0.10100000352E+00 0. -1.
       -3    1    3    3    0  502  0.14117079919E+03 -0.84406737117E+03 -0.10096857418E+04  0.13235725250E+04  0.10100000352E+00 0.  1.
</event>
<event>
 5   0  0.5170532E-05  0.2756262E+04  0.7818609E-02  0.8316977E-01
       -2   -1    0    0    0  501  0.00000000000E+00  0.00000000000E+00  0.12032679369E+04  0.12032679370E+04  0.25500000920E-02 0.  1.
        2   -1    0    0  501    0  0.00000000000E+00  0.00000000000E+00 -0.15784052679E+04  0.15784052679E+04  0.25500000920E-02 0. -1.
    10030    2    1    2    0    0  0.00000000000E+00  0.00000000000E+00 -0.37513733092E+03  0.27816732048E+04  0.27562615626E+04 0.  0.
        1    1    3    3  502    0  0.11960868384E+04  0.46674258164E+03  0.31781974239E+03  0.13226797614E+04  0.50400001928E-02 0.  1.
       -1    1    3    3    0  502 -0.11960868384E+04 -0.46674258164E+03 -0.69295707330E+03  0.14589934434E+04  0.50400001928E-02 0. -1.
</event>
<event>
 5   0  0.1954502E-05  0.2593051E+04  0.7818609E-02  0.8370566E-01
       -1   -1    0    0    0  501  0.00000000000E+00  0.00000000000E+00  0.18010403034E+04  0.18010403034E+04  0.50400001928E-02 0.  1.
        1   -1    0    0  501    0  0.00000000000E+00  0.00000000000E+00 -0.93333731692E+03  0.93333731694E+03  0.50400001928E-02 0. -1.
    10030    2    1    2    0    0  0.00000000000E+00  0.00000000000E+00  0.86770298649E+03  0.27343776204E+04  0.25930508090E+04 0.  0.
        4    1    3    3  502    0 -0.57035007535E+03  0.95554295513E+03 -0.26770154636E+03  0.11445642308E+04  0.12699999809E+01 0.  1.
       -4    1    3    3    0  502  0.57035007535E+03 -0.95554295513E+03  0.11354045329E+04  0.15898133896E+04  0.12699999809E+01 0. -1.
</event>
<event>
 5   0  0.5036452E-05  0.2540475E+04  0.7818609E-02  0.8388706E-01
        2   -1    0    0  501    0  0.00000000000E+00  0.00000000000E+00  0.89218271821E+03  0.89218271821E+03  0.25500000920E-02 0.  1.
       -2   -1    0    0    0  501  0.00000000000E+00  0.00000000000E+00 -0.18084899267E+04  0.18084899267E+04  0.25500000920E-02 0. -1.
    10030    2    1    2    0    0  0.00000000000E+00  0.00000000000E+00 -0.91630720847E+03  0.27006726449E+04  0.25404751198E+04 0.  0.
        2    1    3    3  502    0  0.10887654916E+04  0.49293746316E+03 -0.91552293229E+03  0.15055164821E+04  0.25500000920E-02 0. -1.
       -2    1    3    3    0  502 -0.10887654916E+04 -0.49293746316E+03 -0.78427617386E+00  0.11951561628E+04  0.25500000920E-02 0.  1.
</event>
<event>
 5   0  0.1993815E-05  0.2539846E+04  0.7818609E-02  0.8388926E-01
       -1   -1    0    0    0  501  0.00000000000E+00  0.00000000000E+00  0.16909155092E+04  0.16909155092E+04  0.50400001928E-02 0.  1.
        1   -1    0    0  501    0  0.00000000000E+00  0.00000000000E+00 -0.95374655533E+03  0.95374655534E+03  0.50400001928E-02 0. -1.
    10030    2    1    2    0    0  0.00000000000E+00  0.00000000000E+00  0.73716895387E+03  0.26446620646E+04  0.25398463279E+04 0.  0.
        5    1    3    3  502    0  0.13025822478E+03  0.12832997971E+03 -0.93995783533E+03  0.95759000152E+03  0.46999998093E+01 0. -1.
       -5    1    3    3    0  502 -0.13025822478E+03 -0.12832997971E+03  0.16771267892E+04  0.16870720630E+04  0.46999998093E+01 0.  1.
</event>
<event>
 5   0  0.5182179E-05  0.2543394E+04  0.7818609E-02  0.8387687E-01
        2   -1    0    0  501    0  0.00000000000E+00  0.00000000000E+00  0.13595267391E+04  0.13595267391E+04  0.25500000920E-02 0.  1.
       -2   -1    0    0    0  501  0.00000000000E+00  0.00000000000E+00 -0.11895411803E+04  0.11895411803E+04  0.25500000920E-02 0. -1.
    10030    2    1    2    0    0  0.00000000000E+00  0.00000000000E+00  0.16998555882E+03  0.25490679194E+04  0.25433938286E+04 0.  0.
        3    1    3    3  502    0  0.85039515344E+03  0.27092988448E+03  0.99290452698E+03  0.13350783981E+04  0.10100000352E+00 0.  1.
       -3    1    3    3    0  502 -0.85039515344E+03 -0.27092988448E+03 -0.82291896816E+03  0.12139895212E+04  0.10100000352E+00 0. -1.
</event>
<event>
 5   0  0.2072710E-05  0.2570978E+04  0.7818609E-02  0.8378127E-01
        1   -1    0    0  501    0  0.00000000000E+00  0.00000000000E+00  0.11887133347E+04  0.11887133347E+04  0.50400001928E-02 0. -1.
       -1   -1    0    0    0  501  0.00000000000E+00  0.00000000000E+00 -0.13901435683E+04  0.13901435684E+04  0.50400001928E-02 0.  1.
    10030    2    1    2    0    0  0.00000000000E+00  0.00000000000E+00 -0.20143023363E+03  0.25788569031E+04  0.25709781772E+04 0.  0.
        2    1    3    3  502    0  0.32651781181E+03 -0.97986058100E+03  0.66696779381E+03  0.12294660132E+04  0.25500000920E-02 0. -1.
       -2    1    3    3    0  502 -0.32651781181E+03  0.97986058100E+03 -0.86839802744E+03  0.13493908899E+04  0.25500000920E-02 0.  1.
</event>
<event>
 5   0  0.5036452E-05  0.2570911E+04  0.7818609E-02  0.8378150E-01
        2   -1    0    0  501    0  0.00000000000E+00  0.00000000000E+00  0.14841709096E+04  0.14841709096E+04  0.25500000920E-02 0.  1.
       -2   -1    0    0    0  501  0.00000000000E+00  0.00000000000E+00 -0.11133461492E+04  0.11133461492E+04  0.25500000920E-02 0. -1.
    10030    2    1    2    0    0  0.00000000000E+00  0.00000000000E+00  0.37082476044E+03  0.25975170587E+04  0.25709110968E+04 0.  0.
        2    1    3    3  502    0  0.23189850960E+03 -0.37116200396E+03  0.14065801225E+04  0.14730939525E+04  0.25500000920E-02 0.  1.
       -2    1    3    3    0  502 -0.23189850960E+03  0.37116200396E+03 -0.10357553620E+04  0.11244231063E+04  0.25500000920E-02 0. -1.
</event>
<event>
 5   0  0.5170532E-05  0.2581154E+04  0.7818609E-02  0.8374631E-01
       -2   -1    0    0    0  501  0.00000000000E+00  0.00000000000E+00  0.80538542422E+03  0.80538542422E+03  0.25500000920E-02 0.  1.
        2   -1    0    0  501    0  0.00000000000E+00  0.00000000000E+00 -0.20680639681E+04  0.20680639681E+04  0.25500000920E-02 0. -1.
    10030    2    1    2    0    0  0.00000000000E+00  0.00000000000E+00 -0.12626785439E+04  0.28734493924E+04  0.25811536772E+04 0.  0.
        1    1    3    3  502    0 -0.35458362276E+03  0.75520724452E+03 -0.17274850396E+04  0.19184035264E+04  0.50400001928E-02 0. -1.
       -1    1    3    3    0  502  0.35458362276E+03 -0.75520724452E+03  0.46480649571E+03  0.95504586602E+03  0.50400001928E-02 0.  1.
</event>
<event>
 5   0  0.2159405E-05  0.2614581E+04  0.7818609E-02  0.8363265E-01
       -1   -1    0    0    0  501  0.00000000000E+00  0.00000000000E+00  0.13514332726E+04  0.13514332726E+04  0.50400001928E-02 0. -1.
        1   -1    0    0  501    0  0.00000000000E+00  0.00000000000E+00 -0.12645898545E+04  0.12645898545E+04  0.50400001928E-02 0.  1.
    10030    2    1    2    0    0  0.00000000000E+00  0.00000000000E+00  0.86843418090E+02  0.26160231271E+04  0.26145812709E+04 0.  0.
        3    1    3    3  502    0 -0.12880819356E+04 -0.22072405594E+03  0.97191074824E+01  0.13068927473E+04  0.10100000352E+00 0.  1.
       -3    1    3    3    0  502  0.12880819356E+04  0.22072405594E+03  0.77124310608E+02  0.13091303798E+04  0.10100000352E+00 0. -1.
</event>
<event>
 5   0  0.1954502E-05  0.2635216E+04  0.7818609E-02  0.8356337E-01
        1   -1    0    0  501    0  0.00000000000E+00  0.00000000000E+00  0.13461032398E+04  0.13461032398E+04  0.50400001928E-02 0.  1.
       -1   -1    0    0    0  501  0.00000000000E+00  0.00000000000E+00 -0.12897160502E+04  0.12897160502E+04  0.50400001928E-02 0. -1.
    10030    2    1    2    0    0  0.00000000000E+00  0.00000000000E+00  0.56387189612E+02  0.26358192900E+04  0.26352160850E+04 0.  0.
        4    1    3    3  502    0  0.96194544714E+02 -0.12903602556E+04 -0.22047216348E+03  0.13125900226E+04  0.12699999809E+01 0. -1.
       -4    1    3    3    0  502 -0.96194544714E+02  0.12903602556E+04  0.27685935310E+03  0.13232292674E+04  0.12699999809E+01 0.  1.
</event>
<event>
 5   0  0.5036452E-05  0.2614704E+04  0.7818609E-02  0.8363224E-01
       -2   -1    0    0    0  501  0.00000000000E+00  0.00000000000E+00  0.11559512649E+04  0.11559512649E+04  0.25500000920E-02 0. -1.
        2   -1    0    0  501    0  0.00000000000E+00  0.00000000000E+00 -0.14785819935E+04  0.14785819935E+04  0.25500000920E-02 0.  1.
    10030    2    1    2    0    0  0.00000000000E+00  0.00000000000E+00 -0.32263072858E+03  0.26345332584E+04  0.26147035975E+04 0.  0.
        2    1    3    3  502    0 -0.49251191830E+03  0.28487411226E+03 -0.13472923296E+04  0.14625039729E+04  0.25500000920E-02 0.  1.
       -2    1    3    3    0  502  0.49251191830E+03 -0.28487411226E+03  0.10246616010E+04  0.11720292855E+04  0.25500000920E-02 0. -1.
</event>
<event>
 5   0  0.5049803E-05  0.2564436E+04  0.7818609E-02  0.8380383E-01
        2   -1    0    0  501    0  0.00000000000E+00  0.00000000000E+00  0.11730746846E+04  0.11730746846E+04  0.25500000920E-02 0. -1.
       -2   -1    0    0    0  501  0.00000000000E+00  0.00000000000E+00 -0.14015162764E+04  0.14015162764E+04  0.25500000920E-02 0.  1.
    10030    2    1    2    0    0  0.00000000000E+00  0.00000000000E+00 -0.22844159171E+03  0.25745909610E+04  0.25644362062E+04 0.  0.
        4    1    3    3  502    0 -0.10109604727E+04 -0.49697939522E+03  0.50061920513E+03  0.12327411724E+04  0.12699999809E+01 0. -1.
       -4    1    3    3    0  502  0.10109604727E+04  0.49697939522E+03 -0.72906079684E+03  0.13418497886E+04  0.12699999809E+01 0.  1.
</event>
<event>
 5   0  0.5182179E-05  0.2611250E+04  0.7818609E-02  0.8364390E-01
       -2   -1    0    0    0  501  0.00000000000E+00  0.00000000000E+00  0.71546269442E+03  0.71546269442E+03  0.25500000920E-02 0. -1.
        2   -1    0    0  501    0  0.00000000000E+00  0.00000000000E+00 -0.23825924270E+04  0.23825924270E+04  0.25500000920E-02 0.  1.
    10030    2    1    2    0    0  0.00000000000E+00  0.00000000000E+00 -0.16671297326E+04  0.30980551215E+04  0.26112495075E+04 0.  0.
        3    1    3    3  502    0 -0.20408994133E+03 -0.10584719702E+04 -0.17075354599E+04  0.20193298326E+04  0.10100000352E+00 0.  1.
       -3    1    3    3    0  502  0.20408994133E+03  0.10584719702E+04  0.40405727320E+02  0.10787252888E+04  0.10100000352E+00 0. -1.
</event>
<event>
 5   0  0.4955675E-05  0.2536666E+04  0.7818609E-02  0.8390038E-01
        2   -1    0    0  501    0  0.00000000000E+00  0.00000000000E+00  0.28195863117E+04  0.28195863117E+04  0.25500000920E-02 0.  1.
       -2   -1    0    0    0  501  0.00000000000E+00  0.00000000000E+00 -0.57053371870E+03  0.57053371870E+03  0.25500000920E-02 0. -1.
    10030    2    1    2    0    0  0.00000000000E+00  0.00000000000E+00  0.22490525930E+04  0.33901200304E+04  0.25366663664E+04 0.  0.
        5    1    3    3  502    0  0.58819226113E+03 -0.48175624320E+03  0.24812587527E+04  0.25951351221E+04  0.46999998093E+01 0.  1.
       -5    1    3    3    0  502 -0.58819226113E+03  0.48175624320E+03 -0.23220615969E+03  0.79498490835E+03  0.46999998093E+01 0. -1.
</event>
<event>
 5   0  0.1954502E-05  0.2609149E+04  0.7818609E-02  0.8365100E-01
        1   -1    0    0  501    0  0.00000000000E+00  0.00000000000E+00  0.16486521742E+04  0.16486521742E+04  0.50400001928E-02 0.  1.
       -1   -1    0    0    0  501  0.00000000000E+00  0.00000000000E+00 -0.10323064693E+04  0.10323064693E+04  0.50400001928E-02 0. -1.
    10030    2    1    2    0    0  0.00000000000E+00  0.00000000000E+00  0.61634570487E+03  0.26809586435E+04  0.26091487540E+04 0.  0.
        4    1    3    3  502    0  0.14487972154E+03 -0.11270098472E+04  0.96672679500E+03  0.14918792305E+04  0.12699999809E+01 0.  1.
       -4    1    3    3    0  502 -0.14487972154E+03  0.11270098472E+04 -0.35038109013E+03  0.11890794130E+04  0.12699999809E+01 0. -1.
</event>
<event>
 5   0  0.1993815E-05  0.2554464E+04  0.7818609E-02  0.8383835E-01
        1   -1    0    0  501    0  0.00000000000E+00  0.00000000000E+00  0.86354675599E+03  0.86354675600E+03  0.50400001928E-02 0.  1.
       -1   -1    0    0    0  501  0.00000000000E+00  0.00000000000E+00 -0.18890940815E+04  0.18890940816E+04  0.50400001928E-02 0. -1.
    10030    2    1    2    0    0  0.00000000000E+00  0.00000000000E+00 -0.10255473256E+04  0.27526408376E+04  0.25544635961E+04 0.  0.
        5    1    3    3  502    0  0.93075045078E+03  0.47529843711E+03  0.27841866606E+03  0.10815470630E+04  0.46999998093E+01 0.  1.
       -5    1    3    3    0  502 -0.93075045078E+03 -0.47529843711E+03 -0.13039659916E+04  0.16710937745E+04  0.46999998093E+01 0. -1.
</event>
<event>
 5   0  0.2163800E-05  0.2477351E+04  0.7818609E-02  0.8411099E-01
        1   -1    0    0  501    0  0.00000000000E+00  0.00000000000E+00  0.12508748977E+04  0.12508748977E+04  0.50400001928E-02 0.  1.
       -1   -1    0    0    0  501  0.00000000000E+00  0.00000000000E+00 -0.12265949206E+04  0.12265949206E+04  0.50400001928E-02 0. -1.
    10030    2    1    2    0    0  0.00000000000E+00  0.00000000000E+00  0.24279977089E+02  0.24774698184E+04  0.24773508398E+04 0.  0.
        1    1    3    3  502    0 -0.10763627997E+03  0.52022819765E+03 -0.11068837466E+04  0.12277681275E+04  0.50400001928E-02 0. -1.
       -1    1    3    3    0  502  0.10763627997E+03 -0.52022819765E+03  0.11311637237E+04  0.12497016909E+04  0.50400001928E-02 0.  1.
</event>
<event>
 5   0  0.5049803E-05  0.2581647E+04  0.7818609E-02  0.8374462E-01
       -2   -1    0    0    0  501  0.00000000000E+00  0.00000000000E+00  0.17584116191E+04  0.17584116191E+04  0.25500000920E-02 0.  1.
        2   -1    0    0  501    0  0.00000000000E+00  0.00000000000E+00 -0.94757390411E+03  0.94757390411E+03  0.25500000920E-02 0. -1.
    10030    2    1    2    0    0  0.00000000000E+00  0.00000000000E+00  0.81083771496E+03  0.27059855232E+04  0.25816467325E+04 0.  0.
        4    1    3    3  502    0 -0.73667640084E+03  0.86223173184E+03  0.10516242028E+04  0.15466256030E+04  0.12699999809E+01 0.  1.
       -4    1    3    3    0  502  0.73667640084E+03 -0.86223173184E+03 -0.24078648784E+03  0.11593599202E+04  0.12699999809E+01 0. -1.
</event>
<event>
 5   0  0.5049803E-05  0.2605465E+04  0.7818609E-02  0.8366347E-01
       -2   -1    0    0    0  501  0.00000000000E+00  0.00000000000E+00  0.74569780193E+03  0.74569780193E+03  0.25500000920E-02 0.  1.
        2   -1    0    0  501    0  0.00000000000E+00  0.00000000000E+00 -0.22758705786E+04  0.22758705786E+04  0.25500000920E-02 0. -1.
    10030    2    1    2    0    0  0.00000000000E+00  0.00000000000E+00 -0.15301727767E+04  0.30215683805E+04  0.26054647861E+04 0.  0.
        4    1    3    3  502    0 -0.86021241895E+03  0.90751689091E+03 -0.34126605782E+03  0.12961544847E+04  0.12699999809E+01 0.  1.
       -4    1    3    3    0  502  0.86021241895E+03 -0.90751689091E+03 -0.11889067188E+04  0.17254138959E+04  0.12699999809E+01 0. -1.
</event>
<event>
 5   0  0.1698625E-05  0.2567121E+04  0.7818609E-02  0.8379456E-01
        3   -1    0    0  501    0  0.00000000000E+00  0.00000000000E+00  0.11840296683E+04  0.11840296726E+04  0.10100000352E+00 0.  1.
       -3   -1    0    0    0  501  0.00000000000E+00  0.00000000000E+00 -0.13914575396E+04  0.13914575432E+04  0.10100000352E+00 0. -1.
    10030    2    1    2    0    0  0.00000000000E+00  0.00000000000E+00 -0.20742787128E+03  0.25754872158E+04  0.25671205810E+04 0.  0.
        3    1    3    3  502    0  0.48008644248E+03  0.10917713248E+04  0.37225761570E+03  0.12494092046E+04  0.10100000352E+00 0.  1.
       -3    1    3    3    0  502 -0.48008644248E+03 -0.10917713248E+04 -0.57968548697E+03  0.13260780112E+04  0.10100000352E+00 0. -1.
</event>
<event>
 5   0  0.5036452E-05  0.1656453E+04  0.7818609E-02  0.8786598E-01
       -2   -1    0    0    0  501  0.00000000000E+00  0.00000000000E+00  0.38808817784E+03  0.38808817784E+03  0.25500000920E-02 0.  1.
        2   -1    0    0  501    0  0.00000000000E+00  0.00000000000E+00 -0.17675335481E+04  0.17675335481E+04  0.25500000920E-02 0. -1.
    10030    2    1    2    0    0  0.00000000000E+00  0.00000000000E+00 -0.13794453702E+04  0.21556217259E+04  0.16564526844E+04 0.  0.
        2    1    3    3  502    0  0.37448628553E+03 -0.15766108631E+03  0.24947022006E+03  0.47679386205E+03  0.25500000920E-02 0.  1.
       -2    1    3    3    0  502 -0.37448628553E+03  0.15766108631E+03 -0.16289155903E+04  0.16788278639E+04  0.25500000920E-02 0. -1.
</event>
<event>
 5   0  0.2072710E-05  0.2692800E+04  0.7818609E-02  0.8337345E-01
        1   -1    0    0  501    0  0.00000000000E+00  0.00000000000E+00  0.10215380107E+04  0.10215380107E+04  0.50400001928E-02 0.  1.
       -1   -1    0    0    0  501  0.00000000000E+00  0.00000000000E+00 -0.17745728306E+04  0.17745728306E+04  0.50400001928E-02 0. -1.
    10030    2    1    2    0    0  0.00000000000E+00  0.00000000000E+00 -0.75303481991E+03  0.27961108413E+04  0.26928004748E+04 0.  0.
        2    1    3    3  502    0  0.10431095835E+04  0.64858019553E+03 -0.94908881914E+03  0.15522575366E+04  0.25500000920E-02 0. -1.
       -2    1    3    3    0  502 -0.10431095835E+04 -0.64858019553E+03  0.19605399923E+03  0.12438533048E+04  0.25500000920E-02 0.  1.
</event>
<event>
 5   0  0.2159405E-05  0.2474657E+04  0.7818609E-02  0.8412070E-01
        1   -1    0    0  501    0  0.00000000000E+00  0.00000000000E+00  0.17831607407E+04  0.17831607407E+04  0.50400001928E-02 0.  1.
       -1   -1    0    0    0  501  0.00000000000E+00  0.00000000000E+00 -0.85857780877E+03  0.85857780878E+03  0.50400001928E-02 0. -1.
    10030    2    1    2    0    0  0.00000000000E+00  0.00000000000E+00  0.92458293196E+03  0.26417385495E+04  0.24746573431E+04 0.  0.
        3    1    3    3  502    0 -0.62924809372E+03 -0.60500496432E+03  0.13984240969E+04  0.16485066380E+04  0.10100000352E+00 0.  1.
       -3    1    3    3    0  502  0.62924809372E+03  0.60500496432E+03 -0.47384116497E+03  0.99323191156E+03  0.10100000352E+00 0. -1.
</event>
<event>
 5   0  0.4955675E-05  0.2579769E+04  0.7818609E-02  0.8375106E-01
       -2   -1    0    0    0  501  0.00000000000E+00  0.00000000000E+00  0.75470330414E+03  0.75470330414E+03  0.25500000920E-02 0. -1.
        2   -1    0    0  501    0  0.00000000000E+00  0.00000000000E+00 -0.22045784817E+04  0.22045784817E+04  0.25500000920E-02 0.  1.
    10030    2    1    2    0    0  0.00000000000E+00  0.00000000000E+00 -0.14498751776E+04  0.29592817859E+04  0.25797694970E+04 0.  0.
        5    1    3    3  502    0 -0.69629965520E+03 -0.18059172179E+03 -0.19531147116E+04  0.20813759262E+04  0.46999998093E+01 0.  1.
       -5    1    3    3    0  502  0.69629965520E+03  0.18059172179E+03  0.50323953397E+03  0.87790585963E+03  0.46999998093E+01 0. -1.
</event>
<event>
 5   0  0.5170532E-05  0.2614723E+04  0.7818609E-02  0.8363217E-01
        2   -1    0    0  501    0  0.00000000000E+00  0.00000000000E+00  0.14499703875E+04  0.14499703875E+04  0.25500000920E-02 0.  1.
       -2   -1    0    0    0  501  0.00000000000E+00  0.00000000000E+00 -0.11787785998E+04  0.11787785998E+04  0.25500000920E-02 0. -1.
    10030    2    1    2    0    0  0.00000000000E+00  0.00000000000E+00  0.27119178767E+03  0.26287489872E+04  0.26147229781E+04 0.  0.
        1    1    3    3  502    0 -0.19665052888E+03  0.11940471903E+04 -0.36180438467E+03  0.12630607808E+04  0.50400001928E-02 0. -1.
       -1    1    3    3    0  502  0.19665052888E+03 -0.11940471903E+04  0.63299617235E+03  0.13656882065E+04  0.50400001928E-02 0.  1.
</event>
<event>
 5   0  0.1954502E-05  0.2236467E+04  0.7818609E-02  0.8503401E-01
       -1   -1    0    0    0  501  0.00000000000E+00  0.00000000000E+00  0.51169787759E+03  0.51169787762E+03  0.50400001928E-02 0. -1.
        1   -1    0    0  501    0  0.00000000000E+00  0.00000000000E+00 -0.24437193359E+04  0.24437193359E+04  0.50400001928E-02 0.  1.
    10030    2    1    2    0    0  0.00000000000E+00  0.00000000000E+00 -0.19320214583E+04  0.29554172136E+04  0.22364668544E+04 0.  0.
        4    1    3    3  502    0  0.97273245095E+03 -0.29890076759E+03 -0.15785991383E+04  0.18781711696E+04  0.12699999809E+01 0.  1.
       -4    1    3    3    0  502 -0.97273245095E+03  0.29890076759E+03 -0.35342232004E+03  0.10772460439E+04  0.12699999809E+01 0. -1.
</event>
<event>
 5   0  0.1954502E-05  0.2665296E+04  0.7818609E-02  0.8346354E-01
       -1   -1    0    0    0  501  0.00000000000E+00  0.00000000000E+00  0.12460920941E+04  0.12460920942E+04  0.50400001928E-02 0.  1.
        1   -1    0    0  501    0  0.00000000000E+00  0.00000000000E+00 -0.14252160462E+04  0.14252160462E+04  0.50400001928E-02 0. -1.
    10030    2    1    2    0    0  0.00000000000E+00  0.00000000000E+00 -0.17912395210E+03  0.26713081404E+04  0.26652958167E+04 0.  0.
        4    1    3    3  502    0  0.41983537021E+03  0.47047837704E+03  0.10871124313E+04  0.12567524388E+04  0.12699999809E+01 0.  1.
       -4    1    3    3    0  502 -0.41983537021E+03 -0.47047837704E+03 -0.12662363834E+04  0.14145557016E+04  0.12699999809E+01 0. -1.
</event>
<event>
 5   0  0.1993815E-05  0.2531050E+04  0.7818609E-02  0.8392007E-01
        1   -1    0    0  501    0  0.00000000000E+00  0.00000000000E+00  0.12884265343E+04  0.12884265343E+04  0.50400001928E-02 0.  1.
       -1   -1    0    0    0  501  0.00000000000E+00  0.00000000000E+00 -0.12430307573E+04  0.12430307573E+04  0.50400001928E-02 0. -1.
    10030    2    1    2    0    0  0.00000000000E+00  0.00000000000E+00  0.45395777065E+02  0.25314572916E+04  0.25310502252E+04 0.  0.
        5    1    3    3  502    0  0.79625089535E+03  0.40483919349E+03  0.91929142622E+03  0.12818069579E+04  0.46999998093E+01 0.  1.
       -5    1    3    3    0  502 -0.79625089535E+03 -0.40483919349E+03 -0.87389564916E+03  0.12496503337E+04  0.46999998093E+01 0. -1.
</event>
<event>
 5   0  0.5049803E-05  0.2587247E+04  0.7818609E-02  0.8372546E-01
       -2   -1    0    0    0  501  0.00000000000E+00  0.00000000000E+00  0.74835581840E+03  0.74835581841E+03  0.25500000920E-02 0.  1.
        2   -1    0    0  501    0  0.00000000000E+00  0.00000000000E+00 -0.22361844413E+04  0.22361844413E+04  0.25500000920E-02 0. -1.
    10030    2    1    2    0    0  0.00000000000E+00  0.00000000000E+00 -0.14878286229E+04  0.29845402597E+04  0.25872469056E+04 0.  0.
        4    1    3    3  502    0 -0.56080987485E+03 -0.89776417679E+03  0.11389558891E+03  0.10646417477E+04  0.12699999809E+01 0.  1.
       -4    1    3    3    0  502  0.56080987485E+03  0.89776417679E+03 -0.16017242118E+04  0.19198985120E+04  0.12699999809E+01 0. -1.
</event>
<event>
 5   0  0.1993815E-05  0.2579592E+04  0.7818609E-02  0.8375166E-01
        1   -1    0    0  501    0  0.00000000000E+00  0.00000000000E+00  0.16715789838E+04  0.16715789838E+04  0.50400001928E-02 0.  1.
       -1   -1    0    0    0  501  0.00000000000E+00  0.00000000000E+00 -0.99521103967E+03  0.99521103969E+03  0.50400001928E-02 0. -1.
    10030    2    1    2    0    0  0.00000000000E+00  0.00000000000E+00  0.67636794412E+03  0.26667900235E+04  0.25795921060E+04 0.  0.
        5    1    3    3  502    0  0.76898080388E+03 -0.87757188312E+03 -0.23002022110E+03  0.11892835149E+04  0.46999998093E+01 0. -1.
       -5    1    3    3    0  502 -0.76898080388E+03  0.87757188312E+03  0.90638816523E+03  0.14775065086E+04  0.46999998093E+01 0.  1.
</event>
<event>
 5   0  0.5182179E-05  0.1982206E+04  0.7818609E-02  0.8614985E-01
        2   -1    0    0  501    0  0.00000000000E+00  0.00000000000E+00  0.19452984478E+04  0.19452984478E+04  0.25500000920E-02 0.  1.
       -2   -1    0    0    0  501  0.00000000000E+00  0.00000000000E+00 -0.50495366207E+03  0.50495366207E+03  0.25500000920E-02 0. -1.
    10030    2    1    2    0    0  0.00000000000E+00  0.00000000000E+00  0.14403447858E+04  0.24502521099E+04  0.19822064222E+04 0.  0.
        3    1    3    3  502    0 -0.24686084664E+03  0.77229857571E+03  0.14247630505E+04  0.16393093448E+04  0.10100000352E+00 0.  1.
       -3    1    3    3    0  502  0.24686084664E+03 -0.77229857571E+03  0.15581735293E+02  0.81094276514E+03  0.10100000352E+00 0. -1.
</event>
<event>
 5   0  0.5182179E-05  0.2617106E+04  0.7818609E-02  0.8362414E-01
       -2   -1    0    0    0  501  0.00000000000E+00  0.00000000000E+00  0.97747729634E+03  0.97747729634E+03  0.25500000920E-02 0.  1.
        2   -1    0    0  501    0  0.00000000000E+00  0.00000000000E+00 -0.17517647986E+04  0.17517647986E+04  0.25500000920E-02 0. -1.
    10030    2    1    2    0    0  0.00000000000E+00  0.00000000000E+00 -0.77428750223E+03  0.27292420949E+04  0.26171055150E+04 0.  0.
        3    1    3    3  502    0  0.69950955063E+03 -0.10617027573E+04 -0.70989446092E+03  0.14561856036E+04  0.10100000352E+00 0.  1.
       -3    1    3    3    0  502 -0.69950955063E+03  0.10617027573E+04 -0.64393041315E+02  0.12730564913E+04  0.10100000352E+00 0. -1.
</event>
<event>
 5   0  0.1993815E-05  0.2662827E+04  0.7818609E-02  0.8347168E-01
       -1   -1    0    0    0  501  0.00000000000E+00  0.00000000000E+00  0.70377650916E+03  0.70377650918E+03  0.50400001928E-02 0. -1.
        1   -1    0    0  501    0  0.00000000000E+00  0.00000000000E+00 -0.25187859950E+04  0.25187859950E+04  0.50400001928E-02 0.  1.
    10030    2    1    2    0    0  0.00000000000E+00  0.00000000000E+00 -0.18150094858E+04  0.32225625041E+04  0.26628273807E+04 0.  0.
        5    1    3    3  502    0 -0.68796252206E+03  0.66900439253E+03 -0.20244253761E+04  0.22403525398E+04  0.46999998093E+01 0.  1.
       -5    1    3    3    0  502  0.68796252206E+03 -0.66900439253E+03  0.20941589033E+03  0.98220996436E+03  0.46999998093E+01 0. -1.
</event>
<event>
 5   0  0.5182179E-05  0.2681286E+04  0.7818609E-02  0.8341103E-01
       -2   -1    0    0    0  501  0.00000000000E+00  0.00000000000E+00  0.70631412700E+03  0.70631412700E+03  0.25500000920E-02 0. -1.
        2   -1    0    0  501    0  0.00000000000E+00  0.00000000000E+00 -0.25446519501E+04  0.25446519501E+04  0.25500000920E-02 0.  1.
    10030    2    1    2    0    0  0.00000000000E+00  0.00000000000E+00 -0.18383378231E+04  0.32509660771E+04  0.26812859755E+04 0.  0.
        3    1    3    3  502    0 -0.77948042328E+03 -0.34878637250E+03 -0.21722281084E+04  0.23340558324E+04  0.10100000352E+00 0.  1.
       -3    1    3    3    0  502  0.77948042328E+03  0.34878637250E+03  0.33389028529E+03  0.91691024465E+03  0.10100000352E+00 0. -1.
</event>
<event>
 5   0  0.5036452E-05  0.1905507E+04  0.7818609E-02  0.8652120E-01
        2   -1    0    0  501    0  0.00000000000E+00  0.00000000000E+00  0.26767296955E+04  0.26767296955E+04  0.25500000920E-02 0. -1.
       -2   -1    0    0    0  501  0.00000000000E+00  0.00000000000E+00 -0.33912255303E+03  0.33912255304E+03  0.25500000920E-02 0.  1.
    10030    2    1    2    0    0  0.00000000000E+00  0.00000000000E+00  0.23376071425E+04  0.30158522485E+04  0.19055071851E+04 0.  0.
        2    1    3    3  502    0  0.78834309148E+03  0.33454949094E+03  0.50797767997E+03  0.99571557943E+03  0.25500000920E-02 0. -1.
       -2    1    3    3    0  502 -0.78834309148E+03 -0.33454949094E+03  0.18296294625E+04  0.20201366691E+04  0.25500000920E-02 0.  1.
</event>
<event>
 5   0  0.5170532E-05  0.2601430E+04  0.7818609E-02  0.8367716E-01
       -2   -1    0    0    0  501  0.00000000000E+00  0.00000000000E+00  0.15588879924E+04  0.15588879924E+04  0.25500000920E-02 0.  1.
        2   -1    0    0  501    0  0.00000000000E+00  0.00000000000E+00 -0.10852985418E+04  0.10852985418E+04  0.25500000920E-02 0. -1.
    10030    2    1    2    0    0  0.00000000000E+00  0.00000000000E+00  0.47358945056E+03  0.26441865342E+04  0.26014295031E+04 0.  0.
        1    1    3    3  502    0 -0.60333192627E+02 -0.85402446520E+03  0.12321035429E+04  0.15003589643E+04  0.50400001928E-02 0.  1.
       -1    1    3    3    0  502  0.60333192627E+02  0.85402446520E+03 -0.75851409235E+03  0.11438275699E+04  0.50400001928E-02 0. -1.
</event>
<event>
 5   0  0.2159405E-05  0.2643781E+04  0.7818609E-02  0.8353480E-01
       -1   -1    0    0    0  501  0.00000000000E+00  0.00000000000E+00  0.87671421913E+03  0.87671421915E+03  0.50400001928E-02 0. -1.
        1   -1    0    0  501    0  0.00000000000E+00  0.00000000000E+00 -0.19931168135E+04  0.19931168135E+04  0.50400001928E-02 0.  1.
    10030    2    1    2    0    0  0.00000000000E+00  0.00000000000E+00 -0.11164025944E+04  0.28698310327E+04  0.26437805135E+04 0.  0.
        3    1    3    3  502    0  0.12571586706E+04  0.38931630309E+03 -0.69281560431E+03  0.14872822794E+04  0.10100000352E+00 0. -1.
       -3    1    3    3    0  502 -0.12571586706E+04 -0.38931630309E+03 -0.42358699008E+03  0.13825487533E+04  0.10100000352E+00 0.  1.
</event>
<event>
 5   0  0.5049803E-05  0.2059586E+04  0.7818609E-02  0.8579258E-01
       -2   -1    0    0    0  501  0.00000000000E+00  0.00000000000E+00  0.71860942735E+03  0.71860942736E+03  0.25500000920E-02 0.  1.
        2   -1    0    0  501    0  0.00000000000E+00  0.00000000000E+00 -0.14757303423E+04  0.14757303423E+04  0.25500000920E-02 0. -1.
    10030    2    1    2    0    0  0.00000000000E+00  0.00000000000E+00 -0.75712091496E+03  0.21943397697E+04  0.20595861101E+04 0.  0.
        4    1    3    3  502    0 -0.83954341226E+03 -0.25411460290E+03 -0.95336306134E+03  0.12954960873E+04  0.12699999809E+01 0. -1.
       -4    1    3    3    0  502  0.83954341226E+03  0.25411460290E+03  0.19624214639E+03  0.89884368241E+03  0.12699999809E+01 0.  1.
</event>
<event>
 5   0  0.5049803E-05  0.2570175E+04  0.7818609E-02  0.8378403E-01
       -2   -1    0    0    0  501  0.00000000000E+00  0.00000000000E+00  0.17444095875E+04  0.17444095875E+04  0.25500000920E-02 0.  1.
        2   -1    0    0  501    0  0.00000000000E+00  0.00000000000E+00 -0.94670987104E+03  0.94670987104E+03  0.25500000920E-02 0. -1.
    10030    2    1    2    0    0  0.00000000000E+00  0.00000000000E+00  0.79769971645E+03  0.26911194585E+04  0.25701749167E+04 0.  0.
        4    1    3    3  502    0  0.93964604507E+02  0.32024828708E+03 -0.90053887005E+03  0.96039584633E+03  0.12699999809E+01 0. -1.
       -4    1    3    3    0  502 -0.93964604507E+02 -0.32024828708E+03  0.16982385865E+04  0.17307236122E+04  0.12699999809E+01 0.  1.
</event>
<event>
 5   0  0.4955675E-05  0.2586497E+04  0.7818609E-02  0.8372802E-01
       -2   -1    0    0    0  501  0.00000000000E+00  0.00000000000E+00  0.61160505324E+03  0.61160505325E+03  0.25500000920E-02 0. -1.
        2   -1    0    0  501    0  0.00000000000E+00  0.00000000000E+00 -0.27345939890E+04  0.27345939890E+04  0.25500000920E-02 0.  1.
    10030    2    1    2    0    0  0.00000000000E+00  0.00000000000E+00 -0.21229889358E+04  0.33461990423E+04  0.25864968604E+04 0.  0.
        5    1    3    3  502    0 -0.42118725181E+03 -0.11708515687E+04 -0.15173853939E+04  0.19623385591E+04  0.46999998093E+01 0.  1.
       -5    1    3    3    0  502  0.42118725181E+03  0.11708515687E+04 -0.60560354191E+03  0.13838604832E+04  0.46999998093E+01 0. -1.
</event>
<event>
 5   0  0.1954502E-05  0.2605481E+04  0.7818609E-02  0.8366342E-01
        1   -1    0    0  501    0  0.00000000000E+00  0.00000000000E+00  0.19508770014E+04  0.19508770014E+04  0.50400001928E-02 0.  1.
       -1   -1    0    0    0  501  0.00000000000E+00  0.00000000000E+00 -0.86993310691E+03  0.86993310693E+03  0.50400001928E-02 0. -1.
    10030    2    1    2    0    0  0.00000000000E+00  0.00000000000E+00  0.10809438945E+04  0.28208101083E+04  0.26054807549E+04 0.  0.
        4    1    3    3  502    0 -0.10875051547E+04 -0.59624113224E+03  0.97212002510E+03  0.15758140453E+04  0.12699999809E+01 0.  1.
       -4    1    3    3    0  502  0.10875051547E+04  0.59624113224E+03  0.10882386935E+03  0.12449960630E+04  0.12699999809E+01 0. -1.
</event>
<event>
 5   0  0.2072710E-05  0.2110558E+04  0.7818609E-02  0.8556607E-01
        1   -1    0    0  501    0  0.00000000000E+00  0.00000000000E+00  0.18668143281E+04  0.18668143281E+04  0.50400001928E-02 0.  1.
       -1   -1    0    0    0  501  0.00000000000E+00  0.00000000000E+00 -0.59653146488E+03  0.59653146490E+03  0.50400001928E-02 0. -1.
    10030    2    1    2    0    0  0.00000000000E+00  0.00000000000E+00  0.12702828632E+04  0.24633457930E+04  0.21105577327E+04 0.  0.
        2    1    3    3  502    0  0.10479308159E+04  0.63782620086E+02  0.75968429592E+03  0.12958963875E+04  0.25500000920E-02 0.  1.
       -2    1    3    3    0  502 -0.10479308159E+04 -0.63782620086E+02  0.51059856725E+03  0.11674494055E+04  0.25500000920E-02 0. -1.
</event>
<event>
 5   0  0.5182179E-05  0.2414207E+04  0.7818609E-02  0.8434204E-01
       -2   -1    0    0    0  501  0.00000000000E+00  0.00000000000E+00  0.11325885672E+04  0.11325885672E+04  0.25500000920E-02 0.  1.
        2   -1    0    0  501    0  0.00000000000E+00  0.00000000000E+00 -0.12865208670E+04  0.12865208670E+04  0.25500000920E-02 0. -1.
    10030    2    1    2    0    0  0.00000000000E+00  0.00000000000E+00 -0.15393229976E+03  0.24191094342E+04  0.24142069716E+04 0.  0.
        3    1    3    3  502    0  0.38975611130E+03  0.28661016865E+03  0.10311926133E+04  0.11390405748E+04  0.10100000352E+00 0.  1.
       -3    1    3    3    0  502 -0.38975611130E+03 -0.28661016865E+03 -0.11851249131E+04  0.12800688594E+04  0.10100000352E+00 0. -1.
</event>
<event>
 5   0  0.5049803E-05  0.2589721E+04  0.7818609E-02  0.8371701E-01
        2   -1    0    0  501    0  0.00000000000E+00  0.00000000000E+00  0.10425149714E+04  0.10425149714E+04  0.25500000920E-02 0. -1.
       -2   -1    0    0    0  501  0.00000000000E+00  0.00000000000E+00 -0.16082874906E+04  0.16082874907E+04  0.25500000920E-02 0.  1.
    10030    2    1    2    0    0  0.00000000000E+00  0.00000000000E+00 -0.56577251926E+03  0.26508024620E+04  0.25897210563E+04 0.  0.
        4    1    3    3  502    0  0.75722045717E+02 -0.87465623594E+03  0.69135307790E+03  0.11174650109E+04  0.12699999809E+01 0. -1.
       -4    1    3    3    0  502 -0.75722045717E+02  0.87465623594E+03 -0.12571255972E+04  0.15333374512E+04  0.12699999809E+01 0.  1.
</event>
<event>
 5   0  0.5049803E-05  0.2579121E+04  0.7818609E-02  0.8375328E-01
        2   -1    0    0  501    0  0.00000000000E+00  0.00000000000E+00  0.83213569633E+03  0.83213569633E+03  0.25500000920E-02 0. -1.
       -2   -1    0    0    0  501  0.00000000000E+00  0.00000000000E+00 -0.19984310275E+04  0.19984310275E+04  0.25500000920E-02 0.  1.
    10030    2    1    2    0    0  0.00000000000E+00  0.00000000000E+00 -0.11662953312E+04  0.28305667238E+04  0.25791206212E+04 0.  0.
        4    1    3    3  502    0  0.78677883535E+03  0.96141424343E+03 -0.96273730424E+03  0.15716879503E+04  0.12699999809E+01 0.  1.
       -4    1    3    3    0  502 -0.78677883535E+03 -0.96141424343E+03 -0.20355802694E+03  0.12588787735E+04  0.12699999809E+01 0. -1.
</event>
<event>
 5   0  0.2159405E-05  0.2601994E+04  0.7818609E-02  0.8367524E-01
        1   -1    0    0  501    0  0.00000000000E+00  0.00000000000E+00  0.10112682686E+04  0.10112682686E+04  0.50400001928E-02 0. -1.
       -1   -1    0    0    0  501  0.00000000000E+00  0.00000000000E+00 -0.16737330423E+04  0.16737330423E+04  0.50400001928E-02 0.  1.
    10030    2    1    2    0    0  0.00000000000E+00  0.00000000000E+00 -0.66246477373E+03  0.26850013110E+04  0.26019939399E+04 0.  0.
        3    1    3    3  502    0 -0.12882543890E+04 -0.25875092994E+02 -0.14570748476E+03  0.12967264833E+04  0.10100000352E+00 0.  1.
       -3    1    3    3    0  502  0.12882543890E+04  0.25875092994E+02 -0.51675728897E+03  0.13882748276E+04  0.10100000352E+00 0. -1.
</event>
<event>
 5   0  0.2163800E-05  0.2842867E+04  0.7818609E-02  0.8290082E-01
        1   -1    0    0  501    0  0.00000000000E+00  0.00000000000E+00  0.16484381584E+04  0.16484381584E+04  0.50400001928E-02 0.  1.
       -1   -1    0    0    0  501  0.00000000000E+00  0.00000000000E+00 -0.12256893500E+04  0.12256893500E+04  0.50400001928E-02 0. -1.
    10030    2    1    2    0    0  0.00000000000E+00  0.00000000000E+00  0.42274880838E+03  0.28741275084E+04  0.28428669297E+04 0.  0.
        1    1    3    3  502    0 -0.72934103878E+03  0.59991510805E+03  0.12854295152E+04  0.15950440515E+04  0.50400001928E-02 0.  1.
       -1    1    3    3    0  502  0.72934103878E+03 -0.59991510805E+03 -0.86268070685E+03  0.12790834569E+04  0.50400001928E-02 0. -1.
</event>
<event>
 5   0  0.1954502E-05  0.2636023E+04  0.7818609E-02  0.8356067E-01
        1   -1    0    0  501    0  0.00000000000E+00  0.00000000000E+00  0.66221277436E+03  0.66221277438E+03  0.50400001928E-02 0. -1.
       -1   -1    0    0    0  501  0.00000000000E+00  0.00000000000E+00 -0.26232578441E+04  0.26232578441E+04  0.50400001928E-02 0.  1.
    10030    2    1    2    0    0  0.00000000000E+00  0.00000000000E+00 -0.19610450697E+04  0.32854706185E+04  0.26360234103E+04 0.  0.
        4    1    3    3  502    0 -0.45645898390E+03 -0.94238333182E+03  0.17131091901E+02  0.10472517535E+04  0.12699999809E+01 0. -1.
       -4    1    3    3    0  502  0.45645898390E+03  0.94238333182E+03 -0.19781761616E+04  0.22382188650E+04  0.12699999809E+01 0.  1.
</event>
<event>
 5   0  0.5170532E-05  0.2634099E+04  0.7818609E-02  0.8356710E-01
        2   -1    0    0  501    0  0.00000000000E+00  0.00000000000E+00  0.13914369365E+04  0.13914369365E+04  0.25500000920E-02 0.  1.
       -2   -1    0    0    0  501  0.00000000000E+00  0.00000000000E+00 -0.12466392840E+04  0.12466392840E+04  0.25500000920E-02 0. -1.
    10030    2    1    2    0    0  0.00000000000E+00  0.00000000000E+00  0.14479765247E+03  0.26380762205E+04  0.26340994258E+04 0.  0.
        1    1    3    3  502    0 -0.12374820796E+03 -0.77845122235E+02  0.13832853465E+04  0.13909895153E+04  0.50400001928E-02 0.  1.
       -1    1    3    3    0  502  0.12374820796E+03  0.77845122235E+02 -0.12384876940E+04  0.12470867052E+04  0.50400001928E-02 0. -1.
</event>
<event>
 5   0  0.5049803E-05  0.2634921E+04  0.7818609E-02  0.8356435E-01
       -2   -1    0    0    0  501  0.00000000000E+00  0.00000000000E+00  0.97810589608E+03  0.97810589608E+03  0.25500000920E-02 0. -1.
        2   -1    0    0  501    0  0.00000000000E+00  0.00000000000E+00 -0.17745546181E+04  0.17745546181E+04  0.25500000920E-02 0.  1.
    10030    2    1    2    0    0  0.00000000000E+00  0.00000000000E+00 -0.79644872207E+03  0.27526605142E+04  0.26349211259E+04 0.  0.
        4    1    3    3  502    0 -0.58860565177E+03  0.11316734543E+04 -0.74243045426E+03  0.14759220890E+04  0.12699999809E+01 0.  1.
       -4    1    3    3    0  502  0.58860565177E+03 -0.11316734543E+04 -0.54018267810E+02  0.12767384253E+04  0.12699999809E+01 0. -1.
</event>
<event>
 5   0  0.1993815E-05  0.2603411E+04  0.7818609E-02  0.8367043E-01
        1   -1    0    0  501    0  0.00000000000E+00  0.00000000000E+00  0.12192318019E+04  0.12192318019E+04  0.50400001928E-02 0. -1.
       -1   -1    0    0    0  501  0.00000000000E+00  0.00000000000E+00 -0.13897580660E+04  0.13897580660E+04  0.50400001928E-02 0.  1.
    10030    2    1    2    0    0  0.00000000000E+00  0.00000000000E+00 -0.17052626409E+03  0.26089898679E+04  0.26034110171E+04 0.  0.
        5    1    3    3  502    0  0.14994307305E+03 -0.70836960803E+03  0.99878718737E+03  0.12336402889E+04  0.46999998093E+01 0. -1.
       -5    1    3    3    0  502 -0.14994307305E+03  0.70836960803E+03 -0.11693134515E+04  0.13753495790E+04  0.46999998093E+01 0.  1.
</event>
<event>
 5   0  0.5170532E-05  0.2538042E+04  0.7818609E-02  0.8389557E-01
       -2   -1    0    0    0  501  0.00000000000E+00  0.00000000000E+00  0.85307290684E+03  0.85307290685E+03  0.25500000920E-02 0.  1.
        2   -1    0    0  501    0  0.00000000000E+00  0.00000000000E+00 -0.18877801872E+04  0.18877801872E+04  0.25500000920E-02 0. -1.
    10030    2    1    2    0    0  0.00000000000E+00  0.00000000000E+00 -0.10347072804E+04  0.27408530941E+04  0.25380418687E+04 0.  0.
        1    1    3    3  502    0 -0.55198144575E+03 -0.23037702854E+03 -0.17260106307E+04  0.18267100999E+04  0.50400001928E-02 0. -1.
       -1    1    3    3    0  502  0.55198144575E+03  0.23037702854E+03  0.69130335028E+03  0.91414299421E+03  0.50400001928E-02 0.  1.
</event>
<event>
 5   0  0.2159405E-05  0.2594526E+04  0.7818609E-02  0.8370063E-01
        1   -1    0    0  501    0  0.00000000000E+00  0.00000000000E+00  0.22706628601E+04  0.22706628601E+04  0.50400001928E-02 0. -1.
       -1   -1    0    0    0  501  0.00000000000E+00  0.00000000000E+00 -0.74114513377E+03  0.74114513379E+03  0.50400001928E-02 0.  1.
    10030    2    1    2    0    0  0.00000000000E+00  0.00000000000E+00  0.15295177263E+04  0.30118079939E+04  0.25945255668E+04 0.  0.
        3    1    3    3  502    0 -0.99824969392E+03  0.81502232243E+03  0.59208387599E+03  0.14182126652E+04  0.10100000352E+00 0.  1.
       -3    1    3    3    0  502  0.99824969392E+03 -0.81502232243E+03  0.93743385032E+03  0.15935953286E+04  0.10100000352E+00 0. -1.
</event>
<event>
 5   0  0.1698625E-05  0.1420845E+04  0.7818609E-02  0.8938866E-01
        3   -1    0    0  501    0  0.00000000000E+00  0.00000000000E+00  0.10623151154E+04  0.10623151202E+04  0.10100000352E+00 0.  1.
       -3   -1    0    0    0  501  0.00000000000E+00  0.00000000000E+00 -0.47509466677E+03  0.47509467751E+03  0.10100000352E+00 0. -1.
    10030    2    1    2    0    0  0.00000000000E+00  0.00000000000E+00  0.58722044862E+03  0.15374097977E+04  0.14208451818E+04 0.  0.
        4    1    3    3  502    0  0.14784000242E+03  0.44357562045E+03 -0.28513663013E+03  0.54764998687E+03  0.12699999809E+01 0. -1.
       -4    1    3    3    0  502 -0.14784000242E+03 -0.44357562045E+03  0.87235707875E+03  0.98975981083E+03  0.12699999809E+01 0.  1.
</event>
<event>
 5   0  0.1993815E-05  0.3411514E+04  0.7818609E-02  0.8135086E-01
       -1   -1    0    0    0  501  0.00000000000E+00  0.00000000000E+00  0.16245483010E+04  0.16245483010E+04  0.50400001928E-02 0. -1.
        1   -1    0    0  501    0  0.00000000000E+00  0.00000000000E+00 -0.17910247872E+04  0.17910247872E+04  0.50400001928E-02 0.  1.
    10030    2    1    2    0    0  0.00000000000E+00  0.00000000000E+00 -0.16647648619E+03  0.34155730882E+04  0.34115136084E+04 0.  0.
        5    1    3    3  502    0 -0.68385878347E+03 -0.41441151769E+02 -0.16472122852E+04  0.17840153047E+04  0.46999998093E+01 0.  1.
       -5    1    3    3    0  502  0.68385878347E+03  0.41441151769E+02  0.14807357990E+04  0.16315577836E+04  0.46999998093E+01 0. -1.
</event>
<event>
 5   0  0.2072710E-05  0.2089994E+04  0.7818609E-02  0.8565664E-01
       -1   -1    0    0    0  501  0.00000000000E+00  0.00000000000E+00  0.12473985879E+04  0.12473985879E+04  0.50400001928E-02 0. -1.
        1   -1    0    0  501    0  0.00000000000E+00  0.00000000000E+00 -0.87543675696E+03  0.87543675697E+03  0.50400001928E-02 0.  1.
    10030    2    1    2    0    0  0.00000000000E+00  0.00000000000E+00  0.37196183096E+03  0.21228353449E+04  0.20899938512E+04 0.  0.
        2    1    3    3  502    0 -0.84139346204E+03  0.44132174901E+03 -0.25595461289E+03  0.98398201608E+03  0.25500000920E-02 0.  1.
       -2    1    3    3    0  502  0.84139346204E+03 -0.44132174901E+03  0.62791644385E+03  0.11388533288E+04  0.25500000920E-02 0. -1.
</event>
<event>
 5   0  0.4955675E-05  0.1848239E+04  0.7818609E-02  0.8681059E-01
        2   -1    0    0  501    0  0.00000000000E+00  0.00000000000E+00  0.15906658904E+04  0.15906658904E+04  0.25500000920E-02 0. -1.
       -2   -1    0    0    0  501  0.00000000000E+00  0.00000000000E+00 -0.53688035605E+03  0.53688035606E+03  0.25500000920E-02 0.  1.
    10030    2    1    2    0    0  0.00000000000E+00  0.00000000000E+00  0.10537855344E+04  0.21275462465E+04  0.18482394538E+04 0.  0.
        5    1    3    3  502    0  0.21458942904E+02 -0.88862746046E+03  0.23600772527E+03  0.91969613792E+03  0.46999998093E+01 0. -1.
       -5    1    3    3    0  502 -0.21458942904E+02  0.88862746046E+03  0.81777780911E+03  0.12078501086E+04  0.46999998093E+01 0.  1.
</event>
<event>
 5   0  0.5049803E-05  0.2450082E+04  0.7818609E-02  0.8420988E-01
       -2   -1    0    0    0  501  0.00000000000E+00  0.00000000000E+00  0.83035537771E+03  0.83035537771E+03  0.25500000920E-02 0. -1.
        2   -1    0    0  501    0  0.00000000000E+00  0.00000000000E+00 -0.18073295531E+04  0.18073295531E+04  0.25500000920E-02 0.  1.
    10030    2    1    2    0    0  0.00000000000E+00  0.00000000000E+00 -0.97697417540E+03  0.26376849308E+04  0.24500822955E+04 0.  0.
        4    1    3    3  502    0 -0.33819775954E+03  0.52899338611E+03  0.64396647701E+03  0.89939210777E+03  0.12699999809E+01 0. -1.
       -4    1    3    3    0  502  0.33819775954E+03 -0.52899338611E+03 -0.16209406524E+04  0.17382928230E+04  0.12699999809E+01 0.  1.
</event>
<event>
 5   0  0.2163800E-05  0.2542917E+04  0.7818609E-02  0.8387854E-01
       -1   -1    0    0    0  501  0.00000000000E+00  0.00000000000E+00  0.78612895055E+03  0.78612895056E+03  0.50400001928E-02 0.  1.
        1   -1    0    0  501    0  0.00000000000E+00  0.00000000000E+00 -0.20564142303E+04  0.20564142303E+04  0.50400001928E-02 0. -1.
    10030    2    1    2    0    0  0.00000000000E+00  0.00000000000E+00 -0.12702852798E+04  0.28425431809E+04  0.25429170343E+04 0.  0.
        1    1    3    3  502    0 -0.86665672072E+03 -0.92949734086E+03 -0.67911722894E+03  0.14409231030E+04  0.50400001928E-02 0.  1.
       -1    1    3    3    0  502  0.86665672072E+03  0.92949734086E+03 -0.59116805082E+03  0.14016200778E+04  0.50400001928E-02 0. -1.
</event>
<event>
 5   0  0.4955675E-05  0.2597186E+04  0.7818609E-02  0.8369158E-01
       -2   -1    0    0    0  501  0.00000000000E+00  0.00000000000E+00  0.13151881706E+04  0.13151881706E+04  0.25500000920E-02 0.  1.
        2   -1    0    0  501    0  0.00000000000E+00  0.00000000000E+00 -0.12822071657E+04  0.12822071657E+04  0.25500000920E-02 0. -1.
    10030    2    1    2    0    0  0.00000000000E+00  0.00000000000E+00  0.32981004896E+02  0.25973953363E+04  0.25971859361E+04 0.  0.
        5    1    3    3  502    0 -0.46188144760E+03  0.41633383619E+03  0.11566057824E+04  0.13131745355E+04  0.46999998093E+01 0.  1.
       -5    1    3    3    0  502  0.46188144760E+03 -0.41633383619E+03 -0.11236247775E+04  0.12842208009E+04  0.46999998093E+01 0. -1.
</event>
<event>
 5   0  0.1993815E-05  0.2439079E+04  0.7818609E-02  0.8425016E-01
        1   -1    0    0  501    0  0.00000000000E+00  0.00000000000E+00  0.10919713864E+04  0.10919713864E+04  0.50400001928E-02 0.  1.
       -1   -1    0    0    0  501  0.00000000000E+00  0.00000000000E+00 -0.13620106246E+04  0.13620106246E+04  0.50400001928E-02 0. -1.
    10030    2    1    2    0    0  0.00000000000E+00  0.00000000000E+00 -0.27003923815E+03  0.24539820110E+04  0.24390790312E+04 0.  0.
        5    1    3    3  502    0  0.71967044694E+03 -0.65139302361E+03 -0.87778247037E+03  0.13087255551E+04  0.46999998093E+01 0. -1.
       -5    1    3    3    0  502 -0.71967044694E+03  0.65139302361E+03  0.60774323222E+03  0.11452564559E+04  0.46999998093E+01 0.  1.
</event>
<event>
 5   0  0.5182179E-05  0.2560745E+04  0.7818609E-02  0.8381659E-01
        2   -1    0    0  501    0  0.00000000000E+00  0.00000000000E+00  0.13582868628E+04  0.13582868628E+04  0.25500000920E-02 0.  1.
       -2   -1    0    0    0  501  0.00000000000E+00  0.00000000000E+00 -0.12069270737E+04  0.12069270737E+04  0.25500000920E-02 0. -1.
    10030    2    1    2    0    0  0.00000000000E+00  0.00000000000E+00  0.15135978912E+03  0.25652139366E+04  0.25607445703E+04 0.  0.
        3    1    3    3  502    0 -0.74667910004E+03  0.69009415187E+02 -0.96394703585E+03  0.12212640484E+04  0.10100000352E+00 0. -1.
       -3    1    3    3    0  502  0.74667910004E+03 -0.69009415187E+02  0.11153068250E+04  0.13439498881E+04  0.10100000352E+00 0.  1.
</event>
<event>
 5   0  0.4955675E-05  0.2554410E+04  0.7818609E-02  0.8383854E-01
        2   -1    0    0  501    0  0.00000000000E+00  0.00000000000E+00  0.17983773744E+04  0.17983773744E+04  0.25500000920E-02 0. -1.
       -2   -1    0    0    0  501  0.00000000000E+00  0.00000000000E+00 -0.90706926013E+03  0.90706926013E+03  0.25500000920E-02 0.  1.
    10030    2    1    2    0    0  0.00000000000E+00  0.00000000000E+00  0.89130811426E+03  0.27054466345E+04  0.25544101741E+04 0.  0.
        5    1    3    3  502    0 -0.56223294899E+03 -0.62878924286E+03  0.14613950627E+04  0.16873587112E+04  0.46999998093E+01 0. -1.
       -5    1    3    3    0  502  0.56223294899E+03  0.62878924286E+03 -0.57008694845E+03  0.10180879233E+04  0.46999998093E+01 0.  1.
</event>
<event>
 5   0  0.1954502E-05  0.2749188E+04  0.7818609E-02  0.8319219E-01
        1   -1    0    0  501    0  0.00000000000E+00  0.00000000000E+00  0.16400212597E+04  0.16400212598E+04  0.50400001928E-02 0. -1.
       -1   -1    0    0    0  501  0.00000000000E+00  0.00000000000E+00 -0.11521242898E+04  0.11521242898E+04  0.50400001928E-02 0.  1.
    10030    2    1    2    0    0  0.00000000000E+00  0.00000000000E+00  0.48789696999E+03  0.27921455495E+04  0.27491877558E+04 0.  0.
        4    1    3    3  502    0 -0.81967258540E+03 -0.24960499950E+03 -0.84771486214E+03  0.12053165159E+04  0.12699999809E+01 0.  1.
       -4    1    3    3    0  502  0.81967258540E+03  0.24960499950E+03  0.13356118321E+04  0.15868290337E+04  0.12699999809E+01 0. -1.
</event>
<event>
 5   0  0.5182179E-05  0.2532779E+04  0.7818609E-02  0.8391400E-01
       -2   -1    0    0    0  501  0.00000000000E+00  0.00000000000E+00  0.89911025557E+03  0.89911025558E+03  0.25500000920E-02 0.  1.
        2   -1    0    0  501    0  0.00000000000E+00  0.00000000000E+00 -0.17836992738E+04  0.17836992738E+04  0.25500000920E-02 0. -1.
    10030    2    1    2    0    0  0.00000000000E+00  0.00000000000E+00 -0.88458901825E+03  0.26828095294E+04  0.25327789560E+04 0.  0.
        3    1    3    3  502    0 -0.27464080308E+03 -0.82507023171E+03  0.53287771689E+03  0.10198662311E+04  0.10100000352E+00 0.  1.
       -3    1    3    3    0  502  0.27464080308E+03  0.82507023171E+03 -0.14174667351E+04  0.16629432983E+04  0.10100000352E+00 0. -1.
</event>
<event>
 5   0  0.5036452E-05  0.2612051E+04  0.7818609E-02  0.8364119E-01
        2   -1    0    0  501    0  0.00000000000E+00  0.00000000000E+00  0.18122123091E+04  0.18122123091E+04  0.25500000920E-02 0.  1.
       -2   -1    0    0    0  501  0.00000000000E+00  0.00000000000E+00 -0.94122665542E+03  0.94122665542E+03  0.25500000920E-02 0. -1.
    10030    2    1    2    0    0  0.00000000000E+00  0.00000000000E+00  0.87098565370E+03  0.27534389645E+04  0.26120509418E+04 0.  0.
        2    1    3    3  502    0  0.50927540852E+03  0.45142340292E+03 -0.73954580806E+03  0.10050236478E+04  0.25500000920E-02 0. -1.
       -2    1    3    3    0  502 -0.50927540852E+03 -0.45142340292E+03  0.16105314618E+04  0.17484153167E+04  0.25500000920E-02 0.  1.
</event>
<event>
 5   0  0.5049803E-05  0.1417972E+04  0.7818609E-02  0.8940911E-01
        2   -1    0    0  501    0  0.00000000000E+00  0.00000000000E+00  0.14333210592E+04  0.14333210592E+04  0.25500000920E-02 0. -1.
       -2   -1    0    0    0  501  0.00000000000E+00  0.00000000000E+00 -0.35069678551E+03  0.35069678552E+03  0.25500000920E-02 0.  1.
    10030    2    1    2    0    0  0.00000000000E+00  0.00000000000E+00  0.10826242737E+04  0.17840178447E+04  0.14179719152E+04 0.  0.
        4    1    3    3  502    0 -0.82908081193E+02 -0.59871988179E+03  0.75083630825E+02  0.60907997118E+03  0.12699999809E+01 0.  1.
       -4    1    3    3    0  502  0.82908081193E+02  0.59871988179E+03  0.10075406428E+04  0.11749378735E+04  0.12699999809E+01 0. -1.
</event>
<event>
 5   0  0.4955675E-05  0.2571777E+04  0.7818609E-02  0.8377851E-01
        2   -1    0    0  501    0  0.00000000000E+00  0.00000000000E+00  0.24500870133E+04  0.24500870133E+04  0.25500000920E-02 0. -1.
       -2   -1    0    0    0  501  0.00000000000E+00  0.00000000000E+00 -0.67487801302E+03  0.67487801303E+03  0.25500000920E-02 0.  1.
    10030    2    1    2    0    0  0.00000000000E+00  0.00000000000E+00  0.17752090003E+04  0.31249650264E+04  0.25717774828E+04 0.  0.
        5    1    3    3  502    0 -0.67536455750E+03  0.39647551226E+03 -0.35166434054E+03  0.85848705043E+03  0.46999998093E+01 0.  1.
       -5    1    3    3    0  502  0.67536455750E+03 -0.39647551226E+03  0.21268733409E+04  0.22664779759E+04  0.46999998093E+01 0. -1.
</event>
<event>
 5   0  0.5170532E-05  0.2760783E+04  0.7818609E-02  0.8315548E-01
       -2   -1    0    0    0  501  0.00000000000E+00  0.00000000000E+00  0.96590545048E+03  0.96590545048E+03  0.25500000920E-02 0.  1.
        2   -1    0    0  501    0  0.00000000000E+00  0.00000000000E+00 -0.19727401924E+04  0.19727401924E+04  0.25500000920E-02 0. -1.
    10030    2    1    2    0    0  0.00000000000E+00  0.00000000000E+00 -0.10068347419E+04  0.29386456428E+04  0.27607828630E+04 0.  0.
        1    1    3    3  502    0  0.11549930680E+04 -0.49183227305E+03 -0.11144866826E+04  0.16786865513E+04  0.50400001928E-02 0. -1.
       -1    1    3    3    0  502 -0.11549930680E+04  0.49183227305E+03  0.10765194077E+03  0.12599590915E+04  0.50400001928E-02 0.  1.
</event>
<event>
 5   0  0.5170532E-05  0.1725016E+04  0.7818609E-02  0.8747224E-01
        2   -1    0    0  501    0  0.00000000000E+00  0.00000000000E+00  0.10066331854E+04  0.10066331854E+04  0.25500000920E-02 0. -1.
       -2   -1    0    0    0  501  0.00000000000E+00  0.00000000000E+00 -0.73901789068E+03  0.73901789068E+03  0.25500000920E-02 0.  1.
    10030    2    1    2    0    0  0.00000000000E+00  0.00000000000E+00  0.26761529476E+03  0.17456510761E+04  0.17250158647E+04 0.  0.
        1    1    3    3  502    0  0.27872206248E+02  0.32781114081E+03 -0.67302715213E+03  0.74913453495E+03  0.50400001928E-02 0.  1.
       -1    1    3    3    0  502 -0.27872206248E+02 -0.32781114081E+03  0.94064244689E+03  0.99651654117E+03  0.50400001928E-02 0. -1.
</event>
<event>
 5   0  0.2163800E-05  0.2619279E+04  0.7818609E-02  0.8361682E-01
       -1   -1    0    0    0  501  0.00000000000E+00  0.00000000000E+00  0.10248405527E+04  0.10248405527E+04  0.50400001928E-02 0. -1.
        1   -1    0    0  501    0  0.00000000000E+00  0.00000000000E+00 -0.16735831403E+04  0.16735831403E+04  0.50400001928E-02 0.  1.
    10030    2    1    2    0    0  0.00000000000E+00  0.00000000000E+00 -0.64874258760E+03  0.26984236930E+04  0.26192791913E+04 0.  0.
        1    1    3    3  502    0  0.11098733027E+04  0.65035748750E+03 -0.57750330451E+03  0.14100686779E+04  0.50400001928E-02 0.  1.
       -1    1    3    3    0  502 -0.11098733027E+04 -0.65035748750E+03 -0.71239283089E+02  0.12883550151E+04  0.50400001928E-02 0. -1.
</event>
<event>
 5   0  0.2072710E-05  0.2654680E+04  0.7818609E-02  0.8349861E-01
        1   -1    0    0  501    0  0.00000000000E+00  0.00000000000E+00  0.11859402569E+04  0.11859402569E+04  0.50400001928E-02 0.  1.
       -1   -1    0    0    0  501  0.00000000000E+00  0.00000000000E+00 -0.14855983454E+04  0.14855983454E+04  0.50400001928E-02 0. -1.
    10030    2    1    2    0    0  0.00000000000E+00  0.00000000000E+00 -0.29965808850E+03  0.26715386023E+04  0.26546795538E+04 0.  0.
        2    1    3    3  502    0  0.24669277481E+03  0.43699645534E+03 -0.13864566113E+04  0.14744779287E+04  0.25500000920E-02 0. -1.
       -2    1    3    3    0  502 -0.24669277481E+03 -0.43699645534E+03  0.10867985228E+04  0.11970606736E+04  0.25500000920E-02 0.  1.
</event>
<event>
 5   0  0.5170532E-05  0.2331166E+04  0.7818609E-02  0.8465733E-01
        2   -1    0    0  501    0  0.00000000000E+00  0.00000000000E+00  0.10756146796E+04  0.10756146796E+04  0.25500000920E-02 0. -1.
       -2   -1    0    0    0  501  0.00000000000E+00  0.00000000000E+00 -0.12630761460E+04  0.12630761460E+04  0.25500000920E-02 0.  1.
    10030    2    1    2    0    0  0.00000000000E+00  0.00000000000E+00 -0.18746146641E+03  0.23386908255E+04  0.23311655831E+04 0.  0.
        1    1    3    3  502    0 -0.10974366337E+04 -0.20205605623E+03  0.24408974620E+03  0.11422668773E+04  0.50400001928E-02 0. -1.
       -1    1    3    3    0  502  0.10974366337E+04  0.20205605623E+03 -0.43155121261E+03  0.11964239482E+04  0.50400001928E-02 0.  1.
</event>
<event>
 5   0  0.1993815E-05  0.2645200E+04  0.7818609E-02  0.8353008E-01
       -1   -1    0    0    0  501  0.00000000000E+00  0.00000000000E+00  0.18703687549E+04  0.18703687549E+04  0.50400001928E-02 0. -1.
        1   -1    0    0  501    0  0.00000000000E+00  0.00000000000E+00 -0.93525482114E+03  0.93525482115E+03  0.50400001928E-02 0.  1.
    10030    2    1    2    0    0  0.00000000000E+00  0.00000000000E+00  0.93511393375E+03  0.28056235760E+04  0.26452004804E+04 0.  0.
        5    1    3    3  502    0  0.65184035969E+02 -0.70296711773E+03 -0.71867949618E+03  0.10074393458E+04  0.46999998093E+01 0.  1.
       -5    1    3    3    0  502 -0.65184035969E+02  0.70296711773E+03  0.16537934299E+04  0.17981842303E+04  0.46999998093E+01 0. -1.
</event>
<event>
 5   0  0.4955675E-05  0.2583607E+04  0.7818609E-02  0.8373791E-01
        2   -1    0    0  501    0  0.00000000000E+00  0.00000000000E+00  0.12965708790E+04  0.12965708790E+04  0.25500000920E-02 0. -1.
       -2   -1    0    0    0  501  0.00000000000E+00  0.00000000000E+00 -0.12870536338E+04  0.12870536338E+04  0.25500000920E-02 0.  1.
    10030    2    1    2    0    0  0.00000000000E+00  0.00000000000E+00  0.95172451733E+01  0.25836245128E+04  0.25836069835E+04 0.  0.
        5    1    3    3  502    0  0.14196044190E+03  0.37741604541E+03  0.12320153075E+04  0.12963330769E+04  0.46999998093E+01 0. -1.
       -5    1    3    3    0  502 -0.14196044190E+03 -0.37741604541E+03 -0.12224980623E+04  0.12872914359E+04  0.46999998093E+01 0.  1.
</event>
<event>
 5   0  0.2159405E-05  0.2559092E+04  0.7818609E-02  0.8382231E-01
        1   -1    0    0  501    0  0.00000000000E+00  0.00000000000E+00  0.12028212515E+04  0.12028212516E+04  0.50400001928E-02 0. -1.
       -1   -1    0    0    0  501  0.00000000000E+00  0.00000000000E+00 -0.13611642908E+04  0.13611642908E+04  0.50400001928E-02 0.  1.
    10030    2    1    2    0    0  0.00000000000E+00  0.00000000000E+00 -0.15834303922E+03  0.25639855423E+04  0.25590915074E+04 0.  0.
        3    1    3    3  502    0 -0.88572501904E+03 -0.92319284326E+03 -0.10027100512E+03  0.12832958037E+04  0.10100000352E+00 0. -1.
       -3    1    3    3    0  502  0.88572501904E+03  0.92319284326E+03 -0.58072034103E+02  0.12806897386E+04  0.10100000352E+00 0.  1.
</event>
<event>
 5   0  0.5036452E-05  0.2631509E+04  0.7818609E-02  0.8357577E-01
        2   -1    0    0  501    0  0.00000000000E+00  0.00000000000E+00  0.14712326168E+04  0.14712326168E+04  0.25500000920E-02 0.  1.
       -2   -1    0    0    0  501  0.00000000000E+00  0.00000000000E+00 -0.11767067951E+04  0.11767067951E+04  0.25500000920E-02 0. -1.
    10030    2    1    2    0    0  0.00000000000E+00  0.00000000000E+00  0.29452582174E+03  0.26479394119E+04  0.26315086300E+04 0.  0.
        2    1    3    3  502    0 -0.84050869257E+03 -0.90294247738E+03  0.60777691803E+03  0.13751919000E+04  0.25500000920E-02 0.  1.
       -2    1    3    3    0  502  0.84050869257E+03  0.90294247738E+03 -0.31325109629E+03  0.12727475119E+04  0.25500000920E-02 0. -1.
</event>
<event>
 5   0  0.1954502E-05  0.1897170E+04  0.7818609E-02  0.8656266E-01
       -1   -1    0    0    0  501  0.00000000000E+00  0.00000000000E+00  0.92584285847E+03  0.92584285849E+03  0.50400001928E-02 0.  1.
        1   -1    0    0  501    0  0.00000000000E+00  0.00000000000E+00 -0.97188597733E+03  0.97188597735E+03  0.50400001928E-02 0. -1.
    10030    2    1    2    0    0  0.00000000000E+00  0.00000000000E+00 -0.46043118859E+02  0.18977288358E+04  0.18971701994E+04 0.  0.
        4    1    3    3  502    0  0.67958647133E+03  0.65063384053E+03  0.98050901758E+02  0.94592693095E+03  0.12699999809E+01 0.  1.
       -4    1    3    3    0  502 -0.67958647133E+03 -0.65063384053E+03 -0.14409402062E+03  0.95180190488E+03  0.12699999809E+01 0. -1.
</event>
<event>
 5   0  0.1993815E-05  0.2620014E+04  0.7818609E-02  0.8361434E-01
        1   -1    0    0  501    0  0.00000000000E+00  0.00000000000E+00  0.18320043900E+04  0.18320043900E+04  0.50400001928E-02 0.  1.
       -1   -1    0    0    0  501  0.00000000000E+00  0.00000000000E+00 -0.93674377529E+03  0.93674377530E+03  0.50400001928E-02 0. -1.
    10030    2    1    2    0    0  0.00000000000E+00  0.00000000000E+00  0.89526061468E+03  0.27687481653E+04  0.26200142814E+04 0.  0.
        5    1    3    3  502    0 -0.18190387591E+03 -0.10750980969E+04  0.12149137617E+04  0.16324712789E+04  0.46999998093E+01 0. -1.
       -5    1    3    3    0  502  0.18190387591E+03  0.10750980969E+04 -0.31965314704E+03  0.11362768864E+04  0.46999998093E+01 0.  1.
</event>
<event>
 5   0  0.2159405E-05  0.2568666E+04  0.7818609E-02  0.8378923E-01
        1   -1    0    0  501    0  0.00000000000E+00  0.00000000000E+00  0.11013562128E+04  0.11013562128E+04  0.50400001928E-02 0. -1.
       -1   -1    0    0    0  501  0.00000000000E+00  0.00000000000E+00 -0.14977085993E+04  0.14977085993E+04  0.50400001928E-02 0.  1.
    10030    2    1    2    0    0  0.00000000000E+00  0.00000000000E+00 -0.39635238648E+03  0.25990648121E+04  0.25686655452E+04 0.  0.
        3    1    3    3  502    0 -0.12976988843E+03 -0.17671887767E+03 -0.14786332082E+04  0.14947996388E+04  0.10100000352E+00 0.  1.
       -3    1    3    3    0  502  0.12976988843E+03  0.17671887767E+03  0.10822808217E+04  0.11042651733E+04  0.10100000352E+00 0. -1.
</event>
<event>
 5   0  0.2072710E-05  0.2544171E+04  0.7818609E-02  0.8387416E-01
        1   -1    0    0  501    0  0.00000000000E+00  0.00000000000E+00  0.87832430110E+03  0.87832430111E+03  0.50400001928E-02 0. -1.
       -1   -1    0    0    0  501  0.00000000000E+00  0.00000000000E+00 -0.18423742785E+04  0.18423742785E+04  0.50400001928E-02 0.  1.
    10030    2    1    2    0    0  0.00000000000E+00  0.00000000000E+00 -0.96404997737E+03  0.27206985796E+04  0.25441714569E+04 0.  0.
        2    1    3    3  502    0  0.14505532310E+03  0.10995442328E+04  0.18423145213E+03  0.11242685598E+04  0.25500000920E-02 0. -1.
       -2    1    3    3    0  502 -0.14505532310E+03 -0.10995442328E+04 -0.11482814295E+04  0.15964300198E+04  0.25500000920E-02 0.  1.
</event>
<event>
 5   0  0.5182179E-05  0.2560163E+04  0.7818609E-02  0.8381860E-01
       -2   -1    0    0    0  501  0.00000000000E+00  0.00000000000E+00  0.61039381591E+03  0.61039381592E+03  0.25500000920E-02 0. -1.
        2   -1    0    0  501    0  0.00000000000E+00  0.00000000000E+00 -0.26845100520E+04  0.26845100520E+04  0.25500000920E-02 0.  1.
    10030    2    1    2    0    0  0.00000000000E+00  0.00000000000E+00 -0.20741162360E+04  0.32949038679E+04  0.25601627561E+04 0.  0.
        3    1    3    3  502    0 -0.21416041519E+03 -0.12531329040E+04 -0.12296838758E+04  0.17687083432E+04  0.10100000352E+00 0.  1.
       -3    1    3    3    0  502  0.21416041519E+03  0.12531329040E+04 -0.84443236020E+03  0.15261955247E+04  0.10100000352E+00 0. -1.
</event>
<event>
 5   0  0.5170532E-05  0.2517885E+04  0.7818609E-02  0.8396641E-01
        2   -1    0    0  501    0  0.00000000000E+00  0.00000000000E+00  0.12583388103E+04  0.12583388103E+04  0.25500000920E-02 0. -1.
       -2   -1    0    0    0  501  0.00000000000E+00  0.00000000000E+00 -0.12595464741E+04  0.12595464741E+04  0.25500000920E-02 0.  1.
    10030    2    1    2    0    0  0.00000000000E+00  0.00000000000E+00 -0.12076638558E+01  0.25178852844E+04  0.25178849948E+04 0.  0.
        1    1    3    3  502    0  0.20848796064E+03  0.78656305148E+03 -0.96122225791E+03  0.12594033876E+04  0.50400001928E-02 0.  1.
       -1    1    3    3    0  502 -0.20848796064E+03 -0.78656305148E+03  0.96001459405E+03  0.12584818968E+04  0.50400001928E-02 0. -1.
</event>
<event>
 5   0  0.2072710E-05  0.2092783E+04  0.7818609E-02  0.8564429E-01
        1   -1    0    0  501    0  0.00000000000E+00  0.00000000000E+00  0.20098518649E+04  0.20098518650E+04  0.50400001928E-02 0. -1.
       -1   -1    0    0    0  501  0.00000000000E+00  0.00000000000E+00 -0.54478415906E+03  0.54478415908E+03  0.50400001928E-02 0.  1.
    10030    2    1    2    0    0  0.00000000000E+00  0.00000000000E+00  0.14650677059E+04  0.25546360240E+04  0.20927832741E+04 0.  0.
        2    1    3    3  502    0  0.49368638085E+03  0.62905378136E+03  0.15563859128E+04  0.17497919911E+04  0.25500000920E-02 0. -1.
       -2    1    3    3    0  502 -0.49368638085E+03 -0.62905378136E+03 -0.91318206899E+02  0.80484403296E+03  0.25500000920E-02 0.  1.
</event>
<event>
 5   0  0.1954502E-05  0.2438829E+04  0.7818609E-02  0.8425108E-01
       -1   -1    0    0    0  501  0.00000000000E+00  0.00000000000E+00  0.85729627105E+03  0.85729627106E+03  0.50400001928E-02 0. -1.
        1   -1    0    0  501    0  0.00000000000E+00  0.00000000000E+00 -0.17344898238E+04  0.17344898238E+04  0.50400001928E-02 0.  1.
    10030    2    1    2    0    0  0.00000000000E+00  0.00000000000E+00 -0.87719355275E+03  0.25917860949E+04  0.24388289470E+04 0.  0.
        4    1    3    3  502    0  0.75091552801E+03  0.16303810360E+03  0.56763139355E+03  0.95533374549E+03  0.12699999809E+01 0. -1.
       -4    1    3    3    0  502 -0.75091552801E+03 -0.16303810360E+03 -0.14448249463E+04  0.16364523494E+04  0.12699999809E+01 0.  1.
</event>
<event>
 5   0  0.2159405E-05  0.2527598E+04  0.7818609E-02  0.8393219E-01
        1   -1    0    0  501    0  0.00000000000E+00  0.00000000000E+00  0.16833338821E+04  0.16833338821E+04  0.50400001928E-02 0. -1.
       -1   -1    0    0    0  501  0.00000000000E+00  0.00000000000E+00 -0.94882388463E+03  0.94882388464E+03  0.50400001928E-02 0.  1.
    10030    2    1    2    0    0  0.00000000000E+00  0.00000000000E+00  0.73450999743E+03  0.26321577667E+04  0.25275975891E+04 0.  0.
        3    1    3    3  502    0  0.37876468988E+03 -0.59678632706E+03 -0.72373369750E+03  0.10116358463E+04  0.10100000352E+00 0.  1.
       -3    1    3    3    0  502 -0.37876468988E+03  0.59678632706E+03  0.14582436949E+04  0.16205219204E+04  0.10100000352E+00 0. -1.
</event>
<event>
 5   0  0.1954502E-05  0.2656907E+04  0.7818609E-02  0.8349124E-01
        1   -1    0    0  501    0  0.00000000000E+00  0.00000000000E+00  0.12761606391E+04  0.12761606391E+04  0.50400001928E-02 0.  1.
       -1   -1    0    0    0  501  0.00000000000E+00  0.00000000000E+00 -0.13828889769E+04  0.13828889769E+04  0.50400001928E-02 0. -1.
    10030    2    1    2    0    0  0.00000000000E+00  0.00000000000E+00 -0.10672833777E+03  0.26590496160E+04  0.26569068335E+04 0.  0.
        4    1    3    3  502    0 -0.91749280419E+01  0.80830200220E+03  0.10016921718E+04  0.12871771929E+04  0.12699999809E+01 0.  1.
       -4    1    3    3    0  502  0.91749280419E+01 -0.80830200220E+03 -0.11084205096E+04  0.13718724230E+04  0.12699999809E+01 0. -1.
</event>
<event>
 5   0  0.5036452E-05  0.1630435E+04  0.7818609E-02  0.8802066E-01
       -2   -1    0    0    0  501  0.00000000000E+00  0.00000000000E+00  0.47145397367E+03  0.47145397368E+03  0.25500000920E-02 0.  1.
        2   -1    0    0  501    0  0.00000000000E+00  0.00000000000E+00 -0.14096388287E+04  0.14096388287E+04  0.25500000920E-02 0. -1.
    10030    2    1    2    0    0  0.00000000000E+00  0.00000000000E+00 -0.93818485503E+03  0.18810928024E+04  0.16304353127E+04 0.  0.
        2    1    3    3  502    0 -0.75741716365E+03 -0.35425380866E+02 -0.81452837360E+03  0.11128307099E+04  0.25500000920E-02 0. -1.
       -2    1    3    3    0  502  0.75741716365E+03  0.35425380866E+02 -0.12365648143E+03  0.76826209253E+03  0.25500000920E-02 0.  1.
</event>
<event>
 5   0  0.5170532E-05  0.1547718E+04  0.7818609E-02  0.8853327E-01
        2   -1    0    0  501    0  0.00000000000E+00  0.00000000000E+00  0.34691719577E+03  0.34691719578E+03  0.25500000920E-02 0.  1.
       -2   -1    0    0    0  501  0.00000000000E+00  0.00000000000E+00 -0.17262267695E+04  0.17262267695E+04  0.25500000920E-02 0. -1.
    10030    2    1    2    0    0  0.00000000000E+00  0.00000000000E+00 -0.13793095737E+04  0.20731439653E+04  0.15477179978E+04 0.  0.
        1    1    3    3  502    0  0.43905049546E+03  0.28855716479E+03  0.71411828868E+02  0.53021714819E+03  0.50400001928E-02 0.  1.
       -1    1    3    3    0  502 -0.43905049546E+03 -0.28855716479E+03 -0.14507214026E+04  0.15429268171E+04  0.50400001928E-02 0. -1.
</event>
<event>
 5   0  0.2163800E-05  0.2290740E+04  0.7818609E-02  0.8481581E-01
       -1   -1    0    0    0  501  0.00000000000E+00  0.00000000000E+00  0.10563974924E+04  0.10563974924E+04  0.50400001928E-02 0. -1.
        1   -1    0    0  501    0  0.00000000000E+00  0.00000000000E+00 -0.12418359314E+04  0.12418359314E+04  0.50400001928E-02 0.  1.
    10030    2    1    2    0    0  0.00000000000E+00  0.00000000000E+00 -0.18543843899E+03  0.22982334239E+04  0.22907399363E+04 0.  0.
        1    1    3    3  502    0  0.20612410527E+03 -0.46464800152E+03  0.93703370178E+03  0.10660286443E+04  0.50400001928E-02 0. -1.
       -1    1    3    3    0  502 -0.20612410527E+03  0.46464800152E+03 -0.11224721408E+04  0.12322047796E+04  0.50400001928E-02 0.  1.
</event>
<event>
 5   0  0.5036452E-05  0.2586602E+04  0.7818609E-02  0.8372767E-01
       -2   -1    0    0    0  501  0.00000000000E+00  0.00000000000E+00  0.77127618137E+03  0.77127618138E+03  0.25500000920E-02 0.  1.
        2   -1    0    0  501    0  0.00000000000E+00  0.00000000000E+00 -0.21686486332E+04  0.21686486332E+04  0.25500000920E-02 0. -1.
    10030    2    1    2    0    0  0.00000000000E+00  0.00000000000E+00 -0.13973724518E+04  0.29399248145E+04  0.25866016597E+04 0.  0.
        2    1    3    3  502    0 -0.46660979642E+02 -0.12683608875E+04 -0.98103507625E+03  0.16041653309E+04  0.25500000920E-02 0. -1.
       -2    1    3    3    0  502  0.46660979642E+02  0.12683608875E+04 -0.41633737553E+03  0.13357594837E+04  0.25500000920E-02 0.  1.
</event>
<event>
 5   0  0.2159405E-05  0.1817365E+04  0.7818609E-02  0.8697119E-01
        1   -1    0    0  501    0  0.00000000000E+00  0.00000000000E+00  0.78243212533E+03  0.78243212535E+03  0.50400001928E-02 0.  1.
       -1   -1    0    0    0  501  0.00000000000E+00  0.00000000000E+00 -0.10553037330E+04  0.10553037330E+04  0.50400001928E-02 0. -1.
    10030    2    1    2    0    0  0.00000000000E+00  0.00000000000E+00 -0.27287160767E+03  0.18377358584E+04  0.18173646224E+04 0.  0.
        3    1    3    3  502    0  0.35753346025E+03  0.58044855228E+03 -0.74396373395E+03  0.10090751928E+04  0.10100000352E+00 0. -1.
       -3    1    3    3    0  502 -0.35753346025E+03 -0.58044855228E+03  0.47109212628E+03  0.82866066559E+03  0.10100000352E+00 0.  1.
</event>
<event>
 5   0  0.5170532E-05  0.2169172E+04  0.7818609E-02  0.8531370E-01
        2   -1    0    0  501    0  0.00000000000E+00  0.00000000000E+00  0.14345314429E+04  0.14345314429E+04  0.25500000920E-02 0.  1.
       -2   -1    0    0    0  501  0.00000000000E+00  0.00000000000E+00 -0.82000731940E+03  0.82000731941E+03  0.25500000920E-02 0. -1.
    10030    2    1    2    0    0  0.00000000000E+00  0.00000000000E+00  0.61452412351E+03  0.22545387623E+04  0.21691715314E+04 0.  0.
        1    1    3    3  502    0  0.46943933761E+03  0.61140304708E+03 -0.48574539705E+03  0.91111775773E+03  0.50400001928E-02 0. -1.
       -1    1    3    3    0  502 -0.46943933761E+03 -0.61140304708E+03  0.11002695206E+04  0.13434210046E+04  0.50400001928E-02 0.  1.
</event>
<event>
 5   0  0.2159405E-05  0.2572679E+04  0.7818609E-02  0.8377541E-01
        1   -1    0    0  501    0  0.00000000000E+00  0.00000000000E+00  0.14888720128E+04  0.14888720128E+04  0.50400001928E-02 0.  1.
       -1   -1    0    0    0  501  0.00000000000E+00  0.00000000000E+00 -0.11113578951E+04  0.11113578952E+04  0.50400001928E-02 0. -1.
    10030    2    1    2    0    0  0.00000000000E+00  0.00000000000E+00  0.37751411766E+03  0.26002299080E+04  0.25726792776E+04 0.  0.
        3    1    3    3  502    0  0.85387467998E+03 -0.95932717637E+03  0.26205301005E+03  0.13107564193E+04  0.10100000352E+00 0.  1.
       -3    1    3    3    0  502 -0.85387467998E+03  0.95932717637E+03  0.11546110761E+03  0.12894734887E+04  0.10100000352E+00 0. -1.
</event>
<event>
 5   0  0.1698625E-05  0.2589457E+04  0.7818609E-02  0.8371791E-01
        4   -1    0    0  501    0  0.00000000000E+00  0.00000000000E+00  0.13780491219E+04  0.13780497071E+04  0.12699999809E+01 0. -1.
       -4   -1    0    0    0  501  0.00000000000E+00  0.00000000000E+00 -0.12164441261E+04  0.12164447890E+04  0.12699999809E+01 0.  1.
    10030    2    1    2    0    0  0.00000000000E+00  0.00000000000E+00  0.16160499585E+03  0.25944944961E+04  0.25894566063E+04 0.  0.
        4    1    3    3  502    0  0.11132500859E+04  0.47954362300E+03 -0.37509034819E+03  0.12688507486E+04  0.12699999809E+01 0.  1.
       -4    1    3    3    0  502 -0.11132500859E+04 -0.47954362300E+03  0.53669534404E+03  0.13256437475E+04  0.12699999809E+01 0. -1.
</event>
<event>
 5   0  0.5170532E-05  0.2570226E+04  0.7818609E-02  0.8378386E-01
        2   -1    0    0  501    0  0.00000000000E+00  0.00000000000E+00  0.19117551230E+04  0.19117551230E+04  0.25500000920E-02 0. -1.
       -2   -1    0    0    0  501  0.00000000000E+00  0.00000000000E+00 -0.86387392456E+03  0.86387392456E+03  0.25500000920E-02 0.  1.
    10030    2    1    2    0    0  0.00000000000E+00  0.00000000000E+00  0.10478811985E+04  0.27756290476E+04  0.25702259830E+04 0.  0.
        1    1    3    3  502    0 -0.90624245070E+02  0.31990691962E+03  0.18645001414E+04  0.18939149845E+04  0.50400001928E-02 0. -1.
       -1    1    3    3    0  502  0.90624245070E+02 -0.31990691962E+03 -0.81661894298E+03  0.88171406310E+03  0.50400001928E-02 0.  1.
</event>
<event>
 5   0  0.2072710E-05  0.2631587E+04  0.7818609E-02  0.8357550E-01
        1   -1    0    0  501    0  0.00000000000E+00  0.00000000000E+00  0.63438495997E+03  0.63438495999E+03  0.50400001928E-02 0. -1.
       -1   -1    0    0    0  501  0.00000000000E+00  0.00000000000E+00 -0.27291206797E+04  0.27291206797E+04  0.50400001928E-02 0.  1.
    10030    2    1    2    0    0  0.00000000000E+00  0.00000000000E+00 -0.20947357197E+04  0.33635056397E+04  0.26315874397E+04 0.  0.
        2    1    3    3  502    0 -0.32103302078E+03 -0.25463183737E+03 -0.26454948632E+04  0.26770399034E+04  0.25500000920E-02 0.  1.
       -2    1    3    3    0  502  0.32103302078E+03  0.25463183737E+03  0.55075914347E+03  0.68646573633E+03  0.25500000920E-02 0. -1.
</event>
<event>
 5   0  0.5036452E-05  0.2622438E+04  0.7818609E-02  0.8360619E-01
        2   -1    0    0  501    0  0.00000000000E+00  0.00000000000E+00  0.18536748930E+04  0.18536748930E+04  0.25500000920E-02 0. -1.
       -2   -1    0    0    0  501  0.00000000000E+00  0.00000000000E+00 -0.92750606599E+03  0.92750606600E+03  0.25500000920E-02 0.  1.
    10030    2    1    2    0    0  0.00000000000E+00  0.00000000000E+00  0.92616882697E+03  0.27811809590E+04  0.26224375742E+04 0.  0.
        2    1    3    3  502    0 -0.65640751127E+03  0.11279852281E+04  0.32862988759E+03  0.13458154029E+04  0.25500000920E-02 0. -1.
       -2    1    3    3    0  502  0.65640751127E+03 -0.11279852281E+04  0.59753893937E+03  0.14353655561E+04  0.25500000920E-02 0.  1.
</event>
<event>
 5   0  0.5170532E-05  0.2637792E+04  0.7818609E-02  0.8355476E-01
        2   -1    0    0  501    0  0.00000000000E+00  0.00000000000E+00  0.22952922921E+04  0.22952922921E+04  0.25500000920E-02 0.  1.
       -2   -1    0    0    0  501  0.00000000000E+00  0.00000000000E+00 -0.75784988443E+03  0.75784988444E+03  0.25500000920E-02 0. -1.
    10030    2    1    2    0    0  0.00000000000E+00  0.00000000000E+00  0.15374424077E+04  0.30531421765E+04  0.26377922574E+04 0.  0.
        1    1    3    3  502    0 -0.56207134567E+03 -0.85742081027E+03 -0.19161755855E+03  0.10429822301E+04  0.50400001928E-02 0. -1.
       -1    1    3    3    0  502  0.56207134567E+03  0.85742081027E+03  0.17290599662E+04  0.20101599464E+04  0.50400001928E-02 0.  1.
</event>
<event>
 5   0  0.2072710E-05  0.2648168E+04  0.7818609E-02  0.8352021E-01
       -1   -1    0    0    0  501  0.00000000000E+00  0.00000000000E+00  0.12683924215E+04  0.12683924215E+04  0.50400001928E-02 0. -1.
        1   -1    0    0  501    0  0.00000000000E+00  0.00000000000E+00 -0.13822206270E+04  0.13822206270E+04  0.50400001928E-02 0.  1.
    10030    2    1    2    0    0  0.00000000000E+00  0.00000000000E+00 -0.11382820550E+03  0.26506130486E+04  0.26481677955E+04 0.  0.
        2    1    3    3  502    0  0.86272088120E+03 -0.94095982707E+03 -0.40867203414E+03  0.13404124539E+04  0.25500000920E-02 0. -1.
       -2    1    3    3    0  502 -0.86272088120E+03  0.94095982707E+03  0.29484382864E+03  0.13102005947E+04  0.25500000920E-02 0.  1.
</event>
<event>
 5   0  0.1954502E-05  0.2563063E+04  0.7818609E-02  0.8380857E-01
        1   -1    0    0  501    0  0.00000000000E+00  0.00000000000E+00  0.11853801351E+04  0.11853801351E+04  0.50400001928E-02 0. -1.
       -1   -1    0    0    0  501  0.00000000000E+00  0.00000000000E+00 -0.13854819298E+04  0.13854819298E+04  0.50400001928E-02 0.  1.
    10030    2    1    2    0    0  0.00000000000E+00  0.00000000000E+00 -0.20010179478E+03  0.25708620649E+04  0.25630628218E+04 0.  0.
        4    1    3    3  502    0 -0.11489726357E+04  0.42552239096E+03  0.27674324908E+03  0.12561034439E+04  0.12699999809E+01 0.  1.
       -4    1    3    3    0  502  0.11489726357E+04 -0.42552239096E+03 -0.47684504386E+03  0.13147586210E+04  0.12699999809E+01 0. -1.
</event>
<event>
 5   0  0.4955675E-05  0.2581824E+04  0.7818609E-02  0.8374402E-01
       -2   -1    0    0    0  501  0.00000000000E+00  0.00000000000E+00  0.14629744028E+04  0.14629744028E+04  0.25500000920E-02 0. -1.
        2   -1    0    0  501    0  0.00000000000E+00  0.00000000000E+00 -0.11390857813E+04  0.11390857813E+04  0.25500000920E-02 0.  1.
    10030    2    1    2    0    0  0.00000000000E+00  0.00000000000E+00  0.32388862146E+03  0.26020601842E+04  0.25818236506E+04 0.  0.
        5    1    3    3  502    0  0.11708267821E+04 -0.53582294152E+03  0.69082696089E+02  0.12894712432E+04  0.46999998093E+01 0.  1.
       -5    1    3    3    0  502 -0.11708267821E+04  0.53582294152E+03  0.25480592537E+03  0.13125889409E+04  0.46999998093E+01 0. -1.
</event>
<event>
 5   0  0.1993815E-05  0.2554024E+04  0.7818609E-02  0.8383988E-01
        1   -1    0    0  501    0  0.00000000000E+00  0.00000000000E+00  0.21178478344E+04  0.21178478344E+04  0.50400001928E-02 0.  1.
       -1   -1    0    0    0  501  0.00000000000E+00  0.00000000000E+00 -0.77000823893E+03  0.77000823895E+03  0.50400001928E-02 0. -1.
    10030    2    1    2    0    0  0.00000000000E+00  0.00000000000E+00  0.13478395955E+04  0.28878560733E+04  0.25540244958E+04 0.  0.
        5    1    3    3  502    0  0.38229631553E+03 -0.11821761777E+04  0.34031837200E+03  0.12882273372E+04  0.46999998093E+01 0.  1.
       -5    1    3    3    0  502 -0.38229631553E+03  0.11821761777E+04  0.10075212235E+04  0.15996287362E+04  0.46999998093E+01 0. -1.
</event>
<event>
 5   0  0.2159405E-05  0.2623527E+04  0.7818609E-02  0.8360253E-01
        1   -1    0    0  501    0  0.00000000000E+00  0.00000000000E+00  0.11279875067E+04  0.11279875067E+04  0.50400001928E-02 0. -1.
       -1   -1    0    0    0  501  0.00000000000E+00  0.00000000000E+00 -0.15254811523E+04  0.15254811523E+04  0.50400001928E-02 0.  1.
    10030    2    1    2    0    0  0.00000000000E+00  0.00000000000E+00 -0.39749364561E+03  0.26534686590E+04  0.26235271537E+04 0.  0.
        3    1    3    3  502    0 -0.12574216723E+03  0.65290265898E+02  0.11202259782E+04  0.11291501955E+04  0.10100000352E+00 0. -1.
       -3    1    3    3    0  502  0.12574216723E+03 -0.65290265898E+02 -0.15177196238E+04  0.15243184635E+04  0.10100000352E+00 0.  1.
</event>
<event>
 5   0  0.5182179E-05  0.2285606E+04  0.7818609E-02  0.8483618E-01
       -2   -1    0    0    0  501  0.00000000000E+00  0.00000000000E+00  0.12451536076E+04  0.12451536076E+04  0.25500000920E-02 0. -1.
        2   -1    0    0  501    0  0.00000000000E+00  0.00000000000E+00 -0.10488652846E+04  0.10488652846E+04  0.25500000920E-02 0.  1.
    10030    2    1    2    0    0  0.00000000000E+00  0.00000000000E+00  0.19628832296E+03  0.22940188922E+04  0.22856057342E+04 0.  0.
        3    1    3    3  502    0  0.26087487329E+03  0.31493419609E+03 -0.97291043724E+03  0.10553643809E+04  0.10100000352E+00 0.  1.
       -3    1    3    3    0  502 -0.26087487329E+03 -0.31493419609E+03  0.11691987602E+04  0.12386545113E+04  0.10100000352E+00 0. -1.
</event>
<event>
 5   0  0.4955675E-05  0.2484606E+04  0.7818609E-02  0.8408490E-01
       -2   -1    0    0    0  501  0.00000000000E+00  0.00000000000E+00  0.93900560918E+03  0.93900560918E+03  0.25500000920E-02 0. -1.
        2   -1    0    0  501    0  0.00000000000E+00  0.00000000000E+00 -0.16435655358E+04  0.16435655358E+04  0.25500000920E-02 0.  1.
    10030    2    1    2    0    0  0.00000000000E+00  0.00000000000E+00 -0.70455992663E+03  0.25825711450E+04  0.24846064132E+04 0.  0.
        5    1    3    3  502    0 -0.46443555977E+02 -0.40659904779E+03 -0.15714794527E+04  0.16238994889E+04  0.46999998093E+01 0.  1.
       -5    1    3    3    0  502  0.46443555977E+02  0.40659904779E+03  0.86691952610E+03  0.95867165614E+03  0.46999998093E+01 0. -1.
</event>
<event>
 5   0  0.1993815E-05  0.1956579E+04  0.7818609E-02  0.8627195E-01
       -1   -1    0    0    0  501  0.00000000000E+00  0.00000000000E+00  0.10481493820E+04  0.10481493820E+04  0.50400001928E-02 0. -1.
        1   -1    0    0  501    0  0.00000000000E+00  0.00000000000E+00 -0.91308559050E+03  0.91308559052E+03  0.50400001928E-02 0.  1.
    10030    2    1    2    0    0  0.00000000000E+00  0.00000000000E+00  0.13506379153E+03  0.19612349726E+04  0.19565787461E+04 0.  0.
        5    1    3    3  502    0  0.68306899350E+03 -0.40749808135E+03  0.63843982375E+03  0.10199340345E+04  0.46999998093E+01 0. -1.
       -5    1    3    3    0  502 -0.68306899350E+03  0.40749808135E+03 -0.50337603222E+03  0.94130093806E+03  0.46999998093E+01 0.  1.
</event>
<event>
 5   0  0.2072710E-05  0.2505112E+04  0.7818609E-02  0.8401167E-01
        1   -1    0    0  501    0  0.00000000000E+00  0.00000000000E+00  0.20073293961E+04  0.20073293961E+04  0.50400001928E-02 0. -1.
       -1   -1    0    0    0  501  0.00000000000E+00  0.00000000000E+00 -0.78158406988E+03  0.78158406990E+03  0.50400001928E-02 0.  1.
    10030    2    1    2    0    0  0.00000000000E+00  0.00000000000E+00  0.12257453263E+04  0.27889134660E+04  0.25051121165E+04 0.  0.
        2    1    3    3  502    0  0.10436210750E+04 -0.50608671489E+03  0.11393393922E+04  0.16258422315E+04  0.25500000920E-02 0. -1.
       -2    1    3    3    0  502 -0.10436210750E+04  0.50608671489E+03  0.86405934091E+02  0.11630712345E+04  0.25500000920E-02 0.  1.
</event>
<event>
 5   0  0.5049803E-05  0.2624519E+04  0.7818609E-02  0.8359920E-01
       -2   -1    0    0    0  501  0.00000000000E+00  0.00000000000E+00  0.91228037372E+03  0.91228037372E+03  0.25500000920E-02 0. -1.
        2   -1    0    0  501    0  0.00000000000E+00  0.00000000000E+00 -0.18876054118E+04  0.18876054118E+04  0.25500000920E-02 0.  1.
    10030    2    1    2    0    0  0.00000000000E+00  0.00000000000E+00 -0.97532503813E+03  0.27998857856E+04  0.26245192859E+04 0.  0.
        4    1    3    3  502    0 -0.75379850242E+03 -0.10478550785E+04 -0.73969218005E+03  0.14877360592E+04  0.12699999809E+01 0.  1.
       -4    1    3    3    0  502  0.75379850242E+03  0.10478550785E+04 -0.23563285808E+03  0.13121497264E+04  0.12699999809E+01 0. -1.
</event>
<event>
 5   0  0.1698625E-05  0.2582362E+04  0.7818609E-02  0.8374217E-01
        4   -1    0    0  501    0  0.00000000000E+00  0.00000000000E+00  0.14965245687E+04  0.14965251076E+04  0.12699999809E+01 0. -1.
       -4   -1    0    0    0  501  0.00000000000E+00  0.00000000000E+00 -0.11140124786E+04  0.11140132026E+04  0.12699999809E+01 0.  1.
    10030    2    1    2    0    0  0.00000000000E+00  0.00000000000E+00  0.38251209006E+03  0.26105383101E+04  0.25823622460E+04 0.  0.
        1    1    3    3  502    0 -0.71181833877E+03 -0.20222904672E+03  0.12608967083E+04  0.14619994678E+04  0.50400001928E-02 0. -1.
       -1    1    3    3    0  502  0.71181833877E+03  0.20222904672E+03 -0.87838461826E+03  0.11485388423E+04  0.50400001928E-02 0.  1.
</event>
<event>
 5   0  0.2163800E-05  0.2603566E+04  0.7818609E-02  0.8366991E-01
       -1   -1    0    0    0  501  0.00000000000E+00  0.00000000000E+00  0.14020513539E+04  0.14020513539E+04  0.50400001928E-02 0. -1.
        1   -1    0    0  501    0  0.00000000000E+00  0.00000000000E+00 -0.12086851720E+04  0.12086851720E+04  0.50400001928E-02 0.  1.
    10030    2    1    2    0    0  0.00000000000E+00  0.00000000000E+00  0.19336618194E+03  0.26107365259E+04  0.26035657716E+04 0.  0.
        1    1    3    3  502    0 -0.11854937837E+04 -0.12601246778E+03 -0.42759918357E+03  0.12665368984E+04  0.50400001928E-02 0.  1.
       -1    1    3    3    0  502  0.11854937837E+04  0.12601246778E+03  0.62096536551E+03  0.13441996275E+04  0.50400001928E-02 0. -1.
</event>
<event>
 5   0  0.5036452E-05  0.1669912E+04  0.7818609E-02  0.8778713E-01
       -2   -1    0    0    0  501  0.00000000000E+00  0.00000000000E+00  0.11732507212E+04  0.11732507212E+04  0.25500000920E-02 0.  1.
        2   -1    0    0  501    0  0.00000000000E+00  0.00000000000E+00 -0.59420473806E+03  0.59420473806E+03  0.25500000920E-02 0. -1.
    10030    2    1    2    0    0  0.00000000000E+00  0.00000000000E+00  0.57904598310E+03  0.17674554592E+04  0.16699115395E+04 0.  0.
        2    1    3    3  502    0  0.41660817138E+03  0.67924068087E+03  0.25511373012E+02  0.79723340445E+03  0.25500000920E-02 0. -1.
       -2    1    3    3    0  502 -0.41660817138E+03 -0.67924068087E+03  0.55353461009E+03  0.97022205478E+03  0.25500000920E-02 0.  1.
</event>
<event>
 5   0  0.2072710E-05  0.2592400E+04  0.7818609E-02  0.8370787E-01
       -1   -1    0    0    0  501  0.00000000000E+00  0.00000000000E+00  0.11107181977E+04  0.11107181978E+04  0.50400001928E-02 0. -1.
        1   -1    0    0  501    0  0.00000000000E+00  0.00000000000E+00 -0.15126560316E+04  0.15126560316E+04  0.50400001928E-02 0.  1.
    10030    2    1    2    0    0  0.00000000000E+00  0.00000000000E+00 -0.40193783390E+03  0.26233742294E+04  0.25924001090E+04 0.  0.
        2    1    3    3  502    0  0.40981195871E+03 -0.56463816013E+01 -0.14453592786E+04  0.15023452224E+04  0.25500000920E-02 0.  1.
       -2    1    3    3    0  502 -0.40981195871E+03  0.56463816013E+01  0.10434214447E+04  0.11210290070E+04  0.25500000920E-02 0. -1.
</event>
<event>
 5   0  0.5170532E-05  0.2362971E+04  0.7818609E-02  0.8453498E-01
        2   -1    0    0  501    0  0.00000000000E+00  0.00000000000E+00  0.13151069136E+04  0.13151069136E+04  0.25500000920E-02 0. -1.
       -2   -1    0    0    0  501  0.00000000000E+00  0.00000000000E+00 -0.10614406186E+04  0.10614406186E+04  0.25500000920E-02 0.  1.
    10030    2    1    2    0    0  0.00000000000E+00  0.00000000000E+00  0.25366629500E+03  0.23765475322E+04  0.23629709232E+04 0.  0.
        1    1    3    3  502    0  0.33472753348E+03  0.11268048292E+04  0.24658130171E+03  0.12010553622E+04  0.50400001928E-02 0. -1.
       -1    1    3    3    0  502 -0.33472753348E+03 -0.11268048292E+04  0.70849932889E+01  0.11754921700E+04  0.50400001928E-02 0.  1.
</event>
<event>
 5   0  0.2159405E-05  0.1305587E+04  0.7818609E-02  0.9025146E-01
       -1   -1    0    0    0  501  0.00000000000E+00  0.00000000000E+00  0.92387649780E+03  0.92387649781E+03  0.50400001928E-02 0. -1.
        1   -1    0    0  501    0  0.00000000000E+00  0.00000000000E+00 -0.46125161032E+03  0.46125161034E+03  0.50400001928E-02 0.  1.
    10030    2    1    2    0    0  0.00000000000E+00  0.00000000000E+00  0.46262488749E+03  0.13851281082E+04  0.13055872585E+04 0.  0.
        3    1    3    3  502    0  0.37705792872E+03 -0.83592662914E+02  0.78966375078E+03  0.87905020585E+03  0.10100000352E+00 0. -1.
       -3    1    3    3    0  502 -0.37705792872E+03  0.83592662914E+02 -0.32703886329E+03  0.50607790231E+03  0.10100000352E+00 0.  1.
</event>
<event>
 5   0  0.2159405E-05  0.2616225E+04  0.7818609E-02  0.8362711E-01
        1   -1    0    0  501    0  0.00000000000E+00  0.00000000000E+00  0.17222517234E+04  0.17222517234E+04  0.50400001928E-02 0.  1.
       -1   -1    0    0    0  501  0.00000000000E+00  0.00000000000E+00 -0.99355850391E+03  0.99355850393E+03  0.50400001928E-02 0. -1.
    10030    2    1    2    0    0  0.00000000000E+00  0.00000000000E+00  0.72869321950E+03  0.27158102274E+04  0.26162246430E+04 0.  0.
        3    1    3    3  502    0  0.98782774666E+03 -0.33472429375E+03 -0.45520775462E+03  0.11380062038E+04  0.10100000352E+00 0. -1.
       -3    1    3    3    0  502 -0.98782774666E+03  0.33472429375E+03  0.11839009741E+04  0.15778040235E+04  0.10100000352E+00 0.  1.
</event>
<event>
 5   0  0.5049803E-05  0.2159599E+04  0.7818609E-02  0.8535435E-01
        2   -1    0    0  501    0  0.00000000000E+00  0.00000000000E+00  0.18625134922E+04  0.18625134922E+04  0.25500000920E-02 0. -1.
       -2   -1    0    0    0  501  0.00000000000E+00  0.00000000000E+00 -0.62601797294E+03  0.62601797295E+03  0.25500000920E-02 0.  1.
    10030    2    1    2    0    0  0.00000000000E+00  0.00000000000E+00  0.12364955193E+04  0.24885314652E+04  0.21595989637E+04 0.  0.
        4    1    3    3  502    0  0.25885511343E+03 -0.57364310914E+03 -0.39283147114E+03  0.74188312019E+03  0.12699999809E+01 0.  1.
       -4    1    3    3    0  502 -0.25885511343E+03  0.57364310914E+03  0.16293269904E+04  0.17466483450E+04  0.12699999809E+01 0. -1.
</event>
<event>
 5   0  0.5170532E-05  0.2646450E+04  0.7818609E-02  0.8352592E-01
       -2   -1    0    0    0  501  0.00000000000E+00  0.00000000000E+00  0.15586484536E+04  0.15586484536E+04  0.25500000920E-02 0.  1.
        2   -1    0    0  501    0  0.00000000000E+00  0.00000000000E+00 -0.11233606618E+04  0.11233606618E+04  0.25500000920E-02 0. -1.
    10030    2    1    2    0    0  0.00000000000E+00  0.00000000000E+00  0.43528779184E+03  0.26820091154E+04  0.26464499680E+04 0.  0.
        1    1    3    3  502    0 -0.25719061271E+03 -0.10415061331E+03  0.15288326257E+04  0.15538093702E+04  0.50400001928E-02 0.  1.
       -1    1    3    3    0  502  0.25719061271E+03  0.10415061331E+03 -0.10935448338E+04  0.11281997452E+04  0.50400001928E-02 0. -1.
</event>
<event>
 5   0  0.2072710E-05  0.2722679E+04  0.7818609E-02  0.8327684E-01
       -1   -1    0    0    0  501  0.00000000000E+00  0.00000000000E+00  0.11866620176E+04  0.11866620176E+04  0.50400001928E-02 0.  1.
        1   -1    0    0  501    0  0.00000000000E+00  0.00000000000E+00 -0.15617295014E+04  0.15617295014E+04  0.50400001928E-02 0. -1.
    10030    2    1    2    0    0  0.00000000000E+00  0.00000000000E+00 -0.37506748376E+03  0.27483915190E+04  0.27226788875E+04 0.  0.
        2    1    3    3  502    0  0.49760820834E+03  0.10317339791E+04 -0.93011412905E+03  0.14755342171E+04  0.25500000920E-02 0. -1.
       -2    1    3    3    0  502 -0.49760820834E+03 -0.10317339791E+04  0.55504664529E+03  0.12728573020E+04  0.25500000920E-02 0.  1.
</event>
<event>
 5   0  0.1954502E-05  0.2558158E+04  0.7818609E-02  0.8382554E-01
        1   -1    0    0  501    0  0.00000000000E+00  0.00000000000E+00  0.80532854997E+03  0.80532854999E+03  0.50400001928E-02 0.  1.
       -1   -1    0    0    0  501  0.00000000000E+00  0.00000000000E+00 -0.20315227903E+04  0.20315227903E+04  0.50400001928E-02 0. -1.
    10030    2    1    2    0    0  0.00000000000E+00  0.00000000000E+00 -0.12261942403E+04  0.28368513403E+04  0.25581581679E+04 0.  0.
        4    1    3    3  502    0 -0.24053730053E+03  0.12205623572E+04 -0.28336412430E+03  0.12759026219E+04  0.12699999809E+01 0. -1.
       -4    1    3    3    0  502  0.24053730053E+03 -0.12205623572E+04 -0.94283011601E+03  0.15609487184E+04  0.12699999809E+01 0.  1.
</event>
<event>
 5   0  0.1993815E-05  0.2649118E+04  0.7818609E-02  0.8351706E-01
        1   -1    0    0  501    0  0.00000000000E+00  0.00000000000E+00  0.12373173992E+04  0.12373173992E+04  0.50400001928E-02 0. -1.
       -1   -1    0    0    0  501  0.00000000000E+00  0.00000000000E+00 -0.14179514774E+04  0.14179514774E+04  0.50400001928E-02 0.  1.
    10030    2    1    2    0    0  0.00000000000E+00  0.00000000000E+00 -0.18063407814E+03  0.26552688766E+04  0.26491176148E+04 0.  0.
        5    1    3    3  502    0 -0.10290381961E+04 -0.70714288743E+03  0.35282183182E+03  0.12974883457E+04  0.46999998093E+01 0.  1.
       -5    1    3    3    0  502  0.10290381961E+04  0.70714288743E+03 -0.53345590996E+03  0.13577805309E+04  0.46999998093E+01 0. -1.
</event>
<event>
 5   0  0.5036452E-05  0.2660220E+04  0.7818609E-02  0.8348029E-01
        2   -1    0    0  501    0  0.00000000000E+00  0.00000000000E+00  0.32858400652E+04  0.32858400652E+04  0.25500000920E-02 0. -1.
       -2   -1    0    0    0  501  0.00000000000E+00  0.00000000000E+00 -0.53842930586E+03  0.53842930587E+03  0.25500000920E-02 0.  1.
    10030    2    1    2    0    0  0.00000000000E+00  0.00000000000E+00  0.27474107594E+04  0.38242693711E+04  0.26602199800E+04 0.  0.
        2    1    3    3  502    0  0.32639837402E+03  0.68757273863E+03  0.29418504330E+04  0.30387129084E+04  0.25500000920E-02 0. -1.
       -2    1    3    3    0  502 -0.32639837402E+03 -0.68757273863E+03 -0.19443967361E+03  0.78555646273E+03  0.25500000920E-02 0.  1.
</event>
<event>
 5   0  0.1954502E-05  0.2579621E+04  0.7818609E-02  0.8375157E-01
        1   -1    0    0  501    0  0.00000000000E+00  0.00000000000E+00  0.19401724093E+04  0.19401724093E+04  0.50400001928E-02 0.  1.
       -1   -1    0    0    0  501  0.00000000000E+00  0.00000000000E+00 -0.85745507530E+03  0.85745507531E+03  0.50400001928E-02 0. -1.
    10030    2    1    2    0    0  0.00000000000E+00  0.00000000000E+00  0.10827173340E+04  0.27976274846E+04  0.25796206538E+04 0.  0.
        4    1    3    3  502    0  0.43911594326E+03  0.48476972964E+03 -0.66424739658E+03  0.93222889848E+03  0.12699999809E+01 0. -1.
       -4    1    3    3    0  502 -0.43911594326E+03 -0.48476972964E+03  0.17469647306E+04  0.18653985862E+04  0.12699999809E+01 0.  1.
</event>
<event>
 5   0  0.4955675E-05  0.2559035E+04  0.7818609E-02  0.8382251E-01
       -2   -1    0    0    0  501  0.00000000000E+00  0.00000000000E+00  0.96369977691E+03  0.96369977691E+03  0.25500000920E-02 0. -1.
        2   -1    0    0  501    0  0.00000000000E+00  0.00000000000E+00 -0.16988335943E+04  0.16988335943E+04  0.25500000920E-02 0.  1.
    10030    2    1    2    0    0  0.00000000000E+00  0.00000000000E+00 -0.73513381734E+03  0.26625333712E+04  0.25590354087E+04 0.  0.
        5    1    3    3  502    0  0.74755420524E+03 -0.53327197364E+03 -0.12946295904E+04  0.15872316006E+04  0.46999998093E+01 0.  1.
       -5    1    3    3    0  502 -0.74755420524E+03  0.53327197364E+03  0.55949577308E+03  0.10753017705E+04  0.46999998093E+01 0. -1.
</event>
<event>
 5   0  0.1993815E-05  0.2355933E+04  0.7818609E-02  0.8456188E-01
        1   -1    0    0  501    0  0.00000000000E+00  0.00000000000E+00  0.58466895429E+03  0.58466895431E+03  0.50400001928E-02 0.  1.
       -1   -1    0    0    0  501  0.00000000000E+00  0.00000000000E+00 -0.23733182156E+04  0.23733182156E+04  0.50400001928E-02 0. -1.
    10030    2    1    2    0    0  0.00000000000E+00  0.00000000000E+00 -0.17886492613E+04  0.29579871699E+04  0.23559333432E+04 0.  0.
        5    1    3    3  502    0 -0.11059782977E+04 -0.25087358381E+03 -0.49440189764E+03  0.12371664708E+04  0.46999998093E+01 0. -1.
       -5    1    3    3    0  502  0.11059782977E+04  0.25087358381E+03 -0.12942473637E+04  0.17208206991E+04  0.46999998093E+01 0.  1.
</event>
<event>
 5   0  0.2163800E-05  0.2748956E+04  0.7818609E-02  0.8319293E-01
        1   -1    0    0  501    0  0.00000000000E+00  0.00000000000E+00  0.13516538557E+04  0.13516538558E+04  0.50400001928E-02 0. -1.
       -1   -1    0    0    0  501  0.00000000000E+00  0.00000000000E+00 -0.13976880331E+04  0.13976880331E+04  0.50400001928E-02 0.  1.
    10030    2    1    2    0    0  0.00000000000E+00  0.00000000000E+00 -0.46034177366E+02  0.27493418889E+04  0.27489564705E+04 0.  0.
        1    1    3    3  502    0  0.63029710591E+03  0.98954138880E+02 -0.12406129528E+04  0.13950580139E+04  0.50400001928E-02 0.  1.
       -1    1    3    3    0  502 -0.63029710591E+03 -0.98954138880E+02  0.11945787755E+04  0.13542838750E+04  0.50400001928E-02 0. -1.
</event>
<event>
 5   0  0.5036452E-05  0.1947015E+04  0.7818609E-02  0.8631801E-01
       -2   -1    0    0    0  501  0.00000000000E+00  0.00000000000E+00  0.58065541192E+03  0.58065541193E+03  0.25500000920E-02 0.  1.
        2   -1    0    0  501    0  0.00000000000E+00  0.00000000000E+00 -0.16321507351E+04  0.16321507351E+04  0.25500000920E-02 0. -1.
    10030    2    1    2    0    0  0.00000000000E+00  0.00000000000E+00 -0.10514953232E+04  0.22128061470E+04  0.19470153132E+04 0.  0.
        2    1    3    3  502    0 -0.77023946288E+03 -0.15874272919E+02  0.15064055532E+03  0.78499261120E+03  0.25500000920E-02 0.  1.
       -2    1    3    3    0  502  0.77023946288E+03  0.15874272919E+02 -0.12021358785E+04  0.14278135358E+04  0.25500000920E-02 0. -1.
</event>
<event>
 5   0  0.1993815E-05  0.1469076E+04  0.7818609E-02  0.8905282E-01
        1   -1    0    0  501    0  0.00000000000E+00  0.00000000000E+00  0.15407187727E+04  0.15407187727E+04  0.50400001928E-02 0.  1.
       -1   -1    0    0    0  501  0.00000000000E+00  0.00000000000E+00 -0.35019109627E+03  0.35019109630E+03  0.50400001928E-02 0. -1.
    10030    2    1    2    0    0  0.00000000000E+00  0.00000000000E+00  0.11905276765E+04  0.18909098690E+04  0.14690758947E+04 0.  0.
        5    1    3    3  502    0  0.25364381330E+03  0.56285146693E+03  0.83008737713E+02  0.62293619127E+03  0.46999998093E+01 0. -1.
       -5    1    3    3    0  502 -0.25364381330E+03 -0.56285146693E+03  0.11075189387E+04  0.12679736778E+04  0.46999998093E+01 0.  1.
</event>
<event>
 5   0  0.5170532E-05  0.2584578E+04  0.7818609E-02  0.8373459E-01
       -2   -1    0    0    0  501  0.00000000000E+00  0.00000000000E+00  0.11579585488E+04  0.11579585488E+04  0.25500000920E-02 0.  1.
        2   -1    0    0  501    0  0.00000000000E+00  0.00000000000E+00 -0.14422025409E+04  0.14422025409E+04  0.25500000920E-02 0. -1.
    10030    2    1    2    0    0  0.00000000000E+00  0.00000000000E+00 -0.28424399214E+03  0.26001610897E+04  0.25845779240E+04 0.  0.
        1    1    3    3  502    0 -0.17567969785E+03  0.38077053565E+03 -0.13718508191E+04  0.14345118427E+04  0.50400001928E-02 0. -1.
       -1    1    3    3    0  502  0.17567969785E+03 -0.38077053565E+03  0.10876068269E+04  0.11656492470E+04  0.50400001928E-02 0.  1.
</event>
<event>
 5   0  0.2163800E-05  0.2590101E+04  0.7818609E-02  0.8371571E-01
       -1   -1    0    0    0  501  0.00000000000E+00  0.00000000000E+00  0.96572890809E+03  0.96572890810E+03  0.50400001928E-02 0. -1.
        1   -1    0    0  501    0  0.00000000000E+00  0.00000000000E+00 -0.17366735766E+04  0.17366735766E+04  0.50400001928E-02 0.  1.
    10030    2    1    2    0    0  0.00000000000E+00  0.00000000000E+00 -0.77094466851E+03  0.27024024847E+04  0.25901010612E+04 0.  0.
        1    1    3    3  502    0  0.38164123304E+03 -0.11010850077E+04  0.20392577130E+03  0.11830570338E+04  0.50400001928E-02 0. -1.
       -1    1    3    3    0  502 -0.38164123304E+03  0.11010850077E+04 -0.97487043980E+03  0.15193454509E+04  0.50400001928E-02 0.  1.
</event>
<event>
 5   0  0.2072710E-05  0.2615947E+04  0.7818609E-02  0.8362804E-01
       -1   -1    0    0    0  501  0.00000000000E+00  0.00000000000E+00  0.17112532237E+04  0.17112532237E+04  0.50400001928E-02 0.  1.
        1   -1    0    0  501    0  0.00000000000E+00  0.00000000000E+00 -0.99973212382E+03  0.99973212383E+03  0.50400001928E-02 0. -1.
    10030    2    1    2    0    0  0.00000000000E+00  0.00000000000E+00  0.71152109992E+03  0.27109853476E+04  0.26159471094E+04 0.  0.
        2    1    3    3  502    0  0.60133534941E+03  0.11330957781E+04  0.90969378045E+02  0.12859959847E+04  0.25500000920E-02 0. -1.
       -2    1    3    3    0  502 -0.60133534941E+03 -0.11330957781E+04  0.62055172187E+03  0.14249893629E+04  0.25500000920E-02 0.  1.
</event>
<event>
 5   0  0.5049803E-05  0.1493034E+04  0.7818609E-02  0.8889099E-01
        2   -1    0    0  501    0  0.00000000000E+00  0.00000000000E+00  0.24035744582E+04  0.24035744582E+04  0.25500000920E-02 0.  1.
       -2   -1    0    0    0  501  0.00000000000E+00  0.00000000000E+00 -0.23185779653E+03  0.23185779654E+03  0.25500000920E-02 0. -1.
    10030    2    1    2    0    0  0.00000000000E+00  0.00000000000E+00  0.21717166617E+04  0.26354322548E+04  0.14930337942E+04 0.  0.
        4    1    3    3  502    0  0.39283641651E+02 -0.62633014832E+03  0.17994979292E+04  0.19057877818E+04  0.12699999809E+01 0.  1.
       -4    1    3    3    0  502 -0.39283641651E+02  0.62633014832E+03  0.37221873249E+03  0.72964447295E+03  0.12699999809E+01 0. -1.
</event>
<event>
 5   0  0.5036452E-05  0.2451002E+04  0.7818609E-02  0.8420652E-01
        2   -1    0    0  501    0  0.00000000000E+00  0.00000000000E+00  0.13792555222E+04  0.13792555222E+04  0.25500000920E-02 0. -1.
       -2   -1    0    0    0  501  0.00000000000E+00  0.00000000000E+00 -0.10888866983E+04  0.10888866983E+04  0.25500000920E-02 0.  1.
    10030    2    1    2    0    0  0.00000000000E+00  0.00000000000E+00  0.29036882388E+03  0.24681422206E+04  0.24510022373E+04 0.  0.
        2    1    3    3  502    0 -0.86494621242E+03 -0.86720000732E+03  0.18652253359E+03  0.12389344045E+04  0.25500000920E-02 0.  1.
       -2    1    3    3    0  502  0.86494621242E+03  0.86720000732E+03  0.10384629030E+03  0.12292078161E+04  0.25500000920E-02 0. -1.
</event>
<event>
 5   0  0.5049803E-05  0.2536620E+04  0.7818609E-02  0.8390054E-01
       -2   -1    0    0    0  501  0.00000000000E+00  0.00000000000E+00  0.13567069664E+04  0.13567069664E+04  0.25500000920E-02 0. -1.
        2   -1    0    0  501    0  0.00000000000E+00  0.00000000000E+00 -0.11856728898E+04  0.11856728898E+04  0.25500000920E-02 0.  1.
    10030    2    1    2    0    0  0.00000000000E+00  0.00000000000E+00  0.17103407659E+03  0.25423798561E+04  0.25366203259E+04 0.  0.
        4    1    3    3  502    0 -0.58259959999E+03  0.82226098233E+03  0.85737836460E+03  0.13231155240E+04  0.12699999809E+01 0. -1.
       -4    1    3    3    0  502  0.58259959999E+03 -0.82226098233E+03 -0.68634428801E+03  0.12192643321E+04  0.12699999809E+01 0.  1.
</event>
<event>
 5   0  0.2072710E-05  0.2637593E+04  0.7818609E-02  0.8355543E-01
       -1   -1    0    0    0  501  0.00000000000E+00  0.00000000000E+00  0.99510685711E+03  0.99510685712E+03  0.50400001928E-02 0.  1.
        1   -1    0    0  501    0  0.00000000000E+00  0.00000000000E+00 -0.17477761738E+04  0.17477761738E+04  0.50400001928E-02 0. -1.
    10030    2    1    2    0    0  0.00000000000E+00  0.00000000000E+00 -0.75266931669E+03  0.27428830309E+04  0.26375928839E+04 0.  0.
        2    1    3    3  502    0  0.91076380978E+03 -0.95313584964E+03 -0.41332699418E+03  0.13815925120E+04  0.25500000920E-02 0. -1.
       -2    1    3    3    0  502 -0.91076380978E+03  0.95313584964E+03 -0.33934232251E+03  0.13612905189E+04  0.25500000920E-02 0.  1.
</event>
<event>
 5   0  0.5170532E-05  0.2891013E+04  0.7818609E-02  0.8275556E-01
        2   -1    0    0  501    0  0.00000000000E+00  0.00000000000E+00  0.14726142126E+04  0.14726142126E+04  0.25500000920E-02 0. -1.
       -2   -1    0    0    0  501  0.00000000000E+00  0.00000000000E+00 -0.14188978272E+04  0.14188978272E+04  0.25500000920E-02 0.  1.
    10030    2    1    2    0    0  0.00000000000E+00  0.00000000000E+00  0.53716385375E+02  0.28915120397E+04  0.28910130449E+04 0.  0.
        1    1    3    3  502    0  0.32990971222E+03  0.84339758369E+03 -0.10999813787E+04  0.14248224226E+04  0.50400001928E-02 0.  1.
       -1    1    3    3    0  502 -0.32990971222E+03 -0.84339758369E+03  0.11536977640E+04  0.14666896172E+04  0.50400001928E-02 0. -1.
</event>
<event>
 5   0  0.1954502E-05  0.2890229E+04  0.7818609E-02  0.8275790E-01
       -1   -1    0    0    0  501  0.00000000000E+00  0.00000000000E+00  0.84072627677E+03  0.84072627679E+03  0.50400001928E-02 0. -1.
        1   -1    0    0  501    0  0.00000000000E+00  0.00000000000E+00 -0.24839908913E+04  0.24839908913E+04  0.50400001928E-02 0.  1.
    10030    2    1    2    0    0  0.00000000000E+00  0.00000000000E+00 -0.16432646145E+04  0.33247171681E+04  0.28902293429E+04 0.  0.
        4    1    3    3  502    0  0.85115681034E+03  0.27723502605E+03 -0.21266498044E+04  0.23073725705E+04  0.12699999809E+01 0.  1.
       -4    1    3    3    0  502 -0.85115681034E+03 -0.27723502605E+03  0.48338518994E+03  0.10173445976E+04  0.12699999809E+01 0. -1.
</event>
<event>
 5   0  0.2072710E-05  0.2578061E+04  0.7818609E-02  0.8375692E-01
        1   -1    0    0  501    0  0.00000000000E+00  0.00000000000E+00  0.20283832180E+04  0.20283832180E+04  0.50400001928E-02 0. -1.
       -1   -1    0    0    0  501  0.00000000000E+00  0.00000000000E+00 -0.81917445440E+03  0.81917445441E+03  0.50400001928E-02 0.  1.
    10030    2    1    2    0    0  0.00000000000E+00  0.00000000000E+00  0.12092087636E+04  0.28475576725E+04  0.25780610668E+04 0.  0.
        2    1    3    3  502    0 -0.76778918372E+03 -0.37838434311E+03 -0.45995428800E+03  0.97171646524E+03  0.25500000920E-02 0.  1.
       -2    1    3    3    0  502  0.76778918372E+03  0.37838434311E+03  0.16691630516E+04  0.18758412072E+04  0.25500000920E-02 0. -1.
</event>
<event>
 5   0  0.2163800E-05  0.2661583E+04  0.7818609E-02  0.8347579E-01
       -1   -1    0    0    0  501  0.00000000000E+00  0.00000000000E+00  0.91062350713E+03  0.91062350714E+03  0.50400001928E-02 0. -1.
        1   -1    0    0  501    0  0.00000000000E+00  0.00000000000E+00 -0.19448280195E+04  0.19448280195E+04  0.50400001928E-02 0.  1.
    10030    2    1    2    0    0  0.00000000000E+00  0.00000000000E+00 -0.10342045124E+04  0.28554515267E+04  0.26615830717E+04 0.  0.
        1    1    3    3  502    0 -0.10587054757E+04  0.60096635106E+03 -0.10938353543E+04  0.16366104063E+04  0.50400001928E-02 0.  1.
       -1    1    3    3    0  502  0.10587054757E+04 -0.60096635106E+03  0.59630841952E+02  0.12188411204E+04  0.50400001928E-02 0. -1.
</event>
<event>
 5   0  0.5170532E-05  0.2588383E+04  0.7818609E-02  0.8372158E-01
       -2   -1    0    0    0  501  0.00000000000E+00  0.00000000000E+00  0.19304508388E+04  0.19304508388E+04  0.25500000920E-02 0. -1.
        2   -1    0    0  501    0  0.00000000000E+00  0.00000000000E+00 -0.86763744761E+03  0.86763744761E+03  0.25500000920E-02 0.  1.
    10030    2    1    2    0    0  0.00000000000E+00  0.00000000000E+00  0.10628133911E+04  0.27980882864E+04  0.25883828453E+04 0.  0.
        1    1    3    3  502    0 -0.17422988638E+03 -0.88196607299E+03  0.15378055013E+04  0.17813101828E+04  0.50400001928E-02 0. -1.
       -1    1    3    3    0  502  0.17422988638E+03  0.88196607299E+03 -0.47499211019E+03  0.10167781036E+04  0.50400001928E-02 0.  1.
</event>
<event>
 5   0  0.2159405E-05  0.1349020E+04  0.7818609E-02  0.8991571E-01
        1   -1    0    0  501    0  0.00000000000E+00  0.00000000000E+00  0.82894275668E+03  0.82894275669E+03  0.50400001928E-02 0.  1.
       -1   -1    0    0    0  501  0.00000000000E+00  0.00000000000E+00 -0.54884784958E+03  0.54884784960E+03  0.50400001928E-02 0. -1.
    10030    2    1    2    0    0  0.00000000000E+00  0.00000000000E+00  0.28009490710E+03  0.13777906063E+04  0.13490195691E+04 0.  0.
        3    1    3    3  502    0 -0.37601990081E+03  0.13111282055E+03  0.69606796124E+03  0.80193026778E+03  0.10100000352E+00 0.  1.
       -3    1    3    3    0  502  0.37601990081E+03 -0.13111282055E+03 -0.41597305414E+03  0.57586033852E+03  0.10100000352E+00 0. -1.
</event>
<event>
 5   0  0.1993815E-05  0.2505075E+04  0.7818609E-02  0.8401180E-01
        1   -1    0    0  501    0  0.00000000000E+00  0.00000000000E+00  0.35760195878E+04  0.35760195878E+04  0.50400001928E-02 0.  1.
       -1   -1    0    0    0  501  0.00000000000E+00  0.00000000000E+00 -0.43871423013E+03  0.43871423016E+03  0.50400001928E-02 0. -1.
    10030    2    1    2    0    0  0.00000000000E+00  0.00000000000E+00  0.31373053577E+04  0.40147338179E+04  0.25050753924E+04 0.  0.
        5    1    3    3  502    0 -0.18643178590E+03 -0.87856736895E+03  0.29678143791E+04  0.31007388976E+04  0.46999998093E+01 0.  1.
       -5    1    3    3    0  502  0.18643178590E+03  0.87856736895E+03  0.16949097859E+03  0.91399492034E+03  0.46999998093E+01 0. -1.
</event>
<event>
 5   0  0.2159405E-05  0.2617311E+04  0.7818609E-02  0.8362345E-01
        1   -1    0    0  501    0  0.00000000000E+00  0.00000000000E+00  0.12283899648E+04  0.12283899648E+04  0.50400001928E-02 0. -1.
       -1   -1    0    0    0  501  0.00000000000E+00  0.00000000000E+00 -0.13941659944E+04  0.13941659944E+04  0.50400001928E-02 0.  1.
    10030    2    1    2    0    0  0.00000000000E+00  0.00000000000E+00 -0.16577602960E+03  0.26225559592E+04  0.26173112286E+04 0.  0.
        3    1    3    3  502    0  0.55414334520E+03  0.69637192316E+03 -0.10442744587E+04  0.13720487811E+04  0.10100000352E+00 0.  1.
       -3    1    3    3    0  502 -0.55414334520E+03 -0.69637192316E+03  0.87849842909E+03  0.12505071781E+04  0.10100000352E+00 0. -1.
</event>
<event>
 5   0  0.5036452E-05  0.2679381E+04  0.7818609E-02  0.8341726E-01
        2   -1    0    0  501    0  0.00000000000E+00  0.00000000000E+00  0.19761904526E+04  0.19761904526E+04  0.25500000920E-02 0. -1.
       -2   -1    0    0    0  501  0.00000000000E+00  0.00000000000E+00 -0.90819696138E+03  0.90819696138E+03  0.25500000920E-02 0.  1.
    10030    2    1    2    0    0  0.00000000000E+00  0.00000000000E+00  0.10679934913E+04  0.28843874140E+04  0.26793806480E+04 0.  0.
        2    1    3    3  502    0  0.16070319736E+03  0.37434484030E+03  0.19078946696E+04  0.19509027776E+04  0.25500000920E-02 0. -1.
       -2    1    3    3    0  502 -0.16070319736E+03 -0.37434484030E+03 -0.83990117836E+03  0.93348463647E+03  0.25500000920E-02 0.  1.
</event>
<event>
 5   0  0.5036452E-05  0.2477236E+04  0.7818609E-02  0.8411140E-01
       -2   -1    0    0    0  501  0.00000000000E+00  0.00000000000E+00  0.60722186883E+03  0.60722186883E+03  0.25500000920E-02 0. -1.
        2   -1    0    0  501    0  0.00000000000E+00  0.00000000000E+00 -0.25265469728E+04  0.25265469728E+04  0.25500000920E-02 0.  1.
    10030    2    1    2    0    0  0.00000000000E+00  0.00000000000E+00 -0.19193251040E+04  0.31337688417E+04  0.24772360199E+04 0.  0.
        2    1    3    3  502    0  0.18539967634E+03 -0.10343759489E+04 -0.17890684043E+04  0.20748668389E+04  0.25500000920E-02 0.  1.
       -2    1    3    3    0  502 -0.18539967634E+03  0.10343759489E+04 -0.13025669969E+03  0.10589020028E+04  0.25500000920E-02 0. -1.
</event>
<event>
 5   0  0.5049803E-05  0.2563679E+04  0.7818609E-02  0.8380644E-01
        2   -1    0    0  501    0  0.00000000000E+00  0.00000000000E+00  0.12121231498E+04  0.12121231498E+04  0.25500000920E-02 0. -1.
       -2   -1    0    0    0  501  0.00000000000E+00  0.00000000000E+00 -0.13555656363E+04  0.13555656363E+04  0.25500000920E-02 0.  1.
    10030    2    1    2    0    0  0.00000000000E+00  0.00000000000E+00 -0.14344248655E+03  0.25676887861E+04  0.25636789883E+04 0.  0.
        4    1    3    3  502    0 -0.10493123382E+04  0.67664509975E+03  0.21891515718E+03  0.12676081544E+04  0.12699999809E+01 0.  1.
       -4    1    3    3    0  502  0.10493123382E+04 -0.67664509975E+03 -0.36235764373E+03  0.13000806317E+04  0.12699999809E+01 0. -1.
</event>
<event>
 5   0  0.2159405E-05  0.2271063E+04  0.7818609E-02  0.8489419E-01
       -1   -1    0    0    0  501  0.00000000000E+00  0.00000000000E+00  0.10940162039E+04  0.10940162039E+04  0.50400001928E-02 0. -1.
        1   -1    0    0  501    0  0.00000000000E+00  0.00000000000E+00 -0.11786222655E+04  0.11786222656E+04  0.50400001928E-02 0.  1.
    10030    2    1    2    0    0  0.00000000000E+00  0.00000000000E+00 -0.84606061678E+02  0.22726384694E+04  0.22710630610E+04 0.  0.
        3    1    3    3  502    0 -0.32044724151E+02  0.90618985246E+03 -0.72631573152E+03  0.11617837428E+04  0.10100000352E+00 0.  1.
       -3    1    3    3    0  502  0.32044724151E+02 -0.90618985246E+03  0.64170966985E+03  0.11108547266E+04  0.10100000352E+00 0. -1.
</event>
<event>
 5   0  0.1954502E-05  0.2638668E+04  0.7818609E-02  0.8355184E-01
        1   -1    0    0  501    0  0.00000000000E+00  0.00000000000E+00  0.10497913048E+04  0.10497913048E+04  0.50400001928E-02 0.  1.
       -1   -1    0    0    0  501  0.00000000000E+00  0.00000000000E+00 -0.16580838724E+04  0.16580838724E+04  0.50400001928E-02 0. -1.
    10030    2    1    2    0    0  0.00000000000E+00  0.00000000000E+00 -0.60829256754E+03  0.27078751772E+04  0.26386678699E+04 0.  0.
        4    1    3    3  502    0 -0.95669989634E+03 -0.60418495314E+03  0.39212228765E+03  0.11975289770E+04  0.12699999809E+01 0.  1.
       -4    1    3    3    0  502  0.95669989634E+03  0.60418495314E+03 -0.10004148552E+04  0.15103462003E+04  0.12699999809E+01 0. -1.
</event>
<event>
 5   0  0.4955675E-05  0.2566120E+04  0.7818609E-02  0.8379801E-01
       -2   -1    0    0    0  501  0.00000000000E+00  0.00000000000E+00  0.94231813579E+03  0.94231813579E+03  0.25500000920E-02 0. -1.
        2   -1    0    0  501    0  0.00000000000E+00  0.00000000000E+00 -0.17470136371E+04  0.17470136371E+04  0.25500000920E-02 0.  1.
    10030    2    1    2    0    0  0.00000000000E+00  0.00000000000E+00 -0.80469550129E+03  0.26893317729E+04  0.25661197429E+04 0.  0.
        5    1    3    3  502    0  0.15921459844E+03  0.18489519449E+03 -0.17224659730E+04  0.17396685430E+04  0.46999998093E+01 0.  1.
       -5    1    3    3    0  502 -0.15921459844E+03 -0.18489519449E+03  0.91777047175E+03  0.94966322984E+03  0.46999998093E+01 0. -1.
</event>
<event>
 5   0  0.1993815E-05  0.1738482E+04  0.7818609E-02  0.8739716E-01
        1   -1    0    0  501    0  0.00000000000E+00  0.00000000000E+00  0.10756374896E+04  0.10756374896E+04  0.50400001928E-02 0. -1.
       -1   -1    0    0    0  501  0.00000000000E+00  0.00000000000E+00 -0.70244845695E+03  0.70244845696E+03  0.50400001928E-02 0.  1.
    10030    2    1    2    0    0  0.00000000000E+00  0.00000000000E+00  0.37318903262E+03  0.17780859465E+04  0.17384819755E+04 0.  0.
        5    1    3    3  502    0  0.51190567224E+03 -0.56676713932E+03  0.61112295801E+03  0.97814404219E+03  0.46999998093E+01 0. -1.
       -5    1    3    3    0  502 -0.51190567224E+03  0.56676713932E+03 -0.23793392539E+03  0.79994190434E+03  0.46999998093E+01 0.  1.
</event>
<event>
 5   0  0.1954502E-05  0.2602953E+04  0.7818609E-02  0.8367199E-01
       -1   -1    0    0    0  501  0.00000000000E+00  0.00000000000E+00  0.10666534720E+04  0.10666534720E+04  0.50400001928E-02 0. -1.
        1   -1    0    0  501    0  0.00000000000E+00  0.00000000000E+00 -0.15879959589E+04  0.15879959589E+04  0.50400001928E-02 0.  1.
    10030    2    1    2    0    0  0.00000000000E+00  0.00000000000E+00 -0.52134248689E+03  0.26546494310E+04  0.26029532483E+04 0.  0.
        4    1    3    3  502    0  0.52764664582E+03  0.11409374764E+04  0.83205546260E+02  0.12597912858E+04  0.12699999809E+01 0. -1.
       -4    1    3    3    0  502 -0.52764664582E+03 -0.11409374764E+04 -0.60454803315E+03  0.13948581452E+04  0.12699999809E+01 0.  1.
</event>
<event>
 5   0  0.4955675E-05  0.2602077E+04  0.7818609E-02  0.8367496E-01
       -2   -1    0    0    0  501  0.00000000000E+00  0.00000000000E+00  0.14597967984E+04  0.14597967984E+04  0.25500000920E-02 0.  1.
        2   -1    0    0  501    0  0.00000000000E+00  0.00000000000E+00 -0.11595453521E+04  0.11595453521E+04  0.25500000920E-02 0. -1.
    10030    2    1    2    0    0  0.00000000000E+00  0.00000000000E+00  0.30025144632E+03  0.26193421504E+04  0.26020765496E+04 0.  0.
        5    1    3    3  502    0 -0.10247556218E+04  0.95366353729E+02  0.95130858417E+03  0.14015095213E+04  0.46999998093E+01 0.  1.
       -5    1    3    3    0  502  0.10247556218E+04 -0.95366353729E+02 -0.65105713785E+03  0.12178326292E+04  0.46999998093E+01 0. -1.
</event>
<event>
 5   0  0.2159405E-05  0.2693029E+04  0.7818609E-02  0.8337270E-01
       -1   -1    0    0    0  501  0.00000000000E+00  0.00000000000E+00  0.13329539847E+04  0.13329539847E+04  0.50400001928E-02 0.  1.
        1   -1    0    0  501    0  0.00000000000E+00  0.00000000000E+00 -0.13602130317E+04  0.13602130318E+04  0.50400001928E-02 0. -1.
    10030    2    1    2    0    0  0.00000000000E+00  0.00000000000E+00 -0.27259047017E+02  0.26931670165E+04  0.26930290609E+04 0.  0.
        3    1    3    3  502    0 -0.49258387242E+03  0.85503997212E+03  0.90258832399E+03  0.13373099559E+04  0.10100000352E+00 0.  1.
       -3    1    3    3    0  502  0.49258387242E+03 -0.85503997212E+03 -0.92984737100E+03  0.13558570606E+04  0.10100000352E+00 0. -1.
</event>
<event>
 5   0  0.2159405E-05  0.2649634E+04  0.7818609E-02  0.8351535E-01
        1   -1    0    0  501    0  0.00000000000E+00  0.00000000000E+00  0.18624713430E+04  0.18624713430E+04  0.50400001928E-02 0. -1.
       -1   -1    0    0    0  501  0.00000000000E+00  0.00000000000E+00 -0.94237125868E+03  0.94237125870E+03  0.50400001928E-02 0.  1.
    10030    2    1    2    0    0  0.00000000000E+00  0.00000000000E+00  0.92010008434E+03  0.28048426017E+04  0.26496335323E+04 0.  0.
        3    1    3    3  502    0 -0.32197671547E+03 -0.15789456487E+03  0.18101161195E+04  0.18452967445E+04  0.10100000352E+00 0. -1.
       -3    1    3    3    0  502  0.32197671547E+03  0.15789456487E+03 -0.89001603521E+03  0.95954585719E+03  0.10100000352E+00 0.  1.
</event>
<event>
 5   0  0.2159405E-05  0.2552971E+04  0.7818609E-02  0.8384354E-01
       -1   -1    0    0    0  501  0.00000000000E+00  0.00000000000E+00  0.12480764578E+04  0.12480764578E+04  0.50400001928E-02 0.  1.
        1   -1    0    0  501    0  0.00000000000E+00  0.00000000000E+00 -0.13055408542E+04  0.13055408542E+04  0.50400001928E-02 0. -1.
    10030    2    1    2    0    0  0.00000000000E+00  0.00000000000E+00 -0.57464396409E+02  0.25536173120E+04  0.25529706656E+04 0.  0.
        3    1    3    3  502    0  0.79413557270E+03  0.90069296040E+03  0.40440828968E+03  0.12670616369E+04  0.10100000352E+00 0.  1.
       -3    1    3    3    0  502 -0.79413557270E+03 -0.90069296040E+03 -0.46187268609E+03  0.12865556751E+04  0.10100000352E+00 0. -1.
</event>
<event>
 5   0  0.2072710E-05  0.2563680E+04  0.7818609E-02  0.8380644E-01
        1   -1    0    0  501    0  0.00000000000E+00  0.00000000000E+00  0.16104304131E+04  0.16104304131E+04  0.50400001928E-02 0.  1.
       -1   -1    0    0    0  501  0.00000000000E+00  0.00000000000E+00 -0.10202945603E+04  0.10202945603E+04  0.50400001928E-02 0. -1.
    10030    2    1    2    0    0  0.00000000000E+00  0.00000000000E+00  0.59013585282E+03  0.26307249735E+04  0.25636796916E+04 0.  0.
        2    1    3    3  502    0  0.45445906189E+02 -0.26896158887E+03 -0.99016754109E+03  0.10270527864E+04  0.25500000920E-02 0. -1.
       -2    1    3    3    0  502 -0.45445906189E+02  0.26896158887E+03  0.15803033939E+04  0.16036721870E+04  0.25500000920E-02 0.  1.
</event>
<event>
 5   0  0.1954502E-05  0.2581912E+04  0.7818609E-02  0.8374371E-01
       -1   -1    0    0    0  501  0.00000000000E+00  0.00000000000E+00  0.96432033476E+03  0.96432033477E+03  0.50400001928E-02 0.  1.
        1   -1    0    0  501    0  0.00000000000E+00  0.00000000000E+00 -0.17282304437E+04  0.17282304437E+04  0.50400001928E-02 0. -1.
    10030    2    1    2    0    0  0.00000000000E+00  0.00000000000E+00 -0.76391010892E+03  0.26925507785E+04  0.25819122836E+04 0.  0.
        4    1    3    3  502    0  0.11512462196E+04  0.23787116913E+03  0.17439965132E+03  0.11884306469E+04  0.12699999809E+01 0.  1.
       -4    1    3    3    0  502 -0.11512462196E+04 -0.23787116913E+03 -0.93830976024E+03  0.15041201316E+04  0.12699999809E+01 0. -1.
</event>
<event>
 5   0  0.1954502E-05  0.1787899E+04  0.7818609E-02  0.8712761E-01
       -1   -1    0    0    0  501  0.00000000000E+00  0.00000000000E+00  0.62696618357E+03  0.62696618359E+03  0.50400001928E-02 0. -1.
        1   -1    0    0  501    0  0.00000000000E+00  0.00000000000E+00 -0.12746228993E+04  0.12746228993E+04  0.50400001928E-02 0.  1.
    10030    2    1    2    0    0  0.00000000000E+00  0.00000000000E+00 -0.64765671576E+03  0.19015890829E+04  0.17878987161E+04 0.  0.
        4    1    3    3  502    0 -0.40628920723E+03 -0.39609540850E+03 -0.10585375837E+04  0.12010270278E+04  0.12699999809E+01 0.  1.
       -4    1    3    3    0  502  0.40628920723E+03  0.39609540850E+03  0.41088086793E+03  0.70056205512E+03  0.12699999809E+01 0. -1.
</event>
<event>
 5   0  0.5182179E-05  0.2223637E+04  0.7818609E-02  0.8508654E-01
       -2   -1    0    0    0  501  0.00000000000E+00  0.00000000000E+00  0.10626781325E+04  0.10626781325E+04  0.25500000920E-02 0. -1.
        2   -1    0    0  501    0  0.00000000000E+00  0.00000000000E+00 -0.11632315674E+04  0.11632315674E+04  0.25500000920E-02 0.  1.
    10030    2    1    2    0    0  0.00000000000E+00  0.00000000000E+00 -0.10055343488E+03  0.22259097000E+04  0.22236373353E+04 0.  0.
        3    1    3    3  502    0 -0.14603163921E+02  0.51586899727E+02 -0.11619368046E+04  0.11631730777E+04  0.10100000352E+00 0.  1.
       -3    1    3    3    0  502  0.14603163921E+02 -0.51586899727E+02  0.10613833697E+04  0.10627366223E+04  0.10100000352E+00 0. -1.
</event>
<event>
 5   0  0.5049803E-05  0.2513499E+04  0.7818609E-02  0.8398192E-01
       -2   -1    0    0    0  501  0.00000000000E+00  0.00000000000E+00  0.11005143578E+04  0.11005143578E+04  0.25500000920E-02 0. -1.
        2   -1    0    0  501    0  0.00000000000E+00  0.00000000000E+00 -0.14351646077E+04  0.14351646077E+04  0.25500000920E-02 0.  1.
    10030    2    1    2    0    0  0.00000000000E+00  0.00000000000E+00 -0.33465024994E+03  0.25356789655E+04  0.25134989609E+04 0.  0.
        4    1    3    3  502    0 -0.78052484903E+03  0.88700369583E+03 -0.59938358179E+03  0.13248610823E+04  0.12699999809E+01 0.  1.
       -4    1    3    3    0  502  0.78052484903E+03 -0.88700369583E+03  0.26473333185E+03  0.12108178832E+04  0.12699999809E+01 0. -1.
</event>
<event>
 5   0  0.5049803E-05  0.2595484E+04  0.7818609E-02  0.8369737E-01
       -2   -1    0    0    0  501  0.00000000000E+00  0.00000000000E+00  0.92765758280E+03  0.92765758281E+03  0.25500000920E-02 0. -1.
        2   -1    0    0  501    0  0.00000000000E+00  0.00000000000E+00 -0.18154691757E+04  0.18154691757E+04  0.25500000920E-02 0.  1.
    10030    2    1    2    0    0  0.00000000000E+00  0.00000000000E+00 -0.88781159285E+03  0.27431267585E+04  0.25954835751E+04 0.  0.
        4    1    3    3  502    0  0.22988579065E+03  0.10810843327E+04  0.27488558466E+03  0.11389269110E+04  0.12699999809E+01 0.  1.
       -4    1    3    3    0  502 -0.22988579065E+03 -0.10810843327E+04 -0.11626971775E+04  0.16041998474E+04  0.12699999809E+01 0. -1.
</event>
<event>
 5   0  0.1993815E-05  0.1383615E+04  0.7818609E-02  0.8965765E-01
       -1   -1    0    0    0  501  0.00000000000E+00  0.00000000000E+00  0.85963239251E+03  0.85963239252E+03  0.50400001928E-02 0.  1.
        1   -1    0    0  501    0  0.00000000000E+00  0.00000000000E+00 -0.55674659271E+03  0.55674659274E+03  0.50400001928E-02 0. -1.
    10030    2    1    2    0    0  0.00000000000E+00  0.00000000000E+00  0.30288579980E+03  0.14163789853E+04  0.13836146943E+04 0.  0.
        5    1    3    3  502    0  0.17891498987E+02  0.10697843290E+03 -0.54797181955E+03  0.55862303556E+03  0.46999998093E+01 0. -1.
       -5    1    3    3    0  502 -0.17891498987E+02 -0.10697843290E+03  0.85085761935E+03  0.85775594970E+03  0.46999998093E+01 0.  1.
</event>
<event>
 5   0  0.2159405E-05  0.1521986E+04  0.7818609E-02  0.8869962E-01
       -1   -1    0    0    0  501  0.00000000000E+00  0.00000000000E+00  0.63009357545E+03  0.63009357547E+03  0.50400001928E-02 0. -1.
        1   -1    0    0  501    0  0.00000000000E+00  0.00000000000E+00 -0.91908676776E+03  0.91908676777E+03  0.50400001928E-02 0.  1.
    10030    2    1    2    0    0  0.00000000000E+00  0.00000000000E+00 -0.28899319231E+03  0.15491803432E+04  0.15219864226E+04 0.  0.
        3    1    3    3  502    0  0.50055825695E+03  0.30717164155E+02  0.43810116301E+03  0.66590896676E+03  0.10100000352E+00 0. -1.
       -3    1    3    3    0  502 -0.50055825695E+03 -0.30717164155E+02 -0.72709435531E+03  0.88327137648E+03  0.10100000352E+00 0.  1.
</event>
<event>
 5   0  0.5049803E-05  0.2559972E+04  0.7818609E-02  0.8381926E-01
       -2   -1    0    0    0  501  0.00000000000E+00  0.00000000000E+00  0.87338961296E+03  0.87338961297E+03  0.25500000920E-02 0.  1.
        2   -1    0    0  501    0  0.00000000000E+00  0.00000000000E+00 -0.18758681048E+04  0.18758681048E+04  0.25500000920E-02 0. -1.
    10030    2    1    2    0    0  0.00000000000E+00  0.00000000000E+00 -0.10024784918E+04  0.27492577178E+04  0.25599716545E+04 0.  0.
        4    1    3    3  502    0  0.11029790593E+04  0.64703569858E+03 -0.44102090418E+03  0.13526710802E+04  0.12699999809E+01 0. -1.
       -4    1    3    3    0  502 -0.11029790593E+04 -0.64703569858E+03 -0.56145758765E+03  0.13965866375E+04  0.12699999809E+01 0.  1.
</event>
<event>
 5   0  0.4955675E-05  0.1983280E+04  0.7818609E-02  0.8614478E-01
       -2   -1    0    0    0  501  0.00000000000E+00  0.00000000000E+00  0.61443559515E+03  0.61443559516E+03  0.25500000920E-02 0.  1.
        2   -1    0    0  501    0  0.00000000000E+00  0.00000000000E+00 -0.16004117605E+04  0.16004117605E+04  0.25500000920E-02 0. -1.
    10030    2    1    2    0    0  0.00000000000E+00  0.00000000000E+00 -0.98597616539E+03  0.22148473557E+04  0.19832800635E+04 0.  0.
        5    1    3    3  502    0  0.20236322838E+03 -0.76176214390E+03  0.17901500984E+03  0.80827031606E+03  0.46999998093E+01 0.  1.
       -5    1    3    3    0  502 -0.20236322838E+03  0.76176214390E+03 -0.11649911752E+04  0.14065770396E+04  0.46999998093E+01 0. -1.
</event>
<event>
 5   0  0.1993815E-05  0.2575285E+04  0.7818609E-02  0.8376645E-01
        1   -1    0    0  501    0  0.00000000000E+00  0.00000000000E+00  0.11145179577E+04  0.11145179577E+04  0.50400001928E-02 0.  1.
       -1   -1    0    0    0  501  0.00000000000E+00  0.00000000000E+00 -0.14876589390E+04  0.14876589390E+04  0.50400001928E-02 0. -1.
    10030    2    1    2    0    0  0.00000000000E+00  0.00000000000E+00 -0.37314098128E+03  0.26021768967E+04  0.25752845299E+04 0.  0.
        5    1    3    3  502    0 -0.28848842323E+03 -0.78232369827E+03  0.80487110892E+03  0.11589199848E+04  0.46999998093E+01 0.  1.
       -5    1    3    3    0  502  0.28848842323E+03  0.78232369827E+03 -0.11780120902E+04  0.14432569119E+04  0.46999998093E+01 0. -1.
</event>
<event>
 5   0  0.2159405E-05  0.2589557E+04  0.7818609E-02  0.8371757E-01
       -1   -1    0    0    0  501  0.00000000000E+00  0.00000000000E+00  0.85258873289E+03  0.85258873291E+03  0.50400001928E-02 0.  1.
        1   -1    0    0  501    0  0.00000000000E+00  0.00000000000E+00 -0.19663078053E+04  0.19663078053E+04  0.50400001928E-02 0. -1.
    10030    2    1    2    0    0  0.00000000000E+00  0.00000000000E+00 -0.11137190724E+04  0.28188965382E+04  0.25895573987E+04 0.  0.
        3    1    3    3  502    0 -0.53830761595E+03 -0.92929107912E+03  0.23044694266E+03  0.10983910063E+04  0.10100000352E+00 0.  1.
       -3    1    3    3    0  502  0.53830761595E+03  0.92929107912E+03 -0.13441660151E+04  0.17205055319E+04  0.10100000352E+00 0. -1.
</event>
<event>
 5   0  0.5036452E-05  0.2619283E+04  0.7818609E-02  0.8361681E-01
        2   -1    0    0  501    0  0.00000000000E+00  0.00000000000E+00  0.25040321634E+04  0.25040321634E+04  0.25500000920E-02 0.  1.
       -2   -1    0    0    0  501  0.00000000000E+00  0.00000000000E+00 -0.68495958107E+03  0.68495958107E+03  0.25500000920E-02 0. -1.
    10030    2    1    2    0    0  0.00000000000E+00  0.00000000000E+00  0.18190725824E+04  0.31889917445E+04  0.26192829718E+04 0.  0.
        2    1    3    3  502    0 -0.34833905942E+03 -0.60833580956E+03 -0.43730685252E+03  0.82622626488E+03  0.25500000920E-02 0. -1.
       -2    1    3    3    0  502  0.34833905942E+03  0.60833580956E+03  0.22563794349E+04  0.23627654796E+04  0.25500000920E-02 0.  1.
</event>
<event>
 5   0  0.4955675E-05  0.2677146E+04  0.7818609E-02  0.8342459E-01
       -2   -1    0    0    0  501  0.00000000000E+00  0.00000000000E+00  0.77173339531E+03  0.77173339532E+03  0.25500000920E-02 0. -1.
        2   -1    0    0  501    0  0.00000000000E+00  0.00000000000E+00 -0.23217572817E+04  0.23217572817E+04  0.25500000920E-02 0.  1.
    10030    2    1    2    0    0  0.00000000000E+00  0.00000000000E+00 -0.15500238864E+04  0.30934906770E+04  0.26771459655E+04 0.  0.
        5    1    3    3  502    0 -0.10994824608E+04  0.60721959416E+03 -0.13097787174E+04  0.18146954829E+04  0.46999998093E+01 0. -1.
       -5    1    3    3    0  502  0.10994824608E+04 -0.60721959416E+03 -0.24024516902E+03  0.12787951941E+04  0.46999998093E+01 0.  1.
</event>
<event>
 5   0  0.5170532E-05  0.1662852E+04  0.7818609E-02  0.8782839E-01
        2   -1    0    0  501    0  0.00000000000E+00  0.00000000000E+00  0.69560952682E+03  0.69560952682E+03  0.25500000920E-02 0.  1.
       -2   -1    0    0    0  501  0.00000000000E+00  0.00000000000E+00 -0.99376039515E+03  0.99376039516E+03  0.25500000920E-02 0. -1.
    10030    2    1    2    0    0  0.00000000000E+00  0.00000000000E+00 -0.29815086833E+03  0.16893699220E+04  0.16628520057E+04 0.  0.
        1    1    3    3  502    0 -0.10820385995E+03  0.69289153180E+03 -0.60280986010E+03  0.92476293049E+03  0.50400001928E-02 0. -1.
       -1    1    3    3    0  502  0.10820385995E+03 -0.69289153180E+03  0.30465899176E+03  0.76460699149E+03  0.50400001928E-02 0.  1.
</event>
<event>
 5   0  0.5049803E-05  0.2571277E+04  0.7818609E-02  0.8378024E-01
        2   -1    0    0  501    0  0.00000000000E+00  0.00000000000E+00  0.10889477002E+04  0.10889477002E+04  0.25500000920E-02 0. -1.
       -2   -1    0    0    0  501  0.00000000000E+00  0.00000000000E+00 -0.15178561669E+04  0.15178561669E+04  0.25500000920E-02 0.  1.
    10030    2    1    2    0    0  0.00000000000E+00  0.00000000000E+00 -0.42890846676E+03  0.26068038671E+04  0.25712767118E+04 0.  0.
        4    1    3    3  502    0 -0.10456668065E+04 -0.68309989188E+03 -0.52332722921E+03  0.13542221141E+04  0.12699999809E+01 0.  1.
       -4    1    3    3    0  502  0.10456668065E+04  0.68309989188E+03  0.94418762446E+02  0.12525817531E+04  0.12699999809E+01 0. -1.
</event>
<event>
 5   0  0.4955675E-05  0.2560489E+04  0.7818609E-02  0.8381748E-01
        2   -1    0    0  501    0  0.00000000000E+00  0.00000000000E+00  0.20873034152E+04  0.20873034152E+04  0.25500000920E-02 0. -1.
       -2   -1    0    0    0  501  0.00000000000E+00  0.00000000000E+00 -0.78523580982E+03  0.78523580983E+03  0.25500000920E-02 0.  1.
    10030    2    1    2    0    0  0.00000000000E+00  0.00000000000E+00  0.13020676054E+04  0.28725392251E+04  0.25604885375E+04 0.  0.
        5    1    3    3  502    0  0.37779867856E+03  0.78359664391E+03  0.17047858052E+04  0.19139154301E+04  0.46999998093E+01 0. -1.
       -5    1    3    3    0  502 -0.37779867856E+03 -0.78359664391E+03 -0.40271819980E+03  0.95862379498E+03  0.46999998093E+01 0.  1.
</event>
<event>
 5   0  0.5182179E-05  0.1283940E+04  0.7818609E-02  0.9042398E-01
       -2   -1    0    0    0  501  0.00000000000E+00  0.00000000000E+00  0.36232242235E+03  0.36232242236E+03  0.25500000920E-02 0.  1.
        2   -1    0    0  501    0  0.00000000000E+00  0.00000000000E+00 -0.11374556146E+04  0.11374556146E+04  0.25500000920E-02 0. -1.
    10030    2    1    2    0    0  0.00000000000E+00  0.00000000000E+00 -0.77513319221E+03  0.14997780369E+04  0.12839403002E+04 0.  0.
        3    1    3    3  502    0  0.48462954334E+03 -0.36085518361E+03 -0.13421039669E+03  0.61894644243E+03  0.10100000352E+00 0.  1.
       -3    1    3    3    0  502 -0.48462954334E+03  0.36085518361E+03 -0.64092279552E+03  0.88083159448E+03  0.10100000352E+00 0. -1.
</event>
<event>
 5   0  0.1954502E-05  0.2622683E+04  0.7818609E-02  0.8360537E-01
       -1   -1    0    0    0  501  0.00000000000E+00  0.00000000000E+00  0.55992161727E+03  0.55992161729E+03  0.50400001928E-02 0.  1.
        1   -1    0    0  501    0  0.00000000000E+00  0.00000000000E+00 -0.30711729489E+04  0.30711729489E+04  0.50400001928E-02 0. -1.
    10030    2    1    2    0    0  0.00000000000E+00  0.00000000000E+00 -0.25112513316E+04  0.36310945662E+04  0.26226826911E+04 0.  0.
        4    1    3    3  502    0 -0.10718812441E+04 -0.60297461545E+03 -0.62555551099E+03  0.13797931361E+04  0.12699999809E+01 0.  1.
       -4    1    3    3    0  502  0.10718812441E+04  0.60297461545E+03 -0.18856958207E+04  0.22513014301E+04  0.12699999809E+01 0. -1.
</event>
<event>
 5   0  0.4955675E-05  0.2571477E+04  0.7818609E-02  0.8377955E-01
        2   -1    0    0  501    0  0.00000000000E+00  0.00000000000E+00  0.57023479041E+03  0.57023479041E+03  0.25500000920E-02 0.  1.
       -2   -1    0    0    0  501  0.00000000000E+00  0.00000000000E+00 -0.28990225819E+04  0.28990225820E+04  0.25500000920E-02 0. -1.
    10030    2    1    2    0    0  0.00000000000E+00  0.00000000000E+00 -0.23287877915E+04  0.34692573724E+04  0.25714770342E+04 0.  0.
        5    1    3    3  502    0 -0.95532529309E+03 -0.58812530112E+03 -0.20118406312E+04  0.23034892231E+04  0.46999998093E+01 0. -1.
       -5    1    3    3    0  502  0.95532529309E+03  0.58812530112E+03 -0.31694716033E+03  0.11657681493E+04  0.46999998093E+01 0.  1.
</event>
<event>
 5   0  0.1993815E-05  0.2655091E+04  0.7818609E-02  0.8349725E-01
        1   -1    0    0  501    0  0.00000000000E+00  0.00000000000E+00  0.13272669447E+04  0.13272669447E+04  0.50400001928E-02 0. -1.
       -1   -1    0    0    0  501  0.00000000000E+00  0.00000000000E+00 -0.13278239138E+04  0.13278239138E+04  0.50400001928E-02 0.  1.
    10030    2    1    2    0    0  0.00000000000E+00  0.00000000000E+00 -0.55696911400E+00  0.26550908586E+04  0.26550908001E+04 0.  0.
        5    1    3    3  502    0 -0.30013284347E+02 -0.13192502321E+04  0.14474816177E+03  0.13275150065E+04  0.46999998093E+01 0.  1.
       -5    1    3    3    0  502  0.30013284347E+02  0.13192502321E+04 -0.14530513088E+03  0.13275758521E+04  0.46999998093E+01 0. -1.
</event>
<event>
 5   0  0.1993815E-05  0.2261213E+04  0.7818609E-02  0.8493373E-01
        1   -1    0    0  501    0  0.00000000000E+00  0.00000000000E+00  0.13838667082E+04  0.13838667082E+04  0.50400001928E-02 0. -1.
       -1   -1    0    0    0  501  0.00000000000E+00  0.00000000000E+00 -0.92369499399E+03  0.92369499400E+03  0.50400001928E-02 0.  1.
    10030    2    1    2    0    0  0.00000000000E+00  0.00000000000E+00  0.46017171417E+03  0.23075617022E+04  0.22612127283E+04 0.  0.
        5    1    3    3  502    0  0.96236024902E+03 -0.20872447647E+03  0.79694024504E+03  0.12668224028E+04  0.46999998093E+01 0. -1.
       -5    1    3    3    0  502 -0.96236024902E+03  0.20872447647E+03 -0.33676853087E+03  0.10407392994E+04  0.46999998093E+01 0.  1.
</event>
<event>
 5   0  0.1993815E-05  0.2600810E+04  0.7818609E-02  0.8367926E-01
       -1   -1    0    0    0  501  0.00000000000E+00  0.00000000000E+00  0.11894594936E+04  0.11894594936E+04  0.50400001928E-02 0. -1.
        1   -1    0    0  501    0  0.00000000000E+00  0.00000000000E+00 -0.14216985078E+04  0.14216985079E+04  0.50400001928E-02 0.  1.
    10030    2    1    2    0    0  0.00000000000E+00  0.00000000000E+00 -0.23223901424E+03  0.26111580015E+04  0.26008097103E+04 0.  0.
        5    1    3    3  502    0 -0.98369530678E+03  0.43734925979E+03 -0.84847365982E+03  0.13707153144E+04  0.46999998093E+01 0.  1.
       -5    1    3    3    0  502  0.98369530678E+03 -0.43734925979E+03  0.61623464558E+03  0.12404426871E+04  0.46999998093E+01 0. -1.
</event>
<event>
 5   0  0.2163800E-05  0.2351777E+04  0.7818609E-02  0.8457781E-01
        1   -1    0    0  501    0  0.00000000000E+00  0.00000000000E+00  0.16122345246E+04  0.16122345246E+04  0.50400001928E-02 0.  1.
       -1   -1    0    0    0  501  0.00000000000E+00  0.00000000000E+00 -0.85763799385E+03  0.85763799386E+03  0.50400001928E-02 0. -1.
    10030    2    1    2    0    0  0.00000000000E+00  0.00000000000E+00  0.75459653073E+03  0.24698725185E+04  0.23517768460E+04 0.  0.
        1    1    3    3  502    0 -0.11208327485E+04  0.18215921396E+02  0.75025892806E+03  0.13488833638E+04  0.50400001928E-02 0.  1.
       -1    1    3    3    0  502  0.11208327485E+04 -0.18215921396E+02  0.43376026689E+01  0.11209891546E+04  0.50400001928E-02 0. -1.
</event>
<event>
 5   0  0.5182179E-05  0.2566234E+04  0.7818609E-02  0.8379762E-01
        2   -1    0    0  501    0  0.00000000000E+00  0.00000000000E+00  0.18543142443E+04  0.18543142443E+04  0.25500000920E-02 0. -1.
       -2   -1    0    0    0  501  0.00000000000E+00  0.00000000000E+00 -0.88786977188E+03  0.88786977188E+03  0.25500000920E-02 0.  1.
    10030    2    1    2    0    0  0.00000000000E+00  0.00000000000E+00  0.96644447241E+03  0.27421840162E+04  0.25662342567E+04 0.  0.
        3    1    3    3  502    0  0.35632126165E+03  0.61819251722E+03 -0.65632071594E+03  0.96947600395E+03  0.10100000352E+00 0.  1.
       -3    1    3    3    0  502 -0.35632126165E+03 -0.61819251722E+03  0.16227651883E+04  0.17727080122E+04  0.10100000352E+00 0. -1.
</event>
<event>
 5   0  0.2072710E-05  0.2595665E+04  0.7818609E-02  0.8369675E-01
       -1   -1    0    0    0  501  0.00000000000E+00  0.00000000000E+00  0.93230575794E+03  0.93230575795E+03  0.50400001928E-02 0.  1.
        1   -1    0    0  501    0  0.00000000000E+00  0.00000000000E+00 -0.18066702086E+04  0.18066702086E+04  0.50400001928E-02 0. -1.
    10030    2    1    2    0    0  0.00000000000E+00  0.00000000000E+00 -0.87436445066E+03  0.27389759666E+04  0.25956648768E+04 0.  0.
        2    1    3    3  502    0 -0.10630560373E+03  0.15035035034E+03  0.91845188521E+03  0.93672833558E+03  0.25500000920E-02 0.  1.
       -2    1    3    3    0  502  0.10630560373E+03 -0.15035035034E+03 -0.17928163359E+04  0.18022476310E+04  0.25500000920E-02 0. -1.
</event>
<event>
 5   0  0.1954502E-05  0.2599828E+04  0.7818609E-02  0.8368260E-01
        1   -1    0    0  501    0  0.00000000000E+00  0.00000000000E+00  0.10654443246E+04  0.10654443246E+04  0.50400001928E-02 0.  1.
       -1   -1    0    0    0  501  0.00000000000E+00  0.00000000000E+00 -0.15859827383E+04  0.15859827383E+04  0.50400001928E-02 0. -1.
    10030    2    1    2    0    0  0.00000000000E+00  0.00000000000E+00 -0.52053841371E+03  0.26514270629E+04  0.25998279231E+04 0.  0.
        4    1    3    3  502    0 -0.88628629235E+03  0.90395209721E+03  0.40787713272E+02  0.12666088727E+04  0.12699999809E+01 0.  1.
       -4    1    3    3    0  502  0.88628629235E+03 -0.90395209721E+03 -0.56132612699E+03  0.13848181902E+04  0.12699999809E+01 0. -1.
</event>
<event>
 5   0  0.5036452E-05  0.2584127E+04  0.7818609E-02  0.8373613E-01
        2   -1    0    0  501    0  0.00000000000E+00  0.00000000000E+00  0.18717443546E+04  0.18717443546E+04  0.25500000920E-02 0.  1.
       -2   -1    0    0    0  501  0.00000000000E+00  0.00000000000E+00 -0.89191001410E+03  0.89191001410E+03  0.25500000920E-02 0. -1.
    10030    2    1    2    0    0  0.00000000000E+00  0.00000000000E+00  0.97983434047E+03  0.27636543687E+04  0.25841265710E+04 0.  0.
        2    1    3    3  502    0  0.13232281454E+03 -0.20339405948E+03  0.18471580310E+04  0.18630274454E+04  0.25500000920E-02 0.  1.
       -2    1    3    3    0  502 -0.13232281454E+03  0.20339405948E+03 -0.86732369058E+03  0.90062692327E+03  0.25500000920E-02 0. -1.
</event>
<event>
 5   0  0.5036452E-05  0.2721151E+04  0.7818609E-02  0.8328175E-01
        2   -1    0    0  501    0  0.00000000000E+00  0.00000000000E+00  0.25303336094E+04  0.25303336094E+04  0.25500000920E-02 0.  1.
       -2   -1    0    0    0  501  0.00000000000E+00  0.00000000000E+00 -0.73158984212E+03  0.73158984212E+03  0.25500000920E-02 0. -1.
    10030    2    1    2    0    0  0.00000000000E+00  0.00000000000E+00  0.17987437673E+04  0.32619234516E+04  0.27211514958E+04 0.  0.
        2    1    3    3  502    0  0.14731669198E+03 -0.13016413059E+04  0.45861422875E+03  0.13879118515E+04  0.25500000920E-02 0. -1.
       -2    1    3    3    0  502 -0.14731669198E+03  0.13016413059E+04  0.13401295386E+04  0.18740116000E+04  0.25500000920E-02 0.  1.
</event>
<event>
 5   0  0.2163800E-05  0.2618290E+04  0.7818609E-02  0.8362015E-01
       -1   -1    0    0    0  501  0.00000000000E+00  0.00000000000E+00  0.22376817396E+04  0.22376817397E+04  0.50400001928E-02 0.  1.
        1   -1    0    0  501    0  0.00000000000E+00  0.00000000000E+00 -0.76590906696E+03  0.76590906697E+03  0.50400001928E-02 0. -1.
    10030    2    1    2    0    0  0.00000000000E+00  0.00000000000E+00  0.14717726727E+04  0.30035908066E+04  0.26182900782E+04 0.  0.
        1    1    3    3  502    0 -0.11791045928E+04  0.36226417952E+03  0.12389874514E+04  0.17483171569E+04  0.50400001928E-02 0.  1.
       -1    1    3    3    0  502  0.11791045928E+04 -0.36226417952E+03  0.23278522132E+03  0.12552736497E+04  0.50400001928E-02 0. -1.
</event>
<event>
 5   0  0.4955675E-05  0.2611716E+04  0.7818609E-02  0.8364232E-01
       -2   -1    0    0    0  501  0.00000000000E+00  0.00000000000E+00  0.12998314272E+04  0.12998314272E+04  0.25500000920E-02 0. -1.
        2   -1    0    0  501    0  0.00000000000E+00  0.00000000000E+00 -0.13119124337E+04  0.13119124338E+04  0.25500000920E-02 0.  1.
    10030    2    1    2    0    0  0.00000000000E+00  0.00000000000E+00 -0.12081006576E+02  0.26117438609E+04  0.26117159195E+04 0.  0.
        5    1    3    3  502    0 -0.24727557613E+03 -0.12736484505E+04 -0.15408713150E+03  0.13065567420E+04  0.46999998093E+01 0.  1.
       -5    1    3    3    0  502  0.24727557613E+03  0.12736484505E+04  0.14200612492E+03  0.13051871189E+04  0.46999998093E+01 0. -1.
</event>
<event>
 5   0  0.2159405E-05  0.2564973E+04  0.7818609E-02  0.8380197E-01
       -1   -1    0    0    0  501  0.00000000000E+00  0.00000000000E+00  0.12329666726E+04  0.12329666726E+04  0.50400001928E-02 0. -1.
        1   -1    0    0  501    0  0.00000000000E+00  0.00000000000E+00 -0.13339952937E+04  0.13339952937E+04  0.50400001928E-02 0.  1.
    10030    2    1    2    0    0  0.00000000000E+00  0.00000000000E+00 -0.10102862111E+03  0.25669619664E+04  0.25649730904E+04 0.  0.
        3    1    3    3  502    0  0.10699817854E+04  0.68673406463E+03  0.11786308482E+03  0.12768541082E+04  0.10100000352E+00 0.  1.
       -3    1    3    3    0  502 -0.10699817854E+04 -0.68673406463E+03 -0.21889170593E+03  0.12901078582E+04  0.10100000352E+00 0. -1.
</event>
<event>
 5   0  0.5049803E-05  0.2887848E+04  0.7818609E-02  0.8276502E-01
       -2   -1    0    0    0  501  0.00000000000E+00  0.00000000000E+00  0.75487772415E+03  0.75487772416E+03  0.25500000920E-02 0. -1.
        2   -1    0    0  501    0  0.00000000000E+00  0.00000000000E+00 -0.27619259318E+04  0.27619259318E+04  0.25500000920E-02 0.  1.
    10030    2    1    2    0    0  0.00000000000E+00  0.00000000000E+00 -0.20070482077E+04  0.35168036560E+04  0.28878478919E+04 0.  0.
        4    1    3    3  502    0 -0.49460888217E+03 -0.10383162412E+04  0.59642914231E+02  0.11516498831E+04  0.12699999809E+01 0. -1.
       -4    1    3    3    0  502  0.49460888217E+03  0.10383162412E+04 -0.20666911219E+04  0.23651537729E+04  0.12699999809E+01 0.  1.
</event>
<event>
 5   0  0.2072710E-05  0.2566936E+04  0.7818609E-02  0.8379520E-01
       -1   -1    0    0    0  501  0.00000000000E+00  0.00000000000E+00  0.91395225501E+03  0.91395225503E+03  0.50400001928E-02 0. -1.
        1   -1    0    0  501    0  0.00000000000E+00  0.00000000000E+00 -0.18023803336E+04  0.18023803336E+04  0.50400001928E-02 0.  1.
    10030    2    1    2    0    0  0.00000000000E+00  0.00000000000E+00 -0.88842807854E+03  0.27163325886E+04  0.25669355818E+04 0.  0.
        2    1    3    3  502    0  0.86497360571E+03 -0.94728139975E+03 -0.48871110577E+03  0.13727199036E+04  0.25500000920E-02 0.  1.
       -2    1    3    3    0  502 -0.86497360571E+03  0.94728139975E+03 -0.39971697277E+03  0.13436126850E+04  0.25500000920E-02 0. -1.
</event>
<event>
 5   0  0.2159405E-05  0.1361016E+04  0.7818609E-02  0.8982531E-01
       -1   -1    0    0    0  501  0.00000000000E+00  0.00000000000E+00  0.79351191619E+03  0.79351191621E+03  0.50400001928E-02 0. -1.
        1   -1    0    0  501    0  0.00000000000E+00  0.00000000000E+00 -0.58359672998E+03  0.58359673000E+03  0.50400001928E-02 0.  1.
    10030    2    1    2    0    0  0.00000000000E+00  0.00000000000E+00  0.20991518621E+03  0.13771086462E+04  0.13610157376E+04 0.  0.
        3    1    3    3  502    0 -0.16522539297E+03  0.51783108838E+03  0.51924058117E+03  0.75170423566E+03  0.10100000352E+00 0. -1.
       -3    1    3    3    0  502  0.16522539297E+03 -0.51783108838E+03 -0.30932539496E+03  0.62540441055E+03  0.10100000352E+00 0.  1.
</event>
<event>
 5   0  0.2163800E-05  0.2107486E+04  0.7818609E-02  0.8557953E-01
        1   -1    0    0  501    0  0.00000000000E+00  0.00000000000E+00  0.82087984628E+03  0.82087984630E+03  0.50400001928E-02 0.  1.
       -1   -1    0    0    0  501  0.00000000000E+00  0.00000000000E+00 -0.13526631379E+04  0.13526631379E+04  0.50400001928E-02 0. -1.
    10030    2    1    2    0    0  0.00000000000E+00  0.00000000000E+00 -0.53178329164E+03  0.21735429842E+04  0.21074856192E+04 0.  0.
        1    1    3    3  502    0 -0.67436805212E+03 -0.73426844532E+03 -0.61783772946E+03  0.11728793116E+04  0.50400001928E-02 0. -1.
       -1    1    3    3    0  502  0.67436805212E+03  0.73426844532E+03  0.86054437820E+02  0.10006636727E+04  0.50400001928E-02 0.  1.
</event>
<event>
 5   0  0.2159405E-05  0.2572472E+04  0.7818609E-02  0.8377612E-01
       -1   -1    0    0    0  501  0.00000000000E+00  0.00000000000E+00  0.14638640980E+04  0.14638640980E+04  0.50400001928E-02 0. -1.
        1   -1    0    0  501    0  0.00000000000E+00  0.00000000000E+00 -0.11301620350E+04  0.11301620350E+04  0.50400001928E-02 0.  1.
    10030    2    1    2    0    0  0.00000000000E+00  0.00000000000E+00  0.33370206308E+03  0.25940261330E+04  0.25724724511E+04 0.  0.
        3    1    3    3  502    0  0.28739997068E+03 -0.63950057362E+03 -0.92053643330E+03  0.11571288010E+04  0.10100000352E+00 0.  1.
       -3    1    3    3    0  502 -0.28739997068E+03  0.63950057362E+03  0.12542384964E+04  0.14368973320E+04  0.10100000352E+00 0. -1.
</event>
<event>
 5   0  0.5049803E-05  0.2849410E+04  0.7818609E-02  0.8288090E-01
        2   -1    0    0  501    0  0.00000000000E+00  0.00000000000E+00  0.14862135717E+04  0.14862135717E+04  0.25500000920E-02 0.  1.
       -2   -1    0    0    0  501  0.00000000000E+00  0.00000000000E+00 -0.13657424366E+04  0.13657424366E+04  0.25500000920E-02 0. -1.
    10030    2    1    2    0    0  0.00000000000E+00  0.00000000000E+00  0.12047113508E+03  0.28519560083E+04  0.28494104266E+04 0.  0.
        4    1    3    3  502    0 -0.65685192983E+03  0.11023926504E+04 -0.55923521676E+03  0.13998105779E+04  0.12699999809E+01 0. -1.
       -4    1    3    3    0  502  0.65685192983E+03 -0.11023926504E+04  0.67970635184E+03  0.14521454304E+04  0.12699999809E+01 0.  1.
</event>
<event>
 5   0  0.5170532E-05  0.2632617E+04  0.7818609E-02  0.8357205E-01
       -2   -1    0    0    0  501  0.00000000000E+00  0.00000000000E+00  0.10110010257E+04  0.10110010257E+04  0.25500000920E-02 0. -1.
        2   -1    0    0  501    0  0.00000000000E+00  0.00000000000E+00 -0.17138149612E+04  0.17138149612E+04  0.25500000920E-02 0.  1.
    10030    2    1    2    0    0  0.00000000000E+00  0.00000000000E+00 -0.70281393549E+03  0.27248159869E+04  0.26326174683E+04 0.  0.
        1    1    3    3  502    0 -0.10633634714E+04 -0.30822431299E+03  0.38551431060E+03  0.11723333072E+04  0.50400001928E-02 0. -1.
       -1    1    3    3    0  502  0.10633634714E+04  0.30822431299E+03 -0.10883282461E+04  0.15524826797E+04  0.50400001928E-02 0.  1.
</event>
<event>
 5   0  0.2072710E-05  0.2654463E+04  0.7818609E-02  0.8349933E-01
       -1   -1    0    0    0  501  0.00000000000E+00  0.00000000000E+00  0.10799429271E+04  0.10799429271E+04  0.50400001928E-02 0. -1.
        1   -1    0    0  501    0  0.00000000000E+00  0.00000000000E+00 -0.16311446086E+04  0.16311446086E+04  0.50400001928E-02 0.  1.
    10030    2    1    2    0    0  0.00000000000E+00  0.00000000000E+00 -0.55120168148E+03  0.27110875358E+04  0.26544627202E+04 0.  0.
        2    1    3    3  502    0  0.23162518233E+03 -0.31652992414E+03 -0.15706004600E+04  0.16188351438E+04  0.25500000920E-02 0.  1.
       -2    1    3    3    0  502 -0.23162518233E+03  0.31652992414E+03  0.10193987785E+04  0.10922523919E+04  0.25500000920E-02 0. -1.
</event>
<event>
 5   0  0.2072710E-05  0.2522399E+04  0.7818609E-02  0.8395049E-01
        1   -1    0    0  501    0  0.00000000000E+00  0.00000000000E+00  0.13365663632E+04  0.13365663632E+04  0.50400001928E-02 0.  1.
       -1   -1    0    0    0  501  0.00000000000E+00  0.00000000000E+00 -0.11900821260E+04  0.11900821260E+04  0.50400001928E-02 0. -1.
    10030    2    1    2    0    0  0.00000000000E+00  0.00000000000E+00  0.14648423724E+03  0.25266484893E+04  0.25223986514E+04 0.  0.
        2    1    3    3  502    0  0.34187641732E+03 -0.96663624693E+03 -0.66240563501E+03  0.12206745446E+04  0.25500000920E-02 0. -1.
       -2    1    3    3    0  502 -0.34187641732E+03  0.96663624693E+03  0.80888987225E+03  0.13059739446E+04  0.25500000920E-02 0.  1.
</event>
<event>
 5   0  0.1698625E-05  0.2662712E+04  0.7818609E-02  0.8347206E-01
        3   -1    0    0  501    0  0.00000000000E+00  0.00000000000E+00  0.13941268865E+04  0.13941268901E+04  0.10100000352E+00 0.  1.
       -3   -1    0    0    0  501  0.00000000000E+00  0.00000000000E+00 -0.12714115060E+04  0.12714115100E+04  0.10100000352E+00 0. -1.
    10030    2    1    2    0    0  0.00000000000E+00  0.00000000000E+00  0.12271538048E+03  0.26655384002E+04  0.26627121321E+04 0.  0.
        1    1    3    3  502    0 -0.11570565154E+04 -0.59210090984E+03  0.35001372539E+03  0.13460582734E+04  0.50400001928E-02 0.  1.
       -1    1    3    3    0  502  0.11570565154E+04  0.59210090984E+03 -0.22729834491E+03  0.13194801268E+04  0.50400001928E-02 0. -1.
</event>
<event>
 5   0  0.5049803E-05  0.2423066E+04  0.7818609E-02  0.8430918E-01
        2   -1    0    0  501    0  0.00000000000E+00  0.00000000000E+00  0.25462404612E+04  0.25462404612E+04  0.25500000920E-02 0. -1.
       -2   -1    0    0    0  501  0.00000000000E+00  0.00000000000E+00 -0.57646265629E+03  0.57646265629E+03  0.25500000920E-02 0.  1.
    10030    2    1    2    0    0  0.00000000000E+00  0.00000000000E+00  0.19697778049E+04  0.31227031175E+04  0.24230662721E+04 0.  0.
        4    1    3    3  502    0  0.24589638075E+03  0.10978746482E+04  0.15641302139E+04  0.19267326520E+04  0.12699999809E+01 0. -1.
       -4    1    3    3    0  502 -0.24589638075E+03 -0.10978746482E+04  0.40564759102E+03  0.11959704655E+04  0.12699999809E+01 0.  1.
</event>
<event>
 5   0  0.2159405E-05  0.2596770E+04  0.7818609E-02  0.8369299E-01
       -1   -1    0    0    0  501  0.00000000000E+00  0.00000000000E+00  0.13119839881E+04  0.13119839881E+04  0.50400001928E-02 0.  1.
        1   -1    0    0  501    0  0.00000000000E+00  0.00000000000E+00 -0.12849265180E+04  0.12849265180E+04  0.50400001928E-02 0. -1.
    10030    2    1    2    0    0  0.00000000000E+00  0.00000000000E+00  0.27057470035E+02  0.25969105061E+04  0.25967695450E+04 0.  0.
        3    1    3    3  502    0 -0.10611290859E+04 -0.11870552013E+03  0.75229548980E+03  0.13061525377E+04  0.10100000352E+00 0.  1.
       -3    1    3    3    0  502  0.10611290859E+04  0.11870552013E+03 -0.72523801977E+03  0.12907579684E+04  0.10100000352E+00 0. -1.
</event>
<event>
 5   0  0.5049803E-05  0.2592033E+04  0.7818609E-02  0.8370913E-01
       -2   -1    0    0    0  501  0.00000000000E+00  0.00000000000E+00  0.86454065760E+03  0.86454065760E+03  0.25500000920E-02 0. -1.
        2   -1    0    0  501    0  0.00000000000E+00  0.00000000000E+00 -0.19428334033E+04  0.19428334033E+04  0.25500000920E-02 0.  1.
    10030    2    1    2    0    0  0.00000000000E+00  0.00000000000E+00 -0.10782927457E+04  0.28073740609E+04  0.25920327684E+04 0.  0.
        4    1    3    3  502    0 -0.50826846596E+03 -0.94281089673E+03 -0.13294429294E+04  0.17072344115E+04  0.12699999809E+01 0.  1.
       -4    1    3    3    0  502  0.50826846596E+03  0.94281089673E+03  0.25115018370E+03  0.11001396494E+04  0.12699999809E+01 0. -1.
</event>
<event>
 5   0  0.2159405E-05  0.2651060E+04  0.7818609E-02  0.8351061E-01
        1   -1    0    0  501    0  0.00000000000E+00  0.00000000000E+00  0.14144617778E+04  0.14144617778E+04  0.50400001928E-02 0. -1.
       -1   -1    0    0    0  501  0.00000000000E+00  0.00000000000E+00 -0.12421895675E+04  0.12421895675E+04  0.50400001928E-02 0.  1.
    10030    2    1    2    0    0  0.00000000000E+00  0.00000000000E+00  0.17227221032E+03  0.26566513453E+04  0.26510599119E+04 0.  0.
        3    1    3    3  502    0  0.12464283431E+04 -0.28054087498E+03  0.44007057629E+03  0.13512767738E+04  0.10100000352E+00 0. -1.
       -3    1    3    3    0  502 -0.12464283431E+04  0.28054087498E+03 -0.26779836597E+03  0.13053745716E+04  0.10100000352E+00 0.  1.
</event>
<event>
 5   0  0.2159405E-05  0.2732349E+04  0.7818609E-02  0.8324585E-01
       -1   -1    0    0    0  501  0.00000000000E+00  0.00000000000E+00  0.94523356616E+03  0.94523356617E+03  0.50400001928E-02 0. -1.
        1   -1    0    0  501    0  0.00000000000E+00  0.00000000000E+00 -0.19745732411E+04  0.19745732411E+04  0.50400001928E-02 0.  1.
    10030    2    1    2    0    0  0.00000000000E+00  0.00000000000E+00 -0.10293396749E+04  0.29198068072E+04  0.27323491038E+04 0.  0.
        3    1    3    3  502    0  0.24520477163E+03  0.49635207182E+03  0.81999486328E+03  0.98938483172E+03  0.10100000352E+00 0. -1.
       -3    1    3    3    0  502 -0.24520477163E+03 -0.49635207182E+03 -0.18493345382E+04  0.19304219755E+04  0.10100000352E+00 0.  1.
</event>
<event>
 5   0  0.5049803E-05  0.3045393E+04  0.7818609E-02  0.8230886E-01
        2   -1    0    0  501    0  0.00000000000E+00  0.00000000000E+00  0.24975755006E+04  0.24975755006E+04  0.25500000920E-02 0.  1.
       -2   -1    0    0    0  501  0.00000000000E+00  0.00000000000E+00 -0.92834200803E+03  0.92834200803E+03  0.25500000920E-02 0. -1.
    10030    2    1    2    0    0  0.00000000000E+00  0.00000000000E+00  0.15692334925E+04  0.34259175086E+04  0.30453927533E+04 0.  0.
        4    1    3    3  502    0 -0.42598069230E+03 -0.40515142272E+03  0.23647606130E+04  0.24367399523E+04  0.12699999809E+01 0.  1.
       -4    1    3    3    0  502  0.42598069230E+03  0.40515142272E+03 -0.79552712047E+03  0.98917755628E+03  0.12699999809E+01 0. -1.
</event>
<event>
 5   0  0.5170532E-05  0.2603584E+04  0.7818609E-02  0.8366985E-01
        2   -1    0    0  501    0  0.00000000000E+00  0.00000000000E+00  0.18148498319E+04  0.18148498319E+04  0.25500000920E-02 0. -1.
       -2   -1    0    0    0  501  0.00000000000E+00  0.00000000000E+00 -0.93377554667E+03  0.93377554667E+03  0.25500000920E-02 0.  1.
    10030    2    1    2    0    0  0.00000000000E+00  0.00000000000E+00  0.88107428527E+03  0.27486253786E+04  0.26035839867E+04 0.  0.
        1    1    3    3  502    0 -0.40798627829E+03  0.32241115404E+03 -0.81937045939E+03  0.97044819813E+03  0.50400001928E-02 0.  1.
       -1    1    3    3    0  502  0.40798627829E+03 -0.32241115404E+03  0.17004447447E+04  0.17781771805E+04  0.50400001928E-02 0. -1.
</event>
<event>
 5   0  0.5036452E-05  0.2603455E+04  0.7818609E-02  0.8367029E-01
        2   -1    0    0  501    0  0.00000000000E+00  0.00000000000E+00  0.14351849107E+04  0.14351849107E+04  0.25500000920E-02 0.  1.
       -2   -1    0    0    0  501  0.00000000000E+00  0.00000000000E+00 -0.11806803654E+04  0.11806803654E+04  0.25500000920E-02 0. -1.
    10030    2    1    2    0    0  0.00000000000E+00  0.00000000000E+00  0.25450454535E+03  0.26158652761E+04  0.26034551233E+04 0.  0.
        2    1    3    3  502    0  0.28233168053E+03 -0.64451020569E+03 -0.97313485125E+03  0.12008730248E+04  0.25500000920E-02 0. -1.
       -2    1    3    3    0  502 -0.28233168053E+03  0.64451020569E+03  0.12276393966E+04  0.14149922513E+04  0.25500000920E-02 0.  1.
</event>
<event>
 5   0  0.5049803E-05  0.2495663E+04  0.7818609E-02  0.8404532E-01
        2   -1    0    0  501    0  0.00000000000E+00  0.00000000000E+00  0.85690872699E+03  0.85690872700E+03  0.25500000920E-02 0.  1.
       -2   -1    0    0    0  501  0.00000000000E+00  0.00000000000E+00 -0.18170929961E+04  0.18170929961E+04  0.25500000920E-02 0. -1.
    10030    2    1    2    0    0  0.00000000000E+00  0.00000000000E+00 -0.96018426911E+03  0.26740017231E+04  0.24956625141E+04 0.  0.
        4    1    3    3  502    0  0.64157426264E+03 -0.65662463277E+03  0.42547055426E+03  0.10118301479E+04  0.12699999809E+01 0.  1.
       -4    1    3    3    0  502 -0.64157426264E+03  0.65662463277E+03 -0.13856548234E+04  0.16621715752E+04  0.12699999809E+01 0. -1.
</event>
<event>
 5   0  0.2163800E-05  0.2565019E+04  0.7818609E-02  0.8380181E-01
       -1   -1    0    0    0  501  0.00000000000E+00  0.00000000000E+00  0.30331535837E+04  0.30331535837E+04  0.50400001928E-02 0. -1.
        1   -1    0    0  501    0  0.00000000000E+00  0.00000000000E+00 -0.54228397822E+03  0.54228397825E+03  0.50400001928E-02 0.  1.
    10030    2    1    2    0    0  0.00000000000E+00  0.00000000000E+00  0.24908696054E+04  0.35754375619E+04  0.25650189800E+04 0.  0.
        1    1    3    3  502    0  0.11722704464E+04 -0.47498888388E+03  0.15411243402E+04  0.19937142903E+04  0.50400001928E-02 0. -1.
       -1    1    3    3    0  502 -0.11722704464E+04  0.47498888388E+03  0.94974526522E+03  0.15817232716E+04  0.50400001928E-02 0.  1.
</event>
<event>
 5   0  0.2159405E-05  0.2564005E+04  0.7818609E-02  0.8380532E-01
       -1   -1    0    0    0  501  0.00000000000E+00  0.00000000000E+00  0.11371666300E+04  0.11371666300E+04  0.50400001928E-02 0. -1.
        1   -1    0    0  501    0  0.00000000000E+00  0.00000000000E+00 -0.14452858937E+04  0.14452858937E+04  0.50400001928E-02 0.  1.
    10030    2    1    2    0    0  0.00000000000E+00  0.00000000000E+00 -0.30811926372E+03  0.25824525237E+04  0.25640053737E+04 0.  0.
        3    1    3    3  502    0  0.10125276806E+04 -0.78545950221E+03 -0.19136590138E+03  0.12956773719E+04  0.10100000352E+00 0. -1.
       -3    1    3    3    0  502 -0.10125276806E+04  0.78545950221E+03 -0.11675336233E+03  0.12867751518E+04  0.10100000352E+00 0.  1.
</event>
<event>
 5   0  0.5036452E-05  0.2524507E+04  0.7818609E-02  0.8394307E-01
       -2   -1    0    0    0  501  0.00000000000E+00  0.00000000000E+00  0.16219218551E+04  0.16219218551E+04  0.25500000920E-02 0. -1.
        2   -1    0    0  501    0  0.00000000000E+00  0.00000000000E+00 -0.98234305037E+03  0.98234305037E+03  0.25500000920E-02 0.  1.
    10030    2    1    2    0    0  0.00000000000E+00  0.00000000000E+00  0.63957880474E+03  0.26042649055E+04  0.25245068133E+04 0.  0.
        2    1    3    3  502    0  0.95111601278E+03  0.63043581025E+03  0.87647982978E+03  0.14388494962E+04  0.25500000920E-02 0. -1.
       -2    1    3    3    0  502 -0.95111601278E+03 -0.63043581025E+03 -0.23690102504E+03  0.11654154093E+04  0.25500000920E-02 0.  1.
</event>
<event>
 5   0  0.2072710E-05  0.2616714E+04  0.7818609E-02  0.8362546E-01
       -1   -1    0    0    0  501  0.00000000000E+00  0.00000000000E+00  0.91795354100E+03  0.91795354101E+03  0.50400001928E-02 0. -1.
        1   -1    0    0  501    0  0.00000000000E+00  0.00000000000E+00 -0.18647979795E+04  0.18647979795E+04  0.50400001928E-02 0.  1.
    10030    2    1    2    0    0  0.00000000000E+00  0.00000000000E+00 -0.94684443852E+03  0.27827515205E+04  0.26167139000E+04 0.  0.
        2    1    3    3  502    0  0.66839938969E+03 -0.10946885351E+04 -0.19877708530E+03  0.12979264473E+04  0.25500000920E-02 0. -1.
       -2    1    3    3    0  502 -0.66839938969E+03  0.10946885351E+04 -0.74806735322E+03  0.14848250732E+04  0.25500000920E-02 0.  1.
</event>
<event>
 5   0  0.1954502E-05  0.2582284E+04  0.7818609E-02  0.8374244E-01
        1   -1    0    0  501    0  0.00000000000E+00  0.00000000000E+00  0.17007343624E+04  0.17007343624E+04  0.50400001928E-02 0. -1.
       -1   -1    0    0    0  501  0.00000000000E+00  0.00000000000E+00 -0.98019275841E+03  0.98019275842E+03  0.50400001928E-02 0.  1.
    10030    2    1    2    0    0  0.00000000000E+00  0.00000000000E+00  0.72054160399E+03  0.26809271208E+04  0.25822838775E+04 0.  0.
        4    1    3    3  502    0  0.31097473449E+03 -0.19125556738E+03 -0.92548946013E+03  0.99489513581E+03  0.12699999809E+01 0.  1.
       -4    1    3    3    0  502 -0.31097473449E+03  0.19125556738E+03  0.16460310641E+04  0.16860319850E+04  0.12699999809E+01 0. -1.
</event>
<event>
 5   0  0.1954502E-05  0.2655686E+04  0.7818609E-02  0.8349528E-01
        1   -1    0    0  501    0  0.00000000000E+00  0.00000000000E+00  0.10463072512E+04  0.10463072513E+04  0.50400001928E-02 0.  1.
       -1   -1    0    0    0  501  0.00000000000E+00  0.00000000000E+00 -0.16851330312E+04  0.16851330312E+04  0.50400001928E-02 0. -1.
    10030    2    1    2    0    0  0.00000000000E+00  0.00000000000E+00 -0.63882577996E+03  0.27314402825E+04  0.26556859076E+04 0.  0.
        4    1    3    3  502    0  0.75907632047E+03  0.83104072585E+03 -0.10440232336E+04  0.15351910870E+04  0.12699999809E+01 0. -1.
       -4    1    3    3    0  502 -0.75907632047E+03 -0.83104072585E+03  0.40519745368E+03  0.11962491955E+04  0.12699999809E+01 0.  1.
</event>
<event>
 5   0  0.5036452E-05  0.2500902E+04  0.7818609E-02  0.8402664E-01
        2   -1    0    0  501    0  0.00000000000E+00  0.00000000000E+00  0.17914598768E+04  0.17914598768E+04  0.25500000920E-02 0. -1.
       -2   -1    0    0    0  501  0.00000000000E+00  0.00000000000E+00 -0.87282307236E+03  0.87282307236E+03  0.25500000920E-02 0.  1.
    10030    2    1    2    0    0  0.00000000000E+00  0.00000000000E+00  0.91863680445E+03  0.26642829492E+04  0.25009018483E+04 0.  0.
        2    1    3    3  502    0 -0.11329743191E+04 -0.47366892225E+03  0.71059707455E+03  0.14187816104E+04  0.25500000920E-02 0.  1.
       -2    1    3    3    0  502  0.11329743191E+04  0.47366892225E+03  0.20803972990E+03  0.12455013388E+04  0.25500000920E-02 0. -1.
</event>
<event>
 5   0  0.2163800E-05  0.2495985E+04  0.7818609E-02  0.8404417E-01
       -1   -1    0    0    0  501  0.00000000000E+00  0.00000000000E+00  0.11503095857E+04  0.11503095857E+04  0.50400001928E-02 0.  1.
        1   -1    0    0  501    0  0.00000000000E+00  0.00000000000E+00 -0.13539704171E+04  0.13539704172E+04  0.50400001928E-02 0. -1.
    10030    2    1    2    0    0  0.00000000000E+00  0.00000000000E+00 -0.20366083143E+03  0.25042800029E+04  0.24959848955E+04 0.  0.
        1    1    3    3  502    0  0.53707844656E+03  0.70911985688E+03  0.77639620890E+03  0.11807181299E+04  0.50400001928E-02 0.  1.
       -1    1    3    3    0  502 -0.53707844656E+03 -0.70911985688E+03 -0.98005704032E+03  0.13235618729E+04  0.50400001928E-02 0. -1.
</event>
<event>
 5   0  0.5036452E-05  0.2356424E+04  0.7818609E-02  0.8456000E-01
       -2   -1    0    0    0  501  0.00000000000E+00  0.00000000000E+00  0.59588892631E+03  0.59588892632E+03  0.25500000920E-02 0. -1.
        2   -1    0    0  501    0  0.00000000000E+00  0.00000000000E+00 -0.23296001932E+04  0.23296001932E+04  0.25500000920E-02 0.  1.
    10030    2    1    2    0    0  0.00000000000E+00  0.00000000000E+00 -0.17337112669E+04  0.29254891195E+04  0.23564235255E+04 0.  0.
        2    1    3    3  502    0 -0.65911642049E+03  0.29432117538E+03 -0.20229296158E+04  0.21478602470E+04  0.25500000920E-02 0.  1.
       -2    1    3    3    0  502  0.65911642049E+03 -0.29432117538E+03  0.28921834893E+03  0.77762887253E+03  0.25500000920E-02 0. -1.
</event>
<event>
 5   0  0.5036452E-05  0.2700904E+04  0.7818609E-02  0.8334712E-01
       -2   -1    0    0    0  501  0.00000000000E+00  0.00000000000E+00  0.12647865136E+04  0.12647865136E+04  0.25500000920E-02 0. -1.
        2   -1    0    0  501    0  0.00000000000E+00  0.00000000000E+00 -0.14419197789E+04  0.14419197789E+04  0.25500000920E-02 0.  1.
    10030    2    1    2    0    0  0.00000000000E+00  0.00000000000E+00 -0.17713326525E+03  0.27067062925E+04  0.27009040635E+04 0.  0.
        2    1    3    3  502    0 -0.17358392104E+03  0.50358693495E+02 -0.14297440468E+04  0.14411229702E+04  0.25500000920E-02 0.  1.
       -2    1    3    3    0  502  0.17358392104E+03 -0.50358693495E+02  0.12526107816E+04  0.12655833223E+04  0.25500000920E-02 0. -1.
</event>
<event>
 5   0  0.5036452E-05  0.2572928E+04  0.7818609E-02  0.8377455E-01
       -2   -1    0    0    0  501  0.00000000000E+00  0.00000000000E+00  0.93564496981E+03  0.93564496981E+03  0.25500000920E-02 0.  1.
        2   -1    0    0  501    0  0.00000000000E+00  0.00000000000E+00 -0.17688224018E+04  0.17688224018E+04  0.25500000920E-02 0. -1.
    10030    2    1    2    0    0  0.00000000000E+00  0.00000000000E+00 -0.83317743197E+03  0.27044673716E+04  0.25729281239E+04 0.  0.
        2    1    3    3  502    0 -0.95512243583E+03 -0.59638313635E+03  0.23735768718E+03  0.11507694749E+04  0.25500000920E-02 0.  1.
       -2    1    3    3    0  502  0.95512243583E+03  0.59638313635E+03 -0.10705351192E+04  0.15536978967E+04  0.25500000920E-02 0. -1.
</event>
<event>
 5   0  0.5170532E-05  0.2623616E+04  0.7818609E-02  0.8360223E-01
       -2   -1    0    0    0  501  0.00000000000E+00  0.00000000000E+00  0.11914830703E+04  0.11914830703E+04  0.25500000920E-02 0. -1.
        2   -1    0    0  501    0  0.00000000000E+00  0.00000000000E+00 -0.14442843913E+04  0.14442843913E+04  0.25500000920E-02 0.  1.
    10030    2    1    2    0    0  0.00000000000E+00  0.00000000000E+00 -0.25280132101E+03  0.26357674616E+04  0.26236161311E+04 0.  0.
        1    1    3    3  502    0  0.12168531028E+04  0.14725196739E+01 -0.61867703374E+03  0.13650988661E+04  0.50400001928E-02 0.  1.
       -1    1    3    3    0  502 -0.12168531028E+04 -0.14725196739E+01  0.36587571273E+03  0.12706685954E+04  0.50400001928E-02 0. -1.
</event>
<event>
 5   0  0.2072710E-05  0.2581024E+04  0.7818609E-02  0.8374675E-01
       -1   -1    0    0    0  501  0.00000000000E+00  0.00000000000E+00  0.13368716140E+04  0.13368716140E+04  0.50400001928E-02 0.  1.
        1   -1    0    0  501    0  0.00000000000E+00  0.00000000000E+00 -0.12457603208E+04  0.12457603208E+04  0.50400001928E-02 0. -1.
    10030    2    1    2    0    0  0.00000000000E+00  0.00000000000E+00  0.91111293254E+02  0.25826319348E+04  0.25810243011E+04 0.  0.
        2    1    3    3  502    0 -0.26166422994E+03 -0.12575927852E+04 -0.78674122849E+02  0.12869333317E+04  0.25500000920E-02 0.  1.
       -2    1    3    3    0  502  0.26166422994E+03  0.12575927852E+04  0.16978541610E+03  0.12956986031E+04  0.25500000920E-02 0. -1.
</event>
<event>
 5   0  0.5049803E-05  0.2658301E+04  0.7818609E-02  0.8348663E-01
       -2   -1    0    0    0  501  0.00000000000E+00  0.00000000000E+00  0.92481660179E+03  0.92481660180E+03  0.25500000920E-02 0.  1.
        2   -1    0    0  501    0  0.00000000000E+00  0.00000000000E+00 -0.19102608814E+04  0.19102608814E+04  0.25500000920E-02 0. -1.
    10030    2    1    2    0    0  0.00000000000E+00  0.00000000000E+00 -0.98544427960E+03  0.28350774832E+04  0.26583009437E+04 0.  0.
        4    1    3    3  502    0  0.58075536006E+02 -0.21756122489E+03  0.90432493495E+03  0.93193929809E+03  0.12699999809E+01 0.  1.
       -4    1    3    3    0  502 -0.58075536006E+02  0.21756122489E+03 -0.18897692145E+04  0.19031381851E+04  0.12699999809E+01 0. -1.
</event>
<event>
 5   0  0.4955675E-05  0.2457090E+04  0.7818609E-02  0.8418434E-01
       -2   -1    0    0    0  501  0.00000000000E+00  0.00000000000E+00  0.83745563211E+03  0.83745563211E+03  0.25500000920E-02 0. -1.
        2   -1    0    0  501    0  0.00000000000E+00  0.00000000000E+00 -0.18022714552E+04  0.18022714552E+04  0.25500000920E-02 0.  1.
    10030    2    1    2    0    0  0.00000000000E+00  0.00000000000E+00 -0.96481582312E+03  0.26397270873E+04  0.24570896449E+04 0.  0.
        5    1    3    3  502    0 -0.51118481203E+03  0.73482242455E+03 -0.13863960829E+04  0.16502697042E+04  0.46999998093E+01 0. -1.
       -5    1    3    3    0  502  0.51118481203E+03 -0.73482242455E+03  0.42158025982E+03  0.98945738319E+03  0.46999998093E+01 0.  1.
</event>
<event>
 5   0  0.1993815E-05  0.2609827E+04  0.7818609E-02  0.8364871E-01
        1   -1    0    0  501    0  0.00000000000E+00  0.00000000000E+00  0.13172577440E+04  0.13172577440E+04  0.50400001928E-02 0. -1.
       -1   -1    0    0    0  501  0.00000000000E+00  0.00000000000E+00 -0.12926849921E+04  0.12926849922E+04  0.50400001928E-02 0.  1.
    10030    2    1    2    0    0  0.00000000000E+00  0.00000000000E+00  0.24572751879E+02  0.26099427362E+04  0.26098270567E+04 0.  0.
        5    1    3    3  502    0 -0.65669314567E+02 -0.13008863192E+04  0.90772668569E+02  0.13057103208E+04  0.46999998093E+01 0. -1.
       -5    1    3    3    0  502  0.65669314567E+02  0.13008863192E+04 -0.66199916690E+02  0.13042324154E+04  0.46999998093E+01 0.  1.
</event>
<event>
 5   0  0.4955675E-05  0.1798521E+04  0.7818609E-02  0.8707087E-01
       -2   -1    0    0    0  501  0.00000000000E+00  0.00000000000E+00  0.41748431899E+03  0.41748431900E+03  0.25500000920E-02 0.  1.
        2   -1    0    0  501    0  0.00000000000E+00  0.00000000000E+00 -0.19370047387E+04  0.19370047387E+04  0.25500000920E-02 0. -1.
    10030    2    1    2    0    0  0.00000000000E+00  0.00000000000E+00 -0.15195204197E+04  0.23544890577E+04  0.17985206190E+04 0.  0.
        5    1    3    3  502    0 -0.39942140885E+02  0.41744115267E+03  0.28162789177E+03  0.50516220165E+03  0.46999998093E+01 0.  1.
       -5    1    3    3    0  502  0.39942140885E+02 -0.41744115267E+03 -0.18011483115E+04  0.18493268561E+04  0.46999998093E+01 0. -1.
</event>
<event>
 5   0  0.1993815E-05  0.2541403E+04  0.7818609E-02  0.8388382E-01
        1   -1    0    0  501    0  0.00000000000E+00  0.00000000000E+00  0.17645332467E+04  0.17645332467E+04  0.50400001928E-02 0.  1.
       -1   -1    0    0    0  501  0.00000000000E+00  0.00000000000E+00 -0.91507603694E+03  0.91507603695E+03  0.50400001928E-02 0. -1.
    10030    2    1    2    0    0  0.00000000000E+00  0.00000000000E+00  0.84945720980E+03  0.26796092837E+04  0.25414028335E+04 0.  0.
        5    1    3    3  502    0 -0.28624899969E+03  0.92551965550E+03  0.12917196936E+04  0.16146476332E+04  0.46999998093E+01 0.  1.
       -5    1    3    3    0  502  0.28624899969E+03 -0.92551965550E+03 -0.44226248378E+03  0.10649616505E+04  0.46999998093E+01 0. -1.
</event>
<event>
 5   0  0.4955675E-05  0.2589370E+04  0.7818609E-02  0.8371821E-01
       -2   -1    0    0    0  501  0.00000000000E+00  0.00000000000E+00  0.98004847382E+03  0.98004847382E+03  0.25500000920E-02 0.  1.
        2   -1    0    0  501    0  0.00000000000E+00  0.00000000000E+00 -0.17103329871E+04  0.17103329871E+04  0.25500000920E-02 0. -1.
    10030    2    1    2    0    0  0.00000000000E+00  0.00000000000E+00 -0.73028451325E+03  0.26903814609E+04  0.25893699880E+04 0.  0.
        5    1    3    3  502    0  0.22202354825E+03 -0.86721931731E+03  0.60666454232E+03  0.10814008310E+04  0.46999998093E+01 0.  1.
       -5    1    3    3    0  502 -0.22202354825E+03  0.86721931731E+03 -0.13369490556E+04  0.16089806299E+04  0.46999998093E+01 0. -1.
</event>
<event>
 5   0  0.5036452E-05  0.2486916E+04  0.7818609E-02  0.8407662E-01
       -2   -1    0    0    0  501  0.00000000000E+00  0.00000000000E+00  0.11673599285E+04  0.11673599285E+04  0.25500000920E-02 0. -1.
        2   -1    0    0  501    0  0.00000000000E+00  0.00000000000E+00 -0.13245166413E+04  0.13245166413E+04  0.25500000920E-02 0.  1.
    10030    2    1    2    0    0  0.00000000000E+00  0.00000000000E+00 -0.15715671281E+03  0.24918765698E+04  0.24869158825E+04 0.  0.
        2    1    3    3  502    0  0.71269742856E+03 -0.71385278603E+03 -0.80712169675E+03  0.12918857760E+04  0.25500000920E-02 0. -1.
       -2    1    3    3    0  502 -0.71269742856E+03  0.71385278603E+03  0.64996498394E+03  0.11999907938E+04  0.25500000920E-02 0.  1.
</event>
<event>
 5   0  0.2163800E-05  0.2416570E+04  0.7818609E-02  0.8433326E-01
       -1   -1    0    0    0  501  0.00000000000E+00  0.00000000000E+00  0.91937356552E+03  0.91937356553E+03  0.50400001928E-02 0.  1.
        1   -1    0    0  501    0  0.00000000000E+00  0.00000000000E+00 -0.15879864081E+04  0.15879864081E+04  0.50400001928E-02 0. -1.
    10030    2    1    2    0    0  0.00000000000E+00  0.00000000000E+00 -0.66861284256E+03  0.25073599736E+04  0.24165700702E+04 0.  0.
        1    1    3    3  502    0 -0.97092711573E+03 -0.34675774145E+03 -0.98806785015E+03  0.14280120699E+04  0.50400001928E-02 0. -1.
       -1    1    3    3    0  502  0.97092711573E+03  0.34675774145E+03  0.31945500760E+03  0.10793479037E+04  0.50400001928E-02 0.  1.
</event>
<event>
 5   0  0.2159405E-05  0.3142167E+04  0.7818609E-02  0.8204260E-01
       -1   -1    0    0    0  501  0.00000000000E+00  0.00000000000E+00  0.10561197423E+04  0.10561197423E+04  0.50400001928E-02 0.  1.
        1   -1    0    0  501    0  0.00000000000E+00  0.00000000000E+00 -0.23371433676E+04  0.23371433676E+04  0.50400001928E-02 0. -1.
    10030    2    1    2    0    0  0.00000000000E+00  0.00000000000E+00 -0.12810236253E+04  0.33932631099E+04  0.31421669282E+04 0.  0.
        3    1    3    3  502    0  0.38823642454E+03  0.55370790771E+03 -0.21719254544E+04  0.22747703528E+04  0.10100000352E+00 0. -1.
       -3    1    3    3    0  502 -0.38823642454E+03 -0.55370790771E+03  0.89090182910E+03  0.11184927571E+04  0.10100000352E+00 0.  1.
</event>
<event>
 5   0  0.5049803E-05  0.2646678E+04  0.7818609E-02  0.8352517E-01
       -2   -1    0    0    0  501  0.00000000000E+00  0.00000000000E+00  0.10475243571E+04  0.10475243571E+04  0.25500000920E-02 0.  1.
        2   -1    0    0  501    0  0.00000000000E+00  0.00000000000E+00 -0.16717755758E+04  0.16717755758E+04  0.25500000920E-02 0. -1.
    10030    2    1    2    0    0  0.00000000000E+00  0.00000000000E+00 -0.62425121868E+03  0.27192999329E+04  0.26466776421E+04 0.  0.
        4    1    3    3  502    0 -0.97049792955E+03  0.42450097371E+03  0.50283286706E+03  0.11725654835E+04  0.12699999809E+01 0.  1.
       -4    1    3    3    0  502  0.97049792955E+03 -0.42450097371E+03 -0.11270840857E+04  0.15467344495E+04  0.12699999809E+01 0. -1.
</event>
<event>
 5   0  0.5049803E-05  0.1488564E+04  0.7818609E-02  0.8892094E-01
        2   -1    0    0  501    0  0.00000000000E+00  0.00000000000E+00  0.68138214242E+03  0.68138214242E+03  0.25500000920E-02 0.  1.
       -2   -1    0    0    0  501  0.00000000000E+00  0.00000000000E+00 -0.81298790889E+03  0.81298790890E+03  0.25500000920E-02 0. -1.
    10030    2    1    2    0    0  0.00000000000E+00  0.00000000000E+00 -0.13160576648E+03  0.14943700513E+04  0.14885636609E+04 0.  0.
        4    1    3    3  502    0  0.17681887897E+03  0.84608505037E+02 -0.78660797667E+03  0.81066468836E+03  0.12699999809E+01 0. -1.
       -4    1    3    3    0  502 -0.17681887897E+03 -0.84608505037E+02  0.65500221019E+03  0.68370536296E+03  0.12699999809E+01 0.  1.
</event>
<event>
 5   0  0.5170532E-05  0.2559018E+04  0.7818609E-02  0.8382257E-01
        2   -1    0    0  501    0  0.00000000000E+00  0.00000000000E+00  0.17502014311E+04  0.17502014311E+04  0.25500000920E-02 0.  1.
       -2   -1    0    0    0  501  0.00000000000E+00  0.00000000000E+00 -0.93540287065E+03  0.93540287065E+03  0.25500000920E-02 0. -1.
    10030    2    1    2    0    0  0.00000000000E+00  0.00000000000E+00  0.81479856048E+03  0.26856043018E+04  0.25590181265E+04 0.  0.
        1    1    3    3  502    0 -0.78699332508E+03  0.70033991567E+03 -0.35468189470E+03  0.11115906340E+04  0.50400001928E-02 0. -1.
       -1    1    3    3    0  502  0.78699332508E+03 -0.70033991567E+03  0.11694804552E+04  0.15740136678E+04  0.50400001928E-02 0.  1.
</event>
<event>
 5   0  0.2072710E-05  0.2538695E+04  0.7818609E-02  0.8389329E-01
        1   -1    0    0  501    0  0.00000000000E+00  0.00000000000E+00  0.12655677514E+04  0.12655677514E+04  0.50400001928E-02 0.  1.
       -1   -1    0    0    0  501  0.00000000000E+00  0.00000000000E+00 -0.12731383299E+04  0.12731383299E+04  0.50400001928E-02 0. -1.
    10030    2    1    2    0    0  0.00000000000E+00  0.00000000000E+00 -0.75705785651E+01  0.25387060813E+04  0.25386947933E+04 0.  0.
        2    1    3    3  502    0 -0.50098478446E+03 -0.38079221142E+02 -0.11694692583E+04  0.12728291823E+04  0.25500000920E-02 0. -1.
       -2    1    3    3    0  502  0.50098478446E+03  0.38079221142E+02  0.11618986797E+04  0.12658768990E+04  0.25500000920E-02 0.  1.
</event>
<event>
 5   0  0.2159405E-05  0.2553939E+04  0.7818609E-02  0.8384017E-01
        1   -1    0    0  501    0  0.00000000000E+00  0.00000000000E+00  0.13495377893E+04  0.13495377894E+04  0.50400001928E-02 0.  1.
       -1   -1    0    0    0  501  0.00000000000E+00  0.00000000000E+00 -0.12083038074E+04  0.12083038074E+04  0.50400001928E-02 0. -1.
    10030    2    1    2    0    0  0.00000000000E+00  0.00000000000E+00  0.14123398192E+03  0.25578415968E+04  0.25539394270E+04 0.  0.
        3    1    3    3  502    0 -0.83549676201E+03 -0.22720085036E+02  0.10375353067E+04  0.13323102358E+04  0.10100000352E+00 0.  1.
       -3    1    3    3    0  502  0.83549676201E+03  0.22720085036E+02 -0.89630132483E+03  0.12255313610E+04  0.10100000352E+00 0. -1.
</event>
<event>
 5   0  0.2163800E-05  0.2487613E+04  0.7818609E-02  0.8407412E-01
        1   -1    0    0  501    0  0.00000000000E+00  0.00000000000E+00  0.15683067309E+04  0.15683067309E+04  0.50400001928E-02 0. -1.
       -1   -1    0    0    0  501  0.00000000000E+00  0.00000000000E+00 -0.98644925154E+03  0.98644925155E+03  0.50400001928E-02 0.  1.
    10030    2    1    2    0    0  0.00000000000E+00  0.00000000000E+00  0.58185747934E+03  0.25547559824E+04  0.24876133147E+04 0.  0.
        1    1    3    3  502    0 -0.19717140680E+03  0.42967270377E+03  0.14724412839E+04  0.15464729324E+04  0.50400001928E-02 0. -1.
       -1    1    3    3    0  502  0.19717140680E+03 -0.42967270377E+03 -0.89058380457E+03  0.10082830500E+04  0.50400001928E-02 0.  1.
</event>
<event>
 5   0  0.5036452E-05  0.2401168E+04  0.7818609E-02  0.8439067E-01
        2   -1    0    0  501    0  0.00000000000E+00  0.00000000000E+00  0.16778628958E+04  0.16778628958E+04  0.25500000920E-02 0. -1.
       -2   -1    0    0    0  501  0.00000000000E+00  0.00000000000E+00 -0.85906987494E+03  0.85906987494E+03  0.25500000920E-02 0.  1.
    10030    2    1    2    0    0  0.00000000000E+00  0.00000000000E+00  0.81879302085E+03  0.25369327707E+04  0.24011676060E+04 0.  0.
        2    1    3    3  502    0 -0.91203129119E+03  0.56387073528E+03  0.97997791208E+03  0.14526210760E+04  0.25500000920E-02 0. -1.
       -2    1    3    3    0  502  0.91203129119E+03 -0.56387073528E+03 -0.16118489122E+03  0.10843116948E+04  0.25500000920E-02 0.  1.
</event>
<event>
 5   0  0.1993815E-05  0.2339414E+04  0.7818609E-02  0.8462541E-01
       -1   -1    0    0    0  501  0.00000000000E+00  0.00000000000E+00  0.80507342449E+03  0.80507342451E+03  0.50400001928E-02 0.  1.
        1   -1    0    0  501    0  0.00000000000E+00  0.00000000000E+00 -0.16994905860E+04  0.16994905860E+04  0.50400001928E-02 0. -1.
    10030    2    1    2    0    0  0.00000000000E+00  0.00000000000E+00 -0.89441716150E+03  0.25045640105E+04  0.23394142053E+04 0.  0.
        5    1    3    3  502    0  0.94907872163E+02 -0.22596045499E+03 -0.16716837010E+04  0.16895603327E+04  0.46999998093E+01 0. -1.
       -5    1    3    3    0  502 -0.94907872163E+02  0.22596045499E+03  0.77726653954E+03  0.81500367784E+03  0.46999998093E+01 0.  1.
</event>
<event>
 5   0  0.2159405E-05  0.2583040E+04  0.7818609E-02  0.8373985E-01
       -1   -1    0    0    0  501  0.00000000000E+00  0.00000000000E+00  0.13980843753E+04  0.13980843753E+04  0.50400001928E-02 0. -1.
        1   -1    0    0  501    0  0.00000000000E+00  0.00000000000E+00 -0.11930783409E+04  0.11930783409E+04  0.50400001928E-02 0.  1.
    10030    2    1    2    0    0  0.00000000000E+00  0.00000000000E+00  0.20500603443E+03  0.25911627162E+04  0.25830402141E+04 0.  0.
        3    1    3    3  502    0 -0.54373471877E+02  0.10956322785E+03 -0.11872551901E+04  0.11935390534E+04  0.10100000352E+00 0.  1.
       -3    1    3    3    0  502  0.54373471877E+02 -0.10956322785E+03  0.13922612245E+04  0.13976236628E+04  0.10100000352E+00 0. -1.
</event>
<event>
 5   0  0.2072710E-05  0.2568922E+04  0.7818609E-02  0.8378835E-01
       -1   -1    0    0    0  501  0.00000000000E+00  0.00000000000E+00  0.89515412483E+03  0.89515412484E+03  0.50400001928E-02 0. -1.
        1   -1    0    0  501    0  0.00000000000E+00  0.00000000000E+00 -0.18430799541E+04  0.18430799542E+04  0.50400001928E-02 0.  1.
    10030    2    1    2    0    0  0.00000000000E+00  0.00000000000E+00 -0.94792582932E+03  0.27382340790E+04  0.25689224382E+04 0.  0.
        2    1    3    3  502    0  0.11984850126E+04 -0.75316344597E+02  0.11934038109E+02  0.12009085304E+04  0.25500000920E-02 0. -1.
       -2    1    3    3    0  502 -0.11984850126E+04  0.75316344597E+02 -0.95985986743E+03  0.15373255486E+04  0.25500000920E-02 0.  1.
</event>
<event>
 5   0  0.5036452E-05  0.2631018E+04  0.7818609E-02  0.8357741E-01
       -2   -1    0    0    0  501  0.00000000000E+00  0.00000000000E+00  0.17926517450E+04  0.17926517450E+04  0.25500000920E-02 0.  1.
        2   -1    0    0  501    0  0.00000000000E+00  0.00000000000E+00 -0.96536522309E+03  0.96536522309E+03  0.25500000920E-02 0. -1.
    10030    2    1    2    0    0  0.00000000000E+00  0.00000000000E+00  0.82728652194E+03  0.27580169681E+04  0.26310177892E+04 0.  0.
        2    1    3    3  502    0  0.74224537139E+03  0.66855014570E+03  0.13109257255E+04  0.16481546488E+04  0.25500000920E-02 0.  1.
       -2    1    3    3    0  502 -0.74224537139E+03 -0.66855014570E+03 -0.48363920352E+03  0.11098623193E+04  0.25500000920E-02 0. -1.
</event>
<event>
 5   0  0.4955675E-05  0.2588948E+04  0.7818609E-02  0.8371965E-01
       -2   -1    0    0    0  501  0.00000000000E+00  0.00000000000E+00  0.10457883451E+04  0.10457883451E+04  0.25500000920E-02 0. -1.
        2   -1    0    0  501    0  0.00000000000E+00  0.00000000000E+00 -0.16022962891E+04  0.16022962891E+04  0.25500000920E-02 0.  1.
    10030    2    1    2    0    0  0.00000000000E+00  0.00000000000E+00 -0.55650794391E+03  0.26480846342E+04  0.25889478825E+04 0.  0.
        5    1    3    3  502    0  0.69066128313E+03  0.45497741825E+03  0.74029496694E+03  0.11099892735E+04  0.46999998093E+01 0. -1.
       -5    1    3    3    0  502 -0.69066128313E+03 -0.45497741825E+03 -0.12968029109E+04  0.15380953607E+04  0.46999998093E+01 0.  1.
</event>
<event>
 5   0  0.1993815E-05  0.2487002E+04  0.7818609E-02  0.8407631E-01
       -1   -1    0    0    0  501  0.00000000000E+00  0.00000000000E+00  0.16096501682E+04  0.16096501682E+04  0.50400001928E-02 0.  1.
        1   -1    0    0  501    0  0.00000000000E+00  0.00000000000E+00 -0.96063999357E+03  0.96063999358E+03  0.50400001928E-02 0. -1.
    10030    2    1    2    0    0  0.00000000000E+00  0.00000000000E+00  0.64901017464E+03  0.25702901618E+04  0.24870016705E+04 0.  0.
        5    1    3    3  502    0 -0.10879553193E+04 -0.35074168171E+03  0.83039343895E+03  0.14128842336E+04  0.46999998093E+01 0.  1.
       -5    1    3    3    0  502  0.10879553193E+04  0.35074168171E+03 -0.18138326431E+03  0.11574059282E+04  0.46999998093E+01 0. -1.
</event>
<event>
 5   0  0.2163800E-05  0.2590941E+04  0.7818609E-02  0.8371285E-01
        1   -1    0    0  501    0  0.00000000000E+00  0.00000000000E+00  0.12523663513E+04  0.12523663514E+04  0.50400001928E-02 0. -1.
       -1   -1    0    0    0  501  0.00000000000E+00  0.00000000000E+00 -0.13400585111E+04  0.13400585111E+04  0.50400001928E-02 0.  1.
    10030    2    1    2    0    0  0.00000000000E+00  0.00000000000E+00 -0.87692159755E+02  0.25924248625E+04  0.25909412870E+04 0.  0.
        1    1    3    3  502    0  0.98961263041E+03 -0.63061445302E+03 -0.59301046040E+03  0.13147886343E+04  0.50400001928E-02 0.  1.
       -1    1    3    3    0  502 -0.98961263041E+03  0.63061445302E+03  0.50531830064E+03  0.12776362282E+04  0.50400001928E-02 0. -1.
</event>
<event>
 5   0  0.1993815E-05  0.2553087E+04  0.7818609E-02  0.8384313E-01
        1   -1    0    0  501    0  0.00000000000E+00  0.00000000000E+00  0.33963099682E+04  0.33963099682E+04  0.50400001928E-02 0. -1.
       -1   -1    0    0    0  501  0.00000000000E+00  0.00000000000E+00 -0.47980411132E+03  0.47980411135E+03  0.50400001928E-02 0.  1.
    10030    2    1    2    0    0  0.00000000000E+00  0.00000000000E+00  0.29165058569E+04  0.38761140795E+04  0.25530871400E+04 0.  0.
        5    1    3    3  502    0  0.19288517923E+03  0.31852658524E+03  0.33120060499E+04  0.33328771418E+04  0.46999998093E+01 0. -1.
       -5    1    3    3    0  502 -0.19288517923E+03 -0.31852658524E+03 -0.39550019301E+03  0.54323693775E+03  0.46999998093E+01 0.  1.
</event>
<event>
 5   0  0.4955675E-05  0.2551326E+04  0.7818609E-02  0.8384925E-01
        2   -1    0    0  501    0  0.00000000000E+00  0.00000000000E+00  0.20252388127E+04  0.20252388127E+04  0.25500000920E-02 0.  1.
       -2   -1    0    0    0  501  0.00000000000E+00  0.00000000000E+00 -0.80351796473E+03  0.80351796473E+03  0.25500000920E-02 0. -1.
    10030    2    1    2    0    0  0.00000000000E+00  0.00000000000E+00  0.12217208479E+04  0.28287567774E+04  0.25513257486E+04 0.  0.
        5    1    3    3  502    0 -0.51789753190E+03 -0.38217210412E+03 -0.61027472282E+03  0.88697840900E+03  0.46999998093E+01 0. -1.
       -5    1    3    3    0  502  0.51789753190E+03  0.38217210412E+03  0.18319955707E+04  0.19417783684E+04  0.46999998093E+01 0.  1.
</event>
<event>
 5   0  0.5036452E-05  0.2610903E+04  0.7818609E-02  0.8364507E-01
        2   -1    0    0  501    0  0.00000000000E+00  0.00000000000E+00  0.25280972095E+04  0.25280972095E+04  0.25500000920E-02 0.  1.
       -2   -1    0    0    0  501  0.00000000000E+00  0.00000000000E+00 -0.67410508603E+03  0.67410508604E+03  0.25500000920E-02 0. -1.
    10030    2    1    2    0    0  0.00000000000E+00  0.00000000000E+00  0.18539921234E+04  0.32022022955E+04  0.26109026691E+04 0.  0.
        2    1    3    3  502    0  0.82660328115E+03  0.97366631201E+03  0.59583893601E+03  0.14093697560E+04  0.25500000920E-02 0. -1.
       -2    1    3    3    0  502 -0.82660328115E+03 -0.97366631201E+03  0.12581531874E+04  0.17928325395E+04  0.25500000920E-02 0.  1.
</event>
<event>
 5   0  0.5036452E-05  0.2609319E+04  0.7818609E-02  0.8365043E-01
        2   -1    0    0  501    0  0.00000000000E+00  0.00000000000E+00  0.15930552477E+04  0.15930552477E+04  0.25500000920E-02 0. -1.
       -2   -1    0    0    0  501  0.00000000000E+00  0.00000000000E+00 -0.10684732370E+04  0.10684732370E+04  0.25500000920E-02 0.  1.
    10030    2    1    2    0    0  0.00000000000E+00  0.00000000000E+00  0.52458201075E+03  0.26615284847E+04  0.26093193728E+04 0.  0.
        2    1    3    3  502    0  0.76621050195E+02 -0.12623457225E+04 -0.64668150647E+02  0.12663212381E+04  0.25500000920E-02 0.  1.
       -2    1    3    3    0  502 -0.76621050195E+02  0.12623457225E+04  0.58925016140E+03  0.13952072466E+04  0.25500000920E-02 0. -1.
</event>
<event>
 5   0  0.4955675E-05  0.2613396E+04  0.7818609E-02  0.8363665E-01
        2   -1    0    0  501    0  0.00000000000E+00  0.00000000000E+00  0.18344122595E+04  0.18344122595E+04  0.25500000920E-02 0.  1.
       -2   -1    0    0    0  501  0.00000000000E+00  0.00000000000E+00 -0.93079375834E+03  0.93079375834E+03  0.25500000920E-02 0. -1.
    10030    2    1    2    0    0  0.00000000000E+00  0.00000000000E+00  0.90361850111E+03  0.27652060178E+04  0.26133958608E+04 0.  0.
        5    1    3    3  502    0 -0.11048381783E+04 -0.12878441485E+03 -0.27372259370E+03  0.11455125377E+04  0.46999998093E+01 0. -1.
       -5    1    3    3    0  502  0.11048381783E+04  0.12878441485E+03  0.11773410948E+04  0.16196934801E+04  0.46999998093E+01 0.  1.
</event>
<event>
 5   0  0.5170532E-05  0.2555657E+04  0.7818609E-02  0.8383421E-01
       -2   -1    0    0    0  501  0.00000000000E+00  0.00000000000E+00  0.81668317298E+03  0.81668317298E+03  0.25500000920E-02 0.  1.
        2   -1    0    0  501    0  0.00000000000E+00  0.00000000000E+00 -0.19993626746E+04  0.19993626746E+04  0.25500000920E-02 0. -1.
    10030    2    1    2    0    0  0.00000000000E+00  0.00000000000E+00 -0.11826795016E+04  0.28160458476E+04  0.25556571390E+04 0.  0.
        1    1    3    3  502    0 -0.76797195566E+03  0.73008308194E+03 -0.13782782492E+04  0.17385203949E+04  0.50400001928E-02 0. -1.
       -1    1    3    3    0  502  0.76797195566E+03 -0.73008308194E+03  0.19559874753E+03  0.10775254527E+04  0.50400001928E-02 0.  1.
</event>
<event>
 5   0  0.5036452E-05  0.2603888E+04  0.7818609E-02  0.8366882E-01
       -2   -1    0    0    0  501  0.00000000000E+00  0.00000000000E+00  0.14537540304E+04  0.14537540304E+04  0.25500000920E-02 0.  1.
        2   -1    0    0  501    0  0.00000000000E+00  0.00000000000E+00 -0.11659865812E+04  0.11659865812E+04  0.25500000920E-02 0. -1.
    10030    2    1    2    0    0  0.00000000000E+00  0.00000000000E+00  0.28776744918E+03  0.26197406116E+04  0.26038876257E+04 0.  0.
        2    1    3    3  502    0  0.87764203451E+03  0.54593689626E+03 -0.65261480440E+03  0.12223783041E+04  0.25500000920E-02 0. -1.
       -2    1    3    3    0  502 -0.87764203451E+03 -0.54593689626E+03  0.94038225357E+03  0.13973623074E+04  0.25500000920E-02 0.  1.
</event>
<event>
 5   0  0.5170532E-05  0.2398638E+04  0.7818609E-02  0.8440014E-01
       -2   -1    0    0    0  501  0.00000000000E+00  0.00000000000E+00  0.10093950810E+04  0.10093950810E+04  0.25500000920E-02 0. -1.
        2   -1    0    0  501    0  0.00000000000E+00  0.00000000000E+00 -0.14249780589E+04  0.14249780589E+04  0.25500000920E-02 0.  1.
    10030    2    1    2    0    0  0.00000000000E+00  0.00000000000E+00 -0.41558297793E+03  0.24343731399E+04  0.23986378161E+04 0.  0.
        1    1    3    3  502    0  0.94880259379E+03  0.52887332161E+02  0.53478004460E+03  0.10904187856E+04  0.50400001928E-02 0. -1.
       -1    1    3    3    0  502 -0.94880259379E+03 -0.52887332161E+02 -0.95036302253E+03  0.13439543543E+04  0.50400001928E-02 0.  1.
</event>
<event>
 5   0  0.1954502E-05  0.2602895E+04  0.7818609E-02  0.8367219E-01
        1   -1    0    0  501    0  0.00000000000E+00  0.00000000000E+00  0.13767072855E+04  0.13767072855E+04  0.50400001928E-02 0. -1.
       -1   -1    0    0    0  501  0.00000000000E+00  0.00000000000E+00 -0.12303014558E+04  0.12303014558E+04  0.50400001928E-02 0.  1.
    10030    2    1    2    0    0  0.00000000000E+00  0.00000000000E+00  0.14640582971E+03  0.26070087414E+04  0.26028945254E+04 0.  0.
        4    1    3    3  502    0  0.72910712741E+03 -0.40653345631E+03 -0.92682241124E+03  0.12473443988E+04  0.12699999809E+01 0.  1.
       -4    1    3    3    0  502 -0.72910712741E+03  0.40653345631E+03  0.10732282410E+04  0.13596643426E+04  0.12699999809E+01 0. -1.
</event>
<event>
 5   0  0.2163800E-05  0.2590154E+04  0.7818609E-02  0.8371553E-01
        1   -1    0    0  501    0  0.00000000000E+00  0.00000000000E+00  0.27422651735E+04  0.27422651735E+04  0.50400001928E-02 0.  1.
       -1   -1    0    0    0  501  0.00000000000E+00  0.00000000000E+00 -0.61162015928E+03  0.61162015930E+03  0.50400001928E-02 0. -1.
    10030    2    1    2    0    0  0.00000000000E+00  0.00000000000E+00  0.21306450143E+04  0.33538853328E+04  0.25901541748E+04 0.  0.
        1    1    3    3  502    0  0.58215444148E+03 -0.40378711115E+03 -0.33843691171E+03  0.78516709565E+03  0.50400001928E-02 0. -1.
       -1    1    3    3    0  502 -0.58215444148E+03  0.40378711115E+03  0.24690819260E+04  0.25687182372E+04  0.50400001928E-02 0.  1.
</event>
<event>
 5   0  0.1954502E-05  0.2558355E+04  0.7818609E-02  0.8382486E-01
        1   -1    0    0  501    0  0.00000000000E+00  0.00000000000E+00  0.13391496993E+04  0.13391496993E+04  0.50400001928E-02 0. -1.
       -1   -1    0    0    0  501  0.00000000000E+00  0.00000000000E+00 -0.12218906386E+04  0.12218906386E+04  0.50400001928E-02 0.  1.
    10030    2    1    2    0    0  0.00000000000E+00  0.00000000000E+00  0.11725906072E+03  0.25610403379E+04  0.25583545346E+04 0.  0.
        4    1    3    3  502    0 -0.33222965547E+02 -0.37123111906E+03 -0.11663284898E+04  0.12244345912E+04  0.12699999809E+01 0.  1.
       -4    1    3    3    0  502  0.33222965547E+02  0.37123111906E+03  0.12835875505E+04  0.13366057466E+04  0.12699999809E+01 0. -1.
</event>
<event>
 5   0  0.5049803E-05  0.2617574E+04  0.7818609E-02  0.8362256E-01
       -2   -1    0    0    0  501  0.00000000000E+00  0.00000000000E+00  0.20945472717E+04  0.20945472717E+04  0.25500000920E-02 0. -1.
        2   -1    0    0  501    0  0.00000000000E+00  0.00000000000E+00 -0.81780122258E+03  0.81780122258E+03  0.25500000920E-02 0.  1.
    10030    2    1    2    0    0  0.00000000000E+00  0.00000000000E+00  0.12767460491E+04  0.29123484943E+04  0.26175739299E+04 0.  0.
        4    1    3    3  502    0 -0.93071293878E+03 -0.87194185006E+03  0.31130899989E+03  0.13127924705E+04  0.12699999809E+01 0. -1.
       -4    1    3    3    0  502  0.93071293878E+03  0.87194185006E+03  0.96543704924E+03  0.15995560238E+04  0.12699999809E+01 0.  1.
</event>
<event>
 5   0  0.1993815E-05  0.2628093E+04  0.7818609E-02  0.8358721E-01
        1   -1    0    0  501    0  0.00000000000E+00  0.00000000000E+00  0.16816224894E+04  0.16816224895E+04  0.50400001928E-02 0. -1.
       -1   -1    0    0    0  501  0.00000000000E+00  0.00000000000E+00 -0.10268171529E+04  0.10268171529E+04  0.50400001928E-02 0.  1.
    10030    2    1    2    0    0  0.00000000000E+00  0.00000000000E+00  0.65480533659E+03  0.27084396423E+04  0.26280934662E+04 0.  0.
        5    1    3    3  502    0  0.72075188059E+03  0.51937528335E+03  0.13252299401E+04  0.15954593202E+04  0.46999998093E+01 0. -1.
       -5    1    3    3    0  502 -0.72075188059E+03 -0.51937528335E+03 -0.67042460353E+03  0.11129803221E+04  0.46999998093E+01 0.  1.
</event>
<event>
 5   0  0.2072710E-05  0.2616626E+04  0.7818609E-02  0.8362576E-01
        1   -1    0    0  501    0  0.00000000000E+00  0.00000000000E+00  0.10252536294E+04  0.10252536295E+04  0.50400001928E-02 0. -1.
       -1   -1    0    0    0  501  0.00000000000E+00  0.00000000000E+00 -0.16695213552E+04  0.16695213552E+04  0.50400001928E-02 0.  1.
    10030    2    1    2    0    0  0.00000000000E+00  0.00000000000E+00 -0.64426772577E+03  0.26947749847E+04  0.26166259411E+04 0.  0.
        2    1    3    3  502    0  0.93312944060E+03  0.32917283389E+03 -0.12036161443E+04  0.15581325779E+04  0.25500000920E-02 0. -1.
       -2    1    3    3    0  502 -0.93312944060E+03 -0.32917283389E+03  0.55934841856E+03  0.11366424068E+04  0.25500000920E-02 0.  1.
</event>
<event>
 5   0  0.1954502E-05  0.1589800E+04  0.7818609E-02  0.8826839E-01
       -1   -1    0    0    0  501  0.00000000000E+00  0.00000000000E+00  0.97640790804E+03  0.97640790805E+03  0.50400001928E-02 0. -1.
        1   -1    0    0  501    0  0.00000000000E+00  0.00000000000E+00 -0.64713333585E+03  0.64713333587E+03  0.50400001928E-02 0.  1.
    10030    2    1    2    0    0  0.00000000000E+00  0.00000000000E+00  0.32927457219E+03  0.16235412439E+04  0.15898001217E+04 0.  0.
        4    1    3    3  502    0  0.30623518601E+03  0.17382765384E+03  0.89241108741E+03  0.95937229699E+03  0.12699999809E+01 0. -1.
       -4    1    3    3    0  502 -0.30623518601E+03 -0.17382765384E+03 -0.56313651522E+03  0.66416894693E+03  0.12699999809E+01 0.  1.
</event>
<event>
 5   0  0.1954502E-05  0.2383434E+04  0.7818609E-02  0.8445732E-01
        1   -1    0    0  501    0  0.00000000000E+00  0.00000000000E+00  0.17168473488E+04  0.17168473488E+04  0.50400001928E-02 0. -1.
       -1   -1    0    0    0  501  0.00000000000E+00  0.00000000000E+00 -0.82720747467E+03  0.82720747469E+03  0.50400001928E-02 0.  1.
    10030    2    1    2    0    0  0.00000000000E+00  0.00000000000E+00  0.88963987410E+03  0.25440548235E+04  0.23834336238E+04 0.  0.
        4    1    3    3  502    0  0.11791095842E+04  0.13499009577E+03  0.56010608286E+03  0.13123422474E+04  0.12699999809E+01 0. -1.
       -4    1    3    3    0  502 -0.11791095842E+04 -0.13499009577E+03  0.32953379125E+03  0.12317125760E+04  0.12699999809E+01 0.  1.
</event>
<event>
 5   0  0.5182179E-05  0.2650186E+04  0.7818609E-02  0.8351351E-01
        2   -1    0    0  501    0  0.00000000000E+00  0.00000000000E+00  0.15698685536E+04  0.15698685536E+04  0.25500000920E-02 0.  1.
       -2   -1    0    0    0  501  0.00000000000E+00  0.00000000000E+00 -0.11184830900E+04  0.11184830900E+04  0.25500000920E-02 0. -1.
    10030    2    1    2    0    0  0.00000000000E+00  0.00000000000E+00  0.45138546367E+03  0.26883516436E+04  0.26501859789E+04 0.  0.
        3    1    3    3  502    0 -0.92296455086E+03  0.52161737166E+03 -0.58069119891E+03  0.12087805935E+04  0.10100000352E+00 0. -1.
       -3    1    3    3    0  502  0.92296455086E+03 -0.52161737166E+03  0.10320766626E+04  0.14795710501E+04  0.10100000352E+00 0.  1.
</event>
<event>
 5   0  0.2072710E-05  0.2594568E+04  0.7818609E-02  0.8370049E-01
       -1   -1    0    0    0  501  0.00000000000E+00  0.00000000000E+00  0.11563162295E+04  0.11563162295E+04  0.50400001928E-02 0.  1.
        1   -1    0    0  501    0  0.00000000000E+00  0.00000000000E+00 -0.14554372772E+04  0.14554372772E+04  0.50400001928E-02 0. -1.
    10030    2    1    2    0    0  0.00000000000E+00  0.00000000000E+00 -0.29912104777E+03  0.26117535067E+04  0.25945679753E+04 0.  0.
        2    1    3    3  502    0 -0.98559490632E+03 -0.69383627011E+03 -0.63246681422E+03  0.13611834411E+04  0.25500000920E-02 0. -1.
       -2    1    3    3    0  502  0.98559490632E+03  0.69383627011E+03  0.33334576645E+03  0.12505700657E+04  0.25500000920E-02 0.  1.
</event>
<event>
 5   0  0.5182179E-05  0.2591069E+04  0.7818609E-02  0.8371241E-01
       -2   -1    0    0    0  501  0.00000000000E+00  0.00000000000E+00  0.67867085260E+03  0.67867085261E+03  0.25500000920E-02 0.  1.
        2   -1    0    0  501    0  0.00000000000E+00  0.00000000000E+00 -0.24730838348E+04  0.24730838348E+04  0.25500000920E-02 0. -1.
    10030    2    1    2    0    0  0.00000000000E+00  0.00000000000E+00 -0.17944129822E+04  0.31517546874E+04  0.25910692115E+04 0.  0.
        3    1    3    3  502    0  0.32149393431E+03 -0.12365922344E+04 -0.63662827670E+03  0.14275203245E+04  0.10100000352E+00 0. -1.
       -3    1    3    3    0  502 -0.32149393431E+03  0.12365922344E+04 -0.11577847055E+04  0.17242343629E+04  0.10100000352E+00 0.  1.
</event>
<event>
 5   0  0.1993815E-05  0.2641562E+04  0.7818609E-02  0.8354219E-01
        1   -1    0    0  501    0  0.00000000000E+00  0.00000000000E+00  0.11222772859E+04  0.11222772859E+04  0.50400001928E-02 0. -1.
       -1   -1    0    0    0  501  0.00000000000E+00  0.00000000000E+00 -0.15543950160E+04  0.15543950160E+04  0.50400001928E-02 0.  1.
    10030    2    1    2    0    0  0.00000000000E+00  0.00000000000E+00 -0.43211773008E+03  0.26766723019E+04  0.26415618257E+04 0.  0.
        5    1    3    3  502    0 -0.62206046386E+03  0.47827418333E+03 -0.12925993485E+04  0.15121311387E+04  0.46999998093E+01 0.  1.
       -5    1    3    3    0  502  0.62206046386E+03 -0.47827418333E+03  0.86048161838E+03  0.11645411632E+04  0.46999998093E+01 0. -1.
</event>
<event>
 5   0  0.4955675E-05  0.2650981E+04  0.7818609E-02  0.8351087E-01
       -2   -1    0    0    0  501  0.00000000000E+00  0.00000000000E+00  0.12128358645E+04  0.12128358645E+04  0.25500000920E-02 0. -1.
        2   -1    0    0  501    0  0.00000000000E+00  0.00000000000E+00 -0.14486090161E+04  0.14486090161E+04  0.25500000920E-02 0.  1.
    10030    2    1    2    0    0  0.00000000000E+00  0.00000000000E+00 -0.23577315158E+03  0.26614448807E+04  0.26509809267E+04 0.  0.
        5    1    3    3  502    0 -0.25417066290E+02  0.65451875078E+03 -0.12747640200E+04  0.14332083655E+04  0.46999998093E+01 0.  1.
       -5    1    3    3    0  502  0.25417066290E+02 -0.65451875078E+03  0.10389908684E+04  0.12282365151E+04  0.46999998093E+01 0. -1.
</event>
<event>
 5   0  0.2159405E-05  0.2639707E+04  0.7818609E-02  0.8354837E-01
       -1   -1    0    0    0  501  0.00000000000E+00  0.00000000000E+00  0.14171250008E+04  0.14171250008E+04  0.50400001928E-02 0. -1.
        1   -1    0    0  501    0  0.00000000000E+00  0.00000000000E+00 -0.12292586100E+04  0.12292586100E+04  0.50400001928E-02 0.  1.
    10030    2    1    2    0    0  0.00000000000E+00  0.00000000000E+00  0.18786639081E+03  0.26463836108E+04  0.26397068842E+04 0.  0.
        3    1    3    3  502    0  0.86275157830E+03 -0.12213801937E+03  0.10877806965E+04  0.13937448961E+04  0.10100000352E+00 0. -1.
       -3    1    3    3    0  502 -0.86275157830E+03  0.12213801937E+03 -0.89991430569E+03  0.12526387146E+04  0.10100000352E+00 0.  1.
</event>
<event>
 5   0  0.1993815E-05  0.2533920E+04  0.7818609E-02  0.8391000E-01
       -1   -1    0    0    0  501  0.00000000000E+00  0.00000000000E+00  0.85974337260E+03  0.85974337261E+03  0.50400001928E-02 0.  1.
        1   -1    0    0  501    0  0.00000000000E+00  0.00000000000E+00 -0.18670542192E+04  0.18670542193E+04  0.50400001928E-02 0. -1.
    10030    2    1    2    0    0  0.00000000000E+00  0.00000000000E+00 -0.10073108466E+04  0.27267975919E+04  0.25339198814E+04 0.  0.
        5    1    3    3  502    0 -0.38100883708E+03 -0.19818712942E+03  0.77901239293E+03  0.88956633847E+03  0.46999998093E+01 0.  1.
       -5    1    3    3    0  502  0.38100883708E+03  0.19818712942E+03 -0.17863232396E+04  0.18372312534E+04  0.46999998093E+01 0. -1.
</event>
<event>
 5   0  0.4955675E-05  0.2838962E+04  0.7818609E-02  0.8291273E-01
        2   -1    0    0  501    0  0.00000000000E+00  0.00000000000E+00  0.13188893235E+04  0.13188893235E+04  0.25500000920E-02 0.  1.
       -2   -1    0    0    0  501  0.00000000000E+00  0.00000000000E+00 -0.15277448308E+04  0.15277448308E+04  0.25500000920E-02 0. -1.
    10030    2    1    2    0    0  0.00000000000E+00  0.00000000000E+00 -0.20885550734E+03  0.28466341544E+04  0.28389620261E+04 0.  0.
        5    1    3    3  502    0 -0.82566598265E+03 -0.89392353772E+03  0.62835542980E+03  0.13695533003E+04  0.46999998093E+01 0.  1.
       -5    1    3    3    0  502  0.82566598265E+03  0.89392353772E+03 -0.83721093713E+03  0.14770808541E+04  0.46999998093E+01 0. -1.
</event>
<event>
 5   0  0.2159405E-05  0.1530236E+04  0.7818609E-02  0.8864592E-01
       -1   -1    0    0    0  501  0.00000000000E+00  0.00000000000E+00  0.33390896176E+03  0.33390896180E+03  0.50400001928E-02 0. -1.
        1   -1    0    0  501    0  0.00000000000E+00  0.00000000000E+00 -0.17531890301E+04  0.17531890301E+04  0.50400001928E-02 0.  1.
    10030    2    1    2    0    0  0.00000000000E+00  0.00000000000E+00 -0.14192800683E+04  0.20870979919E+04  0.15302359672E+04 0.  0.
        3    1    3    3  502    0  0.48005060823E+03  0.39686258700E+03 -0.13157071534E+04  0.14556901536E+04  0.10100000352E+00 0.  1.
       -3    1    3    3    0  502 -0.48005060823E+03 -0.39686258700E+03 -0.10357291494E+03  0.63140783836E+03  0.10100000352E+00 0. -1.
</event>
<event>
 5   0  0.2072710E-05  0.2531518E+04  0.7818609E-02  0.8391842E-01
        1   -1    0    0  501    0  0.00000000000E+00  0.00000000000E+00  0.89830353926E+03  0.89830353927E+03  0.50400001928E-02 0.  1.
       -1   -1    0    0    0  501  0.00000000000E+00  0.00000000000E+00 -0.17835234254E+04  0.17835234254E+04  0.50400001928E-02 0. -1.
    10030    2    1    2    0    0  0.00000000000E+00  0.00000000000E+00 -0.88521988611E+03  0.26818269646E+04  0.25315176518E+04 0.  0.
        2    1    3    3  502    0 -0.29594210117E+03  0.11760887810E+04 -0.82659341704E+03  0.14676590970E+04  0.25500000920E-02 0. -1.
       -2    1    3    3    0  502  0.29594210117E+03 -0.11760887810E+04 -0.58626469066E+02  0.12141678676E+04  0.25500000920E-02 0.  1.
</event>
<event>
 5   0  0.5036452E-05  0.2531612E+04  0.7818609E-02  0.8391809E-01
       -2   -1    0    0    0  501  0.00000000000E+00  0.00000000000E+00  0.12689833233E+04  0.12689833233E+04  0.25500000920E-02 0. -1.
        2   -1    0    0  501    0  0.00000000000E+00  0.00000000000E+00 -0.12626369747E+04  0.12626369747E+04  0.25500000920E-02 0.  1.
    10030    2    1    2    0    0  0.00000000000E+00  0.00000000000E+00  0.63463485785E+01  0.25316202980E+04  0.25316123434E+04 0.  0.
        2    1    3    3  502    0  0.18284916363E+02  0.27168022958E+03 -0.12330025341E+04  0.12627112633E+04  0.25500000920E-02 0.  1.
       -2    1    3    3    0  502 -0.18284916363E+02 -0.27168022958E+03  0.12393488827E+04  0.12689090347E+04  0.25500000920E-02 0. -1.
</event>
<event>
 5   0  0.5036452E-05  0.1713938E+04  0.7818609E-02  0.8753455E-01
       -2   -1    0    0    0  501  0.00000000000E+00  0.00000000000E+00  0.50713459129E+03  0.50713459130E+03  0.25500000920E-02 0. -1.
        2   -1    0    0  501    0  0.00000000000E+00  0.00000000000E+00 -0.14481285590E+04  0.14481285590E+04  0.25500000920E-02 0.  1.
    10030    2    1    2    0    0  0.00000000000E+00  0.00000000000E+00 -0.94099396771E+03  0.19552631503E+04  0.17139382543E+04 0.  0.
        2    1    3    3  502    0  0.26432122167E+03  0.85794443245E+02  0.45430511287E+03  0.53255941481E+03  0.25500000920E-02 0. -1.
       -2    1    3    3    0  502 -0.26432122167E+03 -0.85794443245E+02 -0.13952990806E+04  0.14227037355E+04  0.25500000920E-02 0.  1.
</event>
<event>
 5   0  0.5049803E-05  0.2583875E+04  0.7818609E-02  0.8373699E-01
       -2   -1    0    0    0  501  0.00000000000E+00  0.00000000000E+00  0.12253371688E+04  0.12253371688E+04  0.25500000920E-02 0.  1.
        2   -1    0    0  501    0  0.00000000000E+00  0.00000000000E+00 -0.13621581505E+04  0.13621581505E+04  0.25500000920E-02 0. -1.
    10030    2    1    2    0    0  0.00000000000E+00  0.00000000000E+00 -0.13682098172E+03  0.25874953193E+04  0.25838753930E+04 0.  0.
        4    1    3    3  502    0 -0.68359088619E+03  0.55211891142E+03  0.88000113832E+03  0.12435977679E+04  0.12699999809E+01 0.  1.
       -4    1    3    3    0  502  0.68359088619E+03 -0.55211891142E+03 -0.10168221200E+04  0.13438975514E+04  0.12699999809E+01 0. -1.
</event>
<event>
 5   0  0.5170532E-05  0.2627679E+04  0.7818609E-02  0.8358860E-01
        2   -1    0    0  501    0  0.00000000000E+00  0.00000000000E+00  0.11071025153E+04  0.11071025153E+04  0.25500000920E-02 0. -1.
       -2   -1    0    0    0  501  0.00000000000E+00  0.00000000000E+00 -0.15591821276E+04  0.15591821276E+04  0.25500000920E-02 0.  1.
    10030    2    1    2    0    0  0.00000000000E+00  0.00000000000E+00 -0.45207961231E+03  0.26662846428E+04  0.26276791700E+04 0.  0.
        1    1    3    3  502    0 -0.35360720135E+03  0.56173748719E+03  0.92445583111E+03  0.11380710176E+04  0.50400001928E-02 0. -1.
       -1    1    3    3    0  502  0.35360720135E+03 -0.56173748719E+03 -0.13765354434E+04  0.15282136252E+04  0.50400001928E-02 0.  1.
</event>
<event>
 5   0  0.2072710E-05  0.2468271E+04  0.7818609E-02  0.8414377E-01
       -1   -1    0    0    0  501  0.00000000000E+00  0.00000000000E+00  0.15376184489E+04  0.15376184489E+04  0.50400001928E-02 0. -1.
        1   -1    0    0  501    0  0.00000000000E+00  0.00000000000E+00 -0.99055173840E+03  0.99055173842E+03  0.50400001928E-02 0.  1.
    10030    2    1    2    0    0  0.00000000000E+00  0.00000000000E+00  0.54706671046E+03  0.25281701873E+04  0.24682711582E+04 0.  0.
        2    1    3    3  502    0 -0.52555930534E+03  0.91519083115E+03  0.92882754690E+03  0.14058831576E+04  0.25500000920E-02 0. -1.
       -2    1    3    3    0  502  0.52555930534E+03 -0.91519083115E+03 -0.38176083644E+03  0.11222870297E+04  0.25500000920E-02 0.  1.
</event>
<event>
 5   0  0.5049803E-05  0.2674021E+04  0.7818609E-02  0.8343484E-01
       -2   -1    0    0    0  501  0.00000000000E+00  0.00000000000E+00  0.10753373990E+04  0.10753373990E+04  0.25500000920E-02 0. -1.
        2   -1    0    0  501    0  0.00000000000E+00  0.00000000000E+00 -0.16623594422E+04  0.16623594422E+04  0.25500000920E-02 0.  1.
    10030    2    1    2    0    0  0.00000000000E+00  0.00000000000E+00 -0.58702204321E+03  0.27376968412E+04  0.26740211509E+04 0.  0.
        4    1    3    3  502    0 -0.28246307204E+03 -0.27489891080E+03 -0.16015257689E+04  0.16493153729E+04  0.12699999809E+01 0.  1.
       -4    1    3    3    0  502  0.28246307204E+03  0.27489891080E+03  0.10145037257E+04  0.10883814683E+04  0.12699999809E+01 0. -1.
</event>
<event>
 5   0  0.5182179E-05  0.2630847E+04  0.7818609E-02  0.8357798E-01
       -2   -1    0    0    0  501  0.00000000000E+00  0.00000000000E+00  0.71803849216E+03  0.71803849216E+03  0.25500000920E-02 0.  1.
        2   -1    0    0  501    0  0.00000000000E+00  0.00000000000E+00 -0.24098133472E+04  0.24098133472E+04  0.25500000920E-02 0. -1.
    10030    2    1    2    0    0  0.00000000000E+00  0.00000000000E+00 -0.16917748551E+04  0.31278518394E+04  0.26308468159E+04 0.  0.
        3    1    3    3  502    0 -0.87827868438E+03  0.62165764448E+03  0.53695146489E+02  0.10773647726E+04  0.10100000352E+00 0.  1.
       -3    1    3    3    0  502  0.87827868438E+03 -0.62165764448E+03 -0.17454700016E+04  0.20504870668E+04  0.10100000352E+00 0. -1.
</event>
<event>
 5   0  0.2159405E-05  0.2628285E+04  0.7818609E-02  0.8358657E-01
       -1   -1    0    0    0  501  0.00000000000E+00  0.00000000000E+00  0.11168842364E+04  0.11168842364E+04  0.50400001928E-02 0.  1.
        1   -1    0    0  501    0  0.00000000000E+00  0.00000000000E+00 -0.15462392072E+04  0.15462392072E+04  0.50400001928E-02 0. -1.
    10030    2    1    2    0    0  0.00000000000E+00  0.00000000000E+00 -0.42935497079E+03  0.26631234436E+04  0.26282847610E+04 0.  0.
        3    1    3    3  502    0  0.58025700812E+03 -0.11775311014E+04 -0.15310610569E+03  0.13216350404E+04  0.10100000352E+00 0. -1.
       -3    1    3    3    0  502 -0.58025700812E+03  0.11775311014E+04 -0.27624886510E+03  0.13414884032E+04  0.10100000352E+00 0.  1.
</event>
<event>
 5   0  0.4955675E-05  0.2579779E+04  0.7818609E-02  0.8375102E-01
        2   -1    0    0  501    0  0.00000000000E+00  0.00000000000E+00  0.22528784669E+04  0.22528784669E+04  0.25500000920E-02 0. -1.
       -2   -1    0    0    0  501  0.00000000000E+00  0.00000000000E+00 -0.73852853215E+03  0.73852853216E+03  0.25500000920E-02 0.  1.
    10030    2    1    2    0    0  0.00000000000E+00  0.00000000000E+00  0.15143499348E+04  0.29914069991E+04  0.25797790815E+04 0.  0.
        5    1    3    3  502    0  0.79363913709E+03 -0.27739334184E+03 -0.37716974947E+03  0.92146039303E+03  0.46999998093E+01 0.  1.
       -5    1    3    3    0  502 -0.79363913709E+03  0.27739334184E+03  0.18915196842E+04  0.20699466060E+04  0.46999998093E+01 0. -1.
</event>
<event>
 5   0  0.1954502E-05  0.2571837E+04  0.7818609E-02  0.8377831E-01
       -1   -1    0    0    0  501  0.00000000000E+00  0.00000000000E+00  0.11437881292E+04  0.11437881292E+04  0.50400001928E-02 0.  1.
        1   -1    0    0  501    0  0.00000000000E+00  0.00000000000E+00 -0.14457099002E+04  0.14457099002E+04  0.50400001928E-02 0. -1.
    10030    2    1    2    0    0  0.00000000000E+00  0.00000000000E+00 -0.30192177101E+03  0.25894980294E+04  0.25718365594E+04 0.  0.
        4    1    3    3  502    0  0.12404636819E+04  0.33095756370E+03 -0.22426990940E+03  0.13032964590E+04  0.12699999809E+01 0. -1.
       -4    1    3    3    0  502 -0.12404636819E+04 -0.33095756370E+03 -0.77651861616E+02  0.12862015703E+04  0.12699999809E+01 0.  1.
</event>
<event>
 5   0  0.5170532E-05  0.2578772E+04  0.7818609E-02  0.8375448E-01
        2   -1    0    0  501    0  0.00000000000E+00  0.00000000000E+00  0.15226936238E+04  0.15226936238E+04  0.25500000920E-02 0. -1.
       -2   -1    0    0    0  501  0.00000000000E+00  0.00000000000E+00 -0.10918262205E+04  0.10918262205E+04  0.25500000920E-02 0.  1.
    10030    2    1    2    0    0  0.00000000000E+00  0.00000000000E+00  0.43086740332E+03  0.26145198443E+04  0.25787724399E+04 0.  0.
        1    1    3    3  502    0  0.96935501503E+02  0.33808760590E+03 -0.10422528721E+04  0.10999958046E+04  0.50400001928E-02 0.  1.
       -1    1    3    3    0  502 -0.96935501503E+02 -0.33808760590E+03  0.14731202754E+04  0.15145240397E+04  0.50400001928E-02 0. -1.
</event>
<event>
 5   0  0.5036452E-05  0.2504751E+04  0.7818609E-02  0.8401295E-01
       -2   -1    0    0    0  501  0.00000000000E+00  0.00000000000E+00  0.11774016748E+04  0.11774016748E+04  0.25500000920E-02 0. -1.
        2   -1    0    0  501    0  0.00000000000E+00  0.00000000000E+00 -0.13321234314E+04  0.13321234314E+04  0.25500000920E-02 0.  1.
    10030    2    1    2    0    0  0.00000000000E+00  0.00000000000E+00 -0.15472175661E+03  0.25095251062E+04  0.25047509730E+04 0.  0.
        2    1    3    3  502    0 -0.67270490329E+03  0.99417391366E+03 -0.43515595925E+03  0.12768219791E+04  0.25500000920E-02 0. -1.
       -2    1    3    3    0  502  0.67270490329E+03 -0.99417391366E+03  0.28043420264E+03  0.12327031271E+04  0.25500000920E-02 0.  1.
</event>
<event>
 5   0  0.1993815E-05  0.2655515E+04  0.7818609E-02  0.8349585E-01
       -1   -1    0    0    0  501  0.00000000000E+00  0.00000000000E+00  0.89343671183E+03  0.89343671184E+03  0.50400001928E-02 0.  1.
        1   -1    0    0  501    0  0.00000000000E+00  0.00000000000E+00 -0.19732113477E+04  0.19732113477E+04  0.50400001928E-02 0. -1.
    10030    2    1    2    0    0  0.00000000000E+00  0.00000000000E+00 -0.10797746359E+04  0.28666480596E+04  0.26555146080E+04 0.  0.
        5    1    3    3  502    0  0.91034158952E+03  0.36255049799E+03  0.42731330799E+03  0.10690104894E+04  0.46999998093E+01 0. -1.
       -5    1    3    3    0  502 -0.91034158952E+03 -0.36255049799E+03 -0.15070879439E+04  0.17976375702E+04  0.46999998093E+01 0.  1.
</event>
<event>
 5   0  0.5049803E-05  0.2672988E+04  0.7818609E-02  0.8343823E-01
       -2   -1    0    0    0  501  0.00000000000E+00  0.00000000000E+00  0.12805986945E+04  0.12805986945E+04  0.25500000920E-02 0. -1.
        2   -1    0    0  501    0  0.00000000000E+00  0.00000000000E+00 -0.13948293498E+04  0.13948293498E+04  0.25500000920E-02 0.  1.
    10030    2    1    2    0    0  0.00000000000E+00  0.00000000000E+00 -0.11423065521E+03  0.26754280443E+04  0.26729883235E+04 0.  0.
        4    1    3    3  502    0 -0.87137873467E+03  0.74337540458E+03  0.63221287105E+03  0.13082823161E+04  0.12699999809E+01 0. -1.
       -4    1    3    3    0  502  0.87137873467E+03 -0.74337540458E+03 -0.74644352626E+03  0.13671457282E+04  0.12699999809E+01 0.  1.
</event>
<event>
 5   0  0.4955675E-05  0.2599895E+04  0.7818609E-02  0.8368237E-01
       -2   -1    0    0    0  501  0.00000000000E+00  0.00000000000E+00  0.18013440318E+04  0.18013440318E+04  0.25500000920E-02 0. -1.
        2   -1    0    0  501    0  0.00000000000E+00  0.00000000000E+00 -0.93811251137E+03  0.93811251138E+03  0.25500000920E-02 0.  1.
    10030    2    1    2    0    0  0.00000000000E+00  0.00000000000E+00  0.86323152042E+03  0.27394565432E+04  0.25998949006E+04 0.  0.
        5    1    3    3  502    0 -0.35504965423E+03 -0.24288756892E+03 -0.86093048050E+03  0.96243337970E+03  0.46999998093E+01 0.  1.
       -5    1    3    3    0  502  0.35504965423E+03  0.24288756892E+03  0.17241620009E+04  0.17770231635E+04  0.46999998093E+01 0. -1.
</event>
<event>
 5   0  0.1954502E-05  0.1985505E+04  0.7818609E-02  0.8613428E-01
        1   -1    0    0  501    0  0.00000000000E+00  0.00000000000E+00  0.97479346056E+03  0.97479346058E+03  0.50400001928E-02 0. -1.
       -1   -1    0    0    0  501  0.00000000000E+00  0.00000000000E+00 -0.10110426146E+04  0.10110426146E+04  0.50400001928E-02 0.  1.
    10030    2    1    2    0    0  0.00000000000E+00  0.00000000000E+00 -0.36249154059E+02  0.19858360752E+04  0.19855052043E+04 0.  0.
        4    1    3    3  502    0  0.38935463154E+03 -0.43592617707E+03 -0.82070920519E+03  0.10075682971E+04  0.12699999809E+01 0.  1.
       -4    1    3    3    0  502 -0.38935463154E+03  0.43592617707E+03  0.78446005113E+03  0.97826777810E+03  0.12699999809E+01 0. -1.
</event>
<event>
 5   0  0.5182179E-05  0.2485772E+04  0.7818609E-02  0.8408072E-01
       -2   -1    0    0    0  501  0.00000000000E+00  0.00000000000E+00  0.15499263708E+04  0.15499263708E+04  0.25500000920E-02 0.  1.
        2   -1    0    0  501    0  0.00000000000E+00  0.00000000000E+00 -0.99667043169E+03  0.99667043169E+03  0.25500000920E-02 0. -1.
    10030    2    1    2    0    0  0.00000000000E+00  0.00000000000E+00  0.55325593910E+03  0.25465968025E+04  0.24857721417E+04 0.  0.
        3    1    3    3  502    0  0.66473035134E+03  0.13960324128E+03  0.13429671013E+04  0.15049638369E+04  0.10100000352E+00 0.  1.
       -3    1    3    3    0  502 -0.66473035134E+03 -0.13960324128E+03 -0.78971116224E+03  0.10416329656E+04  0.10100000352E+00 0. -1.
</event>
<event>
 5   0  0.1698625E-05  0.2615957E+04  0.7818609E-02  0.8362801E-01
       -3   -1    0    0    0  501  0.00000000000E+00  0.00000000000E+00  0.95500468059E+03  0.95500468593E+03  0.10100000352E+00 0. -1.
        3   -1    0    0  501    0  0.00000000000E+00  0.00000000000E+00 -0.17914134353E+04  0.17914134381E+04  0.10100000352E+00 0.  1.
    10030    2    1    2    0    0  0.00000000000E+00  0.00000000000E+00 -0.83640875470E+03  0.27464181241E+04  0.26159573596E+04 0.  0.
        4    1    3    3  502    0 -0.74171888596E+03  0.75472515660E+03 -0.12253427160E+04  0.16190192563E+04  0.12699999809E+01 0.  1.
       -4    1    3    3    0  502  0.74171888596E+03 -0.75472515660E+03  0.38893396132E+03  0.11273988677E+04  0.12699999809E+01 0. -1.
</event>
<event>
 5   0  0.2159405E-05  0.2199754E+04  0.7818609E-02  0.8518531E-01
       -1   -1    0    0    0  501  0.00000000000E+00  0.00000000000E+00  0.91742154126E+03  0.91742154127E+03  0.50400001928E-02 0.  1.
        1   -1    0    0  501    0  0.00000000000E+00  0.00000000000E+00 -0.13186188627E+04  0.13186188627E+04  0.50400001928E-02 0. -1.
    10030    2    1    2    0    0  0.00000000000E+00  0.00000000000E+00 -0.40119732144E+03  0.22360404040E+04  0.21997539402E+04 0.  0.
        3    1    3    3  502    0 -0.14151783344E+03  0.97253978258E+03 -0.70257508282E+03  0.12080863724E+04  0.10100000352E+00 0.  1.
       -3    1    3    3    0  502  0.14151783344E+03 -0.97253978258E+03  0.30137776138E+03  0.10279540316E+04  0.10100000352E+00 0. -1.
</event>
<event>
 5   0  0.2159405E-05  0.2745662E+04  0.7818609E-02  0.8320339E-01
        1   -1    0    0  501    0  0.00000000000E+00  0.00000000000E+00  0.15086234889E+04  0.15086234889E+04  0.50400001928E-02 0.  1.
       -1   -1    0    0    0  501  0.00000000000E+00  0.00000000000E+00 -0.12492614649E+04  0.12492614649E+04  0.50400001928E-02 0. -1.
    10030    2    1    2    0    0  0.00000000000E+00  0.00000000000E+00  0.25936202399E+03  0.27578849538E+04  0.27456621713E+04 0.  0.
        3    1    3    3  502    0 -0.55040133051E+03  0.57597302615E+02  0.13916201834E+04  0.14976200516E+04  0.10100000352E+00 0.  1.
       -3    1    3    3    0  502  0.55040133051E+03 -0.57597302615E+02 -0.11322581594E+04  0.12602649022E+04  0.10100000352E+00 0. -1.
</event>
<event>
 5   0  0.2163800E-05  0.1333407E+04  0.7818609E-02  0.9003484E-01
       -1   -1    0    0    0  501  0.00000000000E+00  0.00000000000E+00  0.36224741696E+03  0.36224741700E+03  0.50400001928E-02 0.  1.
        1   -1    0    0  501    0  0.00000000000E+00  0.00000000000E+00 -0.12270449964E+04  0.12270449964E+04  0.50400001928E-02 0. -1.
    10030    2    1    2    0    0  0.00000000000E+00  0.00000000000E+00 -0.86479757943E+03  0.15892924134E+04  0.13334074853E+04 0.  0.
        1    1    3    3  502    0  0.56902575837E+03 -0.32576773772E+03 -0.57631311051E+03  0.87295574572E+03  0.50400001928E-02 0. -1.
       -1    1    3    3    0  502 -0.56902575837E+03  0.32576773772E+03 -0.28848446893E+03  0.71633666768E+03  0.50400001928E-02 0.  1.
</event>
<event>
 5   0  0.5182179E-05  0.2552646E+04  0.7818609E-02  0.8384467E-01
        2   -1    0    0  501    0  0.00000000000E+00  0.00000000000E+00  0.22849662123E+04  0.22849662123E+04  0.25500000920E-02 0.  1.
       -2   -1    0    0    0  501  0.00000000000E+00  0.00000000000E+00 -0.71292101091E+03  0.71292101092E+03  0.25500000920E-02 0. -1.
    10030    2    1    2    0    0  0.00000000000E+00  0.00000000000E+00  0.15720452013E+04  0.29978872232E+04  0.25526460169E+04 0.  0.
        3    1    3    3  502    0  0.27715624705E+03 -0.63741694571E+03 -0.47115059477E+03  0.83970163815E+03  0.10100000352E+00 0. -1.
       -3    1    3    3    0  502 -0.27715624705E+03  0.63741694571E+03  0.20431957961E+04  0.21581855850E+04  0.10100000352E+00 0.  1.
</event>
<event>
 5   0  0.1698625E-05  0.2588145E+04  0.7818609E-02  0.8372239E-01
        3   -1    0    0  501    0  0.00000000000E+00  0.00000000000E+00  0.81223130893E+03  0.81223131521E+03  0.10100000352E+00 0.  1.
       -3   -1    0    0    0  501  0.00000000000E+00  0.00000000000E+00 -0.20617567445E+04  0.20617567469E+04  0.10100000352E+00 0. -1.
    10030    2    1    2    0    0  0.00000000000E+00  0.00000000000E+00 -0.12495254355E+04  0.28739880622E+04  0.25881448119E+04 0.  0.
        5    1    3    3  502    0 -0.29260237579E+02  0.12770891132E+04 -0.39506318702E+03  0.13371274346E+04  0.46999998093E+01 0.  1.
       -5    1    3    3    0  502  0.29260237579E+02 -0.12770891132E+04 -0.85446224852E+03  0.15368606276E+04  0.46999998093E+01 0. -1.
</event>
<event>
 5   0  0.5182179E-05  0.2586483E+04  0.7818609E-02  0.8372807E-01
       -2   -1    0    0    0  501  0.00000000000E+00  0.00000000000E+00  0.99725240796E+03  0.99725240796E+03  0.25500000920E-02 0.  1.
        2   -1    0    0  501    0  0.00000000000E+00  0.00000000000E+00 -0.16770809286E+04  0.16770809286E+04  0.25500000920E-02 0. -1.
    10030    2    1    2    0    0  0.00000000000E+00  0.00000000000E+00 -0.67982852062E+03  0.26743333365E+04  0.25864825492E+04 0.  0.
        3    1    3    3  502    0 -0.56215886368E+03  0.11645850682E+04 -0.35424186351E+03  0.13408088146E+04  0.10100000352E+00 0.  1.
       -3    1    3    3    0  502  0.56215886368E+03 -0.11645850682E+04 -0.32558665711E+03  0.13335245220E+04  0.10100000352E+00 0. -1.
</event>
<event>
 5   0  0.4955675E-05  0.2540383E+04  0.7818609E-02  0.8388739E-01
       -2   -1    0    0    0  501  0.00000000000E+00  0.00000000000E+00  0.96825928129E+03  0.96825928129E+03  0.25500000920E-02 0. -1.
        2   -1    0    0  501    0  0.00000000000E+00  0.00000000000E+00 -0.16662750655E+04  0.16662750655E+04  0.25500000920E-02 0.  1.
    10030    2    1    2    0    0  0.00000000000E+00  0.00000000000E+00 -0.69801578425E+03  0.26345343468E+04  0.25403828825E+04 0.  0.
        5    1    3    3  502    0 -0.69123219056E+03  0.62275589016E+03  0.54775830493E+03  0.10796703620E+04  0.46999998093E+01 0. -1.
       -5    1    3    3    0  502  0.69123219056E+03 -0.62275589016E+03 -0.12457740892E+04  0.15548639848E+04  0.46999998093E+01 0.  1.
</event>
<event>
 5   0  0.1954502E-05  0.1368986E+04  0.7818609E-02  0.8976579E-01
       -1   -1    0    0    0  501  0.00000000000E+00  0.00000000000E+00  0.42574419667E+03  0.42574419670E+03  0.50400001928E-02 0. -1.
        1   -1    0    0  501    0  0.00000000000E+00  0.00000000000E+00 -0.11004985665E+04  0.11004985665E+04  0.50400001928E-02 0.  1.
    10030    2    1    2    0    0  0.00000000000E+00  0.00000000000E+00 -0.67475436983E+03  0.15262427632E+04  0.13689863084E+04 0.  0.
        4    1    3    3  502    0 -0.25410006393E+03 -0.36325437265E+03 -0.91883190094E+03  0.10201834427E+04  0.12699999809E+01 0.  1.
       -4    1    3    3    0  502  0.25410006393E+03  0.36325437265E+03  0.24407753111E+03  0.50605932047E+03  0.12699999809E+01 0. -1.
</event>
<event>
 5   0  0.1954502E-05  0.2566123E+04  0.7818609E-02  0.8379800E-01
       -1   -1    0    0    0  501  0.00000000000E+00  0.00000000000E+00  0.14013003667E+04  0.14013003668E+04  0.50400001928E-02 0. -1.
        1   -1    0    0  501    0  0.00000000000E+00  0.00000000000E+00 -0.11747991147E+04  0.11747991147E+04  0.50400001928E-02 0.  1.
    10030    2    1    2    0    0  0.00000000000E+00  0.00000000000E+00  0.22650125202E+03  0.25760994815E+04  0.25661227019E+04 0.  0.
        4    1    3    3  502    0 -0.10392754131E+04  0.11968606986E+02 -0.64200951865E+03  0.12216441653E+04  0.12699999809E+01 0.  1.
       -4    1    3    3    0  502  0.10392754131E+04 -0.11968606986E+02  0.86851077066E+03  0.13544553161E+04  0.12699999809E+01 0. -1.
</event>
<event>
 5   0  0.5036452E-05  0.2543798E+04  0.7818609E-02  0.8387546E-01
       -2   -1    0    0    0  501  0.00000000000E+00  0.00000000000E+00  0.13897734437E+04  0.13897734437E+04  0.25500000920E-02 0. -1.
        2   -1    0    0  501    0  0.00000000000E+00  0.00000000000E+00 -0.11640224350E+04  0.11640224350E+04  0.25500000920E-02 0.  1.
    10030    2    1    2    0    0  0.00000000000E+00  0.00000000000E+00  0.22575100875E+03  0.25537958787E+04  0.25437983159E+04 0.  0.
        2    1    3    3  502    0  0.68426428208E+03  0.49912200900E+03  0.10654920792E+04  0.13611075485E+04  0.25500000920E-02 0. -1.
       -2    1    3    3    0  502 -0.68426428208E+03 -0.49912200900E+03 -0.83974107046E+03  0.11926883302E+04  0.25500000920E-02 0.  1.
</event>
<event>
 5   0  0.5182179E-05  0.2599617E+04  0.7818609E-02  0.8368331E-01
        2   -1    0    0  501    0  0.00000000000E+00  0.00000000000E+00  0.20482851046E+04  0.20482851046E+04  0.25500000920E-02 0.  1.
       -2   -1    0    0    0  501  0.00000000000E+00  0.00000000000E+00 -0.82483736265E+03  0.82483736265E+03  0.25500000920E-02 0. -1.
    10030    2    1    2    0    0  0.00000000000E+00  0.00000000000E+00  0.12234477420E+04  0.28731224673E+04  0.25996169592E+04 0.  0.
        3    1    3    3  502    0  0.13876927949E+03 -0.67592559424E+02  0.20381198104E+04  0.20439564669E+04  0.10100000352E+00 0.  1.
       -3    1    3    3    0  502 -0.13876927949E+03  0.67592559424E+02 -0.81467206837E+03  0.82916600039E+03  0.10100000352E+00 0. -1.
</event>
<event>
 5   0  0.2163800E-05  0.2637286E+04  0.7818609E-02  0.8355645E-01
        1   -1    0    0  501    0  0.00000000000E+00  0.00000000000E+00  0.13792458724E+04  0.13792458724E+04  0.50400001928E-02 0. -1.
       -1   -1    0    0    0  501  0.00000000000E+00  0.00000000000E+00 -0.12607030009E+04  0.12607030009E+04  0.50400001928E-02 0.  1.
    10030    2    1    2    0    0  0.00000000000E+00  0.00000000000E+00  0.11854287150E+03  0.26399488734E+04  0.26372860372E+04 0.  0.
        1    1    3    3  502    0  0.63751533893E+03 -0.44565863244E+03  0.11251385356E+04  0.13678355706E+04  0.50400001928E-02 0. -1.
       -1    1    3    3    0  502 -0.63751533893E+03  0.44565863244E+03 -0.10065956641E+04  0.12721133027E+04  0.50400001928E-02 0.  1.
</event>
<event>
 5   0  0.4955675E-05  0.2429568E+04  0.7818609E-02  0.8428516E-01
       -2   -1    0    0    0  501  0.00000000000E+00  0.00000000000E+00  0.10779273322E+04  0.10779273322E+04  0.25500000920E-02 0. -1.
        2   -1    0    0  501    0  0.00000000000E+00  0.00000000000E+00 -0.13690168670E+04  0.13690168670E+04  0.25500000920E-02 0.  1.
    10030    2    1    2    0    0  0.00000000000E+00  0.00000000000E+00 -0.29108953481E+03  0.24469441993E+04  0.24295684384E+04 0.  0.
        5    1    3    3  502    0  0.16369396976E+02  0.47585464845E+03 -0.12711120337E+04  0.13573700659E+04  0.46999998093E+01 0.  1.
       -5    1    3    3    0  502 -0.16369396976E+02 -0.47585464845E+03  0.98002249892E+03  0.10895741333E+04  0.46999998093E+01 0. -1.
</event>
<event>
 5   0  0.1954502E-05  0.1560912E+04  0.7818609E-02  0.8844928E-01
       -1   -1    0    0    0  501  0.00000000000E+00  0.00000000000E+00  0.75892412483E+03  0.75892412484E+03  0.50400001928E-02 0.  1.
        1   -1    0    0  501    0  0.00000000000E+00  0.00000000000E+00 -0.80259889733E+03  0.80259889735E+03  0.50400001928E-02 0. -1.
    10030    2    1    2    0    0  0.00000000000E+00  0.00000000000E+00 -0.43674772502E+02  0.15615230222E+04  0.15609121254E+04 0.  0.
        4    1    3    3  502    0  0.19594330611E+03  0.17359739052E+03  0.71369197283E+03  0.76018923840E+03  0.12699999809E+01 0.  1.
       -4    1    3    3    0  502 -0.19594330611E+03 -0.17359739052E+03 -0.75736674533E+03  0.80133378379E+03  0.12699999809E+01 0. -1.
</event>
<event>
 5   0  0.1993815E-05  0.1507780E+04  0.7818609E-02  0.8879296E-01
       -1   -1    0    0    0  501  0.00000000000E+00  0.00000000000E+00  0.45371052324E+03  0.45371052326E+03  0.50400001928E-02 0. -1.
        1   -1    0    0  501    0  0.00000000000E+00  0.00000000000E+00 -0.12526705476E+04  0.12526705476E+04  0.50400001928E-02 0.  1.
    10030    2    1    2    0    0  0.00000000000E+00  0.00000000000E+00 -0.79896002437E+03  0.17063810709E+04  0.15077795723E+04 0.  0.
        5    1    3    3  502    0  0.55944184990E+03 -0.11583473006E+03  0.15717661891E+03  0.59255332894E+03  0.46999998093E+01 0. -1.
       -5    1    3    3    0  502 -0.55944184990E+03  0.11583473006E+03 -0.95613664328E+03  0.11138277419E+04  0.46999998093E+01 0.  1.
</event>
<event>
 5   0  0.5036452E-05  0.2658554E+04  0.7818609E-02  0.8348579E-01
        2   -1    0    0  501    0  0.00000000000E+00  0.00000000000E+00  0.23765303796E+04  0.23765303796E+04  0.25500000920E-02 0.  1.
       -2   -1    0    0    0  501  0.00000000000E+00  0.00000000000E+00 -0.74351137626E+03  0.74351137626E+03  0.25500000920E-02 0. -1.
    10030    2    1    2    0    0  0.00000000000E+00  0.00000000000E+00  0.16330190033E+04  0.31200417558E+04  0.26585540230E+04 0.  0.
        2    1    3    3  502    0  0.35345348444E+03  0.99599533306E+03  0.17627148378E+04  0.20552614599E+04  0.25500000920E-02 0.  1.
       -2    1    3    3    0  502 -0.35345348444E+03 -0.99599533306E+03 -0.12969583448E+03  0.10647802959E+04  0.25500000920E-02 0. -1.
</event>
<event>
 5   0  0.2163800E-05  0.2610826E+04  0.7818609E-02  0.8364533E-01
        1   -1    0    0  501    0  0.00000000000E+00  0.00000000000E+00  0.17529993479E+04  0.17529993480E+04  0.50400001928E-02 0.  1.
       -1   -1    0    0    0  501  0.00000000000E+00  0.00000000000E+00 -0.97210710155E+03  0.97210710157E+03  0.50400001928E-02 0. -1.
    10030    2    1    2    0    0  0.00000000000E+00  0.00000000000E+00  0.78089224639E+03  0.27251064495E+04  0.26108260112E+04 0.  0.
        1    1    3    3  502    0  0.64360876382E+02  0.68408353714E+03 -0.76808904442E+03  0.10305694486E+04  0.50400001928E-02 0. -1.
       -1    1    3    3    0  502 -0.64360876382E+02 -0.68408353714E+03  0.15489812908E+04  0.16945370009E+04  0.50400001928E-02 0.  1.
</event>
<event>
 5   0  0.2072710E-05  0.2589968E+04  0.7818609E-02  0.8371617E-01
       -1   -1    0    0    0  501  0.00000000000E+00  0.00000000000E+00  0.97726047877E+03  0.97726047878E+03  0.50400001928E-02 0.  1.
        1   -1    0    0  501    0  0.00000000000E+00  0.00000000000E+00 -0.17160043989E+04  0.17160043989E+04  0.50400001928E-02 0. -1.
    10030    2    1    2    0    0  0.00000000000E+00  0.00000000000E+00 -0.73874392013E+03  0.26932648777E+04  0.25899677839E+04 0.  0.
        2    1    3    3  502    0 -0.99118632107E+03  0.74233243332E+03 -0.76326073365E+03  0.14546734040E+04  0.25500000920E-02 0. -1.
       -2    1    3    3    0  502  0.99118632107E+03 -0.74233243332E+03  0.24516813520E+02  0.12385914737E+04  0.25500000920E-02 0.  1.
</event>
<event>
 5   0  0.4955675E-05  0.2615426E+04  0.7818609E-02  0.8362980E-01
        2   -1    0    0  501    0  0.00000000000E+00  0.00000000000E+00  0.14646001842E+04  0.14646001842E+04  0.25500000920E-02 0.  1.
       -2   -1    0    0    0  501  0.00000000000E+00  0.00000000000E+00 -0.11676312981E+04  0.11676312981E+04  0.25500000920E-02 0. -1.
    10030    2    1    2    0    0  0.00000000000E+00  0.00000000000E+00  0.29696888616E+03  0.26322314823E+04  0.26154257889E+04 0.  0.
        5    1    3    3  502    0 -0.37214787437E+02  0.47520311944E+03  0.13740480320E+04  0.14543840722E+04  0.46999998093E+01 0.  1.
       -5    1    3    3    0  502  0.37214787437E+02 -0.47520311944E+03 -0.10770791459E+04  0.11778474101E+04  0.46999998093E+01 0. -1.
</event>
<event>
 5   0  0.5049803E-05  0.1555138E+04  0.7818609E-02  0.8848593E-01
        2   -1    0    0  501    0  0.00000000000E+00  0.00000000000E+00  0.73810590997E+03  0.73810590997E+03  0.25500000920E-02 0. -1.
       -2   -1    0    0    0  501  0.00000000000E+00  0.00000000000E+00 -0.81914183977E+03  0.81914183977E+03  0.25500000920E-02 0.  1.
    10030    2    1    2    0    0  0.00000000000E+00  0.00000000000E+00 -0.81035929800E+02  0.15572477497E+04  0.15551378499E+04 0.  0.
        4    1    3    3  502    0 -0.23445169758E+03  0.70761632996E+03 -0.26200429106E+03  0.79014956202E+03  0.12699999809E+01 0.  1.
       -4    1    3    3    0  502  0.23445169758E+03 -0.70761632996E+03  0.18096836126E+03  0.76709818772E+03  0.12699999809E+01 0. -1.
</event>
<event>
 5   0  0.2072710E-05  0.2464997E+04  0.7818609E-02  0.8415563E-01
       -1   -1    0    0    0  501  0.00000000000E+00  0.00000000000E+00  0.83753746015E+03  0.83753746016E+03  0.50400001928E-02 0. -1.
        1   -1    0    0  501    0  0.00000000000E+00  0.00000000000E+00 -0.18137133449E+04  0.18137133449E+04  0.50400001928E-02 0.  1.
    10030    2    1    2    0    0  0.00000000000E+00  0.00000000000E+00 -0.97617588475E+03  0.26512508051E+04  0.24649972563E+04 0.  0.
        2    1    3    3  502    0  0.99986444425E+03  0.41818629018E+03 -0.11193269143E+04  0.15580441012E+04  0.25500000920E-02 0.  1.
       -2    1    3    3    0  502 -0.99986444425E+03 -0.41818629018E+03  0.14315102954E+03  0.10932067039E+04  0.25500000920E-02 0. -1.
</event>
<event>
 5   0  0.1993815E-05  0.2516005E+04  0.7818609E-02  0.8397306E-01
        1   -1    0    0  501    0  0.00000000000E+00  0.00000000000E+00  0.10697740094E+04  0.10697740094E+04  0.50400001928E-02 0.  1.
       -1   -1    0    0    0  501  0.00000000000E+00  0.00000000000E+00 -0.14793498156E+04  0.14793498156E+04  0.50400001928E-02 0. -1.
    10030    2    1    2    0    0  0.00000000000E+00  0.00000000000E+00 -0.40957580617E+03  0.25491238250E+04  0.25160047564E+04 0.  0.
        5    1    3    3  502    0  0.93289966951E+03  0.61136170175E+03 -0.79423914310E+03  0.13692709119E+04  0.46999998093E+01 0.  1.
       -5    1    3    3    0  502 -0.93289966951E+03 -0.61136170175E+03  0.38466333694E+03  0.11798529131E+04  0.46999998093E+01 0. -1.
</event>
<event>
 5   0  0.2072710E-05  0.2601135E+04  0.7818609E-02  0.8367816E-01
       -1   -1    0    0    0  501  0.00000000000E+00  0.00000000000E+00  0.93603548324E+03  0.93603548325E+03  0.50400001928E-02 0.  1.
        1   -1    0    0  501    0  0.00000000000E+00  0.00000000000E+00 -0.18070641913E+04  0.18070641913E+04  0.50400001928E-02 0. -1.
    10030    2    1    2    0    0  0.00000000000E+00  0.00000000000E+00 -0.87102870802E+03  0.27430996745E+04  0.26011352933E+04 0.  0.
        2    1    3    3  502    0 -0.94417277578E+03 -0.59084253558E+03 -0.11436687389E+04  0.15964132663E+04  0.25500000920E-02 0. -1.
       -2    1    3    3    0  502  0.94417277578E+03  0.59084253558E+03  0.27264003090E+03  0.11466864082E+04  0.25500000920E-02 0.  1.
</event>
<event>
 5   0  0.5182179E-05  0.2560360E+04  0.7818609E-02  0.8381792E-01
       -2   -1    0    0    0  501  0.00000000000E+00  0.00000000000E+00  0.12192821865E+04  0.12192821865E+04  0.25500000920E-02 0.  1.
        2   -1    0    0  501    0  0.00000000000E+00  0.00000000000E+00 -0.13441190091E+04  0.13441190091E+04  0.25500000920E-02 0. -1.
    10030    2    1    2    0    0  0.00000000000E+00  0.00000000000E+00 -0.12483682267E+03  0.25634011956E+04  0.25603596344E+04 0.  0.
        3    1    3    3  502    0  0.58652711289E+03  0.97085309354E+03  0.53182738808E+03  0.12527610164E+04  0.10100000352E+00 0.  1.
       -3    1    3    3    0  502 -0.58652711289E+03 -0.97085309354E+03 -0.65666421075E+03  0.13106401792E+04  0.10100000352E+00 0. -1.
</event>
<event>
 5   0  0.1698625E-05  0.2615594E+04  0.7818609E-02  0.8362923E-01
       -3   -1    0    0    0  501  0.00000000000E+00  0.00000000000E+00  0.13670717849E+04  0.13670717887E+04  0.10100000352E+00 0.  1.
        3   -1    0    0  501    0  0.00000000000E+00  0.00000000000E+00 -0.12510927532E+04  0.12510927573E+04  0.10100000352E+00 0. -1.
    10030    2    1    2    0    0  0.00000000000E+00  0.00000000000E+00  0.11597903170E+03  0.26181645460E+04  0.26155944743E+04 0.  0.
        1    1    3    3  502    0 -0.93535709413E+03 -0.76487479563E+03 -0.44290928318E+03  0.12868935386E+04  0.50400001928E-02 0. -1.
       -1    1    3    3    0  502  0.93535709413E+03  0.76487479563E+03  0.55888831488E+03  0.13312710074E+04  0.50400001928E-02 0.  1.
</event>
<event>
 5   0  0.1954502E-05  0.2343214E+04  0.7818609E-02  0.8461075E-01
        1   -1    0    0  501    0  0.00000000000E+00  0.00000000000E+00  0.24810649278E+04  0.24810649278E+04  0.50400001928E-02 0. -1.
       -1   -1    0    0    0  501  0.00000000000E+00  0.00000000000E+00 -0.55325571930E+03  0.55325571932E+03  0.50400001928E-02 0.  1.
    10030    2    1    2    0    0  0.00000000000E+00  0.00000000000E+00  0.19278092085E+04  0.30343206472E+04  0.23432143405E+04 0.  0.
        4    1    3    3  502    0  0.41749046405E+03  0.10656580438E+04  0.63955809085E+03  0.13110917277E+04  0.12699999809E+01 0.  1.
       -4    1    3    3    0  502 -0.41749046405E+03 -0.10656580438E+04  0.12882511177E+04  0.17232289195E+04  0.12699999809E+01 0. -1.
</event>
<event>
 5   0  0.2159405E-05  0.2602197E+04  0.7818609E-02  0.8367455E-01
        1   -1    0    0  501    0  0.00000000000E+00  0.00000000000E+00  0.13971181913E+04  0.13971181913E+04  0.50400001928E-02 0. -1.
       -1   -1    0    0    0  501  0.00000000000E+00  0.00000000000E+00 -0.12116783463E+04  0.12116783463E+04  0.50400001928E-02 0.  1.
    10030    2    1    2    0    0  0.00000000000E+00  0.00000000000E+00  0.18543984494E+03  0.26087965376E+04  0.26021974250E+04 0.  0.
        3    1    3    3  502    0  0.10312101946E+04 -0.32127470824E+03 -0.63454785858E+03  0.12527022386E+04  0.10100000352E+00 0.  1.
       -3    1    3    3    0  502 -0.10312101946E+04  0.32127470824E+03  0.81998770351E+03  0.13560942990E+04  0.10100000352E+00 0. -1.
</event>
<event>
 5   0  0.5170532E-05  0.1848477E+04  0.7818609E-02  0.8680937E-01
        2   -1    0    0  501    0  0.00000000000E+00  0.00000000000E+00  0.16198330850E+04  0.16198330850E+04  0.25500000920E-02 0. -1.
       -2   -1    0    0    0  501  0.00000000000E+00  0.00000000000E+00 -0.52734839980E+03  0.52734839981E+03  0.25500000920E-02 0.  1.
    10030    2    1    2    0    0  0.00000000000E+00  0.00000000000E+00  0.10924846852E+04  0.21471814848E+04  0.18484765461E+04 0.  0.
        1    1    3    3  502    0  0.61091976502E+03  0.87907366329E+02 -0.25286907106E+03  0.66700332194E+03  0.50400001928E-02 0.  1.
       -1    1    3    3    0  502 -0.61091976502E+03 -0.87907366329E+02  0.13453537563E+04  0.14801781629E+04  0.50400001928E-02 0. -1.
</event>
<event>
 5   0  0.2163800E-05  0.2562308E+04  0.7818609E-02  0.8381118E-01
       -1   -1    0    0    0  501  0.00000000000E+00  0.00000000000E+00  0.10685654529E+04  0.10685654529E+04  0.50400001928E-02 0.  1.
        1   -1    0    0  501    0  0.00000000000E+00  0.00000000000E+00 -0.15360360040E+04  0.15360360040E+04  0.50400001928E-02 0. -1.
    10030    2    1    2    0    0  0.00000000000E+00  0.00000000000E+00 -0.46747055112E+03  0.26046014570E+04  0.25623075603E+04 0.  0.
        1    1    3    3  502    0 -0.11402261158E+04 -0.58073602059E+03 -0.16956573109E+03  0.12907836604E+04  0.50400001928E-02 0.  1.
       -1    1    3    3    0  502  0.11402261158E+04  0.58073602059E+03 -0.29790482003E+03  0.13138177966E+04  0.50400001928E-02 0. -1.
</event>
<event>
 5   0  0.5182179E-05  0.1999257E+04  0.7818609E-02  0.8606968E-01
       -2   -1    0    0    0  501  0.00000000000E+00  0.00000000000E+00  0.53355218449E+03  0.53355218449E+03  0.25500000920E-02 0.  1.
        2   -1    0    0  501    0  0.00000000000E+00  0.00000000000E+00 -0.18728393894E+04  0.18728393894E+04  0.25500000920E-02 0. -1.
    10030    2    1    2    0    0  0.00000000000E+00  0.00000000000E+00 -0.13392872049E+04  0.24063915739E+04  0.19992574096E+04 0.  0.
        3    1    3    3  502    0  0.50635012784E+03  0.76097181341E+03 -0.18251915180E+03  0.93208465481E+03  0.10100000352E+00 0.  1.
       -3    1    3    3    0  502 -0.50635012784E+03 -0.76097181341E+03 -0.11567680531E+04  0.14743069191E+04  0.10100000352E+00 0. -1.
</event>
<event>
 5   0  0.5182179E-05  0.2556769E+04  0.7818609E-02  0.8383036E-01
        2   -1    0    0  501    0  0.00000000000E+00  0.00000000000E+00  0.14300409145E+04  0.14300409145E+04  0.25500000920E-02 0. -1.
       -2   -1    0    0    0  501  0.00000000000E+00  0.00000000000E+00 -0.11428115590E+04  0.11428115590E+04  0.25500000920E-02 0.  1.
    10030    2    1    2    0    0  0.00000000000E+00  0.00000000000E+00  0.28722935551E+03  0.25728524735E+04  0.25567692793E+04 0.  0.
        3    1    3    3  502    0 -0.74276152003E+03 -0.79144980146E+03  0.82327415410E+03  0.13623023919E+04  0.10100000352E+00 0. -1.
       -3    1    3    3    0  502  0.74276152003E+03  0.79144980146E+03 -0.53604479859E+03  0.12105500816E+04  0.10100000352E+00 0.  1.
</event>
<event>
 5   0  0.5049803E-05  0.2518548E+04  0.7818609E-02  0.8396407E-01
       -2   -1    0    0    0  501  0.00000000000E+00  0.00000000000E+00  0.67739790522E+03  0.67739790522E+03  0.25500000920E-02 0. -1.
        2   -1    0    0  501    0  0.00000000000E+00  0.00000000000E+00 -0.23409738578E+04  0.23409738578E+04  0.25500000920E-02 0.  1.
    10030    2    1    2    0    0  0.00000000000E+00  0.00000000000E+00 -0.16635759526E+04  0.30183717630E+04  0.25185478256E+04 0.  0.
        4    1    3    3  502    0  0.90065863639E+03 -0.64885761399E+03 -0.11916735742E+03  0.11164249435E+04  0.12699999809E+01 0. -1.
       -4    1    3    3    0  502 -0.90065863639E+03  0.64885761399E+03 -0.15444085952E+04  0.19019468195E+04  0.12699999809E+01 0.  1.
</event>
<event>
 5   0  0.1993815E-05  0.2594444E+04  0.7818609E-02  0.8370091E-01
       -1   -1    0    0    0  501  0.00000000000E+00  0.00000000000E+00  0.19707964208E+04  0.19707964208E+04  0.50400001928E-02 0.  1.
        1   -1    0    0  501    0  0.00000000000E+00  0.00000000000E+00 -0.85386017982E+03  0.85386017983E+03  0.50400001928E-02 0. -1.
    10030    2    1    2    0    0  0.00000000000E+00  0.00000000000E+00  0.11169362410E+04  0.28246566006E+04  0.25944437448E+04 0.  0.
        5    1    3    3  502    0  0.75920730837E+03  0.86751159836E+03 -0.89113348217E+02  0.11562592223E+04  0.46999998093E+01 0. -1.
       -5    1    3    3    0  502 -0.75920730837E+03 -0.86751159836E+03  0.12060495892E+04  0.16683973783E+04  0.46999998093E+01 0.  1.
</event>
<event>
 5   0  0.5049803E-05  0.2635419E+04  0.7818609E-02  0.8356269E-01
       -2   -1    0    0    0  501  0.00000000000E+00  0.00000000000E+00  0.13733913588E+04  0.13733913588E+04  0.25500000920E-02 0. -1.
        2   -1    0    0  501    0  0.00000000000E+00  0.00000000000E+00 -0.12642851202E+04  0.12642851202E+04  0.25500000920E-02 0.  1.
    10030    2    1    2    0    0  0.00000000000E+00  0.00000000000E+00  0.10910623860E+03  0.26376764791E+04  0.26354189491E+04 0.  0.
        4    1    3    3  502    0 -0.66815265225E+03  0.11209389394E+04  0.23753361583E+03  0.13264071411E+04  0.12699999809E+01 0. -1.
       -4    1    3    3    0  502  0.66815265225E+03 -0.11209389394E+04 -0.12842737723E+03  0.13112693380E+04  0.12699999809E+01 0.  1.
</event>
<event>
 5   0  0.1993815E-05  0.2539815E+04  0.7818609E-02  0.8388937E-01
       -1   -1    0    0    0  501  0.00000000000E+00  0.00000000000E+00  0.77574488593E+03  0.77574488594E+03  0.50400001928E-02 0. -1.
        1   -1    0    0  501    0  0.00000000000E+00  0.00000000000E+00 -0.20788602679E+04  0.20788602679E+04  0.50400001928E-02 0.  1.
    10030    2    1    2    0    0  0.00000000000E+00  0.00000000000E+00 -0.13031153820E+04  0.28546051539E+04  0.25398151283E+04 0.  0.
        5    1    3    3  502    0 -0.48514923330E+03 -0.73430282573E+03  0.37736984556E+03  0.95760143525E+03  0.46999998093E+01 0. -1.
       -5    1    3    3    0  502  0.48514923330E+03  0.73430282573E+03 -0.16804852276E+04  0.18970037186E+04  0.46999998093E+01 0.  1.
</event>
<event>
 5   0  0.5170532E-05  0.2494666E+04  0.7818609E-02  0.8404888E-01
       -2   -1    0    0    0  501  0.00000000000E+00  0.00000000000E+00  0.73376512723E+03  0.73376512724E+03  0.25500000920E-02 0. -1.
        2   -1    0    0  501    0  0.00000000000E+00  0.00000000000E+00 -0.21203506519E+04  0.21203506519E+04  0.25500000920E-02 0.  1.
    10030    2    1    2    0    0  0.00000000000E+00  0.00000000000E+00 -0.13865855246E+04  0.28541157791E+04  0.24946658019E+04 0.  0.
        1    1    3    3  502    0 -0.47799959017E+02  0.92523216568E+03  0.26220859746E+03  0.96285655479E+03  0.50400001928E-02 0. -1.
       -1    1    3    3    0  502  0.47799959017E+02 -0.92523216568E+03 -0.16487941221E+04  0.18912592243E+04  0.50400001928E-02 0.  1.
</event>
<event>
 5   0  0.2072710E-05  0.2595815E+04  0.7818609E-02  0.8369624E-01
        1   -1    0    0  501    0  0.00000000000E+00  0.00000000000E+00  0.16619718930E+04  0.16619718930E+04  0.50400001928E-02 0. -1.
       -1   -1    0    0    0  501  0.00000000000E+00  0.00000000000E+00 -0.10135933925E+04  0.10135933925E+04  0.50400001928E-02 0.  1.
    10030    2    1    2    0    0  0.00000000000E+00  0.00000000000E+00  0.64837850054E+03  0.26755652856E+04  0.25958148850E+04 0.  0.
        2    1    3    3  502    0 -0.70113570208E+03 -0.56049994301E+03 -0.64206160232E+03  0.11036279083E+04  0.25500000920E-02 0.  1.
       -2    1    3    3    0  502  0.70113570208E+03  0.56049994301E+03  0.12904401029E+04  0.15719373772E+04  0.25500000920E-02 0. -1.
</event>
<event>
 5   0  0.4955675E-05  0.1887071E+04  0.7818609E-02  0.8661319E-01
        2   -1    0    0  501    0  0.00000000000E+00  0.00000000000E+00  0.17243530203E+04  0.17243530203E+04  0.25500000920E-02 0. -1.
       -2   -1    0    0    0  501  0.00000000000E+00  0.00000000000E+00 -0.51628616107E+03  0.51628616107E+03  0.25500000920E-02 0.  1.
    10030    2    1    2    0    0  0.00000000000E+00  0.00000000000E+00  0.12080668592E+04  0.22406391813E+04  0.18870713830E+04 0.  0.
        5    1    3    3  502    0 -0.80140029898E+03 -0.16259529800E+03  0.45142373589E+02  0.81898693154E+03  0.46999998093E+01 0.  1.
       -5    1    3    3    0  502  0.80140029898E+03  0.16259529800E+03  0.11629244856E+04  0.14216522498E+04  0.46999998093E+01 0. -1.
</event>
<event>
 5   0  0.2159405E-05  0.2626173E+04  0.7818609E-02  0.8359365E-01
       -1   -1    0    0    0  501  0.00000000000E+00  0.00000000000E+00  0.90132816810E+03  0.90132816812E+03  0.50400001928E-02 0.  1.
        1   -1    0    0  501    0  0.00000000000E+00  0.00000000000E+00 -0.19129507925E+04  0.19129507925E+04  0.50400001928E-02 0. -1.
    10030    2    1    2    0    0  0.00000000000E+00  0.00000000000E+00 -0.10116226244E+04  0.28142789607E+04  0.26261732110E+04 0.  0.
        3    1    3    3  502    0  0.81950480001E+03 -0.24657825330E+03  0.56141731151E+03  0.10235127552E+04  0.10100000352E+00 0.  1.
       -3    1    3    3    0  502 -0.81950480001E+03  0.24657825330E+03 -0.15730399359E+04  0.17907662054E+04  0.10100000352E+00 0. -1.
</event>
<event>
 5   0  0.2159405E-05  0.2752605E+04  0.7818609E-02  0.8318136E-01
       -1   -1    0    0    0  501  0.00000000000E+00  0.00000000000E+00  0.68647964013E+03  0.68647964015E+03  0.50400001928E-02 0.  1.
        1   -1    0    0  501    0  0.00000000000E+00  0.00000000000E+00 -0.27593074306E+04  0.27593074306E+04  0.50400001928E-02 0. -1.
    10030    2    1    2    0    0  0.00000000000E+00  0.00000000000E+00 -0.20728277905E+04  0.34457870708E+04  0.27526048551E+04 0.  0.
        3    1    3    3  502    0 -0.26201703699E+03  0.11124652586E+04 -0.76517096022E+02  0.11454635548E+04  0.10100000352E+00 0.  1.
       -3    1    3    3    0  502  0.26201703699E+03 -0.11124652586E+04 -0.19963106945E+04  0.23003235160E+04  0.10100000352E+00 0. -1.
</event>
<event>
 5   0  0.2159405E-05  0.2661557E+04  0.7818609E-02  0.8347587E-01
       -1   -1    0    0    0  501  0.00000000000E+00  0.00000000000E+00  0.19196244536E+04  0.19196244536E+04  0.50400001928E-02 0.  1.
        1   -1    0    0  501    0  0.00000000000E+00  0.00000000000E+00 -0.92256174004E+03  0.92256174005E+03  0.50400001928E-02 0. -1.
    10030    2    1    2    0    0  0.00000000000E+00  0.00000000000E+00  0.99706271356E+03  0.28421861937E+04  0.26615574960E+04 0.  0.
        3    1    3    3  502    0  0.54441486579E+03 -0.91188781391E+03  0.13548539476E+04  0.17214982315E+04  0.10100000352E+00 0.  1.
       -3    1    3    3    0  502 -0.54441486579E+03  0.91188781391E+03 -0.35779123408E+03  0.11206879622E+04  0.10100000352E+00 0. -1.
</event>
<event>
 5   0  0.1954502E-05  0.2697996E+04  0.7818609E-02  0.8335656E-01
        1   -1    0    0  501    0  0.00000000000E+00  0.00000000000E+00  0.13820734793E+04  0.13820734793E+04  0.50400001928E-02 0.  1.
       -1   -1    0    0    0  501  0.00000000000E+00  0.00000000000E+00 -0.13167136816E+04  0.13167136816E+04  0.50400001928E-02 0. -1.
    10030    2    1    2    0    0  0.00000000000E+00  0.00000000000E+00  0.65359797718E+02  0.26987871609E+04  0.26979955961E+04 0.  0.
        4    1    3    3  502    0  0.24959389569E+03 -0.38833712073E+03  0.13006047887E+04  0.13801004533E+04  0.12699999809E+01 0.  1.
       -4    1    3    3    0  502 -0.24959389569E+03  0.38833712073E+03 -0.12352449910E+04  0.13186867076E+04  0.12699999809E+01 0. -1.
</event>
<event>
 5   0  0.1993815E-05  0.1651453E+04  0.7818609E-02  0.8789547E-01
       -1   -1    0    0    0  501  0.00000000000E+00  0.00000000000E+00  0.56538249487E+03  0.56538249489E+03  0.50400001928E-02 0. -1.
        1   -1    0    0  501    0  0.00000000000E+00  0.00000000000E+00 -0.12059524496E+04  0.12059524496E+04  0.50400001928E-02 0.  1.
    10030    2    1    2    0    0  0.00000000000E+00  0.00000000000E+00 -0.64056995474E+03  0.17713349445E+04  0.16514531839E+04 0.  0.
        5    1    3    3  502    0  0.79988172385E+03  0.20271703013E+02 -0.10156935604E+03  0.80657308297E+03  0.46999998093E+01 0. -1.
       -5    1    3    3    0  502 -0.79988172385E+03 -0.20271703013E+02 -0.53900059870E+03  0.96476186154E+03  0.46999998093E+01 0.  1.
</event>
<event>
 5   0  0.4955675E-05  0.2594843E+04  0.7818609E-02  0.8369955E-01
       -2   -1    0    0    0  501  0.00000000000E+00  0.00000000000E+00  0.13641575952E+04  0.13641575952E+04  0.25500000920E-02 0.  1.
        2   -1    0    0  501    0  0.00000000000E+00  0.00000000000E+00 -0.12339503145E+04  0.12339503145E+04  0.25500000920E-02 0. -1.
    10030    2    1    2    0    0  0.00000000000E+00  0.00000000000E+00  0.13020728067E+03  0.25981079097E+04  0.25948431118E+04 0.  0.
        5    1    3    3  502    0 -0.95611930404E+03  0.15354468666E+03  0.92963689494E+03  0.13423810714E+04  0.46999998093E+01 0.  1.
       -5    1    3    3    0  502  0.95611930404E+03 -0.15354468666E+03 -0.79942961427E+03  0.12557268383E+04  0.46999998093E+01 0. -1.
</event>
<event>
 5   0  0.1698625E-05  0.2574585E+04  0.7818609E-02  0.8376886E-01
       -3   -1    0    0    0  501  0.00000000000E+00  0.00000000000E+00  0.16729689112E+04  0.16729689142E+04  0.10100000352E+00 0.  1.
        3   -1    0    0  501    0  0.00000000000E+00  0.00000000000E+00 -0.99052759516E+03  0.99052760031E+03  0.10100000352E+00 0. -1.
    10030    2    1    2    0    0  0.00000000000E+00  0.00000000000E+00  0.68244131602E+03  0.26634965146E+04  0.25745849245E+04 0.  0.
        4    1    3    3  502    0  0.80247268747E+03  0.61159771237E+03 -0.48582862674E+03  0.11198416153E+04  0.12699999809E+01 0. -1.
       -4    1    3    3    0  502 -0.80247268747E+03 -0.61159771237E+03  0.11682699428E+04  0.15436548992E+04  0.12699999809E+01 0.  1.
</event>
<event>
 5   0  0.5170532E-05  0.2522174E+04  0.7818609E-02  0.8395128E-01
        2   -1    0    0  501    0  0.00000000000E+00  0.00000000000E+00  0.16189983964E+04  0.16189983964E+04  0.25500000920E-02 0. -1.
       -2   -1    0    0    0  501  0.00000000000E+00  0.00000000000E+00 -0.98229858486E+03  0.98229858486E+03  0.25500000920E-02 0.  1.
    10030    2    1    2    0    0  0.00000000000E+00  0.00000000000E+00  0.63669981150E+03  0.26012969812E+04  0.25221735338E+04 0.  0.
        1    1    3    3  502    0  0.59007287896E+03  0.11142021895E+04  0.29092024067E+03  0.12939347387E+04  0.50400001928E-02 0. -1.
       -1    1    3    3    0  502 -0.59007287896E+03 -0.11142021895E+04  0.34577957083E+03  0.13073622425E+04  0.50400001928E-02 0.  1.
</event>
<event>
 5   0  0.2163800E-05  0.2544388E+04  0.7818609E-02  0.8387341E-01
       -1   -1    0    0    0  501  0.00000000000E+00  0.00000000000E+00  0.10183758118E+04  0.10183758118E+04  0.50400001928E-02 0. -1.
        1   -1    0    0  501    0  0.00000000000E+00  0.00000000000E+00 -0.15892734198E+04  0.15892734199E+04  0.50400001928E-02 0.  1.
    10030    2    1    2    0    0  0.00000000000E+00  0.00000000000E+00 -0.57089760809E+03  0.26076492316E+04  0.25443880278E+04 0.  0.
        1    1    3    3  502    0 -0.82753548585E+02 -0.24276377535E+03  0.99160423464E+03  0.10242369641E+04  0.50400001928E-02 0. -1.
       -1    1    3    3    0  502  0.82753548585E+02  0.24276377535E+03 -0.15625018427E+04  0.15834122675E+04  0.50400001928E-02 0.  1.
</event>
<event>
 5   0  0.5049803E-05  0.2623730E+04  0.7818609E-02  0.8360185E-01
        2   -1    0    0  501    0  0.00000000000E+00  0.00000000000E+00  0.14857275654E+04  0.14857275654E+04  0.25500000920E-02 0.  1.
       -2   -1    0    0    0  501  0.00000000000E+00  0.00000000000E+00 -0.11583484737E+04  0.11583484737E+04  0.25500000920E-02 0. -1.
    10030    2    1    2    0    0  0.00000000000E+00  0.00000000000E+00  0.32737909174E+03  0.26440760391E+04  0.26237303655E+04 0.  0.
        4    1    3    3  502    0 -0.13321182874E+03 -0.12611176107E+04 -0.17481040791E+03  0.12801262871E+04  0.12699999809E+01 0. -1.
       -4    1    3    3    0  502  0.13321182874E+03  0.12611176107E+04  0.50218949965E+03  0.13639497520E+04  0.12699999809E+01 0.  1.
</event>
<event>
 5   0  0.5182179E-05  0.2546648E+04  0.7818609E-02  0.8386553E-01
       -2   -1    0    0    0  501  0.00000000000E+00  0.00000000000E+00  0.30577549464E+04  0.30577549464E+04  0.25500000920E-02 0. -1.
        2   -1    0    0  501    0  0.00000000000E+00  0.00000000000E+00 -0.53024323841E+03  0.53024323841E+03  0.25500000920E-02 0.  1.
    10030    2    1    2    0    0  0.00000000000E+00  0.00000000000E+00  0.25275117080E+04  0.35879981849E+04  0.25466479027E+04 0.  0.
        3    1    3    3  502    0 -0.11368471231E+04  0.43345693803E+03  0.17928904100E+04  0.21667400238E+04  0.10100000352E+00 0.  1.
       -3    1    3    3    0  502  0.11368471231E+04 -0.43345693803E+03  0.73462129807E+03  0.14212581610E+04  0.10100000352E+00 0. -1.
</event>
<event>
 5   0  0.2159405E-05  0.2515487E+04  0.7818609E-02  0.8397489E-01
        1   -1    0    0  501    0  0.00000000000E+00  0.00000000000E+00  0.28482571453E+04  0.28482571453E+04  0.50400001928E-02 0. -1.
       -1   -1    0    0    0  501  0.00000000000E+00  0.00000000000E+00 -0.55539899597E+03  0.55539899599E+03  0.50400001928E-02 0.  1.
    10030    2    1    2    0    0  0.00000000000E+00  0.00000000000E+00  0.22928581493E+04  0.34036561413E+04  0.25154873554E+04 0.  0.
        3    1    3    3  502    0  0.65030076061E+03  0.78746085819E+03  0.15310464565E+03  0.10326793913E+04  0.10100000352E+00 0.  1.
       -3    1    3    3    0  502 -0.65030076061E+03 -0.78746085819E+03  0.21397535036E+04  0.23709767500E+04  0.10100000352E+00 0. -1.
</event>
<event>
 5   0  0.1993815E-05  0.2666466E+04  0.7818609E-02  0.8345968E-01
        1   -1    0    0  501    0  0.00000000000E+00  0.00000000000E+00  0.13851959862E+04  0.13851959863E+04  0.50400001928E-02 0.  1.
       -1   -1    0    0    0  501  0.00000000000E+00  0.00000000000E+00 -0.12832197752E+04  0.12832197752E+04  0.50400001928E-02 0. -1.
    10030    2    1    2    0    0  0.00000000000E+00  0.00000000000E+00  0.10197621105E+03  0.26684157615E+04  0.26664664874E+04 0.  0.
        5    1    3    3  502    0 -0.76688838396E+03 -0.10388527043E+04 -0.28115218363E+03  0.13215148032E+04  0.46999998093E+01 0. -1.
       -5    1    3    3    0  502  0.76688838396E+03  0.10388527043E+04  0.38312839468E+03  0.13469009583E+04  0.46999998093E+01 0.  1.
</event>
<event>
 5   0  0.1954502E-05  0.2550973E+04  0.7818609E-02  0.8385048E-01
        1   -1    0    0  501    0  0.00000000000E+00  0.00000000000E+00  0.22897522068E+04  0.22897522068E+04  0.50400001928E-02 0. -1.
       -1   -1    0    0    0  501  0.00000000000E+00  0.00000000000E+00 -0.71049877575E+03  0.71049877577E+03  0.50400001928E-02 0.  1.
    10030    2    1    2    0    0  0.00000000000E+00  0.00000000000E+00  0.15792534310E+04  0.30002509825E+04  0.25509732572E+04 0.  0.
        4    1    3    3  502    0  0.67924969551E+03 -0.10167926858E+04  0.12163120289E+04  0.17247214498E+04  0.12699999809E+01 0. -1.
       -4    1    3    3    0  502 -0.67924969551E+03  0.10167926858E+04  0.36294140210E+03  0.12755295328E+04  0.12699999809E+01 0.  1.
</event>
<event>
 5   0  0.4955675E-05  0.2618070E+04  0.7818609E-02  0.8362089E-01
        2   -1    0    0  501    0  0.00000000000E+00  0.00000000000E+00  0.14783279021E+04  0.14783279021E+04  0.25500000920E-02 0.  1.
       -2   -1    0    0    0  501  0.00000000000E+00  0.00000000000E+00 -0.11591286703E+04  0.11591286703E+04  0.25500000920E-02 0. -1.
    10030    2    1    2    0    0  0.00000000000E+00  0.00000000000E+00  0.31919923181E+03  0.26374565724E+04  0.26180697129E+04 0.  0.
        5    1    3    3  502    0  0.48491069504E+03  0.55635231021E+02  0.13832200226E+04  0.14668174331E+04  0.46999998093E+01 0.  1.
       -5    1    3    3    0  502 -0.48491069504E+03 -0.55635231021E+02 -0.10640207908E+04  0.11706391393E+04  0.46999998093E+01 0. -1.
</event>
<event>
 5   0  0.5036452E-05  0.2535538E+04  0.7818609E-02  0.8390433E-01
        2   -1    0    0  501    0  0.00000000000E+00  0.00000000000E+00  0.11364561165E+04  0.11364561165E+04  0.25500000920E-02 0. -1.
       -2   -1    0    0    0  501  0.00000000000E+00  0.00000000000E+00 -0.14142551084E+04  0.14142551084E+04  0.25500000920E-02 0.  1.
    10030    2    1    2    0    0  0.00000000000E+00  0.00000000000E+00 -0.27779899191E+03  0.25507112250E+04  0.25355384977E+04 0.  0.
        2    1    3    3  502    0  0.60004462804E+03 -0.88399700276E+03 -0.82543079514E+03  0.13501260142E+04  0.25500000920E-02 0.  1.
       -2    1    3    3    0  502 -0.60004462804E+03  0.88399700276E+03  0.54763180324E+03  0.12005852108E+04  0.25500000920E-02 0. -1.
</event>
<event>
 5   0  0.5182179E-05  0.2406449E+04  0.7818609E-02  0.8437093E-01
       -2   -1    0    0    0  501  0.00000000000E+00  0.00000000000E+00  0.12440588325E+04  0.12440588325E+04  0.25500000920E-02 0. -1.
        2   -1    0    0  501    0  0.00000000000E+00  0.00000000000E+00 -0.11637306393E+04  0.11637306393E+04  0.25500000920E-02 0.  1.
    10030    2    1    2    0    0  0.00000000000E+00  0.00000000000E+00  0.80328193252E+02  0.24077894718E+04  0.24064491521E+04 0.  0.
        3    1    3    3  502    0 -0.46192911643E+03  0.10444789405E+04  0.41910264892E+03  0.12165368085E+04  0.10100000352E+00 0.  1.
       -3    1    3    3    0  502  0.46192911643E+03 -0.10444789405E+04 -0.33877445566E+03  0.11912526633E+04  0.10100000352E+00 0. -1.
</event>
<event>
 5   0  0.5036452E-05  0.2565117E+04  0.7818609E-02  0.8380148E-01
        2   -1    0    0  501    0  0.00000000000E+00  0.00000000000E+00  0.15517934543E+04  0.15517934543E+04  0.25500000920E-02 0. -1.
       -2   -1    0    0    0  501  0.00000000000E+00  0.00000000000E+00 -0.10600354638E+04  0.10600354638E+04  0.25500000920E-02 0.  1.
    10030    2    1    2    0    0  0.00000000000E+00  0.00000000000E+00  0.49175799047E+03  0.26118289182E+04  0.25651168349E+04 0.  0.
        2    1    3    3  502    0 -0.66677617198E+03 -0.63870710243E+03 -0.66051074094E+03  0.11352584134E+04  0.25500000920E-02 0.  1.
       -2    1    3    3    0  502  0.66677617198E+03  0.63870710243E+03  0.11522687314E+04  0.14765705048E+04  0.25500000920E-02 0. -1.
</event>
<event>
 5   0  0.5182179E-05  0.2601363E+04  0.7818609E-02  0.8367738E-01
       -2   -1    0    0    0  501  0.00000000000E+00  0.00000000000E+00  0.13950506480E+04  0.13950506480E+04  0.25500000920E-02 0. -1.
        2   -1    0    0  501    0  0.00000000000E+00  0.00000000000E+00 -0.12126959387E+04  0.12126959387E+04  0.25500000920E-02 0.  1.
    10030    2    1    2    0    0  0.00000000000E+00  0.00000000000E+00  0.18235470935E+03  0.26077465867E+04  0.26013629159E+04 0.  0.
        3    1    3    3  502    0 -0.29926460732E+03  0.11371608832E+04 -0.46613482388E+03  0.12649015233E+04  0.10100000352E+00 0.  1.
       -3    1    3    3    0  502  0.29926460732E+03 -0.11371608832E+04  0.64848953323E+03  0.13428450634E+04  0.10100000352E+00 0. -1.
</event>
<event>
 5   0  0.4955675E-05  0.2632398E+04  0.7818609E-02  0.8357279E-01
       -2   -1    0    0    0  501  0.00000000000E+00  0.00000000000E+00  0.71227070429E+03  0.71227070429E+03  0.25500000920E-02 0.  1.
        2   -1    0    0  501    0  0.00000000000E+00  0.00000000000E+00 -0.24321924595E+04  0.24321924595E+04  0.25500000920E-02 0. -1.
    10030    2    1    2    0    0  0.00000000000E+00  0.00000000000E+00 -0.17199217552E+04  0.31444631638E+04  0.26323977178E+04 0.  0.
        5    1    3    3  502    0  0.65364003248E+03  0.52153144912E+03 -0.20741036536E+04  0.22363292245E+04  0.46999998093E+01 0. -1.
       -5    1    3    3    0  502 -0.65364003248E+03 -0.52153144912E+03  0.35418189841E+03  0.90813393927E+03  0.46999998093E+01 0.  1.
</event>
<event>
 5   0  0.5049803E-05  0.2573763E+04  0.7818609E-02  0.8377168E-01
        2   -1    0    0  501    0  0.00000000000E+00  0.00000000000E+00  0.24029708441E+04  0.24029708441E+04  0.25500000920E-02 0. -1.
       -2   -1    0    0    0  501  0.00000000000E+00  0.00000000000E+00 -0.68917372557E+03  0.68917372557E+03  0.25500000920E-02 0.  1.
    10030    2    1    2    0    0  0.00000000000E+00  0.00000000000E+00  0.17137971186E+04  0.30921445697E+04  0.25737632907E+04 0.  0.
        4    1    3    3  502    0 -0.18829053096E+02 -0.86306533581E+03 -0.28969369890E+03  0.91058242856E+03  0.12699999809E+01 0.  1.
       -4    1    3    3    0  502  0.18829053096E+02  0.86306533581E+03  0.20034908175E+04  0.21815621412E+04  0.12699999809E+01 0. -1.
</event>
<event>
 5   0  0.5049803E-05  0.2578191E+04  0.7818609E-02  0.8375647E-01
        2   -1    0    0  501    0  0.00000000000E+00  0.00000000000E+00  0.22430129554E+04  0.22430129554E+04  0.25500000920E-02 0.  1.
       -2   -1    0    0    0  501  0.00000000000E+00  0.00000000000E+00 -0.74086394226E+03  0.74086394227E+03  0.25500000920E-02 0. -1.
    10030    2    1    2    0    0  0.00000000000E+00  0.00000000000E+00  0.15021490131E+04  0.29838768977E+04  0.25781911649E+04 0.  0.
        4    1    3    3  502    0  0.35677180590E+03  0.11292815829E+04  0.16184345616E+03  0.11953066268E+04  0.12699999809E+01 0. -1.
       -4    1    3    3    0  502 -0.35677180590E+03 -0.11292815829E+04  0.13403055570E+04  0.17885702709E+04  0.12699999809E+01 0.  1.
</event>
<event>
 5   0  0.2163800E-05  0.2438313E+04  0.7818609E-02  0.8425297E-01
        1   -1    0    0  501    0  0.00000000000E+00  0.00000000000E+00  0.14622035323E+04  0.14622035323E+04  0.50400001928E-02 0.  1.
       -1   -1    0    0    0  501  0.00000000000E+00  0.00000000000E+00 -0.10165086867E+04  0.10165086868E+04  0.50400001928E-02 0. -1.
    10030    2    1    2    0    0  0.00000000000E+00  0.00000000000E+00  0.44569484559E+03  0.24787122191E+04  0.24383130172E+04 0.  0.
        1    1    3    3  502    0 -0.26389023225E+03  0.10866587629E+04 -0.27087141442E+03  0.11505810032E+04  0.50400001928E-02 0. -1.
       -1    1    3    3    0  502  0.26389023225E+03 -0.10866587629E+04  0.71656626001E+03  0.13281312159E+04  0.50400001928E-02 0.  1.
</event>
<event>
 5   0  0.5036452E-05  0.2672575E+04  0.7818609E-02  0.8343959E-01
        2   -1    0    0  501    0  0.00000000000E+00  0.00000000000E+00  0.15462680509E+04  0.15462680509E+04  0.25500000920E-02 0. -1.
       -2   -1    0    0    0  501  0.00000000000E+00  0.00000000000E+00 -0.11548221841E+04  0.11548221841E+04  0.25500000920E-02 0.  1.
    10030    2    1    2    0    0  0.00000000000E+00  0.00000000000E+00  0.39144586680E+03  0.27010902350E+04  0.26725752732E+04 0.  0.
        2    1    3    3  502    0 -0.98633118583E+03  0.89401033059E+03  0.31341698111E+03  0.13676015075E+04  0.25500000920E-02 0. -1.
       -2    1    3    3    0  502  0.98633118583E+03 -0.89401033059E+03  0.78028885689E+02  0.13334887275E+04  0.25500000920E-02 0.  1.
</event>
<event>
 5   0  0.1993815E-05  0.1692228E+04  0.7818609E-02  0.8765809E-01
       -1   -1    0    0    0  501  0.00000000000E+00  0.00000000000E+00  0.47855569285E+03  0.47855569288E+03  0.50400001928E-02 0.  1.
        1   -1    0    0  501    0  0.00000000000E+00  0.00000000000E+00 -0.14959790819E+04  0.14959790819E+04  0.50400001928E-02 0. -1.
    10030    2    1    2    0    0  0.00000000000E+00  0.00000000000E+00 -0.10174233890E+04  0.19745347747E+04  0.16922284787E+04 0.  0.
        5    1    3    3  502    0  0.68366278907E+03 -0.41462653196E+03 -0.83160248528E+03  0.11536441192E+04  0.46999998093E+01 0. -1.
       -5    1    3    3    0  502 -0.68366278907E+03  0.41462653196E+03 -0.18582090373E+03  0.82089065559E+03  0.46999998093E+01 0.  1.
</event>
<event>
 5   0  0.2163800E-05  0.2564065E+04  0.7818609E-02  0.8380511E-01
       -1   -1    0    0    0  501  0.00000000000E+00  0.00000000000E+00  0.14904150438E+04  0.14904150438E+04  0.50400001928E-02 0. -1.
        1   -1    0    0  501    0  0.00000000000E+00  0.00000000000E+00 -0.11027846266E+04  0.11027846266E+04  0.50400001928E-02 0.  1.
    10030    2    1    2    0    0  0.00000000000E+00  0.00000000000E+00  0.38763041726E+03  0.25931996704E+04  0.25640645839E+04 0.  0.
        1    1    3    3  502    0 -0.65387336366E+03  0.98220278491E+03  0.70084410981E+03  0.13723903062E+04  0.50400001928E-02 0.  1.
       -1    1    3    3    0  502  0.65387336366E+03 -0.98220278491E+03 -0.31321369255E+03  0.12208093642E+04  0.50400001928E-02 0. -1.
</event>
<event>
 5   0  0.1993815E-05  0.2625291E+04  0.7818609E-02  0.8359661E-01
        1   -1    0    0  501    0  0.00000000000E+00  0.00000000000E+00  0.13755618242E+04  0.13755618242E+04  0.50400001928E-02 0.  1.
       -1   -1    0    0    0  501  0.00000000000E+00  0.00000000000E+00 -0.12526066456E+04  0.12526066456E+04  0.50400001928E-02 0. -1.
    10030    2    1    2    0    0  0.00000000000E+00  0.00000000000E+00  0.12295517866E+03  0.26281684698E+04  0.26252907515E+04 0.  0.
        5    1    3    3  502    0  0.50084625961E+03 -0.34020841584E+03  0.12274117133E+04  0.13686308289E+04  0.46999998093E+01 0.  1.
       -5    1    3    3    0  502 -0.50084625961E+03  0.34020841584E+03 -0.11044565346E+04  0.12595376409E+04  0.46999998093E+01 0. -1.
</event>
<event>
 5   0  0.5170532E-05  0.2514563E+04  0.7818609E-02  0.8397816E-01
        2   -1    0    0  501    0  0.00000000000E+00  0.00000000000E+00  0.12718828902E+04  0.12718828902E+04  0.25500000920E-02 0. -1.
       -2   -1    0    0    0  501  0.00000000000E+00  0.00000000000E+00 -0.12428477964E+04  0.12428477964E+04  0.25500000920E-02 0.  1.
    10030    2    1    2    0    0  0.00000000000E+00  0.00000000000E+00  0.29035093822E+02  0.25147306867E+04  0.25145630614E+04 0.  0.
        1    1    3    3  502    0  0.57880228861E+03 -0.11060778954E+04  0.16398134037E+03  0.12590910531E+04  0.50400001928E-02 0. -1.
       -1    1    3    3    0  502 -0.57880228861E+03  0.11060778954E+04 -0.13494624655E+03  0.12556396336E+04  0.50400001928E-02 0.  1.
</event>
<event>
 5   0  0.5182179E-05  0.2549895E+04  0.7818609E-02  0.8385423E-01
        2   -1    0    0  501    0  0.00000000000E+00  0.00000000000E+00  0.20678028035E+04  0.20678028035E+04  0.25500000920E-02 0.  1.
       -2   -1    0    0    0  501  0.00000000000E+00  0.00000000000E+00 -0.78609591415E+03  0.78609591416E+03  0.25500000920E-02 0. -1.
    10030    2    1    2    0    0  0.00000000000E+00  0.00000000000E+00  0.12817068893E+04  0.28538987177E+04  0.25498951626E+04 0.  0.
        3    1    3    3  502    0 -0.47946693224E+03  0.84436066510E+03 -0.28388257979E+03  0.10116436137E+04  0.10100000352E+00 0. -1.
       -3    1    3    3    0  502  0.47946693224E+03 -0.84436066510E+03  0.15655894691E+04  0.18422551039E+04  0.10100000352E+00 0.  1.
</event>
<event>
 5   0  0.4955675E-05  0.2350580E+04  0.7818609E-02  0.8458241E-01
        2   -1    0    0  501    0  0.00000000000E+00  0.00000000000E+00  0.15401011089E+04  0.15401011089E+04  0.25500000920E-02 0. -1.
       -2   -1    0    0    0  501  0.00000000000E+00  0.00000000000E+00 -0.89689323195E+03  0.89689323195E+03  0.25500000920E-02 0.  1.
    10030    2    1    2    0    0  0.00000000000E+00  0.00000000000E+00  0.64320787694E+03  0.24369943408E+04  0.23505797252E+04 0.  0.
        5    1    3    3  502    0 -0.31254970865E+03  0.88337832892E+03  0.10570772703E+04  0.14126142565E+04  0.46999998093E+01 0. -1.
       -5    1    3    3    0  502  0.31254970865E+03 -0.88337832892E+03 -0.41386939335E+03  0.10243800843E+04  0.46999998093E+01 0.  1.
</event>
<event>
 5   0  0.1993815E-05  0.1365536E+04  0.7818609E-02  0.8979150E-01
        1   -1    0    0  501    0  0.00000000000E+00  0.00000000000E+00  0.94366682743E+03  0.94366682744E+03  0.50400001928E-02 0.  1.
       -1   -1    0    0    0  501  0.00000000000E+00  0.00000000000E+00 -0.49400107408E+03  0.49400107410E+03  0.50400001928E-02 0. -1.
    10030    2    1    2    0    0  0.00000000000E+00  0.00000000000E+00  0.44966575336E+03  0.14376679015E+04  0.13655364167E+04 0.  0.
        5    1    3    3  502    0  0.25124019042E+01 -0.43861936836E+03  0.77568872545E+03  0.89112757294E+03  0.46999998093E+01 0.  1.
       -5    1    3    3    0  502 -0.25124019042E+01  0.43861936836E+03 -0.32602297210E+03  0.54654032861E+03  0.46999998093E+01 0. -1.
</event>
<event>
 5   0  0.5182179E-05  0.2589640E+04  0.7818609E-02  0.8371729E-01
       -2   -1    0    0    0  501  0.00000000000E+00  0.00000000000E+00  0.13088188003E+04  0.13088188003E+04  0.25500000920E-02 0.  1.
        2   -1    0    0  501    0  0.00000000000E+00  0.00000000000E+00 -0.12809710991E+04  0.12809710991E+04  0.25500000920E-02 0. -1.
    10030    2    1    2    0    0  0.00000000000E+00  0.00000000000E+00  0.27847701262E+02  0.25897898994E+04  0.25896401736E+04 0.  0.
        3    1    3    3  502    0 -0.33232889804E+03  0.83797976979E+02 -0.12347853789E+04  0.12814677286E+04  0.10100000352E+00 0. -1.
       -3    1    3    3    0  502  0.33232889804E+03 -0.83797976979E+02  0.12626330801E+04  0.13083221708E+04  0.10100000352E+00 0.  1.
</event>
<event>
 5   0  0.5049803E-05  0.1740742E+04  0.7818609E-02  0.8738463E-01
       -2   -1    0    0    0  501  0.00000000000E+00  0.00000000000E+00  0.73826517882E+03  0.73826517882E+03  0.25500000920E-02 0.  1.
        2   -1    0    0  501    0  0.00000000000E+00  0.00000000000E+00 -0.10261155378E+04  0.10261155378E+04  0.25500000920E-02 0. -1.
    10030    2    1    2    0    0  0.00000000000E+00  0.00000000000E+00 -0.28785035902E+03  0.17643807167E+04  0.17407416477E+04 0.  0.
        4    1    3    3  502    0  0.62582230010E+03 -0.25483908130E+03  0.41211115507E+03  0.79147566336E+03  0.12699999809E+01 0.  1.
       -4    1    3    3    0  502 -0.62582230010E+03  0.25483908130E+03 -0.69996151409E+03  0.97290505331E+03  0.12699999809E+01 0. -1.
</event>
<event>
 5   0  0.4955675E-05  0.2666191E+04  0.7818609E-02  0.8346059E-01
       -2   -1    0    0    0  501  0.00000000000E+00  0.00000000000E+00  0.13332609479E+04  0.13332609479E+04  0.25500000920E-02 0. -1.
        2   -1    0    0  501    0  0.00000000000E+00  0.00000000000E+00 -0.13329298498E+04  0.13329298498E+04  0.25500000920E-02 0.  1.
    10030    2    1    2    0    0  0.00000000000E+00  0.00000000000E+00  0.33109804148E+00  0.26661907977E+04  0.26661907772E+04 0.  0.
        5    1    3    3  502    0 -0.99615500935E+03 -0.17959554592E+00  0.88605290206E+03  0.13332054118E+04  0.46999998093E+01 0. -1.
       -5    1    3    3    0  502  0.99615500935E+03  0.17959554592E+00 -0.88572180402E+03  0.13329853859E+04  0.46999998093E+01 0.  1.
</event>
<event>
 5   0  0.1993815E-05  0.2575843E+04  0.7818609E-02  0.8376453E-01
       -1   -1    0    0    0  501  0.00000000000E+00  0.00000000000E+00  0.87285026886E+03  0.87285026888E+03  0.50400001928E-02 0. -1.
        1   -1    0    0  501    0  0.00000000000E+00  0.00000000000E+00 -0.19003734009E+04  0.19003734010E+04  0.50400001928E-02 0.  1.
    10030    2    1    2    0    0  0.00000000000E+00  0.00000000000E+00 -0.10275231321E+04  0.27732236698E+04  0.25758427234E+04 0.  0.
        5    1    3    3  502    0  0.11847911666E+04  0.45174584650E+03 -0.27082767134E+03  0.12966009933E+04  0.46999998093E+01 0. -1.
       -5    1    3    3    0  502 -0.11847911666E+04 -0.45174584650E+03 -0.75669546074E+03  0.14766226765E+04  0.46999998093E+01 0.  1.
</event>
<event>
 5   0  0.5182179E-05  0.2625642E+04  0.7818609E-02  0.8359543E-01
        2   -1    0    0  501    0  0.00000000000E+00  0.00000000000E+00  0.11084452225E+04  0.11084452225E+04  0.25500000920E-02 0. -1.
       -2   -1    0    0    0  501  0.00000000000E+00  0.00000000000E+00 -0.15548799618E+04  0.15548799618E+04  0.25500000920E-02 0.  1.
    10030    2    1    2    0    0  0.00000000000E+00  0.00000000000E+00 -0.44643473931E+03  0.26633251843E+04  0.26256422188E+04 0.  0.
        3    1    3    3  502    0  0.15424146587E+03  0.12934169373E+04 -0.57218280647E+02  0.13038373155E+04  0.10100000352E+00 0. -1.
       -3    1    3    3    0  502 -0.15424146587E+03 -0.12934169373E+04 -0.38921645867E+03  0.13594878688E+04  0.10100000352E+00 0.  1.
</event>
<event>
 5   0  0.5170532E-05  0.2604431E+04  0.7818609E-02  0.8366698E-01
       -2   -1    0    0    0  501  0.00000000000E+00  0.00000000000E+00  0.11404368982E+04  0.11404368982E+04  0.25500000920E-02 0.  1.
        2   -1    0    0  501    0  0.00000000000E+00  0.00000000000E+00 -0.14869436413E+04  0.14869436413E+04  0.25500000920E-02 0. -1.
    10030    2    1    2    0    0  0.00000000000E+00  0.00000000000E+00 -0.34650674306E+03  0.26273805395E+04  0.26044311426E+04 0.  0.
        1    1    3    3  502    0 -0.18188320121E+03  0.12599919240E+04  0.10321302129E+03  0.12772290614E+04  0.50400001928E-02 0.  1.
       -1    1    3    3    0  502  0.18188320121E+03 -0.12599919240E+04 -0.44971976434E+03  0.13501514781E+04  0.50400001928E-02 0. -1.
</event>
<event>
 5   0  0.5049803E-05  0.2609155E+04  0.7818609E-02  0.8365098E-01
        2   -1    0    0  501    0  0.00000000000E+00  0.00000000000E+00  0.70844685885E+03  0.70844685886E+03  0.25500000920E-02 0.  1.
       -2   -1    0    0    0  501  0.00000000000E+00  0.00000000000E+00 -0.24023291530E+04  0.24023291530E+04  0.25500000920E-02 0. -1.
    10030    2    1    2    0    0  0.00000000000E+00  0.00000000000E+00 -0.16938822942E+04  0.31107760119E+04  0.26091550681E+04 0.  0.
        4    1    3    3  502    0 -0.17274644332E+03 -0.26428145063E+03  0.66220724536E+03  0.73362529096E+03  0.12699999809E+01 0.  1.
       -4    1    3    3    0  502  0.17274644332E+03  0.26428145063E+03 -0.23560895395E+04  0.23771507209E+04  0.12699999809E+01 0. -1.
</event>
<event>
 5   0  0.5170532E-05  0.2112463E+04  0.7818609E-02  0.8555773E-01
        2   -1    0    0  501    0  0.00000000000E+00  0.00000000000E+00  0.19526928647E+04  0.19526928647E+04  0.25500000920E-02 0.  1.
       -2   -1    0    0    0  501  0.00000000000E+00  0.00000000000E+00 -0.57132615811E+03  0.57132615812E+03  0.25500000920E-02 0. -1.
    10030    2    1    2    0    0  0.00000000000E+00  0.00000000000E+00  0.13813667065E+04  0.25240190228E+04  0.21124625557E+04 0.  0.
        1    1    3    3  502    0  0.33654369902E+03  0.97981915352E+03  0.44489434169E+03  0.11274920001E+04  0.50400001928E-02 0.  1.
       -1    1    3    3    0  502 -0.33654369902E+03 -0.97981915352E+03  0.93647236485E+03  0.13965270227E+04  0.50400001928E-02 0. -1.
</event>
<event>
 5   0  0.5182179E-05  0.2573626E+04  0.7818609E-02  0.8377215E-01
        2   -1    0    0  501    0  0.00000000000E+00  0.00000000000E+00  0.14771411291E+04  0.14771411292E+04  0.25500000920E-02 0.  1.
       -2   -1    0    0    0  501  0.00000000000E+00  0.00000000000E+00 -0.11210082246E+04  0.11210082246E+04  0.25500000920E-02 0. -1.
    10030    2    1    2    0    0  0.00000000000E+00  0.00000000000E+00  0.35613290459E+03  0.25981493537E+04  0.25736257339E+04 0.  0.
        3    1    3    3  502    0  0.11398473375E+04  0.57623085316E+03  0.33638360442E+03  0.13207754875E+04  0.10100000352E+00 0. -1.
       -3    1    3    3    0  502 -0.11398473375E+04 -0.57623085316E+03  0.19749300179E+02  0.12773738662E+04  0.10100000352E+00 0.  1.
</event>
<event>
 5   0  0.5036452E-05  0.2605808E+04  0.7818609E-02  0.8366231E-01
        2   -1    0    0  501    0  0.00000000000E+00  0.00000000000E+00  0.17771056380E+04  0.17771056380E+04  0.25500000920E-02 0.  1.
       -2   -1    0    0    0  501  0.00000000000E+00  0.00000000000E+00 -0.95523811219E+03  0.95523811219E+03  0.25500000920E-02 0. -1.
    10030    2    1    2    0    0  0.00000000000E+00  0.00000000000E+00  0.82186752584E+03  0.27323437502E+04  0.26058081547E+04 0.  0.
        2    1    3    3  502    0 -0.12143395658E+04  0.34795461431E+03  0.74559669303E+03  0.14668358543E+04  0.25500000920E-02 0.  1.
       -2    1    3    3    0  502  0.12143395658E+04 -0.34795461431E+03  0.76270832806E+02  0.12655078959E+04  0.25500000920E-02 0. -1.
</event>
<event>
 5   0  0.5170532E-05  0.2830252E+04  0.7818609E-02  0.8293937E-01
        2   -1    0    0  501    0  0.00000000000E+00  0.00000000000E+00  0.97996565937E+03  0.97996565937E+03  0.25500000920E-02 0. -1.
       -2   -1    0    0    0  501  0.00000000000E+00  0.00000000000E+00 -0.20435222292E+04  0.20435222292E+04  0.25500000920E-02 0.  1.
    10030    2    1    2    0    0  0.00000000000E+00  0.00000000000E+00 -0.10635565699E+04  0.30234878886E+04  0.28302520091E+04 0.  0.
        1    1    3    3  502    0  0.72110557619E+03 -0.11710777692E+04 -0.17559988164E+03  0.13864529245E+04  0.50400001928E-02 0. -1.
       -1    1    3    3    0  502 -0.72110557619E+03  0.11710777692E+04 -0.88795668823E+03  0.16370349641E+04  0.50400001928E-02 0.  1.
</event>
<event>
 5   0  0.5036452E-05  0.2705612E+04  0.7818609E-02  0.8333186E-01
        2   -1    0    0  501    0  0.00000000000E+00  0.00000000000E+00  0.87048768359E+03  0.87048768359E+03  0.25500000920E-02 0.  1.
       -2   -1    0    0    0  501  0.00000000000E+00  0.00000000000E+00 -0.21023662804E+04  0.21023662804E+04  0.25500000920E-02 0. -1.
    10030    2    1    2    0    0  0.00000000000E+00  0.00000000000E+00 -0.12318785968E+04  0.29728539640E+04  0.27056119112E+04 0.  0.
        2    1    3    3  502    0  0.48077416372E+03  0.10987634530E+04 -0.13035809050E+04  0.17713689898E+04  0.25500000920E-02 0. -1.
       -2    1    3    3    0  502 -0.48077416372E+03 -0.10987634530E+04  0.71702308194E+02  0.12014849742E+04  0.25500000920E-02 0.  1.
</event>
<event>
 5   0  0.2163800E-05  0.2719598E+04  0.7818609E-02  0.8328674E-01
       -1   -1    0    0    0  501  0.00000000000E+00  0.00000000000E+00  0.24327105462E+04  0.24327105462E+04  0.50400001928E-02 0.  1.
        1   -1    0    0  501    0  0.00000000000E+00  0.00000000000E+00 -0.76007925807E+03  0.76007925808E+03  0.50400001928E-02 0. -1.
    10030    2    1    2    0    0  0.00000000000E+00  0.00000000000E+00  0.16726312881E+04  0.31927898043E+04  0.27195976372E+04 0.  0.
        1    1    3    3  502    0  0.12352477704E+04  0.34305127764E+03  0.30407876030E+03  0.13175678828E+04  0.50400001928E-02 0. -1.
       -1    1    3    3    0  502 -0.12352477704E+04 -0.34305127764E+03  0.13685525278E+04  0.18752219215E+04  0.50400001928E-02 0.  1.
</event>
<event>
 5   0  0.2072710E-05  0.2584180E+04  0.7818609E-02  0.8373595E-01
        1   -1    0    0  501    0  0.00000000000E+00  0.00000000000E+00  0.15762106736E+04  0.15762106736E+04  0.50400001928E-02 0. -1.
       -1   -1    0    0    0  501  0.00000000000E+00  0.00000000000E+00 -0.10591839731E+04  0.10591839731E+04  0.50400001928E-02 0.  1.
    10030    2    1    2    0    0  0.00000000000E+00  0.00000000000E+00  0.51702670055E+03  0.26353946467E+04  0.25841803991E+04 0.  0.
        2    1    3    3  502    0 -0.63774746412E+03 -0.43613814883E+03 -0.79765556342E+03  0.11104921030E+04  0.25500000920E-02 0.  1.
       -2    1    3    3    0  502  0.63774746412E+03  0.43613814883E+03  0.13146822640E+04  0.15249025438E+04  0.25500000920E-02 0. -1.
</event>
<event>
 5   0  0.1954502E-05  0.2026940E+04  0.7818609E-02  0.8594128E-01
        1   -1    0    0  501    0  0.00000000000E+00  0.00000000000E+00  0.94949162902E+03  0.94949162904E+03  0.50400001928E-02 0.  1.
       -1   -1    0    0    0  501  0.00000000000E+00  0.00000000000E+00 -0.10817592763E+04  0.10817592763E+04  0.50400001928E-02 0. -1.
    10030    2    1    2    0    0  0.00000000000E+00  0.00000000000E+00 -0.13226764730E+03  0.20312509054E+04  0.20269399375E+04 0.  0.
        4    1    3    3  502    0 -0.98660988131E+03  0.17514819636E+03  0.85990931379E+02  0.10057196437E+04  0.12699999809E+01 0. -1.
       -4    1    3    3    0  502  0.98660988131E+03 -0.17514819636E+03 -0.21825857868E+03  0.10255312617E+04  0.12699999809E+01 0.  1.
</event>
<event>
 5   0  0.1698625E-05  0.2503696E+04  0.7818609E-02  0.8401670E-01
        3   -1    0    0  501    0  0.00000000000E+00  0.00000000000E+00  0.29234602252E+04  0.29234602270E+04  0.10100000352E+00 0.  1.
       -3   -1    0    0    0  501  0.00000000000E+00  0.00000000000E+00 -0.53605084098E+03  0.53605085049E+03  0.10100000352E+00 0. -1.
    10030    2    1    2    0    0  0.00000000000E+00  0.00000000000E+00  0.23874093842E+04  0.34595110774E+04  0.25036959334E+04 0.  0.
        2    1    3    3  502    0  0.44142837795E+03 -0.33639269598E+03 -0.35676753210E+03  0.65977430288E+03  0.25500000920E-02 0. -1.
       -2    1    3    3    0  502 -0.44142837795E+03  0.33639269598E+03  0.27441769163E+04  0.27997367746E+04  0.25500000920E-02 0.  1.
</event>
<event>
 5   0  0.5182179E-05  0.2640792E+04  0.7818609E-02  0.8354476E-01
        2   -1    0    0  501    0  0.00000000000E+00  0.00000000000E+00  0.12286433859E+04  0.12286433859E+04  0.25500000920E-02 0.  1.
       -2   -1    0    0    0  501  0.00000000000E+00  0.00000000000E+00 -0.14190009252E+04  0.14190009252E+04  0.25500000920E-02 0. -1.
    10030    2    1    2    0    0  0.00000000000E+00  0.00000000000E+00 -0.19035753933E+03  0.26476443111E+04  0.26407923821E+04 0.  0.
        3    1    3    3  502    0 -0.15006872728E+03  0.91999268863E+03  0.84241551974E+03  0.12564119898E+04  0.10100000352E+00 0.  1.
       -3    1    3    3    0  502  0.15006872728E+03 -0.91999268863E+03 -0.10327730591E+04  0.13912323213E+04  0.10100000352E+00 0. -1.
</event>
<event>
 5   0  0.5182179E-05  0.2531353E+04  0.7818609E-02  0.8391900E-01
        2   -1    0    0  501    0  0.00000000000E+00  0.00000000000E+00  0.21751103898E+04  0.21751103898E+04  0.25500000920E-02 0. -1.
       -2   -1    0    0    0  501  0.00000000000E+00  0.00000000000E+00 -0.73648511879E+03  0.73648511879E+03  0.25500000920E-02 0.  1.
    10030    2    1    2    0    0  0.00000000000E+00  0.00000000000E+00  0.14386252710E+04  0.29115955086E+04  0.25313525506E+04 0.  0.
        3    1    3    3  502    0  0.48905849888E+03 -0.68332433960E+03  0.18079675828E+04  0.19937043811E+04  0.10100000352E+00 0. -1.
       -3    1    3    3    0  502 -0.48905849888E+03  0.68332433960E+03 -0.36934231183E+03  0.91789112749E+03  0.10100000352E+00 0.  1.
</event>
<event>
 5   0  0.2159405E-05  0.2576760E+04  0.7818609E-02  0.8376138E-01
       -1   -1    0    0    0  501  0.00000000000E+00  0.00000000000E+00  0.10310844290E+04  0.10310844290E+04  0.50400001928E-02 0. -1.
        1   -1    0    0  501    0  0.00000000000E+00  0.00000000000E+00 -0.16098810473E+04  0.16098810473E+04  0.50400001928E-02 0.  1.
    10030    2    1    2    0    0  0.00000000000E+00  0.00000000000E+00 -0.57879661828E+03  0.26409654763E+04  0.25767601987E+04 0.  0.
        3    1    3    3  502    0  0.11855561939E+04  0.66656829074E+02  0.22299528462E+03  0.12081860490E+04  0.10100000352E+00 0. -1.
       -3    1    3    3    0  502 -0.11855561939E+04 -0.66656829074E+02 -0.80179190291E+03  0.14327794274E+04  0.10100000352E+00 0.  1.
</event>
<event>
 5   0  0.1954502E-05  0.1888580E+04  0.7818609E-02  0.8660562E-01
        1   -1    0    0  501    0  0.00000000000E+00  0.00000000000E+00  0.65347372278E+03  0.65347372280E+03  0.50400001928E-02 0.  1.
       -1   -1    0    0    0  501  0.00000000000E+00  0.00000000000E+00 -0.13645281541E+04  0.13645281541E+04  0.50400001928E-02 0. -1.
    10030    2    1    2    0    0  0.00000000000E+00  0.00000000000E+00 -0.71105443127E+03  0.20180018769E+04  0.18885796702E+04 0.  0.
        4    1    3    3  502    0  0.71326127375E+02  0.55414466990E+03 -0.11689563080E+04  0.12956173025E+04  0.12699999809E+01 0. -1.
       -4    1    3    3    0  502 -0.71326127375E+02 -0.55414466990E+03  0.45790187675E+03  0.72238457435E+03  0.12699999809E+01 0.  1.
</event>
<event>
 5   0  0.1993815E-05  0.2500888E+04  0.7818609E-02  0.8402669E-01
       -1   -1    0    0    0  501  0.00000000000E+00  0.00000000000E+00  0.66934854536E+03  0.66934854538E+03  0.50400001928E-02 0.  1.
        1   -1    0    0  501    0  0.00000000000E+00  0.00000000000E+00 -0.23360183967E+04  0.23360183967E+04  0.50400001928E-02 0. -1.
    10030    2    1    2    0    0  0.00000000000E+00  0.00000000000E+00 -0.16666698513E+04  0.30053669421E+04  0.25008882548E+04 0.  0.
        5    1    3    3  502    0 -0.87066734432E+03 -0.88933864623E+03 -0.97855705178E+03  0.15832185085E+04  0.46999998093E+01 0. -1.
       -5    1    3    3    0  502  0.87066734432E+03  0.88933864623E+03 -0.68811279956E+03  0.14221484336E+04  0.46999998093E+01 0.  1.
</event>
<event>
 5   0  0.5049803E-05  0.2648451E+04  0.7818609E-02  0.8351927E-01
        2   -1    0    0  501    0  0.00000000000E+00  0.00000000000E+00  0.12784100022E+04  0.12784100022E+04  0.25500000920E-02 0. -1.
       -2   -1    0    0    0  501  0.00000000000E+00  0.00000000000E+00 -0.13716834406E+04  0.13716834406E+04  0.25500000920E-02 0.  1.
    10030    2    1    2    0    0  0.00000000000E+00  0.00000000000E+00 -0.93273438382E+02  0.26500934428E+04  0.26484514950E+04 0.  0.
        4    1    3    3  502    0 -0.10465332079E+04  0.63641300237E+03 -0.55025676232E+03  0.13427722749E+04  0.12699999809E+01 0.  1.
       -4    1    3    3    0  502  0.10465332079E+04 -0.63641300237E+03  0.45698332394E+03  0.13073211679E+04  0.12699999809E+01 0. -1.
</event>
<event>
 5   0  0.5049803E-05  0.2604995E+04  0.7818609E-02  0.8366506E-01
       -2   -1    0    0    0  501  0.00000000000E+00  0.00000000000E+00  0.91189341183E+03  0.91189341183E+03  0.25500000920E-02 0.  1.
        2   -1    0    0  501    0  0.00000000000E+00  0.00000000000E+00 -0.18604151796E+04  0.18604151796E+04  0.25500000920E-02 0. -1.
    10030    2    1    2    0    0  0.00000000000E+00  0.00000000000E+00 -0.94852176779E+03  0.27723085915E+04  0.26049954668E+04 0.  0.
        4    1    3    3  502    0 -0.89403649228E+03 -0.47220159161E+03  0.39958818114E+03  0.10871742823E+04  0.12699999809E+01 0.  1.
       -4    1    3    3    0  502  0.89403649228E+03  0.47220159161E+03 -0.13481099489E+04  0.16851343092E+04  0.12699999809E+01 0. -1.
</event>
<event>
 5   0  0.5182179E-05  0.2989234E+04  0.7818609E-02  0.8246812E-01
        2   -1    0    0  501    0  0.00000000000E+00  0.00000000000E+00  0.16744361214E+04  0.16744361214E+04  0.25500000920E-02 0. -1.
       -2   -1    0    0    0  501  0.00000000000E+00  0.00000000000E+00 -0.13341085350E+04  0.13341085350E+04  0.25500000920E-02 0.  1.
    10030    2    1    2    0    0  0.00000000000E+00  0.00000000000E+00  0.34032758636E+03  0.30085446563E+04  0.29892336950E+04 0.  0.
        3    1    3    3  502    0  0.13501222212E+04  0.15613301921E+03  0.79601046003E+03  0.15750683142E+04  0.10100000352E+00 0. -1.
       -3    1    3    3    0  502 -0.13501222212E+04 -0.15613301921E+03 -0.45568287366E+03  0.14334763421E+04  0.10100000352E+00 0.  1.
</event>
<event>
 5   0  0.2163800E-05  0.2641371E+04  0.7818609E-02  0.8354283E-01
        1   -1    0    0  501    0  0.00000000000E+00  0.00000000000E+00  0.12927393429E+04  0.12927393430E+04  0.50400001928E-02 0. -1.
       -1   -1    0    0    0  501  0.00000000000E+00  0.00000000000E+00 -0.13492353004E+04  0.13492353004E+04  0.50400001928E-02 0.  1.
    10030    2    1    2    0    0  0.00000000000E+00  0.00000000000E+00 -0.56495957458E+02  0.26419746434E+04  0.26413705198E+04 0.  0.
        1    1    3    3  502    0 -0.96274547097E+03 -0.12076299795E+03 -0.92441440091E+03  0.13401509349E+04  0.50400001928E-02 0.  1.
       -1    1    3    3    0  502  0.96274547097E+03  0.12076299795E+03  0.86791844345E+03  0.13018237085E+04  0.50400001928E-02 0. -1.
</event>
<event>
 5   0  0.5049803E-05  0.1364011E+04  0.7818609E-02  0.8980289E-01
       -2   -1    0    0    0  501  0.00000000000E+00  0.00000000000E+00  0.21039826769E+03  0.21039826770E+03  0.25500000920E-02 0. -1.
        2   -1    0    0  501    0  0.00000000000E+00  0.00000000000E+00 -0.22107200091E+04  0.22107200091E+04  0.25500000920E-02 0.  1.
    10030    2    1    2    0    0  0.00000000000E+00  0.00000000000E+00 -0.20003217414E+04  0.24211182768E+04  0.13640112320E+04 0.  0.
        4    1    3    3  502    0 -0.43516944248E+03 -0.68156737450E+02 -0.75946662953E+02  0.44697571862E+03  0.12699999809E+01 0. -1.
       -4    1    3    3    0  502  0.43516944248E+03  0.68156737450E+02 -0.19243750785E+04  0.19741425582E+04  0.12699999809E+01 0.  1.
</event>
<event>
 5   0  0.1954502E-05  0.2518390E+04  0.7818609E-02  0.8396463E-01
        1   -1    0    0  501    0  0.00000000000E+00  0.00000000000E+00  0.21048856603E+04  0.21048856603E+04  0.50400001928E-02 0.  1.
       -1   -1    0    0    0  501  0.00000000000E+00  0.00000000000E+00 -0.75328183425E+03  0.75328183427E+03  0.50400001928E-02 0. -1.
    10030    2    1    2    0    0  0.00000000000E+00  0.00000000000E+00  0.13516038261E+04  0.28581674946E+04  0.25183900660E+04 0.  0.
        4    1    3    3  502    0 -0.68018009962E+02 -0.72146773876E+03  0.18445081112E+04  0.19817552657E+04  0.12699999809E+01 0.  1.
       -4    1    3    3    0  502  0.68018009962E+02  0.72146773876E+03 -0.49290428517E+03  0.87641222891E+03  0.12699999809E+01 0. -1.
</event>
<event>
 5   0  0.5170532E-05  0.2194225E+04  0.7818609E-02  0.8520836E-01
       -2   -1    0    0    0  501  0.00000000000E+00  0.00000000000E+00  0.85202034798E+03  0.85202034798E+03  0.25500000920E-02 0. -1.
        2   -1    0    0  501    0  0.00000000000E+00  0.00000000000E+00 -0.14127079850E+04  0.14127079850E+04  0.25500000920E-02 0.  1.
    10030    2    1    2    0    0  0.00000000000E+00  0.00000000000E+00 -0.56068763700E+03  0.22647283330E+04  0.21942251015E+04 0.  0.
        1    1    3    3  502    0 -0.40995046872E+03  0.44132995784E+03 -0.12267718510E+04  0.13666750502E+04  0.50400001928E-02 0.  1.
       -1    1    3    3    0  502  0.40995046872E+03 -0.44132995784E+03  0.66608421399E+03  0.89805328274E+03  0.50400001928E-02 0. -1.
</event>
<event>
 5   0  0.4955675E-05  0.1939495E+04  0.7818609E-02  0.8635443E-01
        2   -1    0    0  501    0  0.00000000000E+00  0.00000000000E+00  0.15684993656E+04  0.15684993656E+04  0.25500000920E-02 0.  1.
       -2   -1    0    0    0  501  0.00000000000E+00  0.00000000000E+00 -0.59956033054E+03  0.59956033054E+03  0.25500000920E-02 0. -1.
    10030    2    1    2    0    0  0.00000000000E+00  0.00000000000E+00  0.96893903505E+03  0.21680596961E+04  0.19394947776E+04 0.  0.
        5    1    3    3  502    0  0.65109726367E+03 -0.71079227962E+03  0.36598506604E+03  0.10310773347E+04  0.46999998093E+01 0. -1.
       -5    1    3    3    0  502 -0.65109726367E+03  0.71079227962E+03  0.60295396901E+03  0.11369823615E+04  0.46999998093E+01 0.  1.
</event>
<event>
 5   0  0.2163800E-05  0.2676557E+04  0.7818609E-02  0.8342652E-01
        1   -1    0    0  501    0  0.00000000000E+00  0.00000000000E+00  0.32795038534E+04  0.32795038534E+04  0.50400001928E-02 0.  1.
       -1   -1    0    0    0  501  0.00000000000E+00  0.00000000000E+00 -0.54611591665E+03  0.54611591667E+03  0.50400001928E-02 0. -1.
    10030    2    1    2    0    0  0.00000000000E+00  0.00000000000E+00  0.27333879368E+04  0.38256197701E+04  0.26765569324E+04 0.  0.
        1    1    3    3  502    0  0.14089827199E+03  0.59928675451E+03 -0.33171190950E+03  0.69930660523E+03  0.50400001928E-02 0. -1.
       -1    1    3    3    0  502 -0.14089827199E+03 -0.59928675451E+03  0.30650998463E+04  0.31263131649E+04  0.50400001928E-02 0.  1.
</event>
<event>
 5   0  0.2163800E-05  0.2278147E+04  0.7818609E-02  0.8486588E-01
       -1   -1    0    0    0  501  0.00000000000E+00  0.00000000000E+00  0.14717295413E+04  0.14717295413E+04  0.50400001928E-02 0.  1.
        1   -1    0    0  501    0  0.00000000000E+00  0.00000000000E+00 -0.88160802012E+03  0.88160802014E+03  0.50400001928E-02 0. -1.
    10030    2    1    2    0    0  0.00000000000E+00  0.00000000000E+00  0.59012152117E+03  0.23533375614E+04  0.22781471130E+04 0.  0.
        1    1    3    3  502    0 -0.89924464081E+02  0.99695380008E+03 -0.26646590568E+03  0.10358606893E+04  0.50400001928E-02 0. -1.
       -1    1    3    3    0  502  0.89924464081E+02 -0.99695380008E+03  0.85658742685E+03  0.13174768721E+04  0.50400001928E-02 0.  1.
</event>
<event>
 5   0  0.1954502E-05  0.2555211E+04  0.7818609E-02  0.8383576E-01
       -1   -1    0    0    0  501  0.00000000000E+00  0.00000000000E+00  0.12301616284E+04  0.12301616284E+04  0.50400001928E-02 0. -1.
        1   -1    0    0  501    0  0.00000000000E+00  0.00000000000E+00 -0.13268792370E+04  0.13268792370E+04  0.50400001928E-02 0.  1.
    10030    2    1    2    0    0  0.00000000000E+00  0.00000000000E+00 -0.96717608600E+02  0.25570408653E+04  0.25552110854E+04 0.  0.
        4    1    3    3  502    0 -0.29365876253E+02 -0.12727791942E+04 -0.15541708535E+03  0.12825698091E+04  0.12699999809E+01 0.  1.
       -4    1    3    3    0  502  0.29365876253E+02  0.12727791942E+04  0.58699476748E+02  0.12744710563E+04  0.12699999809E+01 0. -1.
</event>
<event>
 5   0  0.5049803E-05  0.2526236E+04  0.7818609E-02  0.8393698E-01
       -2   -1    0    0    0  501  0.00000000000E+00  0.00000000000E+00  0.91755984036E+03  0.91755984037E+03  0.25500000920E-02 0. -1.
        2   -1    0    0  501    0  0.00000000000E+00  0.00000000000E+00 -0.17388150664E+04  0.17388150664E+04  0.25500000920E-02 0.  1.
    10030    2    1    2    0    0  0.00000000000E+00  0.00000000000E+00 -0.82125522607E+03  0.26563749068E+04  0.25262358360E+04 0.  0.
        4    1    3    3  502    0 -0.97039305800E+03  0.31680590464E+03  0.37162930633E+03  0.10863418534E+04  0.12699999809E+01 0. -1.
       -4    1    3    3    0  502  0.97039305800E+03 -0.31680590464E+03 -0.11928845324E+04  0.15700330534E+04  0.12699999809E+01 0.  1.
</event>
<event>
 5   0  0.2163800E-05  0.2163422E+04  0.7818609E-02  0.8533809E-01
       -1   -1    0    0    0  501  0.00000000000E+00  0.00000000000E+00  0.84770273944E+03  0.84770273946E+03  0.50400001928E-02 0. -1.
        1   -1    0    0  501    0  0.00000000000E+00  0.00000000000E+00 -0.13803176235E+04  0.13803176236E+04  0.50400001928E-02 0.  1.
    10030    2    1    2    0    0  0.00000000000E+00  0.00000000000E+00 -0.53261488410E+03  0.22280203630E+04  0.21634223174E+04 0.  0.
        1    1    3    3  502    0  0.89475715262E+03 -0.57589176897E+03 -0.46668675936E+03  0.11619114524E+04  0.50400001928E-02 0. -1.
       -1    1    3    3    0  502 -0.89475715262E+03  0.57589176897E+03 -0.65928124746E+02  0.10661089107E+04  0.50400001928E-02 0.  1.
</event>
<event>
 5   0  0.5170532E-05  0.1929399E+04  0.7818609E-02  0.8640359E-01
       -2   -1    0    0    0  501  0.00000000000E+00  0.00000000000E+00  0.91593357432E+03  0.91593357432E+03  0.25500000920E-02 0. -1.
        2   -1    0    0  501    0  0.00000000000E+00  0.00000000000E+00 -0.10160623213E+04  0.10160623213E+04  0.25500000920E-02 0.  1.
    10030    2    1    2    0    0  0.00000000000E+00  0.00000000000E+00 -0.10012874697E+03  0.19319958956E+04  0.19293994855E+04 0.  0.
        1    1    3    3  502    0 -0.86212292887E+03 -0.11860533376E+02 -0.48336944067E+03  0.98845466914E+03  0.50400001928E-02 0.  1.
       -1    1    3    3    0  502  0.86212292887E+03  0.11860533376E+02  0.38324069370E+03  0.94354122648E+03  0.50400001928E-02 0. -1.
</event>
<event>
 5   0  0.1698625E-05  0.2488364E+04  0.7818609E-02  0.8407143E-01
        3   -1    0    0  501    0  0.00000000000E+00  0.00000000000E+00  0.21521673442E+04  0.21521673465E+04  0.10100000352E+00 0. -1.
       -3   -1    0    0    0  501  0.00000000000E+00  0.00000000000E+00 -0.71926974430E+03  0.71926975139E+03  0.10100000352E+00 0.  1.
    10030    2    1    2    0    0  0.00000000000E+00  0.00000000000E+00  0.14328975999E+04  0.28714370979E+04  0.24883640159E+04 0.  0.
        4    1    3    3  502    0 -0.77230641205E+03  0.16831222423E+03 -0.39230096599E+03  0.88243292081E+03  0.12699999809E+01 0.  1.
       -4    1    3    3    0  502  0.77230641205E+03 -0.16831222423E+03  0.18251985659E+04  0.19890041771E+04  0.12699999809E+01 0. -1.
</event>
<event>
 5   0  0.5182179E-05  0.2622319E+04  0.7818609E-02  0.8360659E-01
       -2   -1    0    0    0  501  0.00000000000E+00  0.00000000000E+00  0.95019948764E+03  0.95019948764E+03  0.25500000920E-02 0. -1.
        2   -1    0    0  501    0  0.00000000000E+00  0.00000000000E+00 -0.18092399371E+04  0.18092399371E+04  0.25500000920E-02 0.  1.
    10030    2    1    2    0    0  0.00000000000E+00  0.00000000000E+00 -0.85904044945E+03  0.27594394247E+04  0.26223187154E+04 0.  0.
        3    1    3    3  502    0  0.48190548769E+03 -0.97423418804E+03 -0.12011965375E+04  0.16199500869E+04  0.10100000352E+00 0.  1.
       -3    1    3    3    0  502 -0.48190548769E+03  0.97423418804E+03  0.34215608803E+03  0.11394893378E+04  0.10100000352E+00 0. -1.
</event>
<event>
 5   0  0.2163800E-05  0.2579220E+04  0.7818609E-02  0.8375294E-01
       -1   -1    0    0    0  501  0.00000000000E+00  0.00000000000E+00  0.10361122819E+04  0.10361122820E+04  0.50400001928E-02 0.  1.
        1   -1    0    0  501    0  0.00000000000E+00  0.00000000000E+00 -0.16051294369E+04  0.16051294369E+04  0.50400001928E-02 0. -1.
    10030    2    1    2    0    0  0.00000000000E+00  0.00000000000E+00 -0.56901715496E+03  0.26412417189E+04  0.25792202881E+04 0.  0.
        1    1    3    3  502    0  0.88510996200E+03 -0.44110908993E+03  0.56310106280E+03  0.11380156770E+04  0.50400001928E-02 0.  1.
       -1    1    3    3    0  502 -0.88510996200E+03  0.44110908993E+03 -0.11321182178E+04  0.15032260419E+04  0.50400001928E-02 0. -1.
</event>
<event>
 5   0  0.1698625E-05  0.2356839E+04  0.7818609E-02  0.8455841E-01
       -3   -1    0    0    0  501  0.00000000000E+00  0.00000000000E+00  0.16719525588E+04  0.16719525618E+04  0.10100000352E+00 0. -1.
        3   -1    0    0  501    0  0.00000000000E+00  0.00000000000E+00 -0.83056951799E+03  0.83056952413E+03  0.10100000352E+00 0.  1.
    10030    2    1    2    0    0  0.00000000000E+00  0.00000000000E+00  0.84138304081E+03  0.25025220860E+04  0.23568392753E+04 0.  0.
        4    1    3    3  502    0 -0.36541433821E+03 -0.10958090305E+04  0.17315893281E+03  0.11680371137E+04  0.12699999809E+01 0.  1.
       -4    1    3    3    0  502  0.36541433821E+03  0.10958090305E+04  0.66822410800E+03  0.13344849723E+04  0.12699999809E+01 0. -1.
</event>
<event>
 5   0  0.4955675E-05  0.2490262E+04  0.7818609E-02  0.8406463E-01
       -2   -1    0    0    0  501  0.00000000000E+00  0.00000000000E+00  0.87271748044E+03  0.87271748044E+03  0.25500000920E-02 0. -1.
        2   -1    0    0  501    0  0.00000000000E+00  0.00000000000E+00 -0.17764645312E+04  0.17764645312E+04  0.25500000920E-02 0.  1.
    10030    2    1    2    0    0  0.00000000000E+00  0.00000000000E+00 -0.90374705077E+03  0.26491820117E+04  0.24902623555E+04 0.  0.
        5    1    3    3  502    0  0.59535882159E+03  0.10587165047E+04 -0.16054162026E+03  0.12252054789E+04  0.46999998093E+01 0. -1.
       -5    1    3    3    0  502 -0.59535882159E+03 -0.10587165047E+04 -0.74320543052E+03  0.14239765327E+04  0.46999998093E+01 0.  1.
</event>
<event>
 5   0  0.2163800E-05  0.1453715E+04  0.7818609E-02  0.8915829E-01
       -1   -1    0    0    0  501  0.00000000000E+00  0.00000000000E+00  0.39411607122E+03  0.39411607125E+03  0.50400001928E-02 0. -1.
        1   -1    0    0  501    0  0.00000000000E+00  0.00000000000E+00 -0.13405241803E+04  0.13405241803E+04  0.50400001928E-02 0.  1.
    10030    2    1    2    0    0  0.00000000000E+00  0.00000000000E+00 -0.94640810911E+03  0.17346402516E+04  0.14537154101E+04 0.  0.
        1    1    3    3  502    0 -0.11789398561E+03  0.69310352490E+03 -0.69332686738E+03  0.98741765891E+03  0.50400001928E-02 0.  1.
       -1    1    3    3    0  502  0.11789398561E+03 -0.69310352490E+03 -0.25308124173E+03  0.74722259268E+03  0.50400001928E-02 0. -1.
</event>
<event>
 5   0  0.1993815E-05  0.2413568E+04  0.7818609E-02  0.8434441E-01
       -1   -1    0    0    0  501  0.00000000000E+00  0.00000000000E+00  0.95248381767E+03  0.95248381768E+03  0.50400001928E-02 0.  1.
        1   -1    0    0  501    0  0.00000000000E+00  0.00000000000E+00 -0.15289786984E+04  0.15289786984E+04  0.50400001928E-02 0. -1.
    10030    2    1    2    0    0  0.00000000000E+00  0.00000000000E+00 -0.57649488069E+03  0.24814625160E+04  0.24135678717E+04 0.  0.
        5    1    3    3  502    0 -0.54580679810E+03 -0.10747120165E+04 -0.22834705465E+03  0.12268151640E+04  0.46999998093E+01 0.  1.
       -5    1    3    3    0  502  0.54580679810E+03  0.10747120165E+04 -0.34814782604E+03  0.12546473521E+04  0.46999998093E+01 0. -1.
</event>
<event>
 5   0  0.2159405E-05  0.2196438E+04  0.7818609E-02  0.8519912E-01
        1   -1    0    0  501    0  0.00000000000E+00  0.00000000000E+00  0.12704868483E+04  0.12704868483E+04  0.50400001928E-02 0.  1.
       -1   -1    0    0    0  501  0.00000000000E+00  0.00000000000E+00 -0.94930949836E+03  0.94930949837E+03  0.50400001928E-02 0. -1.
    10030    2    1    2    0    0  0.00000000000E+00  0.00000000000E+00  0.32117734995E+03  0.22197963467E+04  0.21964382374E+04 0.  0.
        3    1    3    3  502    0 -0.76298317168E+03  0.78742136649E+03  0.22377955458E+03  0.11190411199E+04  0.10100000352E+00 0. -1.
       -3    1    3    3    0  502  0.76298317168E+03 -0.78742136649E+03  0.97397795371E+02  0.11007552268E+04  0.10100000352E+00 0.  1.
</event>
<event>
 5   0  0.5049803E-05  0.2693819E+04  0.7818609E-02  0.8337013E-01
        2   -1    0    0  501    0  0.00000000000E+00  0.00000000000E+00  0.17942011463E+04  0.17942011463E+04  0.25500000920E-02 0.  1.
       -2   -1    0    0    0  501  0.00000000000E+00  0.00000000000E+00 -0.10111270940E+04  0.10111270940E+04  0.25500000920E-02 0. -1.
    10030    2    1    2    0    0  0.00000000000E+00  0.00000000000E+00  0.78307405227E+03  0.28053282403E+04  0.26938191410E+04 0.  0.
        4    1    3    3  502    0 -0.66954564461E+03 -0.43304587389E+03 -0.73891265947E+03  0.10871125196E+04  0.12699999809E+01 0. -1.
       -4    1    3    3    0  502  0.66954564461E+03  0.43304587389E+03  0.15219867117E+04  0.17182157207E+04  0.12699999809E+01 0.  1.
</event>
<event>
 5   0  0.2072710E-05  0.2440871E+04  0.7818609E-02  0.8424359E-01
       -1   -1    0    0    0  501  0.00000000000E+00  0.00000000000E+00  0.84025733167E+03  0.84025733168E+03  0.50400001928E-02 0. -1.
        1   -1    0    0  501    0  0.00000000000E+00  0.00000000000E+00 -0.17726274170E+04  0.17726274170E+04  0.50400001928E-02 0.  1.
    10030    2    1    2    0    0  0.00000000000E+00  0.00000000000E+00 -0.93237008533E+03  0.26128847487E+04  0.24408713063E+04 0.  0.
        2    1    3    3  502    0 -0.77131757344E+03  0.30208542066E+03  0.49323321600E+03  0.96408786210E+03  0.25500000920E-02 0. -1.
       -2    1    3    3    0  502  0.77131757344E+03 -0.30208542066E+03 -0.14256033013E+04  0.16487968866E+04  0.25500000920E-02 0.  1.
</event>
<event>
 5   0  0.5170532E-05  0.2685688E+04  0.7818609E-02  0.8339664E-01
       -2   -1    0    0    0  501  0.00000000000E+00  0.00000000000E+00  0.87626967060E+03  0.87626967060E+03  0.25500000920E-02 0. -1.
        2   -1    0    0  501    0  0.00000000000E+00  0.00000000000E+00 -0.20578480648E+04  0.20578480648E+04  0.25500000920E-02 0.  1.
    10030    2    1    2    0    0  0.00000000000E+00  0.00000000000E+00 -0.11815783942E+04  0.29341177354E+04  0.26856878790E+04 0.  0.
        1    1    3    3  502    0  0.10893119744E+04 -0.75902527230E+03 -0.81067774213E+03  0.15556086729E+04  0.50400001928E-02 0.  1.
       -1    1    3    3    0  502 -0.10893119744E+04  0.75902527230E+03 -0.37090065209E+03  0.13785090625E+04  0.50400001928E-02 0. -1.
</event>
<event>
 5   0  0.5049803E-05  0.2606474E+04  0.7818609E-02  0.8366005E-01
       -2   -1    0    0    0  501  0.00000000000E+00  0.00000000000E+00  0.13946873082E+04  0.13946873082E+04  0.25500000920E-02 0.  1.
        2   -1    0    0  501    0  0.00000000000E+00  0.00000000000E+00 -0.12177834826E+04  0.12177834826E+04  0.25500000920E-02 0. -1.
    10030    2    1    2    0    0  0.00000000000E+00  0.00000000000E+00  0.17690382559E+03  0.26124707908E+04  0.26064743754E+04 0.  0.
        4    1    3    3  502    0  0.12149664141E+04 -0.46387992705E+03  0.17289286852E+03  0.13119533266E+04  0.12699999809E+01 0.  1.
       -4    1    3    3    0  502 -0.12149664141E+04  0.46387992705E+03  0.40109570706E+01  0.13005174643E+04  0.12699999809E+01 0. -1.
</event>
<event>
 5   0  0.5049803E-05  0.2596033E+04  0.7818609E-02  0.8369550E-01
       -2   -1    0    0    0  501  0.00000000000E+00  0.00000000000E+00  0.81109561773E+03  0.81109561773E+03  0.25500000920E-02 0.  1.
        2   -1    0    0  501    0  0.00000000000E+00  0.00000000000E+00 -0.20772481825E+04  0.20772481825E+04  0.25500000920E-02 0. -1.
    10030    2    1    2    0    0  0.00000000000E+00  0.00000000000E+00 -0.12661525647E+04  0.28883438002E+04  0.25960330489E+04 0.  0.
        4    1    3    3  502    0 -0.12025893715E+04 -0.19837925691E+03 -0.13641607366E+03  0.12264528055E+04  0.12699999809E+01 0.  1.
       -4    1    3    3    0  502  0.12025893715E+04  0.19837925691E+03 -0.11297364911E+04  0.16618909947E+04  0.12699999809E+01 0. -1.
</event>
<event>
 5   0  0.5036452E-05  0.2652924E+04  0.7818609E-02  0.8350443E-01
       -2   -1    0    0    0  501  0.00000000000E+00  0.00000000000E+00  0.10406475902E+04  0.10406475902E+04  0.25500000920E-02 0. -1.
        2   -1    0    0  501    0  0.00000000000E+00  0.00000000000E+00 -0.16907759402E+04  0.16907759402E+04  0.25500000920E-02 0.  1.
    10030    2    1    2    0    0  0.00000000000E+00  0.00000000000E+00 -0.65012835000E+03  0.27314235303E+04  0.26529243545E+04 0.  0.
        2    1    3    3  502    0  0.41552590352E+03  0.87657509795E+03  0.60639089042E+03  0.11440085624E+04  0.25500000920E-02 0. -1.
       -2    1    3    3    0  502 -0.41552590352E+03 -0.87657509795E+03 -0.12565192404E+04  0.15874149679E+04  0.25500000920E-02 0.  1.
</event>
<event>
 5   0  0.5182179E-05  0.2489253E+04  0.7818609E-02  0.8406824E-01
        2   -1    0    0  501    0  0.00000000000E+00  0.00000000000E+00  0.21346874312E+04  0.21346874312E+04  0.25500000920E-02 0. -1.
       -2   -1    0    0    0  501  0.00000000000E+00  0.00000000000E+00 -0.72567772070E+03  0.72567772071E+03  0.25500000920E-02 0.  1.
    10030    2    1    2    0    0  0.00000000000E+00  0.00000000000E+00  0.14090097105E+04  0.28603651519E+04  0.24892529879E+04 0.  0.
        3    1    3    3  502    0 -0.62561077312E+03  0.45325111146E+03  0.18258322228E+04  0.19825460210E+04  0.10100000352E+00 0. -1.
       -3    1    3    3    0  502  0.62561077312E+03 -0.45325111146E+03 -0.41682251234E+03  0.87781913084E+03  0.10100000352E+00 0.  1.
</event>
<event>
 5   0  0.2159405E-05  0.2581368E+04  0.7818609E-02  0.8374558E-01
        1   -1    0    0  501    0  0.00000000000E+00  0.00000000000E+00  0.13881760749E+04  0.13881760749E+04  0.50400001928E-02 0. -1.
       -1   -1    0    0    0  501  0.00000000000E+00  0.00000000000E+00 -0.12000387386E+04  0.12000387386E+04  0.50400001928E-02 0.  1.
    10030    2    1    2    0    0  0.00000000000E+00  0.00000000000E+00  0.18813733626E+03  0.25882148135E+04  0.25813679055E+04 0.  0.
        3    1    3    3  502    0  0.59181012377E+03 -0.38114692361E+03  0.11787666247E+04  0.13729541018E+04  0.10100000352E+00 0. -1.
       -3    1    3    3    0  502 -0.59181012377E+03  0.38114692361E+03 -0.99062928849E+03  0.12152607117E+04  0.10100000352E+00 0.  1.
</event>
<event>
 5   0  0.1954502E-05  0.2581767E+04  0.7818609E-02  0.8374421E-01
        1   -1    0    0  501    0  0.00000000000E+00  0.00000000000E+00  0.21404915163E+04  0.21404915163E+04  0.50400001928E-02 0. -1.
       -1   -1    0    0    0  501  0.00000000000E+00  0.00000000000E+00 -0.77850354393E+03  0.77850354395E+03  0.50400001928E-02 0.  1.
    10030    2    1    2    0    0  0.00000000000E+00  0.00000000000E+00  0.13619879724E+04  0.29189950603E+04  0.25817670160E+04 0.  0.
        4    1    3    3  502    0  0.10640072140E+04  0.64879817841E+03  0.10616084511E+04  0.16370902676E+04  0.12699999809E+01 0.  1.
       -4    1    3    3    0  502 -0.10640072140E+04 -0.64879817841E+03  0.30037952125E+03  0.12819047927E+04  0.12699999809E+01 0. -1.
</event>
<event>
 5   0  0.5182179E-05  0.1641827E+04  0.7818609E-02  0.8795256E-01
       -2   -1    0    0    0  501  0.00000000000E+00  0.00000000000E+00  0.51274026594E+03  0.51274026594E+03  0.25500000920E-02 0.  1.
        2   -1    0    0  501    0  0.00000000000E+00  0.00000000000E+00 -0.13143092622E+04  0.13143092622E+04  0.25500000920E-02 0. -1.
    10030    2    1    2    0    0  0.00000000000E+00  0.00000000000E+00 -0.80156899629E+03  0.18270495282E+04  0.16418273730E+04 0.  0.
        3    1    3    3  502    0 -0.23309213628E+03 -0.22875048638E+03 -0.12389049913E+04  0.12812276600E+04  0.10100000352E+00 0. -1.
       -3    1    3    3    0  502  0.23309213628E+03  0.22875048638E+03  0.43733599504E+03  0.54582186817E+03  0.10100000352E+00 0.  1.
</event>
<event>
 5   0  0.5036452E-05  0.2620288E+04  0.7818609E-02  0.8361342E-01
       -2   -1    0    0    0  501  0.00000000000E+00  0.00000000000E+00  0.71414338836E+03  0.71414338836E+03  0.25500000920E-02 0.  1.
        2   -1    0    0  501    0  0.00000000000E+00  0.00000000000E+00 -0.24035471897E+04  0.24035471897E+04  0.25500000920E-02 0. -1.
    10030    2    1    2    0    0  0.00000000000E+00  0.00000000000E+00 -0.16894038013E+04  0.31176905780E+04  0.26202880255E+04 0.  0.
        2    1    3    3  502    0 -0.26906286529E+03  0.51252796915E+02  0.67969675169E+03  0.73280921728E+03  0.25500000920E-02 0.  1.
       -2    1    3    3    0  502  0.26906286529E+03 -0.51252796915E+02 -0.23691005530E+04  0.23848813608E+04  0.25500000920E-02 0. -1.
</event>
<event>
 5   0  0.2163800E-05  0.2587596E+04  0.7818609E-02  0.8372427E-01
        1   -1    0    0  501    0  0.00000000000E+00  0.00000000000E+00  0.21531432419E+04  0.21531432420E+04  0.50400001928E-02 0. -1.
       -1   -1    0    0    0  501  0.00000000000E+00  0.00000000000E+00 -0.77742801954E+03  0.77742801955E+03  0.50400001928E-02 0.  1.
    10030    2    1    2    0    0  0.00000000000E+00  0.00000000000E+00  0.13757152224E+04  0.29305712615E+04  0.25875964804E+04 0.  0.
        1    1    3    3  502    0  0.35792302654E+03 -0.16485090006E+03 -0.70780872728E+03  0.81010981146E+03  0.50400001928E-02 0.  1.
       -1    1    3    3    0  502 -0.35792302654E+03  0.16485090006E+03  0.20835239497E+04  0.21204614500E+04  0.50400001928E-02 0. -1.
</event>
<event>
 5   0  0.5170532E-05  0.2572699E+04  0.7818609E-02  0.8377534E-01
        2   -1    0    0  501    0  0.00000000000E+00  0.00000000000E+00  0.12542046089E+04  0.12542046089E+04  0.25500000920E-02 0. -1.
       -2   -1    0    0    0  501  0.00000000000E+00  0.00000000000E+00 -0.13193181508E+04  0.13193181508E+04  0.25500000920E-02 0.  1.
    10030    2    1    2    0    0  0.00000000000E+00  0.00000000000E+00 -0.65113541946E+02  0.25735227597E+04  0.25726988983E+04 0.  0.
        1    1    3    3  502    0 -0.36020135931E+03  0.11130020267E+04 -0.56768263460E+03  0.13003007745E+04  0.50400001928E-02 0.  1.
       -1    1    3    3    0  502  0.36020135931E+03 -0.11130020267E+04  0.50256909266E+03  0.12732219852E+04  0.50400001928E-02 0. -1.
</event>
<event>
 5   0  0.2072710E-05  0.1349834E+04  0.7818609E-02  0.8990954E-01
        1   -1    0    0  501    0  0.00000000000E+00  0.00000000000E+00  0.95361763429E+03  0.95361763431E+03  0.50400001928E-02 0. -1.
       -1   -1    0    0    0  501  0.00000000000E+00  0.00000000000E+00 -0.47766824530E+03  0.47766824533E+03  0.50400001928E-02 0.  1.
    10030    2    1    2    0    0  0.00000000000E+00  0.00000000000E+00  0.47594938899E+03  0.14312858796E+04  0.13498338595E+04 0.  0.
        2    1    3    3  502    0 -0.21188684557E+03  0.14906724353E+03 -0.42284552399E+03  0.49589859405E+03  0.25500000920E-02 0.  1.
       -2    1    3    3    0  502  0.21188684557E+03 -0.14906724353E+03  0.89879491298E+03  0.93538728558E+03  0.25500000920E-02 0. -1.
</event>
<event>
 5   0  0.4955675E-05  0.2577903E+04  0.7818609E-02  0.8375746E-01
       -2   -1    0    0    0  501  0.00000000000E+00  0.00000000000E+00  0.11487461494E+04  0.11487461494E+04  0.25500000920E-02 0.  1.
        2   -1    0    0  501    0  0.00000000000E+00  0.00000000000E+00 -0.14462695484E+04  0.14462695484E+04  0.25500000920E-02 0. -1.
    10030    2    1    2    0    0  0.00000000000E+00  0.00000000000E+00 -0.29752339900E+03  0.25950156977E+04  0.25779034696E+04 0.  0.
        5    1    3    3  502    0 -0.33043062710E+03 -0.10460727110E+04  0.53242957738E+03  0.12194079960E+04  0.46999998093E+01 0.  1.
       -5    1    3    3    0  502  0.33043062710E+03  0.10460727110E+04 -0.82995297638E+03  0.13756077017E+04  0.46999998093E+01 0. -1.
</event>
<event>
 5   0  0.2072710E-05  0.1843065E+04  0.7818609E-02  0.8683727E-01
        1   -1    0    0  501    0  0.00000000000E+00  0.00000000000E+00  0.69435049598E+03  0.69435049600E+03  0.50400001928E-02 0. -1.
       -1   -1    0    0    0  501  0.00000000000E+00  0.00000000000E+00 -0.12230453285E+04  0.12230453285E+04  0.50400001928E-02 0.  1.
    10030    2    1    2    0    0  0.00000000000E+00  0.00000000000E+00 -0.52869483254E+03  0.19173958245E+04  0.18430649804E+04 0.  0.
        2    1    3    3  502    0 -0.33376467143E+03  0.22373706501E+03  0.59841489581E+03  0.72080338352E+03  0.25500000920E-02 0. -1.
       -2    1    3    3    0  502  0.33376467143E+03 -0.22373706501E+03 -0.11271097283E+04  0.11965924410E+04  0.25500000920E-02 0.  1.
</event>
<event>
 5   0  0.2159405E-05  0.2644658E+04  0.7818609E-02  0.8353188E-01
       -1   -1    0    0    0  501  0.00000000000E+00  0.00000000000E+00  0.10904166853E+04  0.10904166853E+04  0.50400001928E-02 0. -1.
        1   -1    0    0  501    0  0.00000000000E+00  0.00000000000E+00 -0.16035650975E+04  0.16035650975E+04  0.50400001928E-02 0.  1.
    10030    2    1    2    0    0  0.00000000000E+00  0.00000000000E+00 -0.51314841222E+03  0.26939817829E+04  0.26446581166E+04 0.  0.
        3    1    3    3  502    0  0.83641454367E+03 -0.90131919370E+03 -0.75204947143E+03  0.14413687923E+04  0.10100000352E+00 0.  1.
       -3    1    3    3    0  502 -0.83641454367E+03  0.90131919370E+03  0.23890105921E+03  0.12526129905E+04  0.10100000352E+00 0. -1.
</event>
<event>
 5   0  0.1993815E-05  0.2631564E+04  0.7818609E-02  0.8357558E-01
       -1   -1    0    0    0  501  0.00000000000E+00  0.00000000000E+00  0.15536456593E+04  0.15536456593E+04  0.50400001928E-02 0. -1.
        1   -1    0    0  501    0  0.00000000000E+00  0.00000000000E+00 -0.11143354207E+04  0.11143354207E+04  0.50400001928E-02 0.  1.
    10030    2    1    2    0    0  0.00000000000E+00  0.00000000000E+00  0.43931023857E+03  0.26679810800E+04  0.26315640896E+04 0.  0.
        5    1    3    3  502    0 -0.32088893680E+03 -0.12093980351E+04 -0.19297465115E+03  0.12660468487E+04  0.46999998093E+01 0.  1.
       -5    1    3    3    0  502  0.32088893680E+03  0.12093980351E+04  0.63228488972E+03  0.14019342313E+04  0.46999998093E+01 0. -1.
</event>
<event>
 5   0  0.5170532E-05  0.2545460E+04  0.7818609E-02  0.8386967E-01
        2   -1    0    0  501    0  0.00000000000E+00  0.00000000000E+00  0.17210880726E+04  0.17210880726E+04  0.25500000920E-02 0. -1.
       -2   -1    0    0    0  501  0.00000000000E+00  0.00000000000E+00 -0.94117323165E+03  0.94117323165E+03  0.25500000920E-02 0.  1.
    10030    2    1    2    0    0  0.00000000000E+00  0.00000000000E+00  0.77991484099E+03  0.26622613043E+04  0.25454602910E+04 0.  0.
        1    1    3    3  502    0 -0.85245598074E+02 -0.12399083133E+04  0.67677168094E+03  0.14151534706E+04  0.50400001928E-02 0. -1.
       -1    1    3    3    0  502  0.85245598074E+02  0.12399083133E+04  0.10314316005E+03  0.12471078337E+04  0.50400001928E-02 0.  1.
</event>
<event>
 5   0  0.2159405E-05  0.2368555E+04  0.7818609E-02  0.8451371E-01
        1   -1    0    0  501    0  0.00000000000E+00  0.00000000000E+00  0.14064292255E+04  0.14064292255E+04  0.50400001928E-02 0. -1.
       -1   -1    0    0    0  501  0.00000000000E+00  0.00000000000E+00 -0.99721536910E+03  0.99721536911E+03  0.50400001928E-02 0.  1.
    10030    2    1    2    0    0  0.00000000000E+00  0.00000000000E+00  0.40921385642E+03  0.24036445946E+04  0.23685546979E+04 0.  0.
        3    1    3    3  502    0 -0.58744582706E+03  0.12377244620E+03  0.12405637619E+04  0.13781910883E+04  0.10100000352E+00 0. -1.
       -3    1    3    3    0  502  0.58744582706E+03 -0.12377244620E+03 -0.83134990550E+03  0.10254535064E+04  0.10100000352E+00 0.  1.
</event>
<event>
 5   0  0.5036452E-05  0.2564487E+04  0.7818609E-02  0.8380365E-01
       -2   -1    0    0    0  501  0.00000000000E+00  0.00000000000E+00  0.14788360425E+04  0.14788360425E+04  0.25500000920E-02 0. -1.
        2   -1    0    0  501    0  0.00000000000E+00  0.00000000000E+00 -0.11117857074E+04  0.11117857074E+04  0.25500000920E-02 0.  1.
    10030    2    1    2    0    0  0.00000000000E+00  0.00000000000E+00  0.36705033513E+03  0.25906217500E+04  0.25644872983E+04 0.  0.
        2    1    3    3  502    0 -0.85983523721E+03  0.68940498261E+03  0.84560717845E+03  0.13891174772E+04  0.25500000920E-02 0. -1.
       -2    1    3    3    0  502  0.85983523721E+03 -0.68940498261E+03 -0.47855684333E+03  0.12015042728E+04  0.25500000920E-02 0.  1.
</event>
<event>
 5   0  0.1954502E-05  0.2188216E+04  0.7818609E-02  0.8523349E-01
        1   -1    0    0  501    0  0.00000000000E+00  0.00000000000E+00  0.85798469226E+03  0.85798469227E+03  0.50400001928E-02 0. -1.
       -1   -1    0    0    0  501  0.00000000000E+00  0.00000000000E+00 -0.13952136128E+04  0.13952136128E+04  0.50400001928E-02 0.  1.
    10030    2    1    2    0    0  0.00000000000E+00  0.00000000000E+00 -0.53722892052E+03  0.22531983051E+04  0.21882156404E+04 0.  0.
        4    1    3    3  502    0  0.41462866111E+03 -0.66282633925E+03  0.51950019516E+03  0.93868937795E+03  0.12699999809E+01 0. -1.
       -4    1    3    3    0  502 -0.41462866111E+03  0.66282633925E+03 -0.10567291157E+04  0.13145089271E+04  0.12699999809E+01 0.  1.
</event>
<event>
 5   0  0.1993815E-05  0.1880583E+04  0.7818609E-02  0.8664582E-01
       -1   -1    0    0    0  501  0.00000000000E+00  0.00000000000E+00  0.11737939156E+04  0.11737939157E+04  0.50400001928E-02 0.  1.
        1   -1    0    0  501    0  0.00000000000E+00  0.00000000000E+00 -0.75323964122E+03  0.75323964123E+03  0.50400001928E-02 0. -1.
    10030    2    1    2    0    0  0.00000000000E+00  0.00000000000E+00  0.42055427443E+03  0.19270335569E+04  0.18805830031E+04 0.  0.
        5    1    3    3  502    0  0.12459762867E+03  0.51288789086E+03 -0.58711300857E+03  0.78949498573E+03  0.46999998093E+01 0. -1.
       -5    1    3    3    0  502 -0.12459762867E+03 -0.51288789086E+03  0.10076672830E+04  0.11375385712E+04  0.46999998093E+01 0.  1.
</event>
<event>
 5   0  0.4955675E-05  0.2600128E+04  0.7818609E-02  0.8368158E-01
        2   -1    0    0  501    0  0.00000000000E+00  0.00000000000E+00  0.24697139801E+04  0.24697139801E+04  0.25500000920E-02 0.  1.
       -2   -1    0    0    0  501  0.00000000000E+00  0.00000000000E+00 -0.68435740424E+03  0.68435740425E+03  0.25500000920E-02 0. -1.
    10030    2    1    2    0    0  0.00000000000E+00  0.00000000000E+00  0.17853565758E+04  0.31540713843E+04  0.26001284958E+04 0.  0.
        5    1    3    3  502    0  0.12695825006E+04 -0.96244472637E+02  0.12114164954E+04  0.17574568956E+04  0.46999998093E+01 0.  1.
       -5    1    3    3    0  502 -0.12695825006E+04  0.96244472637E+02  0.57394008041E+03  0.13966144888E+04  0.46999998093E+01 0. -1.
</event>
<event>
 5   0  0.1993815E-05  0.2680005E+04  0.7818609E-02  0.8341522E-01
        1   -1    0    0  501    0  0.00000000000E+00  0.00000000000E+00  0.17167533860E+04  0.17167533860E+04  0.50400001928E-02 0.  1.
       -1   -1    0    0    0  501  0.00000000000E+00  0.00000000000E+00 -0.10459315116E+04  0.10459315116E+04  0.50400001928E-02 0. -1.
    10030    2    1    2    0    0  0.00000000000E+00  0.00000000000E+00  0.67082187439E+03  0.27626848976E+04  0.26800048239E+04 0.  0.
        5    1    3    3  502    0  0.29910205577E+03 -0.48126699988E+03 -0.91634256635E+03  0.10773976767E+04  0.46999998093E+01 0. -1.
       -5    1    3    3    0  502 -0.29910205577E+03  0.48126699988E+03  0.15871644407E+04  0.16852872209E+04  0.46999998093E+01 0.  1.
</event>
<event>
 5   0  0.2072710E-05  0.2537785E+04  0.7818609E-02  0.8389647E-01
       -1   -1    0    0    0  501  0.00000000000E+00  0.00000000000E+00  0.10905598735E+04  0.10905598736E+04  0.50400001928E-02 0.  1.
        1   -1    0    0  501    0  0.00000000000E+00  0.00000000000E+00 -0.14763869557E+04  0.14763869557E+04  0.50400001928E-02 0. -1.
    10030    2    1    2    0    0  0.00000000000E+00  0.00000000000E+00 -0.38582708212E+03  0.25669468292E+04  0.25377851538E+04 0.  0.
        2    1    3    3  502    0 -0.24135708127E+03 -0.44221775568E+03 -0.13708896250E+04  0.14605300915E+04  0.25500000920E-02 0. -1.
       -2    1    3    3    0  502  0.24135708127E+03  0.44221775568E+03  0.98506254291E+03  0.11064167377E+04  0.25500000920E-02 0.  1.
</event>
<event>
 5   0  0.5170532E-05  0.2205454E+04  0.7818609E-02  0.8516161E-01
       -2   -1    0    0    0  501  0.00000000000E+00  0.00000000000E+00  0.49721457071E+03  0.49721457072E+03  0.25500000920E-02 0.  1.
        2   -1    0    0  501    0  0.00000000000E+00  0.00000000000E+00 -0.24456378521E+04  0.24456378521E+04  0.25500000920E-02 0. -1.
    10030    2    1    2    0    0  0.00000000000E+00  0.00000000000E+00 -0.19484232814E+04  0.29428524228E+04  0.22054539440E+04 0.  0.
        1    1    3    3  502    0 -0.40855804999E+03  0.25180317386E+03 -0.22989769901E+04  0.23485356543E+04  0.50400001928E-02 0. -1.
       -1    1    3    3    0  502  0.40855804999E+03 -0.25180317386E+03  0.35055370873E+03  0.59431676849E+03  0.50400001928E-02 0.  1.
</event>
<event>
 5   0  0.1954502E-05  0.2361043E+04  0.7818609E-02  0.8454234E-01
       -1   -1    0    0    0  501  0.00000000000E+00  0.00000000000E+00  0.96136331506E+03  0.96136331507E+03  0.50400001928E-02 0.  1.
        1   -1    0    0  501    0  0.00000000000E+00  0.00000000000E+00 -0.14496403899E+04  0.14496403899E+04  0.50400001928E-02 0. -1.
    10030    2    1    2    0    0  0.00000000000E+00  0.00000000000E+00 -0.48827707480E+03  0.24110037049E+04  0.23610430668E+04 0.  0.
        4    1    3    3  502    0 -0.80708634239E+01 -0.50577762647E+03  0.84508753107E+03  0.98491151600E+03  0.12699999809E+01 0.  1.
       -4    1    3    3    0  502  0.80708634239E+01  0.50577762647E+03 -0.13333646059E+04  0.14260921889E+04  0.12699999809E+01 0. -1.
</event>
<event>
 5   0  0.5170532E-05  0.2584463E+04  0.7818609E-02  0.8373498E-01
       -2   -1    0    0    0  501  0.00000000000E+00  0.00000000000E+00  0.22026818703E+04  0.22026818703E+04  0.25500000920E-02 0.  1.
        2   -1    0    0  501    0  0.00000000000E+00  0.00000000000E+00 -0.75810424680E+03  0.75810424680E+03  0.25500000920E-02 0. -1.
    10030    2    1    2    0    0  0.00000000000E+00  0.00000000000E+00  0.14445776235E+04  0.29607861171E+04  0.25844631785E+04 0.  0.
        1    1    3    3  502    0  0.53505847028E+03  0.42957893106E+03  0.19767376480E+04  0.20924429152E+04  0.50400001928E-02 0.  1.
       -1    1    3    3    0  502 -0.53505847028E+03 -0.42957893106E+03 -0.53216002444E+03  0.86834320189E+03  0.50400001928E-02 0. -1.
</event>
<event>
 5   0  0.5170532E-05  0.2369662E+04  0.7818609E-02  0.8450950E-01
        2   -1    0    0  501    0  0.00000000000E+00  0.00000000000E+00  0.11113097142E+04  0.11113097142E+04  0.25500000920E-02 0. -1.
       -2   -1    0    0    0  501  0.00000000000E+00  0.00000000000E+00 -0.12632158520E+04  0.12632158520E+04  0.25500000920E-02 0.  1.
    10030    2    1    2    0    0  0.00000000000E+00  0.00000000000E+00 -0.15190613778E+03  0.23745255662E+04  0.23696616193E+04 0.  0.
        1    1    3    3  502    0 -0.28183117612E+03  0.33284375256E+03 -0.11798540957E+04  0.12578829288E+04  0.50400001928E-02 0.  1.
       -1    1    3    3    0  502  0.28183117612E+03 -0.33284375256E+03  0.10279479579E+04  0.11166426374E+04  0.50400001928E-02 0. -1.
</event>
<event>
 5   0  0.1954502E-05  0.2572594E+04  0.7818609E-02  0.8377570E-01
       -1   -1    0    0    0  501  0.00000000000E+00  0.00000000000E+00  0.83502948791E+03  0.83502948792E+03  0.50400001928E-02 0. -1.
        1   -1    0    0  501    0  0.00000000000E+00  0.00000000000E+00 -0.19814390389E+04  0.19814390389E+04  0.50400001928E-02 0.  1.
    10030    2    1    2    0    0  0.00000000000E+00  0.00000000000E+00 -0.11464095510E+04  0.28164685269E+04  0.25725940418E+04 0.  0.
        4    1    3    3  502    0  0.71195259434E+02 -0.38925445732E+03 -0.19131445850E+04  0.19536406050E+04  0.12699999809E+01 0.  1.
       -4    1    3    3    0  502 -0.71195259434E+02  0.38925445732E+03  0.76673503398E+03  0.86282792186E+03  0.12699999809E+01 0. -1.
</event>
<event>
 5   0  0.1993815E-05  0.1329787E+04  0.7818609E-02  0.9006272E-01
        1   -1    0    0  501    0  0.00000000000E+00  0.00000000000E+00  0.36941656538E+03  0.36941656541E+03  0.50400001928E-02 0. -1.
       -1   -1    0    0    0  501  0.00000000000E+00  0.00000000000E+00 -0.11967065231E+04  0.11967065231E+04  0.50400001928E-02 0.  1.
    10030    2    1    2    0    0  0.00000000000E+00  0.00000000000E+00 -0.82728995769E+03  0.15661230885E+04  0.13297867702E+04 0.  0.
        5    1    3    3  502    0  0.53388581895E+03 -0.39424414521E+03 -0.36655644960E+03  0.75818746656E+03  0.46999998093E+01 0.  1.
       -5    1    3    3    0  502 -0.53388581895E+03  0.39424414521E+03 -0.46073350808E+03  0.80793562193E+03  0.46999998093E+01 0. -1.
</event>
<event>
 5   0  0.5049803E-05  0.2314233E+04  0.7818609E-02  0.8472330E-01
        2   -1    0    0  501    0  0.00000000000E+00  0.00000000000E+00  0.17634337215E+04  0.17634337215E+04  0.25500000920E-02 0. -1.
       -2   -1    0    0    0  501  0.00000000000E+00  0.00000000000E+00 -0.75926815197E+03  0.75926815197E+03  0.25500000920E-02 0.  1.
    10030    2    1    2    0    0  0.00000000000E+00  0.00000000000E+00  0.10041655696E+04  0.25227018735E+04  0.23142334047E+04 0.  0.
        4    1    3    3  502    0  0.66792758654E+03  0.25663878093E+03  0.14933535216E+04  0.16559278602E+04  0.12699999809E+01 0. -1.
       -4    1    3    3    0  502 -0.66792758654E+03 -0.25663878093E+03 -0.48918795208E+03  0.86677401328E+03  0.12699999809E+01 0.  1.
</event>
<event>
 5   0  0.1954502E-05  0.2603909E+04  0.7818609E-02  0.8366875E-01
       -1   -1    0    0    0  501  0.00000000000E+00  0.00000000000E+00  0.10560011507E+04  0.10560011507E+04  0.50400001928E-02 0.  1.
        1   -1    0    0  501    0  0.00000000000E+00  0.00000000000E+00 -0.16051926781E+04  0.16051926781E+04  0.50400001928E-02 0. -1.
    10030    2    1    2    0    0  0.00000000000E+00  0.00000000000E+00 -0.54919152747E+03  0.26611938288E+04  0.26039088426E+04 0.  0.
        4    1    3    3  502    0  0.26401747497E+03  0.12035833949E+04 -0.70428004625E+03  0.14192710143E+04  0.12699999809E+01 0. -1.
       -4    1    3    3    0  502 -0.26401747497E+03 -0.12035833949E+04  0.15508851878E+03  0.12419228145E+04  0.12699999809E+01 0.  1.
</event>
<event>
 5   0  0.2163800E-05  0.2626846E+04  0.7818609E-02  0.8359139E-01
        1   -1    0    0  501    0  0.00000000000E+00  0.00000000000E+00  0.15027796755E+04  0.15027796755E+04  0.50400001928E-02 0. -1.
       -1   -1    0    0    0  501  0.00000000000E+00  0.00000000000E+00 -0.11479258203E+04  0.11479258203E+04  0.50400001928E-02 0.  1.
    10030    2    1    2    0    0  0.00000000000E+00  0.00000000000E+00  0.35485385512E+03  0.26507054958E+04  0.26268457067E+04 0.  0.
        1    1    3    3  502    0 -0.76036527818E+03  0.83408616853E+03  0.85526077256E+03  0.14160953647E+04  0.50400001928E-02 0. -1.
       -1    1    3    3    0  502  0.76036527818E+03 -0.83408616853E+03 -0.50040691744E+03  0.12346101311E+04  0.50400001928E-02 0.  1.
</event>
<event>
 5   0  0.1993815E-05  0.2617155E+04  0.7818609E-02  0.8362397E-01
       -1   -1    0    0    0  501  0.00000000000E+00  0.00000000000E+00  0.10211020637E+04  0.10211020637E+04  0.50400001928E-02 0. -1.
        1   -1    0    0  501    0  0.00000000000E+00  0.00000000000E+00 -0.16769872589E+04  0.16769872589E+04  0.50400001928E-02 0.  1.
    10030    2    1    2    0    0  0.00000000000E+00  0.00000000000E+00 -0.65588519521E+03  0.26980893226E+04  0.26171550591E+04 0.  0.
        5    1    3    3  502    0  0.50527046902E+03 -0.11645512786E+04 -0.51224910518E+00  0.12694488094E+04  0.46999998093E+01 0. -1.
       -5    1    3    3    0  502 -0.50527046902E+03  0.11645512786E+04 -0.65537294610E+03  0.14286405131E+04  0.46999998093E+01 0.  1.
</event>
<event>
 5   0  0.5049803E-05  0.1667116E+04  0.7818609E-02  0.8780345E-01
        2   -1    0    0  501    0  0.00000000000E+00  0.00000000000E+00  0.11762326153E+04  0.11762326153E+04  0.25500000920E-02 0.  1.
       -2   -1    0    0    0  501  0.00000000000E+00  0.00000000000E+00 -0.59071536297E+03  0.59071536298E+03  0.25500000920E-02 0. -1.
    10030    2    1    2    0    0  0.00000000000E+00  0.00000000000E+00  0.58551725228E+03  0.17669479782E+04  0.16671156844E+04 0.  0.
        4    1    3    3  502    0 -0.13961169199E+02  0.56854810004E+03  0.93865742878E+03  0.10975068281E+04  0.12699999809E+01 0.  1.
       -4    1    3    3    0  502  0.13961169199E+02 -0.56854810004E+03 -0.35314017649E+03  0.66944115011E+03  0.12699999809E+01 0. -1.
</event>
<event>
 5   0  0.5036452E-05  0.2345944E+04  0.7818609E-02  0.8460023E-01
       -2   -1    0    0    0  501  0.00000000000E+00  0.00000000000E+00  0.10487813239E+04  0.10487813239E+04  0.25500000920E-02 0. -1.
        2   -1    0    0  501    0  0.00000000000E+00  0.00000000000E+00 -0.13118682140E+04  0.13118682140E+04  0.25500000920E-02 0.  1.
    10030    2    1    2    0    0  0.00000000000E+00  0.00000000000E+00 -0.26308689011E+03  0.23606495378E+04  0.23459436329E+04 0.  0.
        2    1    3    3  502    0 -0.10809091899E+03  0.45616959037E+03  0.95041228605E+03  0.10597442406E+04  0.25500000920E-02 0. -1.
       -2    1    3    3    0  502  0.10809091899E+03 -0.45616959037E+03 -0.12134991762E+04  0.13009052973E+04  0.25500000920E-02 0.  1.
</event>
<event>
 5   0  0.1993815E-05  0.2598966E+04  0.7818609E-02  0.8368553E-01
       -1   -1    0    0    0  501  0.00000000000E+00  0.00000000000E+00  0.78697478555E+03  0.78697478557E+03  0.50400001928E-02 0. -1.
        1   -1    0    0  501    0  0.00000000000E+00  0.00000000000E+00 -0.21457561856E+04  0.21457561856E+04  0.50400001928E-02 0.  1.
    10030    2    1    2    0    0  0.00000000000E+00  0.00000000000E+00 -0.13587814000E+04  0.29327309712E+04  0.25989659590E+04 0.  0.
        5    1    3    3  502    0 -0.91546997063E+03 -0.51255499304E+03 -0.15445572848E+04  0.18672110711E+04  0.46999998093E+01 0.  1.
       -5    1    3    3    0  502  0.91546997063E+03  0.51255499304E+03  0.18577588479E+03  0.10655199000E+04  0.46999998093E+01 0. -1.
</event>
<event>
 5   0  0.2163800E-05  0.1568072E+04  0.7818609E-02  0.8840406E-01
        1   -1    0    0  501    0  0.00000000000E+00  0.00000000000E+00  0.68715915304E+03  0.68715915306E+03  0.50400001928E-02 0. -1.
       -1   -1    0    0    0  501  0.00000000000E+00  0.00000000000E+00 -0.89457116557E+03  0.89457116558E+03  0.50400001928E-02 0.  1.
    10030    2    1    2    0    0  0.00000000000E+00  0.00000000000E+00 -0.20741201253E+03  0.15817303186E+04  0.15680724020E+04 0.  0.
        1    1    3    3  502    0  0.62869235373E+03  0.11711896390E+03  0.35383248385E+03  0.73086821931E+03  0.50400001928E-02 0. -1.
       -1    1    3    3    0  502 -0.62869235373E+03 -0.11711896390E+03 -0.56124449638E+03  0.85086209933E+03  0.50400001928E-02 0.  1.
</event>
<event>
 5   0  0.5182179E-05  0.2615075E+04  0.7818609E-02  0.8363099E-01
       -2   -1    0    0    0  501  0.00000000000E+00  0.00000000000E+00  0.15865454644E+04  0.15865454644E+04  0.25500000920E-02 0. -1.
        2   -1    0    0  501    0  0.00000000000E+00  0.00000000000E+00 -0.10775953133E+04  0.10775953133E+04  0.25500000920E-02 0.  1.
    10030    2    1    2    0    0  0.00000000000E+00  0.00000000000E+00  0.50895015105E+03  0.26641407777E+04  0.26150747269E+04 0.  0.
        3    1    3    3  502    0 -0.10539511338E+04  0.72042948343E+03 -0.33354370460E+02  0.12770842405E+04  0.10100000352E+00 0.  1.
       -3    1    3    3    0  502  0.10539511338E+04 -0.72042948343E+03  0.54230452151E+03  0.13870565372E+04  0.10100000352E+00 0. -1.
</event>
<event>
 5   0  0.5049803E-05  0.2581768E+04  0.7818609E-02  0.8374421E-01
        2   -1    0    0  501    0  0.00000000000E+00  0.00000000000E+00  0.10286506011E+04  0.10286506011E+04  0.25500000920E-02 0.  1.
       -2   -1    0    0    0  501  0.00000000000E+00  0.00000000000E+00 -0.16199683792E+04  0.16199683792E+04  0.25500000920E-02 0. -1.
    10030    2    1    2    0    0  0.00000000000E+00  0.00000000000E+00 -0.59131777807E+03  0.26486189803E+04  0.25817679578E+04 0.  0.
        4    1    3    3  502    0  0.54596855587E+03 -0.11216980715E+03  0.89884249682E+03  0.10576309265E+04  0.12699999809E+01 0.  1.
       -4    1    3    3    0  502 -0.54596855587E+03  0.11216980715E+03 -0.14901602749E+04  0.15909880538E+04  0.12699999809E+01 0. -1.
</event>
<event>
 5   0  0.5049803E-05  0.2583070E+04  0.7818609E-02  0.8373975E-01
        2   -1    0    0  501    0  0.00000000000E+00  0.00000000000E+00  0.25212531391E+04  0.25212531391E+04  0.25500000920E-02 0. -1.
       -2   -1    0    0    0  501  0.00000000000E+00  0.00000000000E+00 -0.66160053513E+03  0.66160053513E+03  0.25500000920E-02 0.  1.
    10030    2    1    2    0    0  0.00000000000E+00  0.00000000000E+00  0.18596526039E+04  0.31828536742E+04  0.25830698217E+04 0.  0.
        4    1    3    3  502    0 -0.11602968900E+04  0.19443904968E+03  0.27320761562E+03  0.12077828576E+04  0.12699999809E+01 0.  1.
       -4    1    3    3    0  502  0.11602968900E+04 -0.19443904968E+03  0.15864449883E+04  0.19750708166E+04  0.12699999809E+01 0. -1.
</event>
<event>
 5   0  0.2159405E-05  0.1383486E+04  0.7818609E-02  0.8965860E-01
        1   -1    0    0  501    0  0.00000000000E+00  0.00000000000E+00  0.41946625127E+03  0.41946625130E+03  0.50400001928E-02 0. -1.
       -1   -1    0    0    0  501  0.00000000000E+00  0.00000000000E+00 -0.11407557876E+04  0.11407557876E+04  0.50400001928E-02 0.  1.
    10030    2    1    2    0    0  0.00000000000E+00  0.00000000000E+00 -0.72128953632E+03  0.15602220389E+04  0.13834862542E+04 0.  0.
        3    1    3    3  502    0  0.27585004442E+02 -0.41685936387E+03 -0.98241671458E+03  0.10675557470E+04  0.10100000352E+00 0.  1.
       -3    1    3    3    0  502 -0.27585004442E+02  0.41685936387E+03  0.26112717826E+03  0.49266629187E+03  0.10100000352E+00 0. -1.
</event>
<event>
 5   0  0.1993815E-05  0.2570567E+04  0.7818609E-02  0.8378268E-01
        1   -1    0    0  501    0  0.00000000000E+00  0.00000000000E+00  0.11685672152E+04  0.11685672152E+04  0.50400001928E-02 0.  1.
       -1   -1    0    0    0  501  0.00000000000E+00  0.00000000000E+00 -0.14136578008E+04  0.14136578008E+04  0.50400001928E-02 0. -1.
    10030    2    1    2    0    0  0.00000000000E+00  0.00000000000E+00 -0.24509058567E+03  0.25822250160E+04  0.25705673767E+04 0.  0.
        5    1    3    3  502    0  0.13322462271E+03 -0.11384370696E+04  0.46159361346E+03  0.12356692582E+04  0.46999998093E+01 0.  1.
       -5    1    3    3    0  502 -0.13322462271E+03  0.11384370696E+04 -0.70668419912E+03  0.13465557578E+04  0.46999998093E+01 0. -1.
</event>
<event>
 5   0  0.2159405E-05  0.1386936E+04  0.7818609E-02  0.8963330E-01
        1   -1    0    0  501    0  0.00000000000E+00  0.00000000000E+00  0.10780899422E+04  0.10780899422E+04  0.50400001928E-02 0.  1.
       -1   -1    0    0    0  501  0.00000000000E+00  0.00000000000E+00 -0.44606451185E+03  0.44606451187E+03  0.50400001928E-02 0. -1.
    10030    2    1    2    0    0  0.00000000000E+00  0.00000000000E+00  0.63202543039E+03  0.15241544541E+04  0.13869357070E+04 0.  0.
        3    1    3    3  502    0 -0.32365020874E+03  0.37290568111E+03  0.85110520498E+03  0.98396554044E+03  0.10100000352E+00 0.  1.
       -3    1    3    3    0  502  0.32365020874E+03 -0.37290568111E+03 -0.21907977459E+03  0.54018891368E+03  0.10100000352E+00 0. -1.
</event>
<event>
 5   0  0.2072710E-05  0.2399588E+04  0.7818609E-02  0.8439658E-01
        1   -1    0    0  501    0  0.00000000000E+00  0.00000000000E+00  0.89615333988E+03  0.89615333990E+03  0.50400001928E-02 0.  1.
       -1   -1    0    0    0  501  0.00000000000E+00  0.00000000000E+00 -0.16063164367E+04  0.16063164367E+04  0.50400001928E-02 0. -1.
    10030    2    1    2    0    0  0.00000000000E+00  0.00000000000E+00 -0.71016309685E+03  0.25024697766E+04  0.23995881644E+04 0.  0.
        2    1    3    3  502    0 -0.10505974308E+04  0.10088712270E+02 -0.95927340962E+03  0.14226954059E+04  0.25500000920E-02 0. -1.
       -2    1    3    3    0  502  0.10505974308E+04 -0.10088712270E+02  0.24911031277E+03  0.10797743707E+04  0.25500000920E-02 0.  1.
</event>
<event>
 5   0  0.5182179E-05  0.2459695E+04  0.7818609E-02  0.8417487E-01
       -2   -1    0    0    0  501  0.00000000000E+00  0.00000000000E+00  0.72649569356E+03  0.72649569357E+03  0.25500000920E-02 0.  1.
        2   -1    0    0  501    0  0.00000000000E+00  0.00000000000E+00 -0.20819461232E+04  0.20819461232E+04  0.25500000920E-02 0. -1.
    10030    2    1    2    0    0  0.00000000000E+00  0.00000000000E+00 -0.13554504296E+04  0.28084418168E+04  0.24596950159E+04 0.  0.
        3    1    3    3  502    0  0.78427585852E+03  0.77552429892E+03 -0.56529009092E+02  0.11044102949E+04  0.10100000352E+00 0.  1.
       -3    1    3    3    0  502 -0.78427585852E+03 -0.77552429892E+03 -0.12989214206E+04  0.17040315218E+04  0.10100000352E+00 0. -1.
</event>
<event>
 5   0  0.5182179E-05  0.2577171E+04  0.7818609E-02  0.8375997E-01
        2   -1    0    0  501    0  0.00000000000E+00  0.00000000000E+00  0.10429221899E+04  0.10429221899E+04  0.25500000920E-02 0. -1.
       -2   -1    0    0    0  501  0.00000000000E+00  0.00000000000E+00 -0.15921159481E+04  0.15921159481E+04  0.25500000920E-02 0.  1.
    10030    2    1    2    0    0  0.00000000000E+00  0.00000000000E+00 -0.54919375815E+03  0.26350381380E+04  0.25771713573E+04 0.  0.
        3    1    3    3  502    0 -0.66313549539E+03 -0.43808216303E+03 -0.13116634452E+04  0.15336641322E+04  0.10100000352E+00 0.  1.
       -3    1    3    3    0  502  0.66313549539E+03  0.43808216303E+03  0.76246968704E+03  0.11013740058E+04  0.10100000352E+00 0. -1.
</event>
<event>
 5   0  0.1993815E-05  0.1974761E+04  0.7818609E-02  0.8618512E-01
        1   -1    0    0  501    0  0.00000000000E+00  0.00000000000E+00  0.23487924844E+04  0.23487924844E+04  0.50400001928E-02 0.  1.
       -1   -1    0    0    0  501  0.00000000000E+00  0.00000000000E+00 -0.41507303432E+03  0.41507303435E+03  0.50400001928E-02 0. -1.
    10030    2    1    2    0    0  0.00000000000E+00  0.00000000000E+00  0.19337194501E+04  0.27638655188E+04  0.19747611740E+04 0.  0.
        5    1    3    3  502    0  0.27665232105E+03 -0.12745252708E+03 -0.34765541106E+03  0.46224130954E+03  0.46999998093E+01 0. -1.
       -5    1    3    3    0  502 -0.27665232105E+03  0.12745252708E+03  0.22813748612E+04  0.23016242092E+04  0.46999998093E+01 0.  1.
</event>
<event>
 5   0  0.5036452E-05  0.2348656E+04  0.7818609E-02  0.8458980E-01
        2   -1    0    0  501    0  0.00000000000E+00  0.00000000000E+00  0.16675768268E+04  0.16675768268E+04  0.25500000920E-02 0.  1.
       -2   -1    0    0    0  501  0.00000000000E+00  0.00000000000E+00 -0.82697606567E+03  0.82697606568E+03  0.25500000920E-02 0. -1.
    10030    2    1    2    0    0  0.00000000000E+00  0.00000000000E+00  0.84060076109E+03  0.24945528924E+04  0.23486558909E+04 0.  0.
        2    1    3    3  502    0 -0.64151508500E+03 -0.94882975533E+03  0.69568770445E+03  0.13400749572E+04  0.25500000920E-02 0.  1.
       -2    1    3    3    0  502  0.64151508500E+03  0.94882975533E+03  0.14491305663E+03  0.11544779352E+04  0.25500000920E-02 0. -1.
</event>
<event>
 5   0  0.5170532E-05  0.2629593E+04  0.7818609E-02  0.8358218E-01
       -2   -1    0    0    0  501  0.00000000000E+00  0.00000000000E+00  0.94361364428E+03  0.94361364428E+03  0.25500000920E-02 0. -1.
        2   -1    0    0  501    0  0.00000000000E+00  0.00000000000E+00 -0.18319887213E+04  0.18319887213E+04  0.25500000920E-02 0.  1.
    10030    2    1    2    0    0  0.00000000000E+00  0.00000000000E+00 -0.88837507704E+03  0.27756023656E+04  0.26295927849E+04 0.  0.
        1    1    3    3  502    0 -0.42421070398E+02  0.13141097664E+04 -0.44170574719E+03  0.13870068466E+04  0.50400001928E-02 0.  1.
       -1    1    3    3    0  502  0.42421070398E+02 -0.13141097664E+04 -0.44666932985E+03  0.13885955190E+04  0.50400001928E-02 0. -1.
</event>
<event>
 5   0  0.5049803E-05  0.2616283E+04  0.7818609E-02  0.8362691E-01
       -2   -1    0    0    0  501  0.00000000000E+00  0.00000000000E+00  0.29625326138E+04  0.29625326138E+04  0.25500000920E-02 0. -1.
        2   -1    0    0  501    0  0.00000000000E+00  0.00000000000E+00 -0.57762559421E+03  0.57762559422E+03  0.25500000920E-02 0.  1.
    10030    2    1    2    0    0  0.00000000000E+00  0.00000000000E+00  0.23849070196E+04  0.35401582080E+04  0.26162833649E+04 0.  0.
        4    1    3    3  502    0  0.73206729804E+03  0.88494236545E+03  0.20398463322E+04  0.23409442947E+04  0.12699999809E+01 0. -1.
       -4    1    3    3    0  502 -0.73206729804E+03 -0.88494236545E+03  0.34506068740E+03  0.11992139133E+04  0.12699999809E+01 0.  1.
</event>
<event>
 5   0  0.1993815E-05  0.2603275E+04  0.7818609E-02  0.8367090E-01
       -1   -1    0    0    0  501  0.00000000000E+00  0.00000000000E+00  0.87087907279E+03  0.87087907280E+03  0.50400001928E-02 0.  1.
        1   -1    0    0  501    0  0.00000000000E+00  0.00000000000E+00 -0.19454600354E+04  0.19454600354E+04  0.50400001928E-02 0. -1.
    10030    2    1    2    0    0  0.00000000000E+00  0.00000000000E+00 -0.10745809626E+04  0.28163391082E+04  0.26032751924E+04 0.  0.
        5    1    3    3  502    0  0.60512904994E+03 -0.11343878928E+04 -0.75693765567E+03  0.14919764619E+04  0.46999998093E+01 0. -1.
       -5    1    3    3    0  502 -0.60512904994E+03  0.11343878928E+04 -0.31764330695E+03  0.13243626463E+04  0.46999998093E+01 0.  1.
</event>
<event>
 5   0  0.5170532E-05  0.2234216E+04  0.7818609E-02  0.8504320E-01
        2   -1    0    0  501    0  0.00000000000E+00  0.00000000000E+00  0.16374988710E+04  0.16374988710E+04  0.25500000920E-02 0.  1.
       -2   -1    0    0    0  501  0.00000000000E+00  0.00000000000E+00 -0.76209544386E+03  0.76209544386E+03  0.25500000920E-02 0. -1.
    10030    2    1    2    0    0  0.00000000000E+00  0.00000000000E+00  0.87540342714E+03  0.23995943149E+04  0.22342161300E+04 0.  0.
        1    1    3    3  502    0 -0.11759944855E+03 -0.66704489478E+03  0.13917996281E+04  0.15478645699E+04  0.50400001928E-02 0.  1.
       -1    1    3    3    0  502  0.11759944855E+03  0.66704489478E+03 -0.51639620100E+03  0.85172974492E+03  0.50400001928E-02 0. -1.
</event>
<event>
 5   0  0.4955675E-05  0.2522489E+04  0.7818609E-02  0.8395017E-01
        2   -1    0    0  501    0  0.00000000000E+00  0.00000000000E+00  0.14867909262E+04  0.14867909262E+04  0.25500000920E-02 0.  1.
       -2   -1    0    0    0  501  0.00000000000E+00  0.00000000000E+00 -0.10699137640E+04  0.10699137640E+04  0.25500000920E-02 0. -1.
    10030    2    1    2    0    0  0.00000000000E+00  0.00000000000E+00  0.41687716219E+03  0.25567046901E+04  0.25224893070E+04 0.  0.
        5    1    3    3  502    0  0.14251794551E+03 -0.18673993687E+03  0.14644129755E+04  0.14831421447E+04  0.46999998093E+01 0.  1.
       -5    1    3    3    0  502 -0.14251794551E+03  0.18673993687E+03 -0.10475358133E+04  0.10735625454E+04  0.46999998093E+01 0. -1.
</event>
<event>
 5   0  0.1954502E-05  0.2454045E+04  0.7818609E-02  0.8419542E-01
        1   -1    0    0  501    0  0.00000000000E+00  0.00000000000E+00  0.14458106556E+04  0.14458106556E+04  0.50400001928E-02 0.  1.
       -1   -1    0    0    0  501  0.00000000000E+00  0.00000000000E+00 -0.10413429944E+04  0.10413429944E+04  0.50400001928E-02 0. -1.
    10030    2    1    2    0    0  0.00000000000E+00  0.00000000000E+00  0.40446766119E+03  0.24871536500E+04  0.24540454742E+04 0.  0.
        4    1    3    3  502    0 -0.21351040979E+03 -0.47811461249E+03  0.13268908465E+04  0.14264715942E+04  0.12699999809E+01 0.  1.
       -4    1    3    3    0  502  0.21351040979E+03  0.47811461249E+03 -0.92242318527E+03  0.10606820557E+04  0.12699999809E+01 0. -1.
</event>
<event>
 5   0  0.4955675E-05  0.2617467E+04  0.7818609E-02  0.8362292E-01
        2   -1    0    0  501    0  0.00000000000E+00  0.00000000000E+00  0.11189893953E+04  0.11189893953E+04  0.25500000920E-02 0. -1.
       -2   -1    0    0    0  501  0.00000000000E+00  0.00000000000E+00 -0.15306517117E+04  0.15306517117E+04  0.25500000920E-02 0.  1.
    10030    2    1    2    0    0  0.00000000000E+00  0.00000000000E+00 -0.41166231644E+03  0.26496411070E+04  0.26174667397E+04 0.  0.
        5    1    3    3  502    0 -0.60718865808E+03 -0.85216516088E+03  0.58989579772E+03  0.12011921870E+04  0.46999998093E+01 0. -1.
       -5    1    3    3    0  502  0.60718865808E+03  0.85216516088E+03 -0.10015581142E+04  0.14484489200E+04  0.46999998093E+01 0.  1.
</event>
<event>
 5   0  0.5036452E-05  0.2399172E+04  0.7818609E-02  0.8439814E-01
       -2   -1    0    0    0  501  0.00000000000E+00  0.00000000000E+00  0.13138594019E+04  0.13138594019E+04  0.25500000920E-02 0. -1.
        2   -1    0    0  501    0  0.00000000000E+00  0.00000000000E+00 -0.10952516330E+04  0.10952516330E+04  0.25500000920E-02 0.  1.
    10030    2    1    2    0    0  0.00000000000E+00  0.00000000000E+00  0.21860776888E+03  0.24091110349E+04  0.23991720701E+04 0.  0.
        2    1    3    3  502    0  0.10712106755E+04  0.46899883124E+03  0.37790865096E+03  0.12289292752E+04  0.25500000920E-02 0.  1.
       -2    1    3    3    0  502 -0.10712106755E+04 -0.46899883124E+03 -0.15930088208E+03  0.11801817597E+04  0.25500000920E-02 0. -1.
</event>
<event>
 5   0  0.5036452E-05  0.2621061E+04  0.7818609E-02  0.8361082E-01
        2   -1    0    0  501    0  0.00000000000E+00  0.00000000000E+00  0.12671762438E+04  0.12671762438E+04  0.25500000920E-02 0.  1.
       -2   -1    0    0    0  501  0.00000000000E+00  0.00000000000E+00 -0.13553677207E+04  0.13553677207E+04  0.25500000920E-02 0. -1.
    10030    2    1    2    0    0  0.00000000000E+00  0.00000000000E+00 -0.88191476825E+02  0.26225439645E+04  0.26210606840E+04 0.  0.
        2    1    3    3  502    0 -0.63200630149E+03  0.11208943898E+04  0.20434616491E+03  0.13029173241E+04  0.25500000920E-02 0.  1.
       -2    1    3    3    0  502  0.63200630149E+03 -0.11208943898E+04 -0.29253764173E+03  0.13196266404E+04  0.25500000920E-02 0. -1.
</event>
<event>
 5   0  0.2159405E-05  0.2590621E+04  0.7818609E-02  0.8371394E-01
        1   -1    0    0  501    0  0.00000000000E+00  0.00000000000E+00  0.12245533587E+04  0.12245533587E+04  0.50400001928E-02 0. -1.
       -1   -1    0    0    0  501  0.00000000000E+00  0.00000000000E+00 -0.13701564784E+04  0.13701564784E+04  0.50400001928E-02 0.  1.
    10030    2    1    2    0    0  0.00000000000E+00  0.00000000000E+00 -0.14560311977E+03  0.25947098371E+04  0.25906213290E+04 0.  0.
        3    1    3    3  502    0  0.59532366798E+03  0.11017960205E+03 -0.12197200715E+04  0.13617146828E+04  0.10100000352E+00 0.  1.
       -3    1    3    3    0  502 -0.59532366798E+03 -0.11017960205E+03  0.10741169517E+04  0.12329951543E+04  0.10100000352E+00 0. -1.
</event>
<event>
 5   0  0.2072710E-05  0.2503317E+04  0.7818609E-02  0.8401805E-01
        1   -1    0    0  501    0  0.00000000000E+00  0.00000000000E+00  0.10700305523E+04  0.10700305523E+04  0.50400001928E-02 0. -1.
       -1   -1    0    0    0  501  0.00000000000E+00  0.00000000000E+00 -0.14641162154E+04  0.14641162154E+04  0.50400001928E-02 0.  1.
    10030    2    1    2    0    0  0.00000000000E+00  0.00000000000E+00 -0.39408566315E+03  0.25341467677E+04  0.25033170655E+04 0.  0.
        2    1    3    3  502    0  0.80489084476E+03 -0.63669955522E+03 -0.92239604671E+03  0.13798732053E+04  0.25500000920E-02 0.  1.
       -2    1    3    3    0  502 -0.80489084476E+03  0.63669955522E+03  0.52831038356E+03  0.11542735625E+04  0.25500000920E-02 0. -1.
</event>
<event>
 5   0  0.5170532E-05  0.2643561E+04  0.7818609E-02  0.8353553E-01
       -2   -1    0    0    0  501  0.00000000000E+00  0.00000000000E+00  0.11250447197E+04  0.11250447197E+04  0.25500000920E-02 0. -1.
        2   -1    0    0  501    0  0.00000000000E+00  0.00000000000E+00 -0.15529193698E+04  0.15529193698E+04  0.25500000920E-02 0.  1.
    10030    2    1    2    0    0  0.00000000000E+00  0.00000000000E+00 -0.42787465009E+03  0.26779640894E+04  0.26435610354E+04 0.  0.
        1    1    3    3  502    0 -0.12580694914E+04  0.22518966588E+03  0.12757685184E+03  0.12844162425E+04  0.50400001928E-02 0. -1.
       -1    1    3    3    0  502  0.12580694914E+04 -0.22518966588E+03 -0.55545150193E+03  0.13935478470E+04  0.50400001928E-02 0.  1.
</event>
<event>
 5   0  0.2072710E-05  0.1631943E+04  0.7818609E-02  0.8801161E-01
        1   -1    0    0  501    0  0.00000000000E+00  0.00000000000E+00  0.17875698267E+04  0.17875698267E+04  0.50400001928E-02 0.  1.
       -1   -1    0    0    0  501  0.00000000000E+00  0.00000000000E+00 -0.37246609628E+03  0.37246609632E+03  0.50400001928E-02 0. -1.
    10030    2    1    2    0    0  0.00000000000E+00  0.00000000000E+00  0.14151037304E+04  0.21600359230E+04  0.16319425912E+04 0.  0.
        2    1    3    3  502    0  0.73519408979E+03  0.34381073433E+03  0.59607863071E+03  0.10069885326E+04  0.25500000920E-02 0.  1.
       -2    1    3    3    0  502 -0.73519408979E+03 -0.34381073433E+03  0.81902509970E+03  0.11530473905E+04  0.25500000920E-02 0. -1.
</event>
<event>
 5   0  0.1993815E-05  0.2568779E+04  0.7818609E-02  0.8378884E-01
        1   -1    0    0  501    0  0.00000000000E+00  0.00000000000E+00  0.14915336085E+04  0.14915336085E+04  0.50400001928E-02 0.  1.
       -1   -1    0    0    0  501  0.00000000000E+00  0.00000000000E+00 -0.11060135035E+04  0.11060135035E+04  0.50400001928E-02 0. -1.
    10030    2    1    2    0    0  0.00000000000E+00  0.00000000000E+00  0.38552010503E+03  0.25975471120E+04  0.25687789409E+04 0.  0.
        5    1    3    3  502    0 -0.25767639962E+03 -0.11178777578E+04 -0.39127764225E+03  0.12120924435E+04  0.46999998093E+01 0. -1.
       -5    1    3    3    0  502  0.25767639962E+03  0.11178777578E+04  0.77679774728E+03  0.13854546685E+04  0.46999998093E+01 0.  1.
</event>
<event>
 5   0  0.4955675E-05  0.2628796E+04  0.7818609E-02  0.8358485E-01
       -2   -1    0    0    0  501  0.00000000000E+00  0.00000000000E+00  0.15140022027E+04  0.15140022027E+04  0.25500000920E-02 0.  1.
        2   -1    0    0  501    0  0.00000000000E+00  0.00000000000E+00 -0.11411095900E+04  0.11411095900E+04  0.25500000920E-02 0. -1.
    10030    2    1    2    0    0  0.00000000000E+00  0.00000000000E+00  0.37289261274E+03  0.26551117927E+04  0.26287962513E+04 0.  0.
        5    1    3    3  502    0 -0.76756623305E+03  0.10159228252E+04 -0.14295221955E+03  0.12812940865E+04  0.46999998093E+01 0. -1.
       -5    1    3    3    0  502  0.76756623305E+03 -0.10159228252E+04  0.51584483229E+03  0.13738177062E+04  0.46999998093E+01 0.  1.
</event>
<event>
 5   0  0.2072710E-05  0.2434649E+04  0.7818609E-02  0.8426644E-01
       -1   -1    0    0    0  501  0.00000000000E+00  0.00000000000E+00  0.79079331884E+03  0.79079331885E+03  0.50400001928E-02 0.  1.
        1   -1    0    0  501    0  0.00000000000E+00  0.00000000000E+00 -0.18739137415E+04  0.18739137415E+04  0.50400001928E-02 0. -1.
    10030    2    1    2    0    0  0.00000000000E+00  0.00000000000E+00 -0.10831204227E+04  0.26647070604E+04  0.24346486128E+04 0.  0.
        2    1    3    3  502    0  0.44436038154E+03 -0.10359650839E+02 -0.17819236605E+04  0.18365226388E+04  0.25500000920E-02 0. -1.
       -2    1    3    3    0  502 -0.44436038154E+03  0.10359650839E+02  0.69880323777E+03  0.82818442160E+03  0.25500000920E-02 0.  1.
</event>
<event>
 5   0  0.2159405E-05  0.2650029E+04  0.7818609E-02  0.8351403E-01
        1   -1    0    0  501    0  0.00000000000E+00  0.00000000000E+00  0.15655979318E+04  0.15655979318E+04  0.50400001928E-02 0.  1.
       -1   -1    0    0    0  501  0.00000000000E+00  0.00000000000E+00 -0.11214011600E+04  0.11214011600E+04  0.50400001928E-02 0. -1.
    10030    2    1    2    0    0  0.00000000000E+00  0.00000000000E+00  0.44419677179E+03  0.26869990917E+04  0.26500289332E+04 0.  0.
        3    1    3    3  502    0  0.43625494835E+03  0.87051184933E+02  0.14876158972E+04  0.15527064618E+04  0.10100000352E+00 0.  1.
       -3    1    3    3    0  502 -0.43625494835E+03 -0.87051184933E+02 -0.10434191254E+04  0.11342926299E+04  0.10100000352E+00 0. -1.
</event>
<event>
 5   0  0.1993815E-05  0.2793529E+04  0.7818609E-02  0.8305280E-01
       -1   -1    0    0    0  501  0.00000000000E+00  0.00000000000E+00  0.15940127367E+04  0.15940127367E+04  0.50400001928E-02 0.  1.
        1   -1    0    0  501    0  0.00000000000E+00  0.00000000000E+00 -0.12239247169E+04  0.12239247169E+04  0.50400001928E-02 0. -1.
    10030    2    1    2    0    0  0.00000000000E+00  0.00000000000E+00  0.37008801977E+03  0.28179374536E+04  0.27935293716E+04 0.  0.
        5    1    3    3  502    0 -0.18971382846E+03 -0.55104132937E+03  0.14655015469E+04  0.15771349839E+04  0.46999998093E+01 0.  1.
       -5    1    3    3    0  502  0.18971382846E+03  0.55104132937E+03 -0.10954135272E+04  0.12408024697E+04  0.46999998093E+01 0. -1.
</event>
<event>
 5   0  0.5036452E-05  0.2566502E+04  0.7818609E-02  0.8379670E-01
        2   -1    0    0  501    0  0.00000000000E+00  0.00000000000E+00  0.17001946733E+04  0.17001946733E+04  0.25500000920E-02 0.  1.
       -2   -1    0    0    0  501  0.00000000000E+00  0.00000000000E+00 -0.96855565611E+03  0.96855565611E+03  0.25500000920E-02 0. -1.
    10030    2    1    2    0    0  0.00000000000E+00  0.00000000000E+00  0.73163901718E+03  0.26687503294E+04  0.25665020298E+04 0.  0.
        2    1    3    3  502    0  0.34644576533E+03 -0.11584065520E+04 -0.81193909322E+02  0.12118262495E+04  0.25500000920E-02 0. -1.
       -2    1    3    3    0  502 -0.34644576533E+03  0.11584065520E+04  0.81283292650E+03  0.14569240799E+04  0.25500000920E-02 0.  1.
</event>
<event>
 5   0  0.5182179E-05  0.2414133E+04  0.7818609E-02  0.8434231E-01
       -2   -1    0    0    0  501  0.00000000000E+00  0.00000000000E+00  0.58959114790E+03  0.58959114791E+03  0.25500000920E-02 0. -1.
        2   -1    0    0  501    0  0.00000000000E+00  0.00000000000E+00 -0.24712202895E+04  0.24712202895E+04  0.25500000920E-02 0.  1.
    10030    2    1    2    0    0  0.00000000000E+00  0.00000000000E+00 -0.18816291416E+04  0.30608114374E+04  0.24141330595E+04 0.  0.
        3    1    3    3  502    0  0.61636580962E+02 -0.11838280627E+04 -0.12292704634E+04  0.17077335368E+04  0.10100000352E+00 0.  1.
       -3    1    3    3    0  502 -0.61636580962E+02  0.11838280627E+04 -0.65235867816E+03  0.13530779007E+04  0.10100000352E+00 0. -1.
</event>
<event>
 5   0  0.2159405E-05  0.2568877E+04  0.7818609E-02  0.8378850E-01
        1   -1    0    0  501    0  0.00000000000E+00  0.00000000000E+00  0.10294571481E+04  0.10294571481E+04  0.50400001928E-02 0. -1.
       -1   -1    0    0    0  501  0.00000000000E+00  0.00000000000E+00 -0.16025751634E+04  0.16025751634E+04  0.50400001928E-02 0.  1.
    10030    2    1    2    0    0  0.00000000000E+00  0.00000000000E+00 -0.57311801525E+03  0.26320323115E+04  0.25688771535E+04 0.  0.
        3    1    3    3  502    0  0.10052026269E+04  0.71763507408E+03 -0.64786138671E+03  0.13946887851E+04  0.10100000352E+00 0. -1.
       -3    1    3    3    0  502 -0.10052026269E+04 -0.71763507408E+03  0.74743371463E+02  0.12373435264E+04  0.10100000352E+00 0.  1.
</event>
<event>
 5   0  0.5170532E-05  0.1641844E+04  0.7818609E-02  0.8795246E-01
       -2   -1    0    0    0  501  0.00000000000E+00  0.00000000000E+00  0.36978139919E+03  0.36978139920E+03  0.25500000920E-02 0.  1.
        2   -1    0    0  501    0  0.00000000000E+00  0.00000000000E+00 -0.18224636162E+04  0.18224636162E+04  0.25500000920E-02 0. -1.
    10030    2    1    2    0    0  0.00000000000E+00  0.00000000000E+00 -0.14526822170E+04  0.21922450154E+04  0.16418442630E+04 0.  0.
        1    1    3    3  502    0 -0.77387270203E+03  0.78315834831E+02 -0.37585620407E+03  0.86387511545E+03  0.50400001928E-02 0.  1.
       -1    1    3    3    0  502  0.77387270203E+03 -0.78315834831E+02 -0.10768260129E+04  0.13283699000E+04  0.50400001928E-02 0. -1.
</event>
<event>
 5   0  0.5170532E-05  0.2524468E+04  0.7818609E-02  0.8394320E-01
        2   -1    0    0  501    0  0.00000000000E+00  0.00000000000E+00  0.24382701959E+04  0.24382701959E+04  0.25500000920E-02 0.  1.
       -2   -1    0    0    0  501  0.00000000000E+00  0.00000000000E+00 -0.65342851700E+03  0.65342851700E+03  0.25500000920E-02 0. -1.
    10030    2    1    2    0    0  0.00000000000E+00  0.00000000000E+00  0.17848416789E+04  0.30916987129E+04  0.25244684812E+04 0.  0.
        1    1    3    3  502    0  0.19756288442E+03 -0.10908043062E+04  0.16316629341E+04  0.19726147770E+04  0.50400001928E-02 0.  1.
       -1    1    3    3    0  502 -0.19756288442E+03  0.10908043062E+04  0.15317874479E+03  0.11190839359E+04  0.50400001928E-02 0. -1.
</event>
<event>
 5   0  0.4955675E-05  0.2630004E+04  0.7818609E-02  0.8358081E-01
       -2   -1    0    0    0  501  0.00000000000E+00  0.00000000000E+00  0.10299121007E+04  0.10299121007E+04  0.25500000920E-02 0. -1.
        2   -1    0    0  501    0  0.00000000000E+00  0.00000000000E+00 -0.16790070429E+04  0.16790070429E+04  0.25500000920E-02 0.  1.
    10030    2    1    2    0    0  0.00000000000E+00  0.00000000000E+00 -0.64909494216E+03  0.27089191436E+04  0.26300035518E+04 0.  0.
        5    1    3    3  502    0 -0.44340647616E+03  0.11692250965E+04 -0.74358514923E+03  0.14548668645E+04  0.46999998093E+01 0. -1.
       -5    1    3    3    0  502  0.44340647616E+03 -0.11692250965E+04  0.94490207066E+02  0.12540522791E+04  0.46999998093E+01 0.  1.
</event>
<event>
 5   0  0.5182179E-05  0.1464306E+04  0.7818609E-02  0.8908542E-01
       -2   -1    0    0    0  501  0.00000000000E+00  0.00000000000E+00  0.33693555464E+03  0.33693555465E+03  0.25500000920E-02 0.  1.
        2   -1    0    0  501    0  0.00000000000E+00  0.00000000000E+00 -0.15909519476E+04  0.15909519476E+04  0.25500000920E-02 0. -1.
    10030    2    1    2    0    0  0.00000000000E+00  0.00000000000E+00 -0.12540163930E+04  0.19278875023E+04  0.14643063571E+04 0.  0.
        3    1    3    3  502    0  0.41390706274E+03  0.50199711229E+03 -0.18496383859E+03  0.67641096170E+03  0.10100000352E+00 0.  1.
       -3    1    3    3    0  502 -0.41390706274E+03 -0.50199711229E+03 -0.10690525544E+04  0.12514765406E+04  0.10100000352E+00 0. -1.
</event>
<event>
 5   0  0.2163800E-05  0.2688105E+04  0.7818609E-02  0.8338875E-01
        1   -1    0    0  501    0  0.00000000000E+00  0.00000000000E+00  0.13458867408E+04  0.13458867408E+04  0.50400001928E-02 0.  1.
       -1   -1    0    0    0  501  0.00000000000E+00  0.00000000000E+00 -0.13422203578E+04  0.13422203578E+04  0.50400001928E-02 0. -1.
    10030    2    1    2    0    0  0.00000000000E+00  0.00000000000E+00  0.36663830479E+01  0.26881070986E+04  0.26881045983E+04 0.  0.
        1    1    3    3  502    0  0.97451404941E+03 -0.56056547489E+03 -0.73475781302E+03  0.13430488926E+04  0.50400001928E-02 0. -1.
       -1    1    3    3    0  502 -0.97451404941E+03  0.56056547489E+03  0.73842419607E+03  0.13450582060E+04  0.50400001928E-02 0.  1.
</event>
<event>
 5   0  0.2163800E-05  0.2554540E+04  0.7818609E-02  0.8383809E-01
        1   -1    0    0  501    0  0.00000000000E+00  0.00000000000E+00  0.30627766966E+04  0.30627766966E+04  0.50400001928E-02 0.  1.
       -1   -1    0    0    0  501  0.00000000000E+00  0.00000000000E+00 -0.53265989493E+03  0.53265989495E+03  0.50400001928E-02 0. -1.
    10030    2    1    2    0    0  0.00000000000E+00  0.00000000000E+00  0.25301168017E+04  0.35954365916E+04  0.25545397343E+04 0.  0.
        1    1    3    3  502    0  0.94784912318E+02 -0.52656393890E+03 -0.36734194791E+03  0.64899450543E+03  0.50400001928E-02 0. -1.
       -1    1    3    3    0  502 -0.94784912318E+02  0.52656393890E+03  0.28974587496E+04  0.29464420862E+04  0.50400001928E-02 0.  1.
</event>
<event>
 5   0  0.2159405E-05  0.2551028E+04  0.7818609E-02  0.8385029E-01
        1   -1    0    0  501    0  0.00000000000E+00  0.00000000000E+00  0.16818974253E+04  0.16818974253E+04  0.50400001928E-02 0. -1.
       -1   -1    0    0    0  501  0.00000000000E+00  0.00000000000E+00 -0.96732149369E+03  0.96732149370E+03  0.50400001928E-02 0.  1.
    10030    2    1    2    0    0  0.00000000000E+00  0.00000000000E+00  0.71457593161E+03  0.26492189190E+04  0.25510276594E+04 0.  0.
        3    1    3    3  502    0  0.91078227655E+03  0.12060569648E+03 -0.56156545887E+03  0.10767663925E+04  0.10100000352E+00 0.  1.
       -3    1    3    3    0  502 -0.91078227655E+03 -0.12060569648E+03  0.12761413905E+04  0.15724525265E+04  0.10100000352E+00 0. -1.
</event>
<event>
 5   0  0.4955675E-05  0.2473689E+04  0.7818609E-02  0.8412419E-01
       -2   -1    0    0    0  501  0.00000000000E+00  0.00000000000E+00  0.73205341943E+03  0.73205341944E+03  0.25500000920E-02 0.  1.
        2   -1    0    0  501    0  0.00000000000E+00  0.00000000000E+00 -0.20897162251E+04  0.20897162251E+04  0.25500000920E-02 0. -1.
    10030    2    1    2    0    0  0.00000000000E+00  0.00000000000E+00 -0.13576628056E+04  0.28217696445E+04  0.24736886693E+04 0.  0.
        5    1    3    3  502    0 -0.91056598720E+03  0.61454408445E+03 -0.13271008764E+04  0.17227924062E+04  0.46999998093E+01 0. -1.
       -5    1    3    3    0  502  0.91056598720E+03 -0.61454408445E+03 -0.30561929251E+02  0.10989772383E+04  0.46999998093E+01 0.  1.
</event>
<event>
 5   0  0.5170532E-05  0.2628484E+04  0.7818609E-02  0.8358590E-01
        2   -1    0    0  501    0  0.00000000000E+00  0.00000000000E+00  0.12671393766E+04  0.12671393766E+04  0.25500000920E-02 0.  1.
       -2   -1    0    0    0  501  0.00000000000E+00  0.00000000000E+00 -0.13630958885E+04  0.13630958885E+04  0.25500000920E-02 0. -1.
    10030    2    1    2    0    0  0.00000000000E+00  0.00000000000E+00 -0.95956511927E+02  0.26302352651E+04  0.26284843346E+04 0.  0.
        1    1    3    3  502    0  0.44933246618E+03 -0.10029002910E+04  0.67328188716E+03  0.12888045462E+04  0.50400001928E-02 0.  1.
       -1    1    3    3    0  502 -0.44933246618E+03  0.10029002910E+04 -0.76923839909E+03  0.13414307188E+04  0.50400001928E-02 0. -1.
</event>
<event>
 5   0  0.1993815E-05  0.2542215E+04  0.7818609E-02  0.8388099E-01
       -1   -1    0    0    0  501  0.00000000000E+00  0.00000000000E+00  0.12092181352E+04  0.12092181352E+04  0.50400001928E-02 0. -1.
        1   -1    0    0  501    0  0.00000000000E+00  0.00000000000E+00 -0.13361646428E+04  0.13361646429E+04  0.50400001928E-02 0.  1.
    10030    2    1    2    0    0  0.00000000000E+00  0.00000000000E+00 -0.12694650762E+03  0.25453827781E+04  0.25422151898E+04 0.  0.
        5    1    3    3  502    0  0.45541836835E+03  0.10580945887E+04 -0.60147169300E+03  0.12995231189E+04  0.46999998093E+01 0.  1.
       -5    1    3    3    0  502 -0.45541836835E+03 -0.10580945887E+04  0.47452518538E+03  0.12458596592E+04  0.46999998093E+01 0. -1.
</event>
<event>
 5   0  0.1993815E-05  0.2578950E+04  0.7818609E-02  0.8375387E-01
        1   -1    0    0  501    0  0.00000000000E+00  0.00000000000E+00  0.21500111471E+04  0.21500111471E+04  0.50400001928E-02 0. -1.
       -1   -1    0    0    0  501  0.00000000000E+00  0.00000000000E+00 -0.77336632095E+03  0.77336632096E+03  0.50400001928E-02 0.  1.
    10030    2    1    2    0    0  0.00000000000E+00  0.00000000000E+00  0.13766448262E+04  0.29233774681E+04  0.25789503375E+04 0.  0.
        5    1    3    3  502    0 -0.79912713014E+03 -0.56064445562E+03 -0.26669045611E+03  0.10119645572E+04  0.46999998093E+01 0.  1.
       -5    1    3    3    0  502  0.79912713014E+03  0.56064445562E+03  0.16433352823E+04  0.19114129108E+04  0.46999998093E+01 0. -1.
</event>
<event>
 5   0  0.5170532E-05  0.2563045E+04  0.7818609E-02  0.8380863E-01
       -2   -1    0    0    0  501  0.00000000000E+00  0.00000000000E+00  0.11499526014E+04  0.11499526014E+04  0.25500000920E-02 0. -1.
        2   -1    0    0  501    0  0.00000000000E+00  0.00000000000E+00 -0.14281458700E+04  0.14281458700E+04  0.25500000920E-02 0.  1.
    10030    2    1    2    0    0  0.00000000000E+00  0.00000000000E+00 -0.27819326855E+03  0.25780984714E+04  0.25630451096E+04 0.  0.
        1    1    3    3  502    0  0.68382328612E+03  0.88231559350E+03 -0.77224167346E+03  0.13573696237E+04  0.50400001928E-02 0. -1.
       -1    1    3    3    0  502 -0.68382328612E+03 -0.88231559350E+03  0.49404840491E+03  0.12207288477E+04  0.50400001928E-02 0.  1.
</event>
<event>
 5   0  0.2159405E-05  0.2514793E+04  0.7818609E-02  0.8397734E-01
       -1   -1    0    0    0  501  0.00000000000E+00  0.00000000000E+00  0.11807731071E+04  0.11807731071E+04  0.50400001928E-02 0. -1.
        1   -1    0    0  501    0  0.00000000000E+00  0.00000000000E+00 -0.13389921301E+04  0.13389921301E+04  0.50400001928E-02 0.  1.
    10030    2    1    2    0    0  0.00000000000E+00  0.00000000000E+00 -0.15821902304E+03  0.25197652372E+04  0.25147929520E+04 0.  0.
        3    1    3    3  502    0  0.12432789756E+04 -0.30241298504E+02 -0.26491818336E+03  0.12715497636E+04  0.10100000352E+00 0. -1.
       -3    1    3    3    0  502 -0.12432789756E+04  0.30241298504E+02  0.10669916032E+03  0.12482154735E+04  0.10100000352E+00 0.  1.
</event>
<event>
 5   0  0.2072710E-05  0.2379866E+04  0.7818609E-02  0.8447080E-01
        1   -1    0    0  501    0  0.00000000000E+00  0.00000000000E+00  0.12945622428E+04  0.12945622428E+04  0.50400001928E-02 0. -1.
       -1   -1    0    0    0  501  0.00000000000E+00  0.00000000000E+00 -0.10937603912E+04  0.10937603912E+04  0.50400001928E-02 0.  1.
    10030    2    1    2    0    0  0.00000000000E+00  0.00000000000E+00  0.20080185165E+03  0.23883226340E+04  0.23798663031E+04 0.  0.
        2    1    3    3  502    0  0.10473983397E+04 -0.17577361164E+03  0.63896530912E+03  0.12394419352E+04  0.25500000920E-02 0.  1.
       -2    1    3    3    0  502 -0.10473983397E+04  0.17577361164E+03 -0.43816345747E+03  0.11488806988E+04  0.25500000920E-02 0. -1.
</event>
<event>
 5   0  0.1954502E-05  0.2657486E+04  0.7818609E-02  0.8348932E-01
        1   -1    0    0  501    0  0.00000000000E+00  0.00000000000E+00  0.17060266408E+04  0.17060266408E+04  0.50400001928E-02 0.  1.
       -1   -1    0    0    0  501  0.00000000000E+00  0.00000000000E+00 -0.10348949881E+04  0.10348949882E+04  0.50400001928E-02 0. -1.
    10030    2    1    2    0    0  0.00000000000E+00  0.00000000000E+00  0.67113165263E+03  0.27409216289E+04  0.26574863463E+04 0.  0.
        4    1    3    3  502    0  0.53630825905E+03 -0.66479069497E+03  0.13853548178E+04  0.16275081570E+04  0.12699999809E+01 0.  1.
       -4    1    3    3    0  502 -0.53630825905E+03  0.66479069497E+03 -0.71422316522E+03  0.11134134719E+04  0.12699999809E+01 0. -1.
</event>
<event>
 5   0  0.1954502E-05  0.2629824E+04  0.7818609E-02  0.8358141E-01
        1   -1    0    0  501    0  0.00000000000E+00  0.00000000000E+00  0.14761829253E+04  0.14761829253E+04  0.50400001928E-02 0. -1.
       -1   -1    0    0    0  501  0.00000000000E+00  0.00000000000E+00 -0.11712600159E+04  0.11712600159E+04  0.50400001928E-02 0.  1.
    10030    2    1    2    0    0  0.00000000000E+00  0.00000000000E+00  0.30492290941E+03  0.26474429411E+04  0.26298243565E+04 0.  0.
        4    1    3    3  502    0 -0.12541068216E+04 -0.23817517969E+03  0.46998075372E+03  0.13602921958E+04  0.12699999809E+01 0. -1.
       -4    1    3    3    0  502  0.12541068216E+04  0.23817517969E+03 -0.16505784432E+03  0.12871507453E+04  0.12699999809E+01 0.  1.
</event>
<event>
 5   0  0.2163800E-05  0.1640845E+04  0.7818609E-02  0.8795841E-01
        1   -1    0    0  501    0  0.00000000000E+00  0.00000000000E+00  0.15934526701E+04  0.15934526701E+04  0.50400001928E-02 0.  1.
       -1   -1    0    0    0  501  0.00000000000E+00  0.00000000000E+00 -0.42241188396E+03  0.42241188399E+03  0.50400001928E-02 0. -1.
    10030    2    1    2    0    0  0.00000000000E+00  0.00000000000E+00  0.11710407861E+04  0.20158645541E+04  0.16408453241E+04 0.  0.
        1    1    3    3  502    0  0.13429359953E+03  0.27507338797E+03  0.15206685095E+04  0.15511714461E+04  0.50400001928E-02 0.  1.
       -1    1    3    3    0  502 -0.13429359953E+03 -0.27507338797E+03 -0.34962772332E+03  0.46469310796E+03  0.50400001928E-02 0. -1.
</event>
<event>
 5   0  0.2159405E-05  0.2355293E+04  0.7818609E-02  0.8456433E-01
        1   -1    0    0  501    0  0.00000000000E+00  0.00000000000E+00  0.16216151486E+04  0.16216151486E+04  0.50400001928E-02 0.  1.
       -1   -1    0    0    0  501  0.00000000000E+00  0.00000000000E+00 -0.85522834007E+03  0.85522834008E+03  0.50400001928E-02 0. -1.
    10030    2    1    2    0    0  0.00000000000E+00  0.00000000000E+00  0.76638680854E+03  0.24768434887E+04  0.23552929600E+04 0.  0.
        3    1    3    3  502    0  0.21020988800E+03  0.70767685390E+03  0.13480719812E+04  0.15369752124E+04  0.10100000352E+00 0.  1.
       -3    1    3    3    0  502 -0.21020988800E+03 -0.70767685390E+03 -0.58168517270E+03  0.93986827635E+03  0.10100000352E+00 0. -1.
</event>
<event>
 5   0  0.1954502E-05  0.1311281E+04  0.7818609E-02  0.9020667E-01
       -1   -1    0    0    0  501  0.00000000000E+00  0.00000000000E+00  0.24137498454E+03  0.24137498459E+03  0.50400001928E-02 0. -1.
        1   -1    0    0  501    0  0.00000000000E+00  0.00000000000E+00 -0.17808989764E+04  0.17808989764E+04  0.50400001928E-02 0.  1.
    10030    2    1    2    0    0  0.00000000000E+00  0.00000000000E+00 -0.15395239919E+04  0.20222739610E+04  0.13112809965E+04 0.  0.
        4    1    3    3  502    0  0.37262582379E+03  0.46748254587E+03 -0.11849378492E+04  0.13272035468E+04  0.12699999809E+01 0.  1.
       -4    1    3    3    0  502 -0.37262582379E+03 -0.46748254587E+03 -0.35458614267E+03  0.69507041422E+03  0.12699999809E+01 0. -1.
</event>
<event>
 5   0  0.4955675E-05  0.2555277E+04  0.7818609E-02  0.8383553E-01
       -2   -1    0    0    0  501  0.00000000000E+00  0.00000000000E+00  0.23377310842E+04  0.23377310842E+04  0.25500000920E-02 0. -1.
        2   -1    0    0  501    0  0.00000000000E+00  0.00000000000E+00 -0.69826690196E+03  0.69826690197E+03  0.25500000920E-02 0.  1.
    10030    2    1    2    0    0  0.00000000000E+00  0.00000000000E+00  0.16394641822E+04  0.30359979862E+04  0.25552770823E+04 0.  0.
        5    1    3    3  502    0 -0.89639194572E+03 -0.48323143034E+03 -0.96982153504E+02  0.10229656708E+04  0.46999998093E+01 0.  1.
       -5    1    3    3    0  502  0.89639194572E+03  0.48323143034E+03  0.17364463357E+04  0.20130323153E+04  0.46999998093E+01 0. -1.
</event>
<event>
 5   0  0.2072710E-05  0.2580844E+04  0.7818609E-02  0.8374737E-01
       -1   -1    0    0    0  501  0.00000000000E+00  0.00000000000E+00  0.56719539625E+03  0.56719539627E+03  0.50400001928E-02 0.  1.
        1   -1    0    0  501    0  0.00000000000E+00  0.00000000000E+00 -0.29358299886E+04  0.29358299886E+04  0.50400001928E-02 0. -1.
    10030    2    1    2    0    0  0.00000000000E+00  0.00000000000E+00 -0.23686345923E+04  0.35030253848E+04  0.25808442446E+04 0.  0.
        2    1    3    3  502    0  0.86056705424E+02  0.12699602469E+04 -0.14721981526E+04  0.19461685913E+04  0.25500000920E-02 0.  1.
       -2    1    3    3    0  502 -0.86056705424E+02 -0.12699602469E+04 -0.89643643975E+03  0.15568567936E+04  0.25500000920E-02 0. -1.
</event>
<event>
 5   0  0.2159405E-05  0.2574691E+04  0.7818609E-02  0.8376849E-01
        1   -1    0    0  501    0  0.00000000000E+00  0.00000000000E+00  0.10230268114E+04  0.10230268114E+04  0.50400001928E-02 0. -1.
       -1   -1    0    0    0  501  0.00000000000E+00  0.00000000000E+00 -0.16199562998E+04  0.16199562998E+04  0.50400001928E-02 0.  1.
    10030    2    1    2    0    0  0.00000000000E+00  0.00000000000E+00 -0.59692948841E+03  0.26429831113E+04  0.25746912266E+04 0.  0.
        3    1    3    3  502    0 -0.12404254736E+04 -0.31418453235E+03 -0.15368681284E+03  0.12887928160E+04  0.10100000352E+00 0. -1.
       -3    1    3    3    0  502  0.12404254736E+04  0.31418453235E+03 -0.44324267558E+03  0.13541902952E+04  0.10100000352E+00 0.  1.
</event>
<event>
 5   0  0.2072710E-05  0.1631210E+04  0.7818609E-02  0.8801600E-01
        1   -1    0    0  501    0  0.00000000000E+00  0.00000000000E+00  0.55413565909E+03  0.55413565911E+03  0.50400001928E-02 0. -1.
       -1   -1    0    0    0  501  0.00000000000E+00  0.00000000000E+00 -0.12004492585E+04  0.12004492585E+04  0.50400001928E-02 0.  1.
    10030    2    1    2    0    0  0.00000000000E+00  0.00000000000E+00 -0.64631359942E+03  0.17545849176E+04  0.16312102760E+04 0.  0.
        2    1    3    3  502    0  0.70629176077E+02  0.45426034293E+03 -0.10478105855E+04  0.11442237381E+04  0.25500000920E-02 0.  1.
       -2    1    3    3    0  502 -0.70629176077E+02 -0.45426034293E+03  0.40149698608E+03  0.61036117956E+03  0.25500000920E-02 0. -1.
</event>
<event>
 5   0  0.5170532E-05  0.2550071E+04  0.7818609E-02  0.8385361E-01
        2   -1    0    0  501    0  0.00000000000E+00  0.00000000000E+00  0.10039515601E+04  0.10039515601E+04  0.25500000920E-02 0.  1.
       -2   -1    0    0    0  501  0.00000000000E+00  0.00000000000E+00 -0.16193171450E+04  0.16193171450E+04  0.25500000920E-02 0. -1.
    10030    2    1    2    0    0  0.00000000000E+00  0.00000000000E+00 -0.61536558493E+03  0.26232687051E+04  0.25500713512E+04 0.  0.
        1    1    3    3  502    0 -0.26228805138E+03 -0.94396024242E+03  0.53174223484E+03  0.11147222818E+04  0.50400001928E-02 0.  1.
       -1    1    3    3    0  502  0.26228805138E+03  0.94396024242E+03 -0.11471078198E+04  0.15085464233E+04  0.50400001928E-02 0. -1.
</event>
<event>
 5   0  0.2163800E-05  0.2491747E+04  0.7818609E-02  0.8405931E-01
        1   -1    0    0  501    0  0.00000000000E+00  0.00000000000E+00  0.17060437278E+04  0.17060437278E+04  0.50400001928E-02 0. -1.
       -1   -1    0    0    0  501  0.00000000000E+00  0.00000000000E+00 -0.90982501313E+03  0.90982501315E+03  0.50400001928E-02 0.  1.
    10030    2    1    2    0    0  0.00000000000E+00  0.00000000000E+00  0.79621871462E+03  0.26158687409E+04  0.24917473845E+04 0.  0.
        1    1    3    3  502    0 -0.11596630704E+04 -0.42450000048E+03  0.57119346449E+03  0.13606177499E+04  0.50400001928E-02 0. -1.
       -1    1    3    3    0  502  0.11596630704E+04  0.42450000048E+03  0.22502525013E+03  0.12552509911E+04  0.50400001928E-02 0.  1.
</event>
<event>
 5   0  0.5036452E-05  0.2530245E+04  0.7818609E-02  0.8392289E-01
       -2   -1    0    0    0  501  0.00000000000E+00  0.00000000000E+00  0.70947788090E+03  0.70947788090E+03  0.25500000920E-02 0.  1.
        2   -1    0    0  501    0  0.00000000000E+00  0.00000000000E+00 -0.22559332697E+04  0.22559332697E+04  0.25500000920E-02 0. -1.
    10030    2    1    2    0    0  0.00000000000E+00  0.00000000000E+00 -0.15464553888E+04  0.29654111506E+04  0.25302448543E+04 0.  0.
        2    1    3    3  502    0 -0.11005540170E+02 -0.11688204812E+04 -0.13404885974E+04  0.17785308878E+04  0.25500000920E-02 0. -1.
       -2    1    3    3    0  502  0.11005540170E+02  0.11688204812E+04 -0.20596679142E+03  0.11868802628E+04  0.25500000920E-02 0.  1.
</event>
<event>
 5   0  0.1698625E-05  0.2611064E+04  0.7818609E-02  0.8364453E-01
        3   -1    0    0  501    0  0.00000000000E+00  0.00000000000E+00  0.18483327690E+04  0.18483327718E+04  0.10100000352E+00 0.  1.
       -3   -1    0    0    0  501  0.00000000000E+00  0.00000000000E+00 -0.92213585798E+03  0.92213586352E+03  0.10100000352E+00 0. -1.
    10030    2    1    2    0    0  0.00000000000E+00  0.00000000000E+00  0.92619691104E+03  0.27704686353E+04  0.26110641013E+04 0.  0.
        1    1    3    3  502    0 -0.20144953988E+03 -0.18686218401E+03  0.18173048316E+04  0.18379598048E+04  0.50400001928E-02 0.  1.
       -1    1    3    3    0  502  0.20144953988E+03  0.18686218401E+03 -0.89110792056E+03  0.93250883054E+03  0.50400001928E-02 0. -1.
</event>
<event>
 5   0  0.2163800E-05  0.2624410E+04  0.7818609E-02  0.8359957E-01
       -1   -1    0    0    0  501  0.00000000000E+00  0.00000000000E+00  0.16638955250E+04  0.16638955250E+04  0.50400001928E-02 0.  1.
        1   -1    0    0  501    0  0.00000000000E+00  0.00000000000E+00 -0.10348498727E+04  0.10348498727E+04  0.50400001928E-02 0. -1.
    10030    2    1    2    0    0  0.00000000000E+00  0.00000000000E+00  0.62904565230E+03  0.26987453978E+04  0.26244100841E+04 0.  0.
        1    1    3    3  502    0 -0.10192144923E+04 -0.32184808986E+03  0.10973323027E+04  0.15318363348E+04  0.50400001928E-02 0.  1.
       -1    1    3    3    0  502  0.10192144923E+04  0.32184808986E+03 -0.46828665037E+03  0.11669090629E+04  0.50400001928E-02 0. -1.
</event>
<event>
 5   0  0.2159405E-05  0.2541498E+04  0.7818609E-02  0.8388349E-01
        1   -1    0    0  501    0  0.00000000000E+00  0.00000000000E+00  0.10960913444E+04  0.10960913444E+04  0.50400001928E-02 0.  1.
       -1   -1    0    0    0  501  0.00000000000E+00  0.00000000000E+00 -0.14732379168E+04  0.14732379168E+04  0.50400001928E-02 0. -1.
    10030    2    1    2    0    0  0.00000000000E+00  0.00000000000E+00 -0.37714657241E+03  0.25693292611E+04  0.25414982422E+04 0.  0.
        3    1    3    3  502    0 -0.37894594791E+03  0.10177003693E+04 -0.85571587594E+03  0.13825931230E+04  0.10100000352E+00 0.  1.
       -3    1    3    3    0  502  0.37894594791E+03 -0.10177003693E+04  0.47856930353E+03  0.11867361382E+04  0.10100000352E+00 0. -1.
</event>
<event>
 5   0  0.4955675E-05  0.2710990E+04  0.7818609E-02  0.8331448E-01
       -2   -1    0    0    0  501  0.00000000000E+00  0.00000000000E+00  0.88570588351E+03  0.88570588352E+03  0.25500000920E-02 0.  1.
        2   -1    0    0  501    0  0.00000000000E+00  0.00000000000E+00 -0.20744662966E+04  0.20744662966E+04  0.25500000920E-02 0. -1.
    10030    2    1    2    0    0  0.00000000000E+00  0.00000000000E+00 -0.11887604131E+04  0.29601721801E+04  0.27109902280E+04 0.  0.
        5    1    3    3  502    0  0.33684355085E+03 -0.68914926604E+03 -0.18146682359E+04  0.19701353215E+04  0.46999998093E+01 0. -1.
       -5    1    3    3    0  502 -0.33684355085E+03  0.68914926604E+03  0.62590782286E+03  0.99003685858E+03  0.46999998093E+01 0.  1.
</event>
<event>
 5   0  0.5049803E-05  0.2497663E+04  0.7818609E-02  0.8403819E-01
       -2   -1    0    0    0  501  0.00000000000E+00  0.00000000000E+00  0.10320616124E+04  0.10320616124E+04  0.25500000920E-02 0. -1.
        2   -1    0    0  501    0  0.00000000000E+00  0.00000000000E+00 -0.15111305648E+04  0.15111305648E+04  0.25500000920E-02 0.  1.
    10030    2    1    2    0    0  0.00000000000E+00  0.00000000000E+00 -0.47906895245E+03  0.25431921772E+04  0.24976627853E+04 0.  0.
        4    1    3    3  502    0  0.10149603988E+04 -0.62482241672E+03  0.14013049406E+03  0.12000774275E+04  0.12699999809E+01 0.  1.
       -4    1    3    3    0  502 -0.10149603988E+04  0.62482241672E+03 -0.61919944652E+03  0.13431147498E+04  0.12699999809E+01 0. -1.
</event>
<event>
 5   0  0.2163800E-05  0.1501136E+04  0.7818609E-02  0.8883698E-01
        1   -1    0    0  501    0  0.00000000000E+00  0.00000000000E+00  0.13346453093E+04  0.13346453093E+04  0.50400001928E-02 0. -1.
       -1   -1    0    0    0  501  0.00000000000E+00  0.00000000000E+00 -0.42209868329E+03  0.42209868332E+03  0.50400001928E-02 0.  1.
    10030    2    1    2    0    0  0.00000000000E+00  0.00000000000E+00  0.91254662596E+03  0.17567439926E+04  0.15011356071E+04 0.  0.
        1    1    3    3  502    0 -0.70640029093E+03 -0.21482891027E+03  0.29839784476E+03  0.79636304880E+03  0.50400001928E-02 0. -1.
       -1    1    3    3    0  502  0.70640029093E+03  0.21482891027E+03  0.61414878121E+03  0.96038094379E+03  0.50400001928E-02 0.  1.
</event>
<event>
 5   0  0.1993815E-05  0.1428886E+04  0.7818609E-02  0.8933171E-01
       -1   -1    0    0    0  501  0.00000000000E+00  0.00000000000E+00  0.64319211989E+03  0.64319211990E+03  0.50400001928E-02 0.  1.
        1   -1    0    0  501    0  0.00000000000E+00  0.00000000000E+00 -0.79358690858E+03  0.79358690860E+03  0.50400001928E-02 0. -1.
    10030    2    1    2    0    0  0.00000000000E+00  0.00000000000E+00 -0.15039478870E+03  0.14367790285E+04  0.14288860641E+04 0.  0.
        5    1    3    3  502    0  0.54225185743E+03  0.25335583458E+03 -0.46745546098E+03  0.75944911206E+03  0.46999998093E+01 0. -1.
       -5    1    3    3    0  502 -0.54225185743E+03 -0.25335583458E+03  0.31706067228E+03  0.67732991645E+03  0.46999998093E+01 0.  1.
</event>
<event>
 5   0  0.5182179E-05  0.2046636E+04  0.7818609E-02  0.8585122E-01
       -2   -1    0    0    0  501  0.00000000000E+00  0.00000000000E+00  0.69851747760E+03  0.69851747761E+03  0.25500000920E-02 0.  1.
        2   -1    0    0  501    0  0.00000000000E+00  0.00000000000E+00 -0.14991466648E+04  0.14991466648E+04  0.25500000920E-02 0. -1.
    10030    2    1    2    0    0  0.00000000000E+00  0.00000000000E+00 -0.80062918721E+03  0.21976641424E+04  0.20466364082E+04 0.  0.
        3    1    3    3  502    0 -0.78012903126E+03  0.98429063000E+02 -0.11035388874E+04  0.13550231260E+04  0.10100000352E+00 0. -1.
       -3    1    3    3    0  502  0.78012903126E+03 -0.98429063000E+02  0.30290970018E+03  0.84264101640E+03  0.10100000352E+00 0.  1.
</event>
<event>
 5   0  0.1954502E-05  0.2668189E+04  0.7818609E-02  0.8345401E-01
        1   -1    0    0  501    0  0.00000000000E+00  0.00000000000E+00  0.11748512089E+04  0.11748512089E+04  0.50400001928E-02 0. -1.
       -1   -1    0    0    0  501  0.00000000000E+00  0.00000000000E+00 -0.15149216322E+04  0.15149216322E+04  0.50400001928E-02 0.  1.
    10030    2    1    2    0    0  0.00000000000E+00  0.00000000000E+00 -0.34007042329E+03  0.26897728412E+04  0.26681885324E+04 0.  0.
        4    1    3    3  502    0 -0.73237554996E+03 -0.54455862716E+03 -0.11509885820E+04  0.14689092461E+04  0.12699999809E+01 0.  1.
       -4    1    3    3    0  502  0.73237554996E+03  0.54455862716E+03  0.81091815872E+03  0.12208635950E+04  0.12699999809E+01 0. -1.
</event>
<event>
 5   0  0.5182179E-05  0.2646241E+04  0.7818609E-02  0.8352662E-01
        2   -1    0    0  501    0  0.00000000000E+00  0.00000000000E+00  0.16645161760E+04  0.16645161760E+04  0.25500000920E-02 0.  1.
       -2   -1    0    0    0  501  0.00000000000E+00  0.00000000000E+00 -0.10517456325E+04  0.10517456325E+04  0.25500000920E-02 0. -1.
    10030    2    1    2    0    0  0.00000000000E+00  0.00000000000E+00  0.61277054349E+03  0.27162618085E+04  0.26462408192E+04 0.  0.
        3    1    3    3  502    0 -0.13126892958E+04 -0.11471039525E+03  0.18348426440E+03  0.13304052569E+04  0.10100000352E+00 0. -1.
       -3    1    3    3    0  502  0.13126892958E+04  0.11471039525E+03  0.42928627910E+03  0.13858565516E+04  0.10100000352E+00 0.  1.
</event>
<event>
 5   0  0.1698625E-05  0.2520461E+04  0.7818609E-02  0.8395732E-01
       -3   -1    0    0    0  501  0.00000000000E+00  0.00000000000E+00  0.14662429060E+04  0.14662429094E+04  0.10100000352E+00 0. -1.
        3   -1    0    0  501    0  0.00000000000E+00  0.00000000000E+00 -0.10831639849E+04  0.10831639896E+04  0.10100000352E+00 0.  1.
    10030    2    1    2    0    0  0.00000000000E+00  0.00000000000E+00  0.38307892103E+03  0.25494068991E+04  0.25204614810E+04 0.  0.
        4    1    3    3  502    0  0.10411532264E+04 -0.63802201002E+03 -0.12366046448E+03  0.12273408856E+04  0.12699999809E+01 0.  1.
       -4    1    3    3    0  502 -0.10411532264E+04  0.63802201002E+03  0.50673938551E+03  0.13220660135E+04  0.12699999809E+01 0. -1.
</event>
<event>
 5   0  0.2072710E-05  0.2000936E+04  0.7818609E-02  0.8606183E-01
        1   -1    0    0  501    0  0.00000000000E+00  0.00000000000E+00  0.15300128242E+04  0.15300128242E+04  0.50400001928E-02 0. -1.
       -1   -1    0    0    0  501  0.00000000000E+00  0.00000000000E+00 -0.65420093899E+03  0.65420093901E+03  0.50400001928E-02 0.  1.
    10030    2    1    2    0    0  0.00000000000E+00  0.00000000000E+00  0.87581188518E+03  0.21842137632E+04  0.20009356074E+04 0.  0.
        2    1    3    3  502    0  0.18955249691E+03 -0.14384625100E+03 -0.62286160679E+03  0.66676718142E+03  0.25500000920E-02 0.  1.
       -2    1    3    3    0  502 -0.18955249691E+03  0.14384625100E+03  0.14986734920E+04  0.15174465818E+04  0.25500000920E-02 0. -1.
</event>
<event>
 5   0  0.4955675E-05  0.2683610E+04  0.7818609E-02  0.8340343E-01
        2   -1    0    0  501    0  0.00000000000E+00  0.00000000000E+00  0.12827385300E+04  0.12827385300E+04  0.25500000920E-02 0. -1.
       -2   -1    0    0    0  501  0.00000000000E+00  0.00000000000E+00 -0.14035913368E+04  0.14035913368E+04  0.25500000920E-02 0.  1.
    10030    2    1    2    0    0  0.00000000000E+00  0.00000000000E+00 -0.12085280680E+03  0.26863298668E+04  0.26836100224E+04 0.  0.
        5    1    3    3  502    0  0.79036577481E+02  0.12772090372E+04  0.34360240399E+03  0.13249884555E+04  0.46999998093E+01 0. -1.
       -5    1    3    3    0  502 -0.79036577481E+02 -0.12772090372E+04 -0.46445521079E+03  0.13613414113E+04  0.46999998093E+01 0.  1.
</event>
<event>
 5   0  0.2163800E-05  0.2116596E+04  0.7818609E-02  0.8553968E-01
        1   -1    0    0  501    0  0.00000000000E+00  0.00000000000E+00  0.10321159316E+04  0.10321159316E+04  0.50400001928E-02 0. -1.
       -1   -1    0    0    0  501  0.00000000000E+00  0.00000000000E+00 -0.10851439515E+04  0.10851439515E+04  0.50400001928E-02 0.  1.
    10030    2    1    2    0    0  0.00000000000E+00  0.00000000000E+00 -0.53028019852E+02  0.21172598831E+04  0.21165957200E+04 0.  0.
        1    1    3    3  502    0 -0.50288053452E+03 -0.32089840050E+03  0.84790543765E+03  0.10367295919E+04  0.50400001928E-02 0. -1.
       -1    1    3    3    0  502  0.50288053452E+03  0.32089840050E+03 -0.90093345751E+03  0.10805302913E+04  0.50400001928E-02 0.  1.
</event>
<event>
 5   0  0.2163800E-05  0.2603875E+04  0.7818609E-02  0.8366886E-01
       -1   -1    0    0    0  501  0.00000000000E+00  0.00000000000E+00  0.10952960849E+04  0.10952960850E+04  0.50400001928E-02 0.  1.
        1   -1    0    0  501    0  0.00000000000E+00  0.00000000000E+00 -0.15475647397E+04  0.15475647397E+04  0.50400001928E-02 0. -1.
    10030    2    1    2    0    0  0.00000000000E+00  0.00000000000E+00 -0.45226865474E+03  0.26428608246E+04  0.26038752663E+04 0.  0.
        1    1    3    3  502    0  0.12084989550E+04  0.43186639017E+03 -0.36185045045E+01  0.12833516263E+04  0.50400001928E-02 0. -1.
       -1    1    3    3    0  502 -0.12084989550E+04 -0.43186639017E+03 -0.44865015023E+03  0.13595091984E+04  0.50400001928E-02 0.  1.
</event>
<event>
 5   0  0.4955675E-05  0.2412822E+04  0.7818609E-02  0.8434719E-01
       -2   -1    0    0    0  501  0.00000000000E+00  0.00000000000E+00  0.85846768405E+03  0.85846768406E+03  0.25500000920E-02 0.  1.
        2   -1    0    0  501    0  0.00000000000E+00  0.00000000000E+00 -0.16953787487E+04  0.16953787487E+04  0.25500000920E-02 0. -1.
    10030    2    1    2    0    0  0.00000000000E+00  0.00000000000E+00 -0.83691106460E+03  0.25538464327E+04  0.24128223042E+04 0.  0.
        5    1    3    3  502    0 -0.10382447037E+03 -0.11490052683E+04 -0.45117198873E+02  0.11545779656E+04  0.46999998093E+01 0.  1.
       -5    1    3    3    0  502  0.10382447037E+03  0.11490052683E+04 -0.79179386573E+03  0.13992684671E+04  0.46999998093E+01 0. -1.
</event>
<event>
 5   0  0.1954502E-05  0.2555441E+04  0.7818609E-02  0.8383496E-01
        1   -1    0    0  501    0  0.00000000000E+00  0.00000000000E+00  0.18206685908E+04  0.18206685908E+04  0.50400001928E-02 0.  1.
       -1   -1    0    0    0  501  0.00000000000E+00  0.00000000000E+00 -0.89668684522E+03  0.89668684523E+03  0.50400001928E-02 0. -1.
    10030    2    1    2    0    0  0.00000000000E+00  0.00000000000E+00  0.92398174558E+03  0.27173554360E+04  0.25554409208E+04 0.  0.
        4    1    3    3  502    0 -0.76489638538E+03  0.15051955974E+03 -0.61449855754E+03  0.99263926396E+03  0.12699999809E+01 0. -1.
       -4    1    3    3    0  502  0.76489638538E+03 -0.15051955974E+03  0.15384803031E+04  0.17247161721E+04  0.12699999809E+01 0.  1.
</event>
<event>
 5   0  0.2163800E-05  0.2570729E+04  0.7818609E-02  0.8378212E-01
       -1   -1    0    0    0  501  0.00000000000E+00  0.00000000000E+00  0.12211834786E+04  0.12211834787E+04  0.50400001928E-02 0. -1.
        1   -1    0    0  501    0  0.00000000000E+00  0.00000000000E+00 -0.13529185311E+04  0.13529185311E+04  0.50400001928E-02 0.  1.
    10030    2    1    2    0    0  0.00000000000E+00  0.00000000000E+00 -0.13173505241E+03  0.25741020097E+04  0.25707288913E+04 0.  0.
        1    1    3    3  502    0  0.60981016943E+03  0.97743036700E+03 -0.63663580872E+03  0.13162612651E+04  0.50400001928E-02 0.  1.
       -1    1    3    3    0  502 -0.60981016943E+03 -0.97743036700E+03  0.50490075631E+03  0.12578407446E+04  0.50400001928E-02 0. -1.
</event>
<event>
 5   0  0.4955675E-05  0.2605332E+04  0.7818609E-02  0.8366392E-01
        2   -1    0    0  501    0  0.00000000000E+00  0.00000000000E+00  0.11841427561E+04  0.11841427561E+04  0.25500000920E-02 0.  1.
       -2   -1    0    0    0  501  0.00000000000E+00  0.00000000000E+00 -0.14330524842E+04  0.14330524842E+04  0.25500000920E-02 0. -1.
    10030    2    1    2    0    0  0.00000000000E+00  0.00000000000E+00 -0.24890972810E+03  0.26171952404E+04  0.26053320083E+04 0.  0.
        5    1    3    3  502    0 -0.17388469168E+03  0.28811344881E+03  0.11397154310E+04  0.11883680402E+04  0.46999998093E+01 0.  1.
       -5    1    3    3    0  502  0.17388469168E+03 -0.28811344881E+03 -0.13886251591E+04  0.14288272001E+04  0.46999998093E+01 0. -1.
</event>
<event>
 5   0  0.1993815E-05  0.2491217E+04  0.7818609E-02  0.8406121E-01
        1   -1    0    0  501    0  0.00000000000E+00  0.00000000000E+00  0.16295109518E+04  0.16295109518E+04  0.50400001928E-02 0. -1.
       -1   -1    0    0    0  501  0.00000000000E+00  0.00000000000E+00 -0.95215135751E+03  0.95215135753E+03  0.50400001928E-02 0.  1.
    10030    2    1    2    0    0  0.00000000000E+00  0.00000000000E+00  0.67735959431E+03  0.25816623094E+04  0.24912174252E+04 0.  0.
        5    1    3    3  502    0  0.13949078565E+03 -0.80415036046E+03  0.13138005896E+04  0.15466769413E+04  0.46999998093E+01 0. -1.
       -5    1    3    3    0  502 -0.13949078565E+03  0.80415036046E+03 -0.63644099532E+03  0.10349853680E+04  0.46999998093E+01 0.  1.
</event>
<event>
 5   0  0.5182179E-05  0.2504526E+04  0.7818609E-02  0.8401375E-01
        2   -1    0    0  501    0  0.00000000000E+00  0.00000000000E+00  0.31238880811E+04  0.31238880811E+04  0.25500000920E-02 0. -1.
       -2   -1    0    0    0  501  0.00000000000E+00  0.00000000000E+00 -0.50199079064E+03  0.50199079065E+03  0.25500000920E-02 0.  1.
    10030    2    1    2    0    0  0.00000000000E+00  0.00000000000E+00  0.26218972905E+04  0.36258788718E+04  0.25045263406E+04 0.  0.
        3    1    3    3  502    0  0.71450919130E+03  0.16446528744E+02  0.27996274624E+04  0.28894130566E+04  0.10100000352E+00 0. -1.
       -3    1    3    3    0  502 -0.71450919130E+03 -0.16446528744E+02 -0.17773017195E+03  0.73646581522E+03  0.10100000352E+00 0.  1.
</event>
<event>
 5   0  0.2072710E-05  0.2686457E+04  0.7818609E-02  0.8339412E-01
        1   -1    0    0  501    0  0.00000000000E+00  0.00000000000E+00  0.20835767003E+04  0.20835767003E+04  0.50400001928E-02 0.  1.
       -1   -1    0    0    0  501  0.00000000000E+00  0.00000000000E+00 -0.86594521612E+03  0.86594521614E+03  0.50400001928E-02 0. -1.
    10030    2    1    2    0    0  0.00000000000E+00  0.00000000000E+00  0.12176314842E+04  0.29495219164E+04  0.26864573520E+04 0.  0.
        2    1    3    3  502    0  0.13132557239E+02 -0.88870726165E+03  0.17145551682E+04  0.19312359995E+04  0.25500000920E-02 0.  1.
       -2    1    3    3    0  502 -0.13132557239E+02  0.88870726165E+03 -0.49692368399E+03  0.10182859170E+04  0.25500000920E-02 0. -1.
</event>
<event>
 5   0  0.1954502E-05  0.2517197E+04  0.7818609E-02  0.8396885E-01
        1   -1    0    0  501    0  0.00000000000E+00  0.00000000000E+00  0.12989239668E+04  0.12989239668E+04  0.50400001928E-02 0.  1.
       -1   -1    0    0    0  501  0.00000000000E+00  0.00000000000E+00 -0.12195246505E+04  0.12195246505E+04  0.50400001928E-02 0. -1.
    10030    2    1    2    0    0  0.00000000000E+00  0.00000000000E+00  0.79399316302E+02  0.25184486173E+04  0.25171966921E+04 0.  0.
        4    1    3    3  502    0 -0.11335046868E+04  0.49054928004E+03  0.28188762893E+03  0.12668597868E+04  0.12699999809E+01 0. -1.
       -4    1    3    3    0  502  0.11335046868E+04 -0.49054928004E+03 -0.20248831263E+03  0.12515888305E+04  0.12699999809E+01 0.  1.
</event>
<event>
 5   0  0.2163800E-05  0.2518885E+04  0.7818609E-02  0.8396288E-01
        1   -1    0    0  501    0  0.00000000000E+00  0.00000000000E+00  0.16033346276E+04  0.16033346276E+04  0.50400001928E-02 0.  1.
       -1   -1    0    0    0  501  0.00000000000E+00  0.00000000000E+00 -0.98931051511E+03  0.98931051512E+03  0.50400001928E-02 0. -1.
    10030    2    1    2    0    0  0.00000000000E+00  0.00000000000E+00  0.61402411251E+03  0.25926451427E+04  0.25188853141E+04 0.  0.
        1    1    3    3  502    0 -0.12571974222E+04  0.69894516718E+02  0.27853969929E+03  0.12895793756E+04  0.50400001928E-02 0.  1.
       -1    1    3    3    0  502  0.12571974222E+04 -0.69894516718E+02  0.33548441322E+03  0.13030657671E+04  0.50400001928E-02 0. -1.
</event>
<event>
 5   0  0.1954502E-05  0.2149395E+04  0.7818609E-02  0.8539791E-01
        1   -1    0    0  501    0  0.00000000000E+00  0.00000000000E+00  0.13447579042E+04  0.13447579042E+04  0.50400001928E-02 0. -1.
       -1   -1    0    0    0  501  0.00000000000E+00  0.00000000000E+00 -0.85887203619E+03  0.85887203620E+03  0.50400001928E-02 0.  1.
    10030    2    1    2    0    0  0.00000000000E+00  0.00000000000E+00  0.48588586797E+03  0.22036299404E+04  0.21493952260E+04 0.  0.
        4    1    3    3  502    0 -0.43044703591E+03  0.90506528665E+03 -0.15484930561E+03  0.10141044050E+04  0.12699999809E+01 0.  1.
       -4    1    3    3    0  502  0.43044703591E+03 -0.90506528665E+03  0.64073517358E+03  0.11895255354E+04  0.12699999809E+01 0. -1.
</event>
<event>
 5   0  0.5036452E-05  0.2624043E+04  0.7818609E-02  0.8360080E-01
       -2   -1    0    0    0  501  0.00000000000E+00  0.00000000000E+00  0.11237675397E+04  0.11237675397E+04  0.25500000920E-02 0.  1.
        2   -1    0    0  501    0  0.00000000000E+00  0.00000000000E+00 -0.15318113152E+04  0.15318113152E+04  0.25500000920E-02 0. -1.
    10030    2    1    2    0    0  0.00000000000E+00  0.00000000000E+00 -0.40804377554E+03  0.26555788549E+04  0.26240425553E+04 0.  0.
        2    1    3    3  502    0 -0.10199440559E+04  0.12103063766E+03  0.62216286839E+03  0.12008417578E+04  0.25500000920E-02 0.  1.
       -2    1    3    3    0  502  0.10199440559E+04 -0.12103063766E+03 -0.10302066439E+04  0.14547370971E+04  0.25500000920E-02 0. -1.
</event>
<event>
 5   0  0.5170532E-05  0.2611659E+04  0.7818609E-02  0.8364252E-01
       -2   -1    0    0    0  501  0.00000000000E+00  0.00000000000E+00  0.10705416239E+04  0.10705416239E+04  0.25500000920E-02 0. -1.
        2   -1    0    0  501    0  0.00000000000E+00  0.00000000000E+00 -0.15928304614E+04  0.15928304614E+04  0.25500000920E-02 0.  1.
    10030    2    1    2    0    0  0.00000000000E+00  0.00000000000E+00 -0.52228883757E+03  0.26633720853E+04  0.26116594792E+04 0.  0.
        1    1    3    3  502    0 -0.11880644025E+03  0.19274978821E+03 -0.15726587745E+04  0.15888747817E+04  0.50400001928E-02 0.  1.
       -1    1    3    3    0  502  0.11880644025E+03 -0.19274978821E+03  0.10503699369E+04  0.10744973036E+04  0.50400001928E-02 0. -1.
</event>
<event>
 5   0  0.5182179E-05  0.2619491E+04  0.7818609E-02  0.8361610E-01
        2   -1    0    0  501    0  0.00000000000E+00  0.00000000000E+00  0.15942763620E+04  0.15942763620E+04  0.25500000920E-02 0.  1.
       -2   -1    0    0    0  501  0.00000000000E+00  0.00000000000E+00 -0.10759951468E+04  0.10759951468E+04  0.25500000920E-02 0. -1.
    10030    2    1    2    0    0  0.00000000000E+00  0.00000000000E+00  0.51828121521E+03  0.26702715088E+04  0.26194912699E+04 0.  0.
        3    1    3    3  502    0  0.96459990070E+03  0.73072303718E+03  0.76987666008E+03  0.14342660867E+04  0.10100000352E+00 0. -1.
       -3    1    3    3    0  502 -0.96459990070E+03 -0.73072303718E+03 -0.25159544487E+03  0.12360054221E+04  0.10100000352E+00 0.  1.
</event>
<event>
 5   0  0.5170532E-05  0.2583758E+04  0.7818609E-02  0.8373739E-01
        2   -1    0    0  501    0  0.00000000000E+00  0.00000000000E+00  0.19461017709E+04  0.19461017709E+04  0.25500000920E-02 0.  1.
       -2   -1    0    0    0  501  0.00000000000E+00  0.00000000000E+00 -0.85758711230E+03  0.85758711230E+03  0.25500000920E-02 0. -1.
    10030    2    1    2    0    0  0.00000000000E+00  0.00000000000E+00  0.10885146586E+04  0.28036888832E+04  0.25837583462E+04 0.  0.
        1    1    3    3  502    0 -0.85255534891E+03  0.73773475430E+03  0.12286996389E+04  0.16675748839E+04  0.50400001928E-02 0. -1.
       -1    1    3    3    0  502  0.85255534891E+03 -0.73773475430E+03 -0.14018498034E+03  0.11361139993E+04  0.50400001928E-02 0.  1.
</event>
<event>
 5   0  0.5049803E-05  0.2357623E+04  0.7818609E-02  0.8455542E-01
        2   -1    0    0  501    0  0.00000000000E+00  0.00000000000E+00  0.12344538213E+04  0.12344538213E+04  0.25500000920E-02 0.  1.
       -2   -1    0    0    0  501  0.00000000000E+00  0.00000000000E+00 -0.11256770300E+04  0.11256770300E+04  0.25500000920E-02 0. -1.
    10030    2    1    2    0    0  0.00000000000E+00  0.00000000000E+00  0.10877679128E+03  0.23601308513E+04  0.23576227953E+04 0.  0.
        4    1    3    3  502    0  0.73598342538E+03 -0.59234856656E+03 -0.65137669052E+03  0.11475372031E+04  0.12699999809E+01 0. -1.
       -4    1    3    3    0  502 -0.73598342538E+03  0.59234856656E+03  0.76015348181E+03  0.12125936482E+04  0.12699999809E+01 0.  1.
</event>
<event>
 5   0  0.2159405E-05  0.2352623E+04  0.7818609E-02  0.8457457E-01
        1   -1    0    0  501    0  0.00000000000E+00  0.00000000000E+00  0.10668883397E+04  0.10668883398E+04  0.50400001928E-02 0. -1.
       -1   -1    0    0    0  501  0.00000000000E+00  0.00000000000E+00 -0.12969569766E+04  0.12969569766E+04  0.50400001928E-02 0.  1.
    10030    2    1    2    0    0  0.00000000000E+00  0.00000000000E+00 -0.23006863687E+03  0.23638453164E+04  0.23526226009E+04 0.  0.
        3    1    3    3  502    0  0.95231766764E+03 -0.33054180112E+03 -0.72417828542E+03  0.12412094995E+04  0.10100000352E+00 0.  1.
       -3    1    3    3    0  502 -0.95231766764E+03  0.33054180112E+03  0.49410964854E+03  0.11226358169E+04  0.10100000352E+00 0. -1.
</event>
<event>
 5   0  0.2163800E-05  0.2624956E+04  0.7818609E-02  0.8359773E-01
        1   -1    0    0  501    0  0.00000000000E+00  0.00000000000E+00  0.16255016553E+04  0.16255016553E+04  0.50400001928E-02 0.  1.
       -1   -1    0    0    0  501  0.00000000000E+00  0.00000000000E+00 -0.10597333084E+04  0.10597333084E+04  0.50400001928E-02 0. -1.
    10030    2    1    2    0    0  0.00000000000E+00  0.00000000000E+00  0.56576834689E+03  0.26852349638E+04  0.26249558069E+04 0.  0.
        1    1    3    3  502    0 -0.11714781966E+04 -0.52492535371E+03  0.33127036827E+01  0.12837128831E+04  0.50400001928E-02 0. -1.
       -1    1    3    3    0  502  0.11714781966E+04  0.52492535371E+03  0.56245564321E+03  0.14015220807E+04  0.50400001928E-02 0.  1.
</event>
<event>
 5   0  0.1698625E-05  0.2562392E+04  0.7818609E-02  0.8381089E-01
        3   -1    0    0  501    0  0.00000000000E+00  0.00000000000E+00  0.27031527535E+04  0.27031527554E+04  0.10100000352E+00 0. -1.
       -3   -1    0    0    0  501  0.00000000000E+00  0.00000000000E+00 -0.60724036164E+03  0.60724037004E+03  0.10100000352E+00 0.  1.
    10030    2    1    2    0    0  0.00000000000E+00  0.00000000000E+00  0.20959123919E+04  0.33103931255E+04  0.25623922203E+04 0.  0.
        1    1    3    3  502    0 -0.28773049589E+03 -0.77258368935E+03  0.23149482309E+04  0.24573684517E+04  0.50400001928E-02 0. -1.
       -1    1    3    3    0  502  0.28773049589E+03  0.77258368935E+03 -0.21903583902E+03  0.85302467380E+03  0.50400001928E-02 0.  1.
</event>
<event>
 5   0  0.2163800E-05  0.2644756E+04  0.7818609E-02  0.8353156E-01
        1   -1    0    0  501    0  0.00000000000E+00  0.00000000000E+00  0.17906291618E+04  0.17906291618E+04  0.50400001928E-02 0.  1.
       -1   -1    0    0    0  501  0.00000000000E+00  0.00000000000E+00 -0.97657511501E+03  0.97657511502E+03  0.50400001928E-02 0. -1.
    10030    2    1    2    0    0  0.00000000000E+00  0.00000000000E+00  0.81405404675E+03  0.27672042768E+04  0.26447562304E+04 0.  0.
        1    1    3    3  502    0  0.36996743441E+03 -0.11850680466E+04 -0.69494660796E+02  0.12434193522E+04  0.50400001928E-02 0.  1.
       -1    1    3    3    0  502 -0.36996743441E+03  0.11850680466E+04  0.88354870754E+03  0.15237849245E+04  0.50400001928E-02 0. -1.
</event>
<event>
 5   0  0.1954502E-05  0.2566608E+04  0.7818609E-02  0.8379633E-01
        1   -1    0    0  501    0  0.00000000000E+00  0.00000000000E+00  0.20890370180E+04  0.20890370180E+04  0.50400001928E-02 0. -1.
       -1   -1    0    0    0  501  0.00000000000E+00  0.00000000000E+00 -0.78833919100E+03  0.78833919102E+03  0.50400001928E-02 0.  1.
    10030    2    1    2    0    0  0.00000000000E+00  0.00000000000E+00  0.13006978270E+04  0.28773762090E+04  0.25666084647E+04 0.  0.
        4    1    3    3  502    0 -0.97185793151E+03 -0.34658959721E+03 -0.20508514139E+03  0.10519951122E+04  0.12699999809E+01 0.  1.
       -4    1    3    3    0  502  0.97185793151E+03  0.34658959721E+03  0.15057829684E+04  0.18253810968E+04  0.12699999809E+01 0. -1.
</event>
<event>
 5   0  0.2159405E-05  0.2806247E+04  0.7818609E-02  0.8301332E-01
       -1   -1    0    0    0  501  0.00000000000E+00  0.00000000000E+00  0.10882737148E+04  0.10882737148E+04  0.50400001928E-02 0.  1.
        1   -1    0    0  501    0  0.00000000000E+00  0.00000000000E+00 -0.18090623429E+04  0.18090623429E+04  0.50400001928E-02 0. -1.
    10030    2    1    2    0    0  0.00000000000E+00  0.00000000000E+00 -0.72078862811E+03  0.28973360577E+04  0.28062466009E+04 0.  0.
        3    1    3    3  502    0  0.44729427011E+03  0.93230404223E+03 -0.13395949578E+04  0.16922699703E+04  0.10100000352E+00 0. -1.
       -3    1    3    3    0  502 -0.44729427011E+03 -0.93230404223E+03  0.61880632967E+03  0.12050660874E+04  0.10100000352E+00 0.  1.
</event>
<event>
 5   0  0.5049803E-05  0.1457003E+04  0.7818609E-02  0.8913560E-01
       -2   -1    0    0    0  501  0.00000000000E+00  0.00000000000E+00  0.33326467059E+03  0.33326467060E+03  0.25500000920E-02 0.  1.
        2   -1    0    0  501    0  0.00000000000E+00  0.00000000000E+00 -0.15924712683E+04  0.15924712683E+04  0.25500000920E-02 0. -1.
    10030    2    1    2    0    0  0.00000000000E+00  0.00000000000E+00 -0.12592065977E+04  0.19257359389E+04  0.14570029686E+04 0.  0.
        4    1    3    3  502    0 -0.67924348185E+03  0.22326900822E+02 -0.97639199750E+03  0.11896273130E+04  0.12699999809E+01 0.  1.
       -4    1    3    3    0  502  0.67924348185E+03 -0.22326900822E+02 -0.28281460020E+03  0.73610862589E+03  0.12699999809E+01 0. -1.
</event>
<event>
 5   0  0.2072710E-05  0.2346204E+04  0.7818609E-02  0.8459923E-01
        1   -1    0    0  501    0  0.00000000000E+00  0.00000000000E+00  0.18011067397E+04  0.18011067397E+04  0.50400001928E-02 0. -1.
       -1   -1    0    0    0  501  0.00000000000E+00  0.00000000000E+00 -0.76406826722E+03  0.76406826723E+03  0.50400001928E-02 0.  1.
    10030    2    1    2    0    0  0.00000000000E+00  0.00000000000E+00  0.10370384725E+04  0.25651750069E+04  0.23462041733E+04 0.  0.
        2    1    3    3  502    0 -0.77214771336E+02 -0.28025340422E+03  0.17611040577E+04  0.17849346189E+04  0.25500000920E-02 0. -1.
       -2    1    3    3    0  502  0.77214771336E+02  0.28025340422E+03 -0.72406558523E+03  0.78024038809E+03  0.25500000920E-02 0.  1.
</event>
<event>
 5   0  0.2159405E-05  0.2620628E+04  0.7818609E-02  0.8361228E-01
        1   -1    0    0  501    0  0.00000000000E+00  0.00000000000E+00  0.11851816302E+04  0.11851816302E+04  0.50400001928E-02 0.  1.
       -1   -1    0    0    0  501  0.00000000000E+00  0.00000000000E+00 -0.14486580235E+04  0.14486580235E+04  0.50400001928E-02 0. -1.
    10030    2    1    2    0    0  0.00000000000E+00  0.00000000000E+00 -0.26347639335E+03  0.26338396537E+04  0.26206280758E+04 0.  0.
        3    1    3    3  502    0  0.46521012710E+03  0.71659214007E+03 -0.11302244796E+04  0.14168034945E+04  0.10100000352E+00 0. -1.
       -3    1    3    3    0  502 -0.46521012710E+03 -0.71659214007E+03  0.86674808625E+03  0.12170361592E+04  0.10100000352E+00 0.  1.
</event>
<event>
 5   0  0.4955675E-05  0.2550823E+04  0.7818609E-02  0.8385100E-01
       -2   -1    0    0    0  501  0.00000000000E+00  0.00000000000E+00  0.82705379148E+03  0.82705379148E+03  0.25500000920E-02 0. -1.
        2   -1    0    0  501    0  0.00000000000E+00  0.00000000000E+00 -0.19668298681E+04  0.19668298681E+04  0.25500000920E-02 0.  1.
    10030    2    1    2    0    0  0.00000000000E+00  0.00000000000E+00 -0.11397760766E+04  0.27938836595E+04  0.25508226905E+04 0.  0.
        5    1    3    3  502    0  0.14531332865E+03 -0.84106427411E+03  0.46812244986E+03  0.97348127600E+03  0.46999998093E+01 0. -1.
       -5    1    3    3    0  502 -0.14531332865E+03  0.84106427411E+03 -0.16078985264E+04  0.18204023835E+04  0.46999998093E+01 0.  1.
</event>
<event>
 5   0  0.2072710E-05  0.2657128E+04  0.7818609E-02  0.8349051E-01
        1   -1    0    0  501    0  0.00000000000E+00  0.00000000000E+00  0.24512784628E+04  0.24512784628E+04  0.50400001928E-02 0.  1.
       -1   -1    0    0    0  501  0.00000000000E+00  0.00000000000E+00 -0.72006608283E+03  0.72006608285E+03  0.50400001928E-02 0. -1.
    10030    2    1    2    0    0  0.00000000000E+00  0.00000000000E+00  0.17312123800E+04  0.31713445457E+04  0.26571281344E+04 0.  0.
        2    1    3    3  502    0  0.11637502892E+02 -0.12220224675E+04  0.24358909708E+03  0.12461179682E+04  0.25500000920E-02 0.  1.
       -2    1    3    3    0  502 -0.11637502892E+02  0.12220224675E+04  0.14876232829E+04  0.19252265774E+04  0.25500000920E-02 0. -1.
</event>
<event>
 5   0  0.1993815E-05  0.2603140E+04  0.7818609E-02  0.8367136E-01
       -1   -1    0    0    0  501  0.00000000000E+00  0.00000000000E+00  0.10258397300E+04  0.10258397300E+04  0.50400001928E-02 0.  1.
        1   -1    0    0  501    0  0.00000000000E+00  0.00000000000E+00 -0.16514118835E+04  0.16514118835E+04  0.50400001928E-02 0. -1.
    10030    2    1    2    0    0  0.00000000000E+00  0.00000000000E+00 -0.62557215348E+03  0.26772516136E+04  0.26031395819E+04 0.  0.
        5    1    3    3  502    0  0.46706236751E+03  0.50759280026E+03  0.82238798940E+03  0.10733786849E+04  0.46999998093E+01 0.  1.
       -5    1    3    3    0  502 -0.46706236751E+03 -0.50759280026E+03 -0.14479601429E+04  0.16038729287E+04  0.46999998093E+01 0. -1.
</event>
<event>
 5   0  0.1993815E-05  0.2603890E+04  0.7818609E-02  0.8366881E-01
        1   -1    0    0  501    0  0.00000000000E+00  0.00000000000E+00  0.11351443736E+04  0.11351443736E+04  0.50400001928E-02 0. -1.
       -1   -1    0    0    0  501  0.00000000000E+00  0.00000000000E+00 -0.14932551130E+04  0.14932551130E+04  0.50400001928E-02 0.  1.
    10030    2    1    2    0    0  0.00000000000E+00  0.00000000000E+00 -0.35811073937E+03  0.26283994867E+04  0.26038895061E+04 0.  0.
        5    1    3    3  502    0 -0.89419934096E+03  0.47744573281E+03  0.64563625083E+03  0.12018382368E+04  0.46999998093E+01 0. -1.
       -5    1    3    3    0  502  0.89419934096E+03 -0.47744573281E+03 -0.10037469902E+04  0.14265612498E+04  0.46999998093E+01 0.  1.
</event>
<event>
 5   0  0.5036452E-05  0.2504868E+04  0.7818609E-02  0.8401253E-01
       -2   -1    0    0    0  501  0.00000000000E+00  0.00000000000E+00  0.15256211624E+04  0.15256211624E+04  0.25500000920E-02 0. -1.
        2   -1    0    0  501    0  0.00000000000E+00  0.00000000000E+00 -0.10281651385E+04  0.10281651385E+04  0.25500000920E-02 0.  1.
    10030    2    1    2    0    0  0.00000000000E+00  0.00000000000E+00  0.49745602391E+03  0.25537863009E+04  0.25048676561E+04 0.  0.
        2    1    3    3  502    0  0.12477205770E+04 -0.11288725548E+02  0.35880140795E+03  0.12983345192E+04  0.25500000920E-02 0. -1.
       -2    1    3    3    0  502 -0.12477205770E+04  0.11288725548E+02  0.13865461597E+03  0.12554517816E+04  0.25500000920E-02 0.  1.
</event>
<event>
 5   0  0.5036452E-05  0.2592757E+04  0.7818609E-02  0.8370666E-01
       -2   -1    0    0    0  501  0.00000000000E+00  0.00000000000E+00  0.10955230153E+04  0.10955230153E+04  0.25500000920E-02 0.  1.
        2   -1    0    0  501    0  0.00000000000E+00  0.00000000000E+00 -0.15340592630E+04  0.15340592630E+04  0.25500000920E-02 0. -1.
    10030    2    1    2    0    0  0.00000000000E+00  0.00000000000E+00 -0.43853624771E+03  0.26295822783E+04  0.25927570109E+04 0.  0.
        2    1    3    3  502    0  0.19849367834E+03 -0.12643009323E+04 -0.42894255152E+03  0.13497586081E+04  0.25500000920E-02 0.  1.
       -2    1    3    3    0  502 -0.19849367834E+03  0.12643009323E+04 -0.95936961817E+01  0.12798236702E+04  0.25500000920E-02 0. -1.
</event>
<event>
 5   0  0.4955675E-05  0.2477951E+04  0.7818609E-02  0.8410883E-01
       -2   -1    0    0    0  501  0.00000000000E+00  0.00000000000E+00  0.10505223079E+04  0.10505223079E+04  0.25500000920E-02 0.  1.
        2   -1    0    0  501    0  0.00000000000E+00  0.00000000000E+00 -0.14612356630E+04  0.14612356630E+04  0.25500000920E-02 0. -1.
    10030    2    1    2    0    0  0.00000000000E+00  0.00000000000E+00 -0.41071335510E+03  0.25117579708E+04  0.24779512998E+04 0.  0.
        5    1    3    3  502    0  0.66042656597E+03 -0.28153003606E+03 -0.12288932790E+04  0.14232438974E+04  0.46999998093E+01 0. -1.
       -5    1    3    3    0  502 -0.66042656597E+03  0.28153003606E+03  0.81817992391E+03  0.10885140735E+04  0.46999998093E+01 0.  1.
</event>
<event>
 5   0  0.5049803E-05  0.2504561E+04  0.7818609E-02  0.8401362E-01
       -2   -1    0    0    0  501  0.00000000000E+00  0.00000000000E+00  0.20398403274E+04  0.20398403274E+04  0.25500000920E-02 0.  1.
        2   -1    0    0  501    0  0.00000000000E+00  0.00000000000E+00 -0.76878885605E+03  0.76878885606E+03  0.25500000920E-02 0. -1.
    10030    2    1    2    0    0  0.00000000000E+00  0.00000000000E+00  0.12710514713E+04  0.28086291834E+04  0.25045610488E+04 0.  0.
        4    1    3    3  502    0  0.90058838839E+03  0.78468647075E+03  0.10572288709E+04  0.15951572966E+04  0.12699999809E+01 0.  1.
       -4    1    3    3    0  502 -0.90058838839E+03 -0.78468647075E+03  0.21382260045E+03  0.12134718868E+04  0.12699999809E+01 0. -1.
</event>
<event>
 5   0  0.2163800E-05  0.2183296E+04  0.7818609E-02  0.8525413E-01
        1   -1    0    0  501    0  0.00000000000E+00  0.00000000000E+00  0.19839489308E+04  0.19839489308E+04  0.50400001928E-02 0.  1.
       -1   -1    0    0    0  501  0.00000000000E+00  0.00000000000E+00 -0.60066832143E+03  0.60066832145E+03  0.50400001928E-02 0. -1.
    10030    2    1    2    0    0  0.00000000000E+00  0.00000000000E+00  0.13832806093E+04  0.25846172522E+04  0.21832959250E+04 0.  0.
        1    1    3    3  502    0 -0.30415850167E+03 -0.29516689521E+03 -0.49929078475E+03  0.65492532240E+03  0.50400001928E-02 0. -1.
       -1    1    3    3    0  502  0.30415850167E+03  0.29516689521E+03  0.18825713941E+04  0.19296919298E+04  0.50400001928E-02 0.  1.
</event>
<event>
 5   0  0.5049803E-05  0.2530374E+04  0.7818609E-02  0.8392244E-01
        2   -1    0    0  501    0  0.00000000000E+00  0.00000000000E+00  0.14109713658E+04  0.14109713658E+04  0.25500000920E-02 0.  1.
       -2   -1    0    0    0  501  0.00000000000E+00  0.00000000000E+00 -0.11344649485E+04  0.11344649485E+04  0.25500000920E-02 0. -1.
    10030    2    1    2    0    0  0.00000000000E+00  0.00000000000E+00  0.27650641734E+03  0.25454363143E+04  0.25303735359E+04 0.  0.
        4    1    3    3  502    0  0.61004638547E+03  0.47853000968E+03 -0.86747240111E+03  0.11634678948E+04  0.12699999809E+01 0. -1.
       -4    1    3    3    0  502 -0.61004638547E+03 -0.47853000968E+03  0.11439788185E+04  0.13819684195E+04  0.12699999809E+01 0.  1.
</event>
<event>
 5   0  0.1954502E-05  0.2456548E+04  0.7818609E-02  0.8418631E-01
        1   -1    0    0  501    0  0.00000000000E+00  0.00000000000E+00  0.19562753188E+04  0.19562753188E+04  0.50400001928E-02 0. -1.
       -1   -1    0    0    0  501  0.00000000000E+00  0.00000000000E+00 -0.77118844550E+03  0.77118844552E+03  0.50400001928E-02 0.  1.
    10030    2    1    2    0    0  0.00000000000E+00  0.00000000000E+00  0.11850868733E+04  0.27274637644E+04  0.24565479211E+04 0.  0.
        4    1    3    3  502    0  0.43478033203E+02 -0.92224878212E+03  0.14919565037E+04  0.17545281352E+04  0.12699999809E+01 0. -1.
       -4    1    3    3    0  502 -0.43478033203E+02  0.92224878212E+03 -0.30686963037E+03  0.97293562913E+03  0.12699999809E+01 0.  1.
</event>
<event>
 5   0  0.5170532E-05  0.2588712E+04  0.7818609E-02  0.8372046E-01
        2   -1    0    0  501    0  0.00000000000E+00  0.00000000000E+00  0.24873620601E+04  0.24873620601E+04  0.25500000920E-02 0.  1.
       -2   -1    0    0    0  501  0.00000000000E+00  0.00000000000E+00 -0.67354801630E+03  0.67354801630E+03  0.25500000920E-02 0. -1.
    10030    2    1    2    0    0  0.00000000000E+00  0.00000000000E+00  0.18138140438E+04  0.31609100764E+04  0.25887122524E+04 0.  0.
        1    1    3    3  502    0 -0.11689664189E+04  0.23624033942E+03  0.15211569099E+04  0.19329279167E+04  0.50400001928E-02 0.  1.
       -1    1    3    3    0  502  0.11689664189E+04 -0.23624033942E+03  0.29265713384E+03  0.12279821597E+04  0.50400001928E-02 0. -1.
</event>
<event>
 5   0  0.2159405E-05  0.2630810E+04  0.7818609E-02  0.8357811E-01
        1   -1    0    0  501    0  0.00000000000E+00  0.00000000000E+00  0.77008781834E+03  0.77008781836E+03  0.50400001928E-02 0. -1.
       -1   -1    0    0    0  501  0.00000000000E+00  0.00000000000E+00 -0.22468736726E+04  0.22468736726E+04  0.50400001928E-02 0.  1.
    10030    2    1    2    0    0  0.00000000000E+00  0.00000000000E+00 -0.14767858543E+04  0.30169614910E+04  0.26308097952E+04 0.  0.
        3    1    3    3  502    0 -0.60630883774E+02 -0.61782504947E+03  0.59152948390E+03  0.85749112902E+03  0.10100000352E+00 0. -1.
       -3    1    3    3    0  502  0.60630883774E+02  0.61782504947E+03 -0.20683153382E+04  0.21594703620E+04  0.10100000352E+00 0.  1.
</event>
<event>
 5   0  0.5182179E-05  0.2640335E+04  0.7818609E-02  0.8354628E-01
        2   -1    0    0  501    0  0.00000000000E+00  0.00000000000E+00  0.25888870206E+04  0.25888870206E+04  0.25500000920E-02 0.  1.
       -2   -1    0    0    0  501  0.00000000000E+00  0.00000000000E+00 -0.67320159509E+03  0.67320159510E+03  0.25500000920E-02 0. -1.
    10030    2    1    2    0    0  0.00000000000E+00  0.00000000000E+00  0.19156854255E+04  0.32620886156E+04  0.26403354876E+04 0.  0.
        3    1    3    3  502    0  0.67720962172E+01 -0.14159161534E+03  0.25794572223E+04  0.25833493025E+04  0.10100000352E+00 0.  1.
       -3    1    3    3    0  502 -0.67720962172E+01  0.14159161534E+03 -0.66377179681E+03  0.67873931318E+03  0.10100000352E+00 0. -1.
</event>
<event>
 5   0  0.1993815E-05  0.2599838E+04  0.7818609E-02  0.8368256E-01
        1   -1    0    0  501    0  0.00000000000E+00  0.00000000000E+00  0.11633783283E+04  0.11633783283E+04  0.50400001928E-02 0. -1.
       -1   -1    0    0    0  501  0.00000000000E+00  0.00000000000E+00 -0.14524844553E+04  0.14524844553E+04  0.50400001928E-02 0.  1.
    10030    2    1    2    0    0  0.00000000000E+00  0.00000000000E+00 -0.28910612700E+03  0.26158627836E+04  0.25998376391E+04 0.  0.
        5    1    3    3  502    0  0.11929317521E+02 -0.59048345228E+03 -0.13096864444E+04  0.14367023661E+04  0.46999998093E+01 0.  1.
       -5    1    3    3    0  502 -0.11929317521E+02  0.59048345228E+03  0.10205803174E+04  0.11791604175E+04  0.46999998093E+01 0. -1.
</event>
<event>
 5   0  0.5170532E-05  0.2570631E+04  0.7818609E-02  0.8378246E-01
        2   -1    0    0  501    0  0.00000000000E+00  0.00000000000E+00  0.20084428576E+04  0.20084428576E+04  0.25500000920E-02 0.  1.
       -2   -1    0    0    0  501  0.00000000000E+00  0.00000000000E+00 -0.82254555500E+03  0.82254555501E+03  0.25500000920E-02 0. -1.
    10030    2    1    2    0    0  0.00000000000E+00  0.00000000000E+00  0.11858973026E+04  0.28309884126E+04  0.25706308525E+04 0.  0.
        1    1    3    3  502    0 -0.34110618311E+03  0.11400518469E+04  0.57988607199E+02  0.11914001512E+04  0.50400001928E-02 0. -1.
       -1    1    3    3    0  502  0.34110618311E+03 -0.11400518469E+04  0.11279086954E+04  0.16395882614E+04  0.50400001928E-02 0.  1.
</event>
<event>
 5   0  0.5182179E-05  0.2504046E+04  0.7818609E-02  0.8401546E-01
       -2   -1    0    0    0  501  0.00000000000E+00  0.00000000000E+00  0.19586682078E+04  0.19586682078E+04  0.25500000920E-02 0.  1.
        2   -1    0    0  501    0  0.00000000000E+00  0.00000000000E+00 -0.80032000459E+03  0.80032000459E+03  0.25500000920E-02 0. -1.
    10030    2    1    2    0    0  0.00000000000E+00  0.00000000000E+00  0.11583482033E+04  0.27589882124E+04  0.25040458056E+04 0.  0.
        3    1    3    3  502    0 -0.25291143087E+03 -0.11929164936E+04  0.26647019828E+03  0.12482068456E+04  0.10100000352E+00 0. -1.
       -3    1    3    3    0  502  0.25291143087E+03  0.11929164936E+04  0.89187800497E+03  0.15107813669E+04  0.10100000352E+00 0.  1.
</event>
<event>
 5   0  0.1698625E-05  0.2581714E+04  0.7818609E-02  0.8374439E-01
        3   -1    0    0  501    0  0.00000000000E+00  0.00000000000E+00  0.12101388009E+04  0.12101388051E+04  0.10100000352E+00 0. -1.
       -3   -1    0    0    0  501  0.00000000000E+00  0.00000000000E+00 -0.13769588306E+04  0.13769588343E+04  0.10100000352E+00 0.  1.
    10030    2    1    2    0    0  0.00000000000E+00  0.00000000000E+00 -0.16682002973E+03  0.25870976394E+04  0.25817136312E+04 0.  0.
        1    1    3    3  502    0  0.64451774433E+03  0.60321979546E+03 -0.10271989976E+04  0.13544057830E+04  0.50400001928E-02 0.  1.
       -1    1    3    3    0  502 -0.64451774433E+03 -0.60321979546E+03  0.86037896790E+03  0.12326918564E+04  0.50400001928E-02 0. -1.
</event>
<event>
 5   0  0.1954502E-05  0.2575733E+04  0.7818609E-02  0.8376491E-01
        1   -1    0    0  501    0  0.00000000000E+00  0.00000000000E+00  0.15303602208E+04  0.15303602208E+04  0.50400001928E-02 0. -1.
       -1   -1    0    0    0  501  0.00000000000E+00  0.00000000000E+00 -0.10837975697E+04  0.10837975697E+04  0.50400001928E-02 0.  1.
    10030    2    1    2    0    0  0.00000000000E+00  0.00000000000E+00  0.44656265111E+03  0.26141577906E+04  0.25757334397E+04 0.  0.
        4    1    3    3  502    0 -0.70946172398E+03 -0.10747690934E+04  0.21150944919E+03  0.13050679683E+04  0.12699999809E+01 0. -1.
       -4    1    3    3    0  502  0.70946172398E+03  0.10747690934E+04  0.23505320192E+03  0.13090898222E+04  0.12699999809E+01 0.  1.
</event>
<event>
 5   0  0.1954502E-05  0.2543014E+04  0.7818609E-02  0.8387820E-01
        1   -1    0    0  501    0  0.00000000000E+00  0.00000000000E+00  0.19595671368E+04  0.19595671368E+04  0.50400001928E-02 0.  1.
       -1   -1    0    0    0  501  0.00000000000E+00  0.00000000000E+00 -0.82504443084E+03  0.82504443086E+03  0.50400001928E-02 0. -1.
    10030    2    1    2    0    0  0.00000000000E+00  0.00000000000E+00  0.11345227059E+04  0.27846115677E+04  0.25430139230E+04 0.  0.
        4    1    3    3  502    0  0.52511344463E+03 -0.50481953275E+03 -0.57393159396E+03  0.92735428927E+03  0.12699999809E+01 0. -1.
       -4    1    3    3    0  502 -0.52511344463E+03  0.50481953275E+03  0.17084542999E+04  0.18572572784E+04  0.12699999809E+01 0.  1.
</event>
<event>
 5   0  0.5049803E-05  0.2615645E+04  0.7818609E-02  0.8362906E-01
        2   -1    0    0  501    0  0.00000000000E+00  0.00000000000E+00  0.94534247868E+03  0.94534247868E+03  0.25500000920E-02 0. -1.
       -2   -1    0    0    0  501  0.00000000000E+00  0.00000000000E+00 -0.18092912820E+04  0.18092912820E+04  0.25500000920E-02 0.  1.
    10030    2    1    2    0    0  0.00000000000E+00  0.00000000000E+00 -0.86394880334E+03  0.27546337607E+04  0.26156451634E+04 0.  0.
        4    1    3    3  502    0  0.88748921498E+03  0.80720132181E+02 -0.14400450108E+04  0.16934828291E+04  0.12699999809E+01 0.  1.
       -4    1    3    3    0  502 -0.88748921498E+03 -0.80720132181E+02  0.57609620747E+03  0.10611509316E+04  0.12699999809E+01 0. -1.
</event>
<event>
 5   0  0.5170532E-05  0.2530624E+04  0.7818609E-02  0.8392156E-01
       -2   -1    0    0    0  501  0.00000000000E+00  0.00000000000E+00  0.11931874434E+04  0.11931874434E+04  0.25500000920E-02 0.  1.
        2   -1    0    0  501    0  0.00000000000E+00  0.00000000000E+00 -0.13417962161E+04  0.13417962161E+04  0.25500000920E-02 0. -1.
    10030    2    1    2    0    0  0.00000000000E+00  0.00000000000E+00 -0.14860877269E+03  0.25349836595E+04  0.25306239521E+04 0.  0.
        1    1    3    3  502    0  0.82038708987E+03  0.42208777792E+03 -0.94171842041E+03  0.13183423883E+04  0.50400001928E-02 0. -1.
       -1    1    3    3    0  502 -0.82038708987E+03 -0.42208777792E+03  0.79310964772E+03  0.12166412712E+04  0.50400001928E-02 0.  1.
</event>
<event>
 5   0  0.2163800E-05  0.2479805E+04  0.7818609E-02  0.8410215E-01
        1   -1    0    0  501    0  0.00000000000E+00  0.00000000000E+00  0.11476144864E+04  0.11476144864E+04  0.50400001928E-02 0.  1.
       -1   -1    0    0    0  501  0.00000000000E+00  0.00000000000E+00 -0.13396124959E+04  0.13396124959E+04  0.50400001928E-02 0. -1.
    10030    2    1    2    0    0  0.00000000000E+00  0.00000000000E+00 -0.19199800948E+03  0.24872269823E+04  0.24798054008E+04 0.  0.
        1    1    3    3  502    0  0.32783170805E+02 -0.10120511153E+04 -0.81370782474E+03  0.12990160201E+04  0.50400001928E-02 0. -1.
       -1    1    3    3    0  502 -0.32783170805E+02  0.10120511153E+04  0.62170981526E+03  0.11882109622E+04  0.50400001928E-02 0.  1.
</event>
<event>
 5   0  0.4955675E-05  0.1614069E+04  0.7818609E-02  0.8811951E-01
       -2   -1    0    0    0  501  0.00000000000E+00  0.00000000000E+00  0.67327442661E+03  0.67327442661E+03  0.25500000920E-02 0.  1.
        2   -1    0    0  501    0  0.00000000000E+00  0.00000000000E+00 -0.96736898365E+03  0.96736898366E+03  0.25500000920E-02 0. -1.
    10030    2    1    2    0    0  0.00000000000E+00  0.00000000000E+00 -0.29409455705E+03  0.16406434103E+04  0.16140691408E+04 0.  0.
        5    1    3    3  502    0 -0.95305250217E+02  0.30962739863E+03  0.60426378453E+03  0.68564497227E+03  0.46999998093E+01 0.  1.
       -5    1    3    3    0  502  0.95305250217E+02 -0.30962739863E+03 -0.89835834158E+03  0.95499843800E+03  0.46999998093E+01 0. -1.
</event>
<event>
 5   0  0.1954502E-05  0.1337522E+04  0.7818609E-02  0.9000328E-01
       -1   -1    0    0    0  501  0.00000000000E+00  0.00000000000E+00  0.35289326254E+03  0.35289326258E+03  0.50400001928E-02 0.  1.
        1   -1    0    0  501    0  0.00000000000E+00  0.00000000000E+00 -0.12673562604E+04  0.12673562604E+04  0.50400001928E-02 0. -1.
    10030    2    1    2    0    0  0.00000000000E+00  0.00000000000E+00 -0.91446299781E+03  0.16202495229E+04  0.13375223147E+04 0.  0.
        4    1    3    3  502    0  0.29613309303E+03  0.59232589492E+03 -0.34427320910E+03  0.74637150936E+03  0.12699999809E+01 0. -1.
       -4    1    3    3    0  502 -0.29613309303E+03 -0.59232589492E+03 -0.57018978870E+03  0.87387801358E+03  0.12699999809E+01 0.  1.
</event>
<event>
 5   0  0.1993815E-05  0.2646855E+04  0.7818609E-02  0.8352458E-01
        1   -1    0    0  501    0  0.00000000000E+00  0.00000000000E+00  0.14044510270E+04  0.14044510270E+04  0.50400001928E-02 0.  1.
       -1   -1    0    0    0  501  0.00000000000E+00  0.00000000000E+00 -0.12470778151E+04  0.12470778151E+04  0.50400001928E-02 0. -1.
    10030    2    1    2    0    0  0.00000000000E+00  0.00000000000E+00  0.15737321189E+03  0.26515288421E+04  0.26468545242E+04 0.  0.
        5    1    3    3  502    0 -0.12251916925E+04 -0.23568642575E+03 -0.36344852320E+03  0.12995228715E+04  0.46999998093E+01 0. -1.
       -5    1    3    3    0  502  0.12251916925E+04  0.23568642575E+03  0.52082173508E+03  0.13520059705E+04  0.46999998093E+01 0.  1.
</event>
<event>
 5   0  0.2072710E-05  0.2700995E+04  0.7818609E-02  0.8334682E-01
       -1   -1    0    0    0  501  0.00000000000E+00  0.00000000000E+00  0.12358879231E+04  0.12358879232E+04  0.50400001928E-02 0.  1.
        1   -1    0    0  501    0  0.00000000000E+00  0.00000000000E+00 -0.14757356299E+04  0.14757356299E+04  0.50400001928E-02 0. -1.
    10030    2    1    2    0    0  0.00000000000E+00  0.00000000000E+00 -0.23984770674E+03  0.27116235531E+04  0.27009952557E+04 0.  0.
        2    1    3    3  502    0  0.81367256761E+03 -0.91064766709E+03 -0.69882240129E+03  0.14070163359E+04  0.25500000920E-02 0. -1.
       -2    1    3    3    0  502 -0.81367256761E+03  0.91064766709E+03  0.45897469455E+03  0.13046072172E+04  0.25500000920E-02 0.  1.
</event>
<event>
 5   0  0.5049803E-05  0.2588917E+04  0.7818609E-02  0.8371976E-01
       -2   -1    0    0    0  501  0.00000000000E+00  0.00000000000E+00  0.14751473809E+04  0.14751473809E+04  0.25500000920E-02 0. -1.
        2   -1    0    0  501    0  0.00000000000E+00  0.00000000000E+00 -0.11359015303E+04  0.11359015303E+04  0.25500000920E-02 0.  1.
    10030    2    1    2    0    0  0.00000000000E+00  0.00000000000E+00  0.33924585067E+03  0.26110489112E+04  0.25889165049E+04 0.  0.
        4    1    3    3  502    0 -0.59526249711E+03  0.11284614852E+04  0.39025735537E+03  0.13341908335E+04  0.12699999809E+01 0.  1.
       -4    1    3    3    0  502  0.59526249711E+03 -0.11284614852E+04 -0.51011504708E+02  0.12768580777E+04  0.12699999809E+01 0. -1.
</event>
<event>
 5   0  0.2163800E-05  0.2781329E+04  0.7818609E-02  0.8309089E-01
        1   -1    0    0  501    0  0.00000000000E+00  0.00000000000E+00  0.12741821614E+04  0.12741821614E+04  0.50400001928E-02 0.  1.
       -1   -1    0    0    0  501  0.00000000000E+00  0.00000000000E+00 -0.15177952891E+04  0.15177952891E+04  0.50400001928E-02 0. -1.
    10030    2    1    2    0    0  0.00000000000E+00  0.00000000000E+00 -0.24361312772E+03  0.27919774505E+04  0.27813289500E+04 0.  0.
        1    1    3    3  502    0  0.38054896741E+03 -0.11703537127E+04 -0.77189880275E+03  0.14527123222E+04  0.50400001928E-02 0. -1.
       -1    1    3    3    0  502 -0.38054896741E+03  0.11703537127E+04  0.52828567504E+03  0.13392651283E+04  0.50400001928E-02 0.  1.
</event>
<event>
 5   0  0.2159405E-05  0.2534002E+04  0.7818609E-02  0.8390971E-01
        1   -1    0    0  501    0  0.00000000000E+00  0.00000000000E+00  0.22217027831E+04  0.22217027832E+04  0.50400001928E-02 0.  1.
       -1   -1    0    0    0  501  0.00000000000E+00  0.00000000000E+00 -0.72255019020E+03  0.72255019022E+03  0.50400001928E-02 0. -1.
    10030    2    1    2    0    0  0.00000000000E+00  0.00000000000E+00  0.14991525929E+04  0.29442529734E+04  0.25340021851E+04 0.  0.
        3    1    3    3  502    0  0.88755746996E+03 -0.87147997817E+03  0.10295338755E+04  0.16146750836E+04  0.10100000352E+00 0. -1.
       -3    1    3    3    0  502 -0.88755746996E+03  0.87147997817E+03  0.46961871749E+03  0.13295778897E+04  0.10100000352E+00 0.  1.
</event>
<event>
 5   0  0.5036452E-05  0.2606062E+04  0.7818609E-02  0.8366145E-01
       -2   -1    0    0    0  501  0.00000000000E+00  0.00000000000E+00  0.93386902629E+03  0.93386902629E+03  0.25500000920E-02 0. -1.
        2   -1    0    0  501    0  0.00000000000E+00  0.00000000000E+00 -0.18181237846E+04  0.18181237846E+04  0.25500000920E-02 0.  1.
    10030    2    1    2    0    0  0.00000000000E+00  0.00000000000E+00 -0.88425475829E+03  0.27519928109E+04  0.26060617709E+04 0.  0.
        2    1    3    3  502    0  0.33439040080E+02 -0.11062729421E+04 -0.11683365161E+04  0.16093378162E+04  0.25500000920E-02 0.  1.
       -2    1    3    3    0  502 -0.33439040080E+02  0.11062729421E+04  0.28408175778E+03  0.11426549947E+04  0.25500000920E-02 0. -1.
</event>
<event>
 5   0  0.5049803E-05  0.2250086E+04  0.7818609E-02  0.8497866E-01
        2   -1    0    0  501    0  0.00000000000E+00  0.00000000000E+00  0.24747315323E+04  0.24747315323E+04  0.25500000920E-02 0.  1.
       -2   -1    0    0    0  501  0.00000000000E+00  0.00000000000E+00 -0.51145805132E+03  0.51145805133E+03  0.25500000920E-02 0. -1.
    10030    2    1    2    0    0  0.00000000000E+00  0.00000000000E+00  0.19632734810E+04  0.29861895837E+04  0.22500856580E+04 0.  0.
        4    1    3    3  502    0  0.85315305453E+03  0.53238924254E+02  0.19523733309E+04  0.21313065837E+04  0.12699999809E+01 0. -1.
       -4    1    3    3    0  502 -0.85315305453E+03 -0.53238924254E+02  0.10900150121E+02  0.85488300000E+03  0.12699999809E+01 0.  1.
</event>
<event>
 5   0  0.1993815E-05  0.2537762E+04  0.7818609E-02  0.8389655E-01
       -1   -1    0    0    0  501  0.00000000000E+00  0.00000000000E+00  0.13936414764E+04  0.13936414765E+04  0.50400001928E-02 0. -1.
        1   -1    0    0  501    0  0.00000000000E+00  0.00000000000E+00 -0.11552891727E+04  0.11552891727E+04  0.50400001928E-02 0.  1.
    10030    2    1    2    0    0  0.00000000000E+00  0.00000000000E+00  0.23835230378E+03  0.25489306491E+04  0.25377619339E+04 0.  0.
        5    1    3    3  502    0 -0.10265372489E+04 -0.62929092728E+03 -0.28289928927E+03  0.12368669663E+04  0.46999998093E+01 0.  1.
       -5    1    3    3    0  502  0.10265372489E+04  0.62929092728E+03  0.52125159305E+03  0.13120636828E+04  0.46999998093E+01 0. -1.
</event>
<event>
 5   0  0.5049803E-05  0.2192932E+04  0.7818609E-02  0.8521376E-01
       -2   -1    0    0    0  501  0.00000000000E+00  0.00000000000E+00  0.89174094511E+03  0.89174094511E+03  0.25500000920E-02 0.  1.
        2   -1    0    0  501    0  0.00000000000E+00  0.00000000000E+00 -0.13481915067E+04  0.13481915067E+04  0.25500000920E-02 0. -1.
    10030    2    1    2    0    0  0.00000000000E+00  0.00000000000E+00 -0.45645056158E+03  0.22399324518E+04  0.21929318898E+04 0.  0.
        4    1    3    3  502    0 -0.66076346275E+03 -0.87100809908E+03 -0.14293415920E+03  0.11025857106E+04  0.12699999809E+01 0.  1.
       -4    1    3    3    0  502  0.66076346275E+03  0.87100809908E+03 -0.31351640238E+03  0.11373467412E+04  0.12699999809E+01 0. -1.
</event>
<event>
 5   0  0.2072710E-05  0.2478381E+04  0.7818609E-02  0.8410728E-01
        1   -1    0    0  501    0  0.00000000000E+00  0.00000000000E+00  0.16265441991E+04  0.16265441991E+04  0.50400001928E-02 0.  1.
       -1   -1    0    0    0  501  0.00000000000E+00  0.00000000000E+00 -0.94408297665E+03  0.94408297666E+03  0.50400001928E-02 0. -1.
    10030    2    1    2    0    0  0.00000000000E+00  0.00000000000E+00  0.68246122249E+03  0.25706271758E+04  0.24783806723E+04 0.  0.
        2    1    3    3  502    0  0.41759150396E+03  0.36966122673E+03  0.14890174018E+04  0.15900329901E+04  0.25500000920E-02 0.  1.
       -2    1    3    3    0  502 -0.41759150396E+03 -0.36966122673E+03 -0.80655617929E+03  0.98059418573E+03  0.25500000920E-02 0. -1.
</event>
<event>
 5   0  0.4955675E-05  0.2599131E+04  0.7818609E-02  0.8368497E-01
       -2   -1    0    0    0  501  0.00000000000E+00  0.00000000000E+00  0.15271175298E+04  0.15271175298E+04  0.25500000920E-02 0. -1.
        2   -1    0    0  501    0  0.00000000000E+00  0.00000000000E+00 -0.11059200999E+04  0.11059200999E+04  0.25500000920E-02 0.  1.
    10030    2    1    2    0    0  0.00000000000E+00  0.00000000000E+00  0.42119742992E+03  0.26330376297E+04  0.25991306017E+04 0.  0.
        5    1    3    3  502    0  0.38505350455E+03 -0.57123756729E+03 -0.90571555034E+03  0.11379460918E+04  0.46999998093E+01 0.  1.
       -5    1    3    3    0  502 -0.38505350455E+03  0.57123756729E+03  0.13269129803E+04  0.14950915379E+04  0.46999998093E+01 0. -1.
</event>
<event>
 5   0  0.1954502E-05  0.2091887E+04  0.7818609E-02  0.8564826E-01
       -1   -1    0    0    0  501  0.00000000000E+00  0.00000000000E+00  0.83835684082E+03  0.83835684084E+03  0.50400001928E-02 0. -1.
        1   -1    0    0  501    0  0.00000000000E+00  0.00000000000E+00 -0.13049307145E+04  0.13049307145E+04  0.50400001928E-02 0.  1.
    10030    2    1    2    0    0  0.00000000000E+00  0.00000000000E+00 -0.46657387368E+03  0.21432875553E+04  0.20918867955E+04 0.  0.
        4    1    3    3  502    0  0.63429211799E+02 -0.30987268266E+03 -0.12547552283E+04  0.12940079753E+04  0.12699999809E+01 0.  1.
       -4    1    3    3    0  502 -0.63429211799E+02  0.30987268266E+03  0.78818135462E+03  0.84927958002E+03  0.12699999809E+01 0. -1.
</event>
<event>
 5   0  0.5182179E-05  0.2652494E+04  0.7818609E-02  0.8350586E-01
        2   -1    0    0  501    0  0.00000000000E+00  0.00000000000E+00  0.16245516627E+04  0.16245516627E+04  0.25500000920E-02 0. -1.
       -2   -1    0    0    0  501  0.00000000000E+00  0.00000000000E+00 -0.10827180284E+04  0.10827180284E+04  0.25500000920E-02 0.  1.
    10030    2    1    2    0    0  0.00000000000E+00  0.00000000000E+00  0.54183363430E+03  0.27072696911E+04  0.26524942023E+04 0.  0.
        3    1    3    3  502    0  0.27543604277E+03  0.12887195836E+04  0.11860995181E+03  0.13231521113E+04  0.10100000352E+00 0.  1.
       -3    1    3    3    0  502 -0.27543604277E+03 -0.12887195836E+04  0.42322368249E+03  0.13841175797E+04  0.10100000352E+00 0. -1.
</event>
<event>
 5   0  0.2072710E-05  0.2587768E+04  0.7818609E-02  0.8372368E-01
       -1   -1    0    0    0  501  0.00000000000E+00  0.00000000000E+00  0.11403686108E+04  0.11403686108E+04  0.50400001928E-02 0.  1.
        1   -1    0    0  501    0  0.00000000000E+00  0.00000000000E+00 -0.14680657051E+04  0.14680657051E+04  0.50400001928E-02 0. -1.
    10030    2    1    2    0    0  0.00000000000E+00  0.00000000000E+00 -0.32769709429E+03  0.26084343158E+04  0.25877681879E+04 0.  0.
        2    1    3    3  502    0 -0.10442622208E+04  0.34419712199E+03  0.52363993707E+03  0.12178481138E+04  0.25500000920E-02 0.  1.
       -2    1    3    3    0  502  0.10442622208E+04 -0.34419712199E+03 -0.85133703135E+03  0.13905862021E+04  0.25500000920E-02 0. -1.
</event>
<event>
 5   0  0.5036452E-05  0.2406237E+04  0.7818609E-02  0.8437172E-01
        2   -1    0    0  501    0  0.00000000000E+00  0.00000000000E+00  0.14893390995E+04  0.14893390995E+04  0.25500000920E-02 0. -1.
       -2   -1    0    0    0  501  0.00000000000E+00  0.00000000000E+00 -0.97190402140E+03  0.97190402140E+03  0.25500000920E-02 0.  1.
    10030    2    1    2    0    0  0.00000000000E+00  0.00000000000E+00  0.51743507807E+03  0.24612431209E+04  0.24062374447E+04 0.  0.
        2    1    3    3  502    0  0.62525839870E+03  0.41388055892E+03 -0.70366752478E+03  0.10282962451E+04  0.25500000920E-02 0.  1.
       -2    1    3    3    0  502 -0.62525839870E+03 -0.41388055892E+03  0.12211026029E+04  0.14329468758E+04  0.25500000920E-02 0. -1.
</event>
<event>
 5   0  0.5049803E-05  0.2489548E+04  0.7818609E-02  0.8406718E-01
        2   -1    0    0  501    0  0.00000000000E+00  0.00000000000E+00  0.95833371355E+03  0.95833371356E+03  0.25500000920E-02 0. -1.
       -2   -1    0    0    0  501  0.00000000000E+00  0.00000000000E+00 -0.16168301705E+04  0.16168301705E+04  0.25500000920E-02 0.  1.
    10030    2    1    2    0    0  0.00000000000E+00  0.00000000000E+00 -0.65849645690E+03  0.25751638840E+04  0.24895484421E+04 0.  0.
        4    1    3    3  502    0 -0.12341464229E+04  0.15727788555E+03 -0.28777548561E+03  0.12769769260E+04  0.12699999809E+01 0.  1.
       -4    1    3    3    0  502  0.12341464229E+04 -0.15727788555E+03 -0.37072097128E+03  0.12981869580E+04  0.12699999809E+01 0. -1.
</event>
<event>
 5   0  0.4955675E-05  0.2598244E+04  0.7818609E-02  0.8368798E-01
        2   -1    0    0  501    0  0.00000000000E+00  0.00000000000E+00  0.16634229302E+04  0.16634229302E+04  0.25500000920E-02 0. -1.
       -2   -1    0    0    0  501  0.00000000000E+00  0.00000000000E+00 -0.10146053237E+04  0.10146053237E+04  0.25500000920E-02 0.  1.
    10030    2    1    2    0    0  0.00000000000E+00  0.00000000000E+00  0.64881760652E+03  0.26780282538E+04  0.25982438380E+04 0.  0.
        5    1    3    3  502    0 -0.41544222830E+03 -0.12304962777E+04  0.35671347047E+03  0.13468407198E+04  0.46999998093E+01 0.  1.
       -5    1    3    3    0  502  0.41544222830E+03  0.12304962777E+04  0.29210413605E+03  0.13311875340E+04  0.46999998093E+01 0. -1.
</event>
<event>
 5   0  0.2163800E-05  0.2336053E+04  0.7818609E-02  0.8463840E-01
        1   -1    0    0  501    0  0.00000000000E+00  0.00000000000E+00  0.86527614834E+03  0.86527614835E+03  0.50400001928E-02 0.  1.
       -1   -1    0    0    0  501  0.00000000000E+00  0.00000000000E+00 -0.15767062109E+04  0.15767062109E+04  0.50400001928E-02 0. -1.
    10030    2    1    2    0    0  0.00000000000E+00  0.00000000000E+00 -0.71143006259E+03  0.24419823593E+04  0.23360533190E+04 0.  0.
        1    1    3    3  502    0 -0.36167517015E+03  0.77277800335E+03 -0.11895648414E+04  0.14639191518E+04  0.50400001928E-02 0. -1.
       -1    1    3    3    0  502  0.36167517015E+03 -0.77277800335E+03  0.47813477877E+03  0.97806320749E+03  0.50400001928E-02 0.  1.
</event>
<event>
 5   0  0.2072710E-05  0.2420869E+04  0.7818609E-02  0.8431732E-01
       -1   -1    0    0    0  501  0.00000000000E+00  0.00000000000E+00  0.97073450491E+03  0.97073450492E+03  0.50400001928E-02 0. -1.
        1   -1    0    0  501    0  0.00000000000E+00  0.00000000000E+00 -0.15093226710E+04  0.15093226710E+04  0.50400001928E-02 0.  1.
    10030    2    1    2    0    0  0.00000000000E+00  0.00000000000E+00 -0.53858816609E+03  0.24800571759E+04  0.24208689314E+04 0.  0.
        2    1    3    3  502    0  0.10836270237E+04 -0.53244456320E+03 -0.18112681578E+03  0.12208815105E+04  0.25500000920E-02 0. -1.
       -2    1    3    3    0  502 -0.10836270237E+04  0.53244456320E+03 -0.35746135030E+03  0.12591756654E+04  0.25500000920E-02 0.  1.
</event>
<event>
 5   0  0.4955675E-05  0.2582470E+04  0.7818609E-02  0.8374180E-01
       -2   -1    0    0    0  501  0.00000000000E+00  0.00000000000E+00  0.10984812530E+04  0.10984812530E+04  0.25500000920E-02 0.  1.
        2   -1    0    0  501    0  0.00000000000E+00  0.00000000000E+00 -0.15178115095E+04  0.15178115095E+04  0.25500000920E-02 0. -1.
    10030    2    1    2    0    0  0.00000000000E+00  0.00000000000E+00 -0.41933025651E+03  0.26162927625E+04  0.25824697394E+04 0.  0.
        5    1    3    3  502    0 -0.11893491093E+04  0.44459331758E+03 -0.44736733803E+03  0.13462444603E+04  0.46999998093E+01 0. -1.
       -5    1    3    3    0  502  0.11893491093E+04 -0.44459331758E+03  0.28037081525E+02  0.12700483022E+04  0.46999998093E+01 0.  1.
</event>
<event>
 5   0  0.2159405E-05  0.2626839E+04  0.7818609E-02  0.8359142E-01
       -1   -1    0    0    0  501  0.00000000000E+00  0.00000000000E+00  0.64049935895E+03  0.64049935897E+03  0.50400001928E-02 0.  1.
        1   -1    0    0  501    0  0.00000000000E+00  0.00000000000E+00 -0.26933207209E+04  0.26933207209E+04  0.50400001928E-02 0. -1.
    10030    2    1    2    0    0  0.00000000000E+00  0.00000000000E+00 -0.20528213619E+04  0.33338200798E+04  0.26268385525E+04 0.  0.
        3    1    3    3  502    0  0.22013063186E+03 -0.12923611685E+04 -0.92475836853E+03  0.16043169685E+04  0.10100000352E+00 0. -1.
       -3    1    3    3    0  502 -0.22013063186E+03  0.12923611685E+04 -0.11280629934E+04  0.17295031114E+04  0.10100000352E+00 0.  1.
</event>
<event>
 5   0  0.5170532E-05  0.2653225E+04  0.7818609E-02  0.8350343E-01
        2   -1    0    0  501    0  0.00000000000E+00  0.00000000000E+00  0.10193412584E+04  0.10193412584E+04  0.25500000920E-02 0. -1.
       -2   -1    0    0    0  501  0.00000000000E+00  0.00000000000E+00 -0.17265078475E+04  0.17265078475E+04  0.25500000920E-02 0.  1.
    10030    2    1    2    0    0  0.00000000000E+00  0.00000000000E+00 -0.70716658907E+03  0.27458491059E+04  0.26532249674E+04 0.  0.
        1    1    3    3  502    0 -0.43053375079E+03  0.97869527969E+03  0.45913209216E+03  0.11636176516E+04  0.50400001928E-02 0. -1.
       -1    1    3    3    0  502  0.43053375079E+03 -0.97869527969E+03 -0.11662986812E+04  0.15822314543E+04  0.50400001928E-02 0.  1.
</event>
<event>
 5   0  0.2163800E-05  0.2630038E+04  0.7818609E-02  0.8358069E-01
        1   -1    0    0  501    0  0.00000000000E+00  0.00000000000E+00  0.18078445812E+04  0.18078445812E+04  0.50400001928E-02 0.  1.
       -1   -1    0    0    0  501  0.00000000000E+00  0.00000000000E+00 -0.95653961957E+03  0.95653961958E+03  0.50400001928E-02 0. -1.
    10030    2    1    2    0    0  0.00000000000E+00  0.00000000000E+00  0.85130496161E+03  0.27643842008E+04  0.26300379982E+04 0.  0.
        1    1    3    3  502    0  0.10464203217E+04  0.19230763019E+03  0.12379808827E+04  0.16323524069E+04  0.50400001928E-02 0.  1.
       -1    1    3    3    0  502 -0.10464203217E+04 -0.19230763019E+03 -0.38667592107E+03  0.11320317939E+04  0.50400001928E-02 0. -1.
</event>
<event>
 5   0  0.5170532E-05  0.2449559E+04  0.7818609E-02  0.8421179E-01
       -2   -1    0    0    0  501  0.00000000000E+00  0.00000000000E+00  0.72295396208E+03  0.72295396208E+03  0.25500000920E-02 0.  1.
        2   -1    0    0  501    0  0.00000000000E+00  0.00000000000E+00 -0.20749376161E+04  0.20749376161E+04  0.25500000920E-02 0. -1.
    10030    2    1    2    0    0  0.00000000000E+00  0.00000000000E+00 -0.13519836540E+04  0.27978915781E+04  0.24495586301E+04 0.  0.
        1    1    3    3  502    0 -0.51389574635E+03 -0.82324314710E+03  0.17742996872E+03  0.98655943115E+03  0.50400001928E-02 0.  1.
       -1    1    3    3    0  502  0.51389574635E+03  0.82324314710E+03 -0.15294136227E+04  0.18113321470E+04  0.50400001928E-02 0. -1.
</event>
<event>
 5   0  0.5170532E-05  0.2151009E+04  0.7818609E-02  0.8539100E-01
       -2   -1    0    0    0  501  0.00000000000E+00  0.00000000000E+00  0.11120998503E+04  0.11120998503E+04  0.25500000920E-02 0. -1.
        2   -1    0    0  501    0  0.00000000000E+00  0.00000000000E+00 -0.10401135671E+04  0.10401135671E+04  0.25500000920E-02 0.  1.
    10030    2    1    2    0    0  0.00000000000E+00  0.00000000000E+00  0.71986283227E+02  0.21522134173E+04  0.21510091977E+04 0.  0.
        1    1    3    3  502    0  0.10154918518E+04 -0.35354476327E+03  0.13787442434E+02  0.10753639823E+04  0.50400001928E-02 0.  1.
       -1    1    3    3    0  502 -0.10154918518E+04  0.35354476327E+03  0.58198840793E+02  0.10768494351E+04  0.50400001928E-02 0. -1.
</event>
<event>
 5   0  0.4955675E-05  0.2593787E+04  0.7818609E-02  0.8370315E-01
       -2   -1    0    0    0  501  0.00000000000E+00  0.00000000000E+00  0.20895451560E+04  0.20895451560E+04  0.25500000920E-02 0. -1.
        2   -1    0    0  501    0  0.00000000000E+00  0.00000000000E+00 -0.80492786885E+03  0.80492786885E+03  0.25500000920E-02 0.  1.
    10030    2    1    2    0    0  0.00000000000E+00  0.00000000000E+00  0.12846172871E+04  0.28944730248E+04  0.25937872922E+04 0.  0.
        5    1    3    3  502    0 -0.93266782317E+03  0.51058211668E+03  0.14709143528E+04  0.18149860852E+04  0.46999998093E+01 0. -1.
       -5    1    3    3    0  502  0.93266782317E+03 -0.51058211668E+03 -0.18629706562E+03  0.10794869397E+04  0.46999998093E+01 0.  1.
</event>
<event>
 5   0  0.5182179E-05  0.2543591E+04  0.7818609E-02  0.8387619E-01
        2   -1    0    0  501    0  0.00000000000E+00  0.00000000000E+00  0.84209263537E+03  0.84209263537E+03  0.25500000920E-02 0.  1.
       -2   -1    0    0    0  501  0.00000000000E+00  0.00000000000E+00 -0.19207663606E+04  0.19207663606E+04  0.25500000920E-02 0. -1.
    10030    2    1    2    0    0  0.00000000000E+00  0.00000000000E+00 -0.10786737252E+04  0.27628589959E+04  0.25435905382E+04 0.  0.
        3    1    3    3  502    0 -0.59775500239E+03 -0.98630000127E+03  0.42938009474E+02  0.11540980973E+04  0.10100000352E+00 0.  1.
       -3    1    3    3    0  502  0.59775500239E+03  0.98630000127E+03 -0.11216117347E+04  0.16087608986E+04  0.10100000352E+00 0. -1.
</event>
<event>
 5   0  0.1954502E-05  0.1473355E+04  0.7818609E-02  0.8902367E-01
       -1   -1    0    0    0  501  0.00000000000E+00  0.00000000000E+00  0.53425657060E+03  0.53425657063E+03  0.50400001928E-02 0. -1.
        1   -1    0    0  501    0  0.00000000000E+00  0.00000000000E+00 -0.10157924493E+04  0.10157924493E+04  0.50400001928E-02 0.  1.
    10030    2    1    2    0    0  0.00000000000E+00  0.00000000000E+00 -0.48153587871E+03  0.15500490199E+04  0.14733550698E+04 0.  0.
        4    1    3    3  502    0 -0.37273085734E+03  0.23268664731E+03  0.38129832305E+03  0.58177434793E+03  0.12699999809E+01 0. -1.
       -4    1    3    3    0  502  0.37273085734E+03 -0.23268664731E+03 -0.86283420175E+03  0.96827467202E+03  0.12699999809E+01 0.  1.
</event>
<event>
 5   0  0.2159405E-05  0.1455879E+04  0.7818609E-02  0.8914335E-01
        1   -1    0    0  501    0  0.00000000000E+00  0.00000000000E+00  0.72725961750E+03  0.72725961752E+03  0.50400001928E-02 0. -1.
       -1   -1    0    0    0  501  0.00000000000E+00  0.00000000000E+00 -0.72861961999E+03  0.72861962001E+03  0.50400001928E-02 0.  1.
    10030    2    1    2    0    0  0.00000000000E+00  0.00000000000E+00 -0.13600024941E+01  0.14558792375E+04  0.14558786023E+04 0.  0.
        3    1    3    3  502    0 -0.21838763014E+02 -0.56458490948E+03 -0.45966011869E+03  0.72836837280E+03  0.10100000352E+00 0. -1.
       -3    1    3    3    0  502  0.21838763014E+02  0.56458490948E+03  0.45830011620E+03  0.72751086472E+03  0.10100000352E+00 0.  1.
</event>
<event>
 5   0  0.2072710E-05  0.2514633E+04  0.7818609E-02  0.8397791E-01
       -1   -1    0    0    0  501  0.00000000000E+00  0.00000000000E+00  0.10409368210E+04  0.10409368210E+04  0.50400001928E-02 0.  1.
        1   -1    0    0  501    0  0.00000000000E+00  0.00000000000E+00 -0.15186752142E+04  0.15186752142E+04  0.50400001928E-02 0. -1.
    10030    2    1    2    0    0  0.00000000000E+00  0.00000000000E+00 -0.47773839315E+03  0.25596120352E+04  0.25146331340E+04 0.  0.
        2    1    3    3  502    0 -0.77538180605E+03  0.32177359260E+03  0.71386951508E+03  0.11019822479E+04  0.25500000920E-02 0.  1.
       -2    1    3    3    0  502  0.77538180605E+03 -0.32177359260E+03 -0.11916079082E+04  0.14576297874E+04  0.25500000920E-02 0. -1.
</event>
<event>
 5   0  0.2163800E-05  0.2350530E+04  0.7818609E-02  0.8458260E-01
       -1   -1    0    0    0  501  0.00000000000E+00  0.00000000000E+00  0.75245679878E+03  0.75245679880E+03  0.50400001928E-02 0. -1.
        1   -1    0    0  501    0  0.00000000000E+00  0.00000000000E+00 -0.18356506022E+04  0.18356506022E+04  0.50400001928E-02 0.  1.
    10030    2    1    2    0    0  0.00000000000E+00  0.00000000000E+00 -0.10831938034E+04  0.25881074010E+04  0.23505299622E+04 0.  0.
        1    1    3    3  502    0  0.68452827483E+02  0.70216265333E+03  0.49337141188E+03  0.86089112634E+03  0.50400001928E-02 0.  1.
       -1    1    3    3    0  502 -0.68452827483E+02 -0.70216265333E+03 -0.15765652153E+04  0.17272162747E+04  0.50400001928E-02 0. -1.
</event>
<event>
 5   0  0.5170532E-05  0.2731669E+04  0.7818609E-02  0.8324802E-01
       -2   -1    0    0    0  501  0.00000000000E+00  0.00000000000E+00  0.11416889227E+04  0.11416889227E+04  0.25500000920E-02 0.  1.
        2   -1    0    0  501    0  0.00000000000E+00  0.00000000000E+00 -0.16339859144E+04  0.16339859144E+04  0.25500000920E-02 0. -1.
    10030    2    1    2    0    0  0.00000000000E+00  0.00000000000E+00 -0.49229699171E+03  0.27756748370E+04  0.27316688073E+04 0.  0.
        1    1    3    3  502    0 -0.27737057335E+03 -0.11266636557E+03  0.11079392236E+04  0.11476748094E+04  0.50400001928E-02 0.  1.
       -1    1    3    3    0  502  0.27737057335E+03  0.11266636557E+03 -0.16002362154E+04  0.16280000276E+04  0.50400001928E-02 0. -1.
</event>
<event>
 5   0  0.2159405E-05  0.2657931E+04  0.7818609E-02  0.8348785E-01
       -1   -1    0    0    0  501  0.00000000000E+00  0.00000000000E+00  0.99129070325E+03  0.99129070326E+03  0.50400001928E-02 0. -1.
        1   -1    0    0  501    0  0.00000000000E+00  0.00000000000E+00 -0.17816668747E+04  0.17816668747E+04  0.50400001928E-02 0.  1.
    10030    2    1    2    0    0  0.00000000000E+00  0.00000000000E+00 -0.79037617145E+03  0.27729575780E+04  0.26579313830E+04 0.  0.
        3    1    3    3  502    0 -0.88174605645E+03  0.91620829997E+03 -0.79821710865E+03  0.15013541620E+04  0.10100000352E+00 0. -1.
       -3    1    3    3    0  502  0.88174605645E+03 -0.91620829997E+03  0.78409372035E+01  0.12716034160E+04  0.10100000352E+00 0.  1.
</event>
<event>
 5   0  0.5036452E-05  0.2483017E+04  0.7818609E-02  0.8409061E-01
        2   -1    0    0  501    0  0.00000000000E+00  0.00000000000E+00  0.20527185121E+04  0.20527185121E+04  0.25500000920E-02 0.  1.
       -2   -1    0    0    0  501  0.00000000000E+00  0.00000000000E+00 -0.75087883395E+03  0.75087883396E+03  0.25500000920E-02 0. -1.
    10030    2    1    2    0    0  0.00000000000E+00  0.00000000000E+00  0.13018396781E+04  0.28035973461E+04  0.24830166192E+04 0.  0.
        2    1    3    3  502    0  0.11325009869E+04  0.49250092179E+03  0.50708690644E+03  0.13350104022E+04  0.25500000920E-02 0. -1.
       -2    1    3    3    0  502 -0.11325009869E+04 -0.49250092179E+03  0.79475277170E+03  0.14685869438E+04  0.25500000920E-02 0.  1.
</event>
<event>
 5   0  0.1993815E-05  0.2613461E+04  0.7818609E-02  0.8363643E-01
       -1   -1    0    0    0  501  0.00000000000E+00  0.00000000000E+00  0.77059172788E+03  0.77059172790E+03  0.50400001928E-02 0. -1.
        1   -1    0    0  501    0  0.00000000000E+00  0.00000000000E+00 -0.22158883575E+04  0.22158883575E+04  0.50400001928E-02 0.  1.
    10030    2    1    2    0    0  0.00000000000E+00  0.00000000000E+00 -0.14452966296E+04  0.29864800854E+04  0.26134614887E+04 0.  0.
        5    1    3    3  502    0 -0.11222274465E+04 -0.27263719958E+03 -0.14213017677E+04  0.18313509465E+04  0.46999998093E+01 0.  1.
       -5    1    3    3    0  502  0.11222274465E+04  0.27263719958E+03 -0.23994861943E+02  0.11551291390E+04  0.46999998093E+01 0. -1.
</event>
<event>
 5   0  0.5049803E-05  0.2450706E+04  0.7818609E-02  0.8420760E-01
        2   -1    0    0  501    0  0.00000000000E+00  0.00000000000E+00  0.12053498878E+04  0.12053498878E+04  0.25500000920E-02 0.  1.
       -2   -1    0    0    0  501  0.00000000000E+00  0.00000000000E+00 -0.12456875695E+04  0.12456875695E+04  0.25500000920E-02 0. -1.
    10030    2    1    2    0    0  0.00000000000E+00  0.00000000000E+00 -0.40337681710E+02  0.24510374574E+04  0.24507055084E+04 0.  0.
        4    1    3    3  502    0  0.62334582289E+03  0.48244138962E+03 -0.95847396555E+03  0.12409607830E+04  0.12699999809E+01 0. -1.
       -4    1    3    3    0  502 -0.62334582289E+03 -0.48244138962E+03  0.91813628384E+03  0.12100766744E+04  0.12699999809E+01 0.  1.
</event>
<event>
 5   0  0.5170532E-05  0.2470270E+04  0.7818609E-02  0.8413654E-01
        2   -1    0    0  501    0  0.00000000000E+00  0.00000000000E+00  0.15112400226E+04  0.15112400226E+04  0.25500000920E-02 0. -1.
       -2   -1    0    0    0  501  0.00000000000E+00  0.00000000000E+00 -0.10094746504E+04  0.10094746504E+04  0.25500000920E-02 0.  1.
    10030    2    1    2    0    0  0.00000000000E+00  0.00000000000E+00  0.50176537221E+03  0.25207146731E+04  0.24702700205E+04 0.  0.
        1    1    3    3  502    0  0.36292014584E+03 -0.57251822141E+02 -0.95242209182E+03  0.10208313496E+04  0.50400001928E-02 0.  1.
       -1    1    3    3    0  502 -0.36292014584E+03  0.57251822141E+02  0.14541874640E+04  0.14998833234E+04  0.50400001928E-02 0. -1.
</event>
<event>
 5   0  0.5182179E-05  0.2727216E+04  0.7818609E-02  0.8326228E-01
       -2   -1    0    0    0  501  0.00000000000E+00  0.00000000000E+00  0.11428687282E+04  0.11428687282E+04  0.25500000920E-02 0. -1.
        2   -1    0    0  501    0  0.00000000000E+00  0.00000000000E+00 -0.16269820163E+04  0.16269820163E+04  0.25500000920E-02 0.  1.
    10030    2    1    2    0    0  0.00000000000E+00  0.00000000000E+00 -0.48411328807E+03  0.27698507445E+04  0.27272160661E+04 0.  0.
        3    1    3    3  502    0  0.95273777651E+03  0.94568325354E+03  0.12733708720E+01  0.13423962599E+04  0.10100000352E+00 0.  1.
       -3    1    3    3    0  502 -0.95273777651E+03 -0.94568325354E+03 -0.48538665895E+03  0.14274544846E+04  0.10100000352E+00 0. -1.
</event>
<event>
 5   0  0.1954502E-05  0.2649539E+04  0.7818609E-02  0.8351566E-01
        1   -1    0    0  501    0  0.00000000000E+00  0.00000000000E+00  0.15423683812E+04  0.15423683812E+04  0.50400001928E-02 0.  1.
       -1   -1    0    0    0  501  0.00000000000E+00  0.00000000000E+00 -0.11378696822E+04  0.11378696822E+04  0.50400001928E-02 0. -1.
    10030    2    1    2    0    0  0.00000000000E+00  0.00000000000E+00  0.40449869900E+03  0.26802380634E+04  0.26495389936E+04 0.  0.
        4    1    3    3  502    0 -0.60647588963E+03 -0.63867157736E+03 -0.79881163917E+03  0.11890399641E+04  0.12699999809E+01 0. -1.
       -4    1    3    3    0  502  0.60647588963E+03  0.63867157736E+03  0.12033103382E+04  0.14911980993E+04  0.12699999809E+01 0.  1.
</event>
<event>
 5   0  0.5049803E-05  0.2567731E+04  0.7818609E-02  0.8379246E-01
       -2   -1    0    0    0  501  0.00000000000E+00  0.00000000000E+00  0.15408137551E+04  0.15408137551E+04  0.25500000920E-02 0.  1.
        2   -1    0    0  501    0  0.00000000000E+00  0.00000000000E+00 -0.10697660594E+04  0.10697660594E+04  0.25500000920E-02 0. -1.
    10030    2    1    2    0    0  0.00000000000E+00  0.00000000000E+00  0.47104769567E+03  0.26105798145E+04  0.25677307173E+04 0.  0.
        4    1    3    3  502    0  0.74432535954E+03 -0.72014369943E+03  0.10069220454E+04  0.14444794242E+04  0.12699999809E+01 0.  1.
       -4    1    3    3    0  502 -0.74432535954E+03  0.72014369943E+03 -0.53587434970E+03  0.11661003903E+04  0.12699999809E+01 0. -1.
</event>
<event>
 5   0  0.5049803E-05  0.2261176E+04  0.7818609E-02  0.8493388E-01
        2   -1    0    0  501    0  0.00000000000E+00  0.00000000000E+00  0.21299995200E+04  0.21299995200E+04  0.25500000920E-02 0.  1.
       -2   -1    0    0    0  501  0.00000000000E+00  0.00000000000E+00 -0.60010798727E+03  0.60010798728E+03  0.25500000920E-02 0. -1.
    10030    2    1    2    0    0  0.00000000000E+00  0.00000000000E+00  0.15298915327E+04  0.27301075073E+04  0.22611764414E+04 0.  0.
        4    1    3    3  502    0  0.34596947771E+03 -0.30489203750E+03  0.20112874514E+04  0.20634759168E+04  0.12699999809E+01 0.  1.
       -4    1    3    3    0  502 -0.34596947771E+03  0.30489203750E+03 -0.48139591868E+03  0.66663159050E+03  0.12699999809E+01 0. -1.
</event>
<event>
 5   0  0.2072710E-05  0.2582031E+04  0.7818609E-02  0.8374331E-01
       -1   -1    0    0    0  501  0.00000000000E+00  0.00000000000E+00  0.12644980444E+04  0.12644980444E+04  0.50400001928E-02 0. -1.
        1   -1    0    0  501    0  0.00000000000E+00  0.00000000000E+00 -0.13180888383E+04  0.13180888384E+04  0.50400001928E-02 0.  1.
    10030    2    1    2    0    0  0.00000000000E+00  0.00000000000E+00 -0.53590793918E+02  0.25825868828E+04  0.25820307965E+04 0.  0.
        2    1    3    3  502    0 -0.12058544258E+04  0.43470763886E+03  0.12707248646E+03  0.12881005567E+04  0.25500000920E-02 0. -1.
       -2    1    3    3    0  502  0.12058544258E+04 -0.43470763886E+03 -0.18066328038E+03  0.12944863261E+04  0.25500000920E-02 0.  1.
</event>
<event>
 5   0  0.5170532E-05  0.2604811E+04  0.7818609E-02  0.8366569E-01
        2   -1    0    0  501    0  0.00000000000E+00  0.00000000000E+00  0.17570014134E+04  0.17570014134E+04  0.25500000920E-02 0.  1.
       -2   -1    0    0    0  501  0.00000000000E+00  0.00000000000E+00 -0.96542911272E+03  0.96542911272E+03  0.25500000920E-02 0. -1.
    10030    2    1    2    0    0  0.00000000000E+00  0.00000000000E+00  0.79157230065E+03  0.27224305261E+04  0.26048111759E+04 0.  0.
        1    1    3    3  502    0 -0.98889895836E+03 -0.41726711178E+03  0.11668151807E+04  0.15853992110E+04  0.50400001928E-02 0.  1.
       -1    1    3    3    0  502  0.98889895836E+03  0.41726711178E+03 -0.37524288003E+03  0.11370313151E+04  0.50400001928E-02 0. -1.
</event>
<event>
 5   0  0.1993815E-05  0.2135606E+04  0.7818609E-02  0.8545719E-01
        1   -1    0    0  501    0  0.00000000000E+00  0.00000000000E+00  0.11802990279E+04  0.11802990279E+04  0.50400001928E-02 0.  1.
       -1   -1    0    0    0  501  0.00000000000E+00  0.00000000000E+00 -0.96602896723E+03  0.96602896724E+03  0.50400001928E-02 0. -1.
    10030    2    1    2    0    0  0.00000000000E+00  0.00000000000E+00  0.21427006064E+03  0.21463279951E+04  0.21356058166E+04 0.  0.
        5    1    3    3  502    0  0.61560726611E+03 -0.78490044995E+03 -0.27575006658E+03  0.10349401971E+04  0.46999998093E+01 0. -1.
       -5    1    3    3    0  502 -0.61560726611E+03  0.78490044995E+03  0.49002012722E+03  0.11113877980E+04  0.46999998093E+01 0.  1.
</event>
<event>
 5   0  0.1993815E-05  0.2611414E+04  0.7818609E-02  0.8364335E-01
       -1   -1    0    0    0  501  0.00000000000E+00  0.00000000000E+00  0.10013732299E+04  0.10013732299E+04  0.50400001928E-02 0. -1.
        1   -1    0    0  501    0  0.00000000000E+00  0.00000000000E+00 -0.17025325337E+04  0.17025325337E+04  0.50400001928E-02 0.  1.
    10030    2    1    2    0    0  0.00000000000E+00  0.00000000000E+00 -0.70115930378E+03  0.27039057636E+04  0.26114137951E+04 0.  0.
        5    1    3    3  502    0 -0.51217845191E+03 -0.10899726963E+04 -0.87290810181E+03  0.14873997074E+04  0.46999998093E+01 0.  1.
       -5    1    3    3    0  502  0.51217845191E+03  0.10899726963E+04  0.17174879802E+03  0.12165060562E+04  0.46999998093E+01 0. -1.
</event>
<event>
 5   0  0.1993815E-05  0.2491249E+04  0.7818609E-02  0.8406110E-01
        1   -1    0    0  501    0  0.00000000000E+00  0.00000000000E+00  0.16785886335E+04  0.16785886335E+04  0.50400001928E-02 0. -1.
       -1   -1    0    0    0  501  0.00000000000E+00  0.00000000000E+00 -0.92433649719E+03  0.92433649720E+03  0.50400001928E-02 0.  1.
    10030    2    1    2    0    0  0.00000000000E+00  0.00000000000E+00  0.75425213634E+03  0.26029251307E+04  0.24912492752E+04 0.  0.
        5    1    3    3  502    0  0.26993524220E+02  0.12272699953E+04  0.15637714841E+03  0.12374959371E+04  0.46999998093E+01 0.  1.
       -5    1    3    3    0  502 -0.26993524220E+02 -0.12272699953E+04  0.59787498793E+03  0.13654291937E+04  0.46999998093E+01 0. -1.
</event>
<event>
 5   0  0.2072710E-05  0.2287914E+04  0.7818609E-02  0.8482702E-01
        1   -1    0    0  501    0  0.00000000000E+00  0.00000000000E+00  0.14820542424E+04  0.14820542424E+04  0.50400001928E-02 0. -1.
       -1   -1    0    0    0  501  0.00000000000E+00  0.00000000000E+00 -0.88298903947E+03  0.88298903948E+03  0.50400001928E-02 0.  1.
    10030    2    1    2    0    0  0.00000000000E+00  0.00000000000E+00  0.59906520295E+03  0.23650432819E+04  0.22879140298E+04 0.  0.
        2    1    3    3  502    0  0.12989675611E+03  0.11307746491E+04  0.41790579535E+03  0.12125055579E+04  0.25500000920E-02 0. -1.
       -2    1    3    3    0  502 -0.12989675611E+03 -0.11307746491E+04  0.18115940760E+03  0.11525377240E+04  0.25500000920E-02 0.  1.
</event>
<event>
 5   0  0.5182179E-05  0.2661612E+04  0.7818609E-02  0.8347569E-01
       -2   -1    0    0    0  501  0.00000000000E+00  0.00000000000E+00  0.11938292967E+04  0.11938292967E+04  0.25500000920E-02 0. -1.
        2   -1    0    0  501    0  0.00000000000E+00  0.00000000000E+00 -0.14834988796E+04  0.14834988796E+04  0.25500000920E-02 0.  1.
    10030    2    1    2    0    0  0.00000000000E+00  0.00000000000E+00 -0.28966958294E+03  0.26773281763E+04  0.26616118605E+04 0.  0.
        3    1    3    3  502    0 -0.46457182762E+03  0.12226921366E+03 -0.13932383137E+04  0.14737332705E+04  0.10100000352E+00 0.  1.
       -3    1    3    3    0  502  0.46457182762E+03 -0.12226921366E+03  0.11035687307E+04  0.12035949058E+04  0.10100000352E+00 0. -1.
</event>
<event>
 5   0  0.4955675E-05  0.2577945E+04  0.7818609E-02  0.8375732E-01
       -2   -1    0    0    0  501  0.00000000000E+00  0.00000000000E+00  0.54801839801E+03  0.54801839802E+03  0.25500000920E-02 0. -1.
        2   -1    0    0  501    0  0.00000000000E+00  0.00000000000E+00 -0.30317407428E+04  0.30317407428E+04  0.25500000920E-02 0.  1.
    10030    2    1    2    0    0  0.00000000000E+00  0.00000000000E+00 -0.24837223447E+04  0.35797591408E+04  0.25779446891E+04 0.  0.
        5    1    3    3  502    0  0.46273202035E+03  0.10225117771E+04 -0.21220430054E+04  0.24005707370E+04  0.46999998093E+01 0.  1.
       -5    1    3    3    0  502 -0.46273202035E+03 -0.10225117771E+04 -0.36167933939E+03  0.11791884037E+04  0.46999998093E+01 0. -1.
</event>
<event>
 5   0  0.5036452E-05  0.2609631E+04  0.7818609E-02  0.8364937E-01
        2   -1    0    0  501    0  0.00000000000E+00  0.00000000000E+00  0.11325531392E+04  0.11325531392E+04  0.25500000920E-02 0.  1.
       -2   -1    0    0    0  501  0.00000000000E+00  0.00000000000E+00 -0.15032793039E+04  0.15032793039E+04  0.25500000920E-02 0. -1.
    10030    2    1    2    0    0  0.00000000000E+00  0.00000000000E+00 -0.37072616470E+03  0.26358324431E+04  0.26096311576E+04 0.  0.
        2    1    3    3  502    0 -0.12742308709E+03  0.34788960899E+03  0.10783098133E+04  0.11401823875E+04  0.25500000920E-02 0.  1.
       -2    1    3    3    0  502  0.12742308709E+03 -0.34788960899E+03 -0.14490359780E+04  0.14956500556E+04  0.25500000920E-02 0. -1.
</event>
<event>
 5   0  0.1954502E-05  0.1289669E+04  0.7818609E-02  0.9037798E-01
       -1   -1    0    0    0  501  0.00000000000E+00  0.00000000000E+00  0.27512663693E+03  0.27512663697E+03  0.50400001928E-02 0.  1.
        1   -1    0    0  501    0  0.00000000000E+00  0.00000000000E+00 -0.15113461129E+04  0.15113461129E+04  0.50400001928E-02 0. -1.
    10030    2    1    2    0    0  0.00000000000E+00  0.00000000000E+00 -0.12362194760E+04  0.17864727499E+04  0.12896690635E+04 0.  0.
        4    1    3    3  502    0 -0.27640940824E+03  0.50437882873E+03 -0.10219899750E+04  0.11727170527E+04  0.12699999809E+01 0. -1.
       -4    1    3    3    0  502  0.27640940824E+03 -0.50437882873E+03 -0.21422950099E+03  0.61375569718E+03  0.12699999809E+01 0.  1.
</event>
<event>
 5   0  0.5170532E-05  0.2583535E+04  0.7818609E-02  0.8373816E-01
        2   -1    0    0  501    0  0.00000000000E+00  0.00000000000E+00  0.12032073597E+04  0.12032073597E+04  0.25500000920E-02 0.  1.
       -2   -1    0    0    0  501  0.00000000000E+00  0.00000000000E+00 -0.13868460328E+04  0.13868460328E+04  0.25500000920E-02 0. -1.
    10030    2    1    2    0    0  0.00000000000E+00  0.00000000000E+00 -0.18363867304E+03  0.25900533925E+04  0.25835350615E+04 0.  0.
        1    1    3    3  502    0  0.11510255321E+04 -0.26073927563E+03  0.43469007448E+03  0.12576963888E+04  0.50400001928E-02 0.  1.
       -1    1    3    3    0  502 -0.11510255321E+04  0.26073927563E+03 -0.61832874752E+03  0.13323570038E+04  0.50400001928E-02 0. -1.
</event>
<event>
 5   0  0.2072710E-05  0.2621421E+04  0.7818609E-02  0.8360961E-01
       -1   -1    0    0    0  501  0.00000000000E+00  0.00000000000E+00  0.90343954071E+03  0.90343954073E+03  0.50400001928E-02 0.  1.
        1   -1    0    0  501    0  0.00000000000E+00  0.00000000000E+00 -0.19015798567E+04  0.19015798567E+04  0.50400001928E-02 0. -1.
    10030    2    1    2    0    0  0.00000000000E+00  0.00000000000E+00 -0.99814031600E+03  0.28050193974E+04  0.26214213186E+04 0.  0.
        2    1    3    3  502    0  0.52171619816E+03 -0.11559020799E+04 -0.85342070549E+03  0.15286020772E+04  0.25500000920E-02 0. -1.
       -2    1    3    3    0  502 -0.52171619816E+03  0.11559020799E+04 -0.14471961051E+03  0.12764173203E+04  0.25500000920E-02 0.  1.
</event>
<event>
 5   0  0.2163800E-05  0.1971273E+04  0.7818609E-02  0.8620170E-01
       -1   -1    0    0    0  501  0.00000000000E+00  0.00000000000E+00  0.50809284817E+03  0.50809284820E+03  0.50400001928E-02 0.  1.
        1   -1    0    0  501    0  0.00000000000E+00  0.00000000000E+00 -0.19120122916E+04  0.19120122916E+04  0.50400001928E-02 0. -1.
    10030    2    1    2    0    0  0.00000000000E+00  0.00000000000E+00 -0.14039194434E+04  0.24201051398E+04  0.19712734676E+04 0.  0.
        1    1    3    3  502    0 -0.67537552307E+03 -0.68349299140E+02 -0.15792839065E+04  0.17189942935E+04  0.50400001928E-02 0. -1.
       -1    1    3    3    0  502  0.67537552307E+03  0.68349299140E+02  0.17536446305E+03  0.70111084629E+03  0.50400001928E-02 0.  1.
</event>
<event>
 5   0  0.2159405E-05  0.2598550E+04  0.7818609E-02  0.8368694E-01
       -1   -1    0    0    0  501  0.00000000000E+00  0.00000000000E+00  0.79684027020E+03  0.79684027022E+03  0.50400001928E-02 0.  1.
        1   -1    0    0  501    0  0.00000000000E+00  0.00000000000E+00 -0.21185123788E+04  0.21185123788E+04  0.50400001928E-02 0. -1.
    10030    2    1    2    0    0  0.00000000000E+00  0.00000000000E+00 -0.13216721086E+04  0.29153526490E+04  0.25985503469E+04 0.  0.
        3    1    3    3  502    0 -0.63932786961E+03 -0.92332107759E+03  0.72156650898E+02  0.11253748396E+04  0.10100000352E+00 0.  1.
       -3    1    3    3    0  502  0.63932786961E+03  0.92332107759E+03 -0.13938287595E+04  0.17899778094E+04  0.10100000352E+00 0. -1.
</event>
<event>
 5   0  0.2072710E-05  0.2041463E+04  0.7818609E-02  0.8587477E-01
        1   -1    0    0  501    0  0.00000000000E+00  0.00000000000E+00  0.12728753305E+04  0.12728753305E+04  0.50400001928E-02 0.  1.
       -1   -1    0    0    0  501  0.00000000000E+00  0.00000000000E+00 -0.81853506310E+03  0.81853506311E+03  0.50400001928E-02 0. -1.
    10030    2    1    2    0    0  0.00000000000E+00  0.00000000000E+00  0.45434026743E+03  0.20914103936E+04  0.20414632879E+04 0.  0.
        2    1    3    3  502    0  0.31034093777E+03  0.43084933652E+03  0.11202500505E+04  0.12397188488E+04  0.25500000920E-02 0.  1.
       -2    1    3    3    0  502 -0.31034093777E+03 -0.43084933652E+03 -0.66590978305E+03  0.85169154486E+03  0.25500000920E-02 0. -1.
</event>
<event>
 5   0  0.2159405E-05  0.1316986E+04  0.7818609E-02  0.9016203E-01
       -1   -1    0    0    0  501  0.00000000000E+00  0.00000000000E+00  0.11533810023E+04  0.11533810023E+04  0.50400001928E-02 0. -1.
        1   -1    0    0  501    0  0.00000000000E+00  0.00000000000E+00 -0.37594926846E+03  0.37594926849E+03  0.50400001928E-02 0.  1.
    10030    2    1    2    0    0  0.00000000000E+00  0.00000000000E+00  0.77743173381E+03  0.15293302708E+04  0.13169855642E+04 0.  0.
        3    1    3    3  502    0 -0.58582511391E+03  0.28455376741E+03  0.50160576758E+03  0.82205247211E+03  0.10100000352E+00 0. -1.
       -3    1    3    3    0  502  0.58582511391E+03 -0.28455376741E+03  0.27582596623E+03  0.70727779866E+03  0.10100000352E+00 0.  1.
</event>
<event>
 5   0  0.2163800E-05  0.1440071E+04  0.7818609E-02  0.8925313E-01
        1   -1    0    0  501    0  0.00000000000E+00  0.00000000000E+00  0.16613099988E+04  0.16613099988E+04  0.50400001928E-02 0. -1.
       -1   -1    0    0    0  501  0.00000000000E+00  0.00000000000E+00 -0.31207372597E+03  0.31207372601E+03  0.50400001928E-02 0.  1.
    10030    2    1    2    0    0  0.00000000000E+00  0.00000000000E+00  0.13492362728E+04  0.19733837248E+04  0.14400711112E+04 0.  0.
        1    1    3    3  502    0  0.42758620249E+03  0.10281011671E+03  0.14558924955E+04  0.15208625313E+04  0.50400001928E-02 0. -1.
       -1    1    3    3    0  502 -0.42758620249E+03 -0.10281011671E+03 -0.10665622272E+03  0.45252119346E+03  0.50400001928E-02 0.  1.
</event>
<event>
 5   0  0.2072710E-05  0.2571473E+04  0.7818609E-02  0.8377956E-01
       -1   -1    0    0    0  501  0.00000000000E+00  0.00000000000E+00  0.11825263308E+04  0.11825263308E+04  0.50400001928E-02 0.  1.
        1   -1    0    0  501    0  0.00000000000E+00  0.00000000000E+00 -0.13979548506E+04  0.13979548506E+04  0.50400001928E-02 0. -1.
    10030    2    1    2    0    0  0.00000000000E+00  0.00000000000E+00 -0.21542851978E+03  0.25804811814E+04  0.25714730565E+04 0.  0.
        2    1    3    3  502    0 -0.12412198491E+04 -0.30416211081E+02  0.22747163900E+03  0.12622579793E+04  0.25500000920E-02 0. -1.
       -2    1    3    3    0  502  0.12412198491E+04  0.30416211081E+02 -0.44290015877E+03  0.13182232020E+04  0.25500000920E-02 0.  1.
</event>
<event>
 5   0  0.5036452E-05  0.2448707E+04  0.7818609E-02  0.8421490E-01
        2   -1    0    0  501    0  0.00000000000E+00  0.00000000000E+00  0.16708688588E+04  0.16708688588E+04  0.25500000920E-02 0.  1.
       -2   -1    0    0    0  501  0.00000000000E+00  0.00000000000E+00 -0.89716283264E+03  0.89716283264E+03  0.25500000920E-02 0. -1.
    10030    2    1    2    0    0  0.00000000000E+00  0.00000000000E+00  0.77370602619E+03  0.25680316915E+04  0.24487069554E+04 0.  0.
        2    1    3    3  502    0  0.30997700319E+03  0.36105641926E+03 -0.79621167718E+03  0.92757776778E+03  0.25500000920E-02 0. -1.
       -2    1    3    3    0  502 -0.30997700319E+03 -0.36105641926E+03  0.15699177034E+04  0.16404539237E+04  0.25500000920E-02 0.  1.
</event>
<event>
 5   0  0.2072710E-05  0.2515119E+04  0.7818609E-02  0.8397619E-01
        1   -1    0    0  501    0  0.00000000000E+00  0.00000000000E+00  0.14121043050E+04  0.14121043050E+04  0.50400001928E-02 0. -1.
       -1   -1    0    0    0  501  0.00000000000E+00  0.00000000000E+00 -0.11199288679E+04  0.11199288679E+04  0.50400001928E-02 0.  1.
    10030    2    1    2    0    0  0.00000000000E+00  0.00000000000E+00  0.29217543713E+03  0.25320331729E+04  0.25151193813E+04 0.  0.
        2    1    3    3  502    0  0.15036377751E+03  0.59992526509E+03 -0.95623543640E+03  0.11388177199E+04  0.25500000920E-02 0.  1.
       -2    1    3    3    0  502 -0.15036377751E+03 -0.59992526509E+03  0.12484108735E+04  0.13932154530E+04  0.25500000920E-02 0. -1.
</event>
<event>
 5   0  0.1993815E-05  0.2691044E+04  0.7818609E-02  0.8337917E-01
       -1   -1    0    0    0  501  0.00000000000E+00  0.00000000000E+00  0.14946434570E+04  0.14946434570E+04  0.50400001928E-02 0.  1.
        1   -1    0    0  501    0  0.00000000000E+00  0.00000000000E+00 -0.12112782774E+04  0.12112782774E+04  0.50400001928E-02 0. -1.
    10030    2    1    2    0    0  0.00000000000E+00  0.00000000000E+00  0.28336517965E+03  0.27059217344E+04  0.26910437767E+04 0.  0.
        5    1    3    3  502    0  0.10322794283E+04  0.58462619103E+03 -0.49666458137E+03  0.12861129024E+04  0.46999998093E+01 0. -1.
       -5    1    3    3    0  502 -0.10322794283E+04 -0.58462619103E+03  0.78002976102E+03  0.14198088320E+04  0.46999998093E+01 0.  1.
</event>
<event>
 5   0  0.5182179E-05  0.2621465E+04  0.7818609E-02  0.8360946E-01
       -2   -1    0    0    0  501  0.00000000000E+00  0.00000000000E+00  0.92965976306E+03  0.92965976306E+03  0.25500000920E-02 0.  1.
        2   -1    0    0  501    0  0.00000000000E+00  0.00000000000E+00 -0.18480087506E+04  0.18480087506E+04  0.25500000920E-02 0. -1.
    10030    2    1    2    0    0  0.00000000000E+00  0.00000000000E+00 -0.91834898754E+03  0.27776685137E+04  0.26214647640E+04 0.  0.
        3    1    3    3  502    0 -0.11568834560E+04  0.19454788032E+03 -0.10786395362E+04  0.15936409470E+04  0.10100000352E+00 0. -1.
       -3    1    3    3    0  502  0.11568834560E+04 -0.19454788032E+03  0.16029054869E+03  0.11840275667E+04  0.10100000352E+00 0.  1.
</event>
<event>
 5   0  0.5182179E-05  0.2067740E+04  0.7818609E-02  0.8575589E-01
       -2   -1    0    0    0  501  0.00000000000E+00  0.00000000000E+00  0.77310848415E+03  0.77310848415E+03  0.25500000920E-02 0.  1.
        2   -1    0    0  501    0  0.00000000000E+00  0.00000000000E+00 -0.13825834460E+04  0.13825834461E+04  0.25500000920E-02 0. -1.
    10030    2    1    2    0    0  0.00000000000E+00  0.00000000000E+00 -0.60947496190E+03  0.21556919302E+04  0.20677398213E+04 0.  0.
        3    1    3    3  502    0  0.31449572932E+03  0.77114157852E+03  0.33395485790E+03  0.89726961120E+03  0.10100000352E+00 0.  1.
       -3    1    3    3    0  502 -0.31449572932E+03 -0.77114157852E+03 -0.94342981980E+03  0.12584223190E+04  0.10100000352E+00 0. -1.
</event>
<event>
 5   0  0.5049803E-05  0.2134707E+04  0.7818609E-02  0.8546107E-01
        2   -1    0    0  501    0  0.00000000000E+00  0.00000000000E+00  0.19193236083E+04  0.19193236083E+04  0.25500000920E-02 0.  1.
       -2   -1    0    0    0  501  0.00000000000E+00  0.00000000000E+00 -0.59356514926E+03  0.59356514927E+03  0.25500000920E-02 0. -1.
    10030    2    1    2    0    0  0.00000000000E+00  0.00000000000E+00  0.13257584591E+04  0.25128887576E+04  0.21347071032E+04 0.  0.
        4    1    3    3  502    0 -0.20453240573E+03 -0.11153562651E+03 -0.56327045546E+03  0.60954812760E+03  0.12699999809E+01 0. -1.
       -4    1    3    3    0  502  0.20453240573E+03  0.11153562651E+03  0.18890289145E+04  0.19033406300E+04  0.12699999809E+01 0.  1.
</event>
<event>
 5   0  0.5182179E-05  0.2573205E+04  0.7818609E-02  0.8377360E-01
       -2   -1    0    0    0  501  0.00000000000E+00  0.00000000000E+00  0.74506748586E+03  0.74506748587E+03  0.25500000920E-02 0.  1.
        2   -1    0    0  501    0  0.00000000000E+00  0.00000000000E+00 -0.22217390015E+04  0.22217390015E+04  0.25500000920E-02 0. -1.
    10030    2    1    2    0    0  0.00000000000E+00  0.00000000000E+00 -0.14766715157E+04  0.29668064874E+04  0.25732046107E+04 0.  0.
        3    1    3    3  502    0 -0.11283432382E+04 -0.61549530759E+03 -0.80509358727E+03  0.15166306839E+04  0.10100000352E+00 0. -1.
       -3    1    3    3    0  502  0.11283432382E+04  0.61549530759E+03 -0.67157792840E+03  0.14501758035E+04  0.10100000352E+00 0.  1.
</event>
<event>
 5   0  0.5170532E-05  0.2619708E+04  0.7818609E-02  0.8361538E-01
        2   -1    0    0  501    0  0.00000000000E+00  0.00000000000E+00  0.19981008632E+04  0.19981008632E+04  0.25500000920E-02 0. -1.
       -2   -1    0    0    0  501  0.00000000000E+00  0.00000000000E+00 -0.85867401194E+03  0.85867401194E+03  0.25500000920E-02 0.  1.
    10030    2    1    2    0    0  0.00000000000E+00  0.00000000000E+00  0.11394268513E+04  0.28567748752E+04  0.26197078345E+04 0.  0.
        1    1    3    3  502    0 -0.11402161746E+04 -0.57211701897E+03  0.24565789616E+03  0.12991376410E+04  0.50400001928E-02 0.  1.
       -1    1    3    3    0  502  0.11402161746E+04  0.57211701897E+03  0.89376895513E+03  0.15576372342E+04  0.50400001928E-02 0. -1.
</event>
<event>
 5   0  0.4955675E-05  0.2645449E+04  0.7818609E-02  0.8352925E-01
       -2   -1    0    0    0  501  0.00000000000E+00  0.00000000000E+00  0.10665833696E+04  0.10665833696E+04  0.25500000920E-02 0. -1.
        2   -1    0    0  501    0  0.00000000000E+00  0.00000000000E+00 -0.16403779689E+04  0.16403779689E+04  0.25500000920E-02 0.  1.
    10030    2    1    2    0    0  0.00000000000E+00  0.00000000000E+00 -0.57379459938E+03  0.27069613385E+04  0.26454488175E+04 0.  0.
        5    1    3    3  502    0  0.10003901495E+04  0.58936034814E+03  0.36143751074E+03  0.12160531384E+04  0.46999998093E+01 0. -1.
       -5    1    3    3    0  502 -0.10003901495E+04 -0.58936034814E+03 -0.93523211012E+03  0.14909082001E+04  0.46999998093E+01 0.  1.
</event>
<event>
 5   0  0.4955675E-05  0.2542681E+04  0.7818609E-02  0.8387936E-01
       -2   -1    0    0    0  501  0.00000000000E+00  0.00000000000E+00  0.87535704841E+03  0.87535704841E+03  0.25500000920E-02 0.  1.
        2   -1    0    0  501    0  0.00000000000E+00  0.00000000000E+00 -0.18464545910E+04  0.18464545910E+04  0.25500000920E-02 0. -1.
    10030    2    1    2    0    0  0.00000000000E+00  0.00000000000E+00 -0.97109754259E+03  0.27218116394E+04  0.25426812941E+04 0.  0.
        5    1    3    3  502    0 -0.12329558181E+04  0.24584385382E+03 -0.68770704542E+03  0.14330325607E+04  0.46999998093E+01 0.  1.
       -5    1    3    3    0  502  0.12329558181E+04 -0.24584385382E+03 -0.28339049716E+03  0.12887790787E+04  0.46999998093E+01 0. -1.
</event>
<event>
 5   0  0.1993815E-05  0.2621560E+04  0.7818609E-02  0.8360915E-01
       -1   -1    0    0    0  501  0.00000000000E+00  0.00000000000E+00  0.14990001479E+04  0.14990001479E+04  0.50400001928E-02 0. -1.
        1   -1    0    0  501    0  0.00000000000E+00  0.00000000000E+00 -0.11461932038E+04  0.11461932039E+04  0.50400001928E-02 0.  1.
    10030    2    1    2    0    0  0.00000000000E+00  0.00000000000E+00  0.35280694408E+03  0.26451933518E+04  0.26215596748E+04 0.  0.
        5    1    3    3  502    0  0.59616652315E+02  0.11959074173E+04 -0.36167033474E+03  0.12508302111E+04  0.46999998093E+01 0.  1.
       -5    1    3    3    0  502 -0.59616652315E+02 -0.11959074173E+04  0.71447727881E+03  0.13943631406E+04  0.46999998093E+01 0. -1.
</event>
<event>
 5   0  0.2163800E-05  0.2075701E+04  0.7818609E-02  0.8572024E-01
        1   -1    0    0  501    0  0.00000000000E+00  0.00000000000E+00  0.12551820559E+04  0.12551820559E+04  0.50400001928E-02 0.  1.
       -1   -1    0    0    0  501  0.00000000000E+00  0.00000000000E+00 -0.85814905000E+03  0.85814905001E+03  0.50400001928E-02 0. -1.
    10030    2    1    2    0    0  0.00000000000E+00  0.00000000000E+00  0.39703300586E+03  0.21133311059E+04  0.20757006420E+04 0.  0.
        1    1    3    3  502    0  0.11190033723E+00 -0.17555215353E+03 -0.84292287043E+03  0.86100960311E+03  0.50400001928E-02 0. -1.
       -1    1    3    3    0  502 -0.11190033723E+00  0.17555215353E+03  0.12399558763E+04  0.12523215028E+04  0.50400001928E-02 0.  1.
</event>
<event>
 5   0  0.2159405E-05  0.2006692E+04  0.7818609E-02  0.8603498E-01
        1   -1    0    0  501    0  0.00000000000E+00  0.00000000000E+00  0.10519344326E+04  0.10519344326E+04  0.50400001928E-02 0. -1.
       -1   -1    0    0    0  501  0.00000000000E+00  0.00000000000E+00 -0.95700220197E+03  0.95700220199E+03  0.50400001928E-02 0.  1.
    10030    2    1    2    0    0  0.00000000000E+00  0.00000000000E+00  0.94932230639E+02  0.20089366346E+04  0.20066923714E+04 0.  0.
        3    1    3    3  502    0 -0.37945197769E+03 -0.65295916740E+03  0.70878349458E+03  0.10357188470E+04  0.10100000352E+00 0. -1.
       -3    1    3    3    0  502  0.37945197769E+03  0.65295916740E+03 -0.61385126394E+03  0.97321778760E+03  0.10100000352E+00 0.  1.
</event>
<event>
 5   0  0.2163800E-05  0.1939646E+04  0.7818609E-02  0.8635370E-01
       -1   -1    0    0    0  501  0.00000000000E+00  0.00000000000E+00  0.13207936215E+04  0.13207936215E+04  0.50400001928E-02 0. -1.
        1   -1    0    0  501    0  0.00000000000E+00  0.00000000000E+00 -0.71211447117E+03  0.71211447119E+03  0.50400001928E-02 0.  1.
    10030    2    1    2    0    0  0.00000000000E+00  0.00000000000E+00  0.60867915028E+03  0.20329080927E+04  0.19396455875E+04 0.  0.
        1    1    3    3  502    0  0.51079310474E+03  0.70952736011E+03  0.74430644948E+03  0.11481858566E+04  0.50400001928E-02 0. -1.
       -1    1    3    3    0  502 -0.51079310474E+03 -0.70952736011E+03 -0.13562729920E+03  0.88472223602E+03  0.50400001928E-02 0.  1.
</event>
<event>
 5   0  0.1954502E-05  0.2649506E+04  0.7818609E-02  0.8351577E-01
        1   -1    0    0  501    0  0.00000000000E+00  0.00000000000E+00  0.12425428488E+04  0.12425428488E+04  0.50400001928E-02 0.  1.
       -1   -1    0    0    0  501  0.00000000000E+00  0.00000000000E+00 -0.14124019659E+04  0.14124019659E+04  0.50400001928E-02 0. -1.
    10030    2    1    2    0    0  0.00000000000E+00  0.00000000000E+00 -0.16985911706E+03  0.26549448147E+04  0.26495055859E+04 0.  0.
        4    1    3    3  502    0 -0.15502396218E+03 -0.15063513884E+03  0.12247520681E+04  0.12436810745E+04  0.12699999809E+01 0.  1.
       -4    1    3    3    0  502  0.15502396218E+03  0.15063513884E+03 -0.13946111851E+04  0.14112637402E+04  0.12699999809E+01 0. -1.
</event>
<event>
 5   0  0.5049803E-05  0.2538545E+04  0.7818609E-02  0.8389381E-01
        2   -1    0    0  501    0  0.00000000000E+00  0.00000000000E+00  0.13392592153E+04  0.13392592153E+04  0.25500000920E-02 0. -1.
       -2   -1    0    0    0  501  0.00000000000E+00  0.00000000000E+00 -0.12029429330E+04  0.12029429330E+04  0.25500000920E-02 0.  1.
    10030    2    1    2    0    0  0.00000000000E+00  0.00000000000E+00  0.13631628236E+03  0.25422021483E+04  0.25385447867E+04 0.  0.
        4    1    3    3  502    0 -0.10823412723E+04  0.39868024591E+03  0.59867814104E+03  0.12995482668E+04  0.12699999809E+01 0. -1.
       -4    1    3    3    0  502  0.10823412723E+04 -0.39868024591E+03 -0.46236185868E+03  0.12426538816E+04  0.12699999809E+01 0.  1.
</event>
<event>
 5   0  0.4955675E-05  0.2628678E+04  0.7818609E-02  0.8358525E-01
        2   -1    0    0  501    0  0.00000000000E+00  0.00000000000E+00  0.27557194814E+04  0.27557194814E+04  0.25500000920E-02 0.  1.
       -2   -1    0    0    0  501  0.00000000000E+00  0.00000000000E+00 -0.62687324528E+03  0.62687324528E+03  0.25500000920E-02 0. -1.
    10030    2    1    2    0    0  0.00000000000E+00  0.00000000000E+00  0.21288462362E+04  0.33825927267E+04  0.26286778535E+04 0.  0.
        5    1    3    3  502    0  0.79695532208E+03 -0.87884425497E+03  0.17923034673E+04  0.21493903365E+04  0.46999998093E+01 0.  1.
       -5    1    3    3    0  502 -0.79695532208E+03  0.87884425497E+03  0.33654276885E+03  0.12332023902E+04  0.46999998093E+01 0. -1.
</event>
<event>
 5   0  0.2163800E-05  0.2654447E+04  0.7818609E-02  0.8349938E-01
       -1   -1    0    0    0  501  0.00000000000E+00  0.00000000000E+00  0.11401288807E+04  0.11401288807E+04  0.50400001928E-02 0.  1.
        1   -1    0    0  501    0  0.00000000000E+00  0.00000000000E+00 -0.15450205288E+04  0.15450205288E+04  0.50400001928E-02 0. -1.
    10030    2    1    2    0    0  0.00000000000E+00  0.00000000000E+00 -0.40489164815E+03  0.26851494095E+04  0.26544472315E+04 0.  0.
        1    1    3    3  502    0 -0.95649384614E+03  0.53215049982E+03  0.55687462110E+03  0.12280773493E+04  0.50400001928E-02 0.  1.
       -1    1    3    3    0  502  0.95649384614E+03 -0.53215049982E+03 -0.96176626925E+03  0.14570720603E+04  0.50400001928E-02 0. -1.
</event>
<event>
 5   0  0.5182179E-05  0.2404090E+04  0.7818609E-02  0.8437974E-01
        2   -1    0    0  501    0  0.00000000000E+00  0.00000000000E+00  0.20514869099E+04  0.20514869099E+04  0.25500000920E-02 0.  1.
       -2   -1    0    0    0  501  0.00000000000E+00  0.00000000000E+00 -0.70432440931E+03  0.70432440932E+03  0.25500000920E-02 0. -1.
    10030    2    1    2    0    0  0.00000000000E+00  0.00000000000E+00  0.13471625006E+04  0.27558113192E+04  0.24040901032E+04 0.  0.
        3    1    3    3  502    0 -0.39546870269E+03 -0.33177956832E+03 -0.57079672110E+03  0.76959865110E+03  0.10100000352E+00 0. -1.
       -3    1    3    3    0  502  0.39546870269E+03  0.33177956832E+03  0.19179592217E+04  0.19862126681E+04  0.10100000352E+00 0.  1.
</event>
<event>
 5   0  0.5170532E-05  0.2180477E+04  0.7818609E-02  0.8526598E-01
       -2   -1    0    0    0  501  0.00000000000E+00  0.00000000000E+00  0.13324164025E+04  0.13324164025E+04  0.25500000920E-02 0.  1.
        2   -1    0    0  501    0  0.00000000000E+00  0.00000000000E+00 -0.89207821391E+03  0.89207821391E+03  0.25500000920E-02 0. -1.
    10030    2    1    2    0    0  0.00000000000E+00  0.00000000000E+00  0.44033818855E+03  0.22244946164E+04  0.21804766860E+04 0.  0.
        1    1    3    3  502    0 -0.74532142937E+03 -0.14368935004E+03  0.10185717284E+04  0.12702909227E+04  0.50400001928E-02 0.  1.
       -1    1    3    3    0  502  0.74532142937E+03  0.14368935004E+03 -0.57823353984E+03  0.95420369367E+03  0.50400001928E-02 0. -1.
</event>
<event>
 5   0  0.5036452E-05  0.2590068E+04  0.7818609E-02  0.8371583E-01
        2   -1    0    0  501    0  0.00000000000E+00  0.00000000000E+00  0.13870084461E+04  0.13870084461E+04  0.25500000920E-02 0.  1.
       -2   -1    0    0    0  501  0.00000000000E+00  0.00000000000E+00 -0.12091580557E+04  0.12091580557E+04  0.25500000920E-02 0. -1.
    10030    2    1    2    0    0  0.00000000000E+00  0.00000000000E+00  0.17785039045E+03  0.25961665018E+04  0.25900675172E+04 0.  0.
        2    1    3    3  502    0 -0.10335059324E+04  0.70115098440E+03  0.43231798074E+03  0.13216073742E+04  0.25500000920E-02 0. -1.
       -2    1    3    3    0  502  0.10335059324E+04 -0.70115098440E+03 -0.25446759029E+03  0.12745591276E+04  0.25500000920E-02 0.  1.
</event>
<event>
 5   0  0.2072710E-05  0.1869531E+04  0.7818609E-02  0.8670173E-01
        1   -1    0    0  501    0  0.00000000000E+00  0.00000000000E+00  0.18056563522E+04  0.18056563522E+04  0.50400001928E-02 0.  1.
       -1   -1    0    0    0  501  0.00000000000E+00  0.00000000000E+00 -0.48391641797E+03  0.48391641799E+03  0.50400001928E-02 0. -1.
    10030    2    1    2    0    0  0.00000000000E+00  0.00000000000E+00  0.13217399343E+04  0.22895727702E+04  0.18695312290E+04 0.  0.
        2    1    3    3  502    0 -0.69409145412E+01 -0.75965980880E+03  0.13279039623E+04  0.15298562464E+04  0.25500000920E-02 0.  1.
       -2    1    3    3    0  502  0.69409145412E+01  0.75965980880E+03 -0.61640280447E+01  0.75971652388E+03  0.25500000920E-02 0. -1.
</event>
<event>
 5   0  0.1954502E-05  0.2587790E+04  0.7818609E-02  0.8372361E-01
       -1   -1    0    0    0  501  0.00000000000E+00  0.00000000000E+00  0.99276071633E+03  0.99276071634E+03  0.50400001928E-02 0. -1.
        1   -1    0    0  501    0  0.00000000000E+00  0.00000000000E+00 -0.16863718451E+04  0.16863718451E+04  0.50400001928E-02 0.  1.
    10030    2    1    2    0    0  0.00000000000E+00  0.00000000000E+00 -0.69361112878E+03  0.26791325615E+04  0.25877895749E+04 0.  0.
        4    1    3    3  502    0 -0.44859199956E+03  0.54030146849E+03  0.77829280637E+03  0.10482851541E+04  0.12699999809E+01 0. -1.
       -4    1    3    3    0  502  0.44859199956E+03 -0.54030146849E+03 -0.14719039352E+04  0.16308474074E+04  0.12699999809E+01 0.  1.
</event>
<event>
 5   0  0.4955675E-05  0.2551439E+04  0.7818609E-02  0.8384886E-01
        2   -1    0    0  501    0  0.00000000000E+00  0.00000000000E+00  0.12181976849E+04  0.12181976849E+04  0.25500000920E-02 0. -1.
       -2   -1    0    0    0  501  0.00000000000E+00  0.00000000000E+00 -0.13359578344E+04  0.13359578344E+04  0.25500000920E-02 0.  1.
    10030    2    1    2    0    0  0.00000000000E+00  0.00000000000E+00 -0.11776014949E+03  0.25541555193E+04  0.25514393906E+04 0.  0.
        5    1    3    3  502    0 -0.63305817104E+03  0.10451066425E+04 -0.42591477526E+03  0.12940000108E+04  0.46999998093E+01 0.  1.
       -5    1    3    3    0  502  0.63305817104E+03 -0.10451066425E+04  0.30815462578E+03  0.12601555085E+04  0.46999998093E+01 0. -1.
</event>
<event>
 5   0  0.2072710E-05  0.2535204E+04  0.7818609E-02  0.8390550E-01
       -1   -1    0    0    0  501  0.00000000000E+00  0.00000000000E+00  0.15149504346E+04  0.15149504346E+04  0.50400001928E-02 0.  1.
        1   -1    0    0  501    0  0.00000000000E+00  0.00000000000E+00 -0.10606385377E+04  0.10606385377E+04  0.50400001928E-02 0. -1.
    10030    2    1    2    0    0  0.00000000000E+00  0.00000000000E+00  0.45431189690E+03  0.25755889722E+04  0.25352039867E+04 0.  0.
        2    1    3    3  502    0  0.40795025520E+03  0.11536528092E+04 -0.10898722507E+03  0.12285017013E+04  0.25500000920E-02 0. -1.
       -2    1    3    3    0  502 -0.40795025520E+03 -0.11536528092E+04  0.56329912198E+03  0.13470872710E+04  0.25500000920E-02 0.  1.
</event>
<event>
 5   0  0.1993815E-05  0.2640148E+04  0.7818609E-02  0.8354690E-01
        1   -1    0    0  501    0  0.00000000000E+00  0.00000000000E+00  0.18598533116E+04  0.18598533116E+04  0.50400001928E-02 0. -1.
       -1   -1    0    0    0  501  0.00000000000E+00  0.00000000000E+00 -0.93695314148E+03  0.93695314150E+03  0.50400001928E-02 0.  1.
    10030    2    1    2    0    0  0.00000000000E+00  0.00000000000E+00  0.92290017009E+03  0.27968064531E+04  0.26401480284E+04 0.  0.
        5    1    3    3  502    0 -0.55243601393E+03 -0.16474380780E+03 -0.79655316975E+03  0.98328282500E+03  0.46999998093E+01 0.  1.
       -5    1    3    3    0  502  0.55243601393E+03  0.16474380780E+03  0.17194533398E+04  0.18135236281E+04  0.46999998093E+01 0. -1.
</event>
<event>
 5   0  0.1954502E-05  0.2580819E+04  0.7818609E-02  0.8374746E-01
        1   -1    0    0  501    0  0.00000000000E+00  0.00000000000E+00  0.16390520097E+04  0.16390520097E+04  0.50400001928E-02 0. -1.
       -1   -1    0    0    0  501  0.00000000000E+00  0.00000000000E+00 -0.10159264832E+04  0.10159264832E+04  0.50400001928E-02 0.  1.
    10030    2    1    2    0    0  0.00000000000E+00  0.00000000000E+00  0.62312552651E+03  0.26549784930E+04  0.25808187415E+04 0.  0.
        4    1    3    3  502    0  0.44186113395E+03 -0.11327746200E+04 -0.13298304286E+03  0.12231539985E+04  0.12699999809E+01 0.  1.
       -4    1    3    3    0  502 -0.44186113395E+03  0.11327746200E+04  0.75610856937E+03  0.14318244945E+04  0.12699999809E+01 0. -1.
</event>
<event>
 5   0  0.2159405E-05  0.2438823E+04  0.7818609E-02  0.8425110E-01
       -1   -1    0    0    0  501  0.00000000000E+00  0.00000000000E+00  0.83762670645E+03  0.83762670646E+03  0.50400001928E-02 0.  1.
        1   -1    0    0  501    0  0.00000000000E+00  0.00000000000E+00 -0.17752110720E+04  0.17752110720E+04  0.50400001928E-02 0. -1.
    10030    2    1    2    0    0  0.00000000000E+00  0.00000000000E+00 -0.93758436552E+03  0.26128377784E+04  0.24388228337E+04 0.  0.
        3    1    3    3  502    0  0.88507994981E+03  0.71402691699E+03  0.28013986490E+01  0.11371933933E+04  0.10100000352E+00 0. -1.
       -3    1    3    3    0  502 -0.88507994981E+03 -0.71402691699E+03 -0.94038576417E+03  0.14756443851E+04  0.10100000352E+00 0.  1.
</event>
<event>
 5   0  0.1993815E-05  0.2216916E+04  0.7818609E-02  0.8511420E-01
        1   -1    0    0  501    0  0.00000000000E+00  0.00000000000E+00  0.16642426589E+04  0.16642426589E+04  0.50400001928E-02 0.  1.
       -1   -1    0    0    0  501  0.00000000000E+00  0.00000000000E+00 -0.73828126453E+03  0.73828126455E+03  0.50400001928E-02 0. -1.
    10030    2    1    2    0    0  0.00000000000E+00  0.00000000000E+00  0.92596139439E+03  0.24025239235E+04  0.22169160334E+04 0.  0.
        5    1    3    3  502    0 -0.37985674849E+03  0.15307337812E+03  0.15792340024E+04  0.16314793081E+04  0.46999998093E+01 0.  1.
       -5    1    3    3    0  502  0.37985674849E+03 -0.15307337812E+03 -0.65327260802E+03  0.77104461535E+03  0.46999998093E+01 0. -1.
</event>
<event>
 5   0  0.2163800E-05  0.2432640E+04  0.7818609E-02  0.8427384E-01
       -1   -1    0    0    0  501  0.00000000000E+00  0.00000000000E+00  0.16405881722E+04  0.16405881722E+04  0.50400001928E-02 0. -1.
        1   -1    0    0  501    0  0.00000000000E+00  0.00000000000E+00 -0.90177079186E+03  0.90177079187E+03  0.50400001928E-02 0.  1.
    10030    2    1    2    0    0  0.00000000000E+00  0.00000000000E+00  0.73881738037E+03  0.25423589641E+04  0.24326401256E+04 0.  0.
        1    1    3    3  502    0  0.23237375534E+03 -0.44932262047E+02  0.16162903428E+04  0.16335271478E+04  0.50400001928E-02 0. -1.
       -1    1    3    3    0  502 -0.23237375534E+03  0.44932262047E+02 -0.87747296248E+03  0.90883181626E+03  0.50400001928E-02 0.  1.
</event>
<event>
 5   0  0.5170532E-05  0.1430606E+04  0.7818609E-02  0.8931957E-01
       -2   -1    0    0    0  501  0.00000000000E+00  0.00000000000E+00  0.32369165285E+03  0.32369165286E+03  0.25500000920E-02 0.  1.
        2   -1    0    0  501    0  0.00000000000E+00  0.00000000000E+00 -0.15806974094E+04  0.15806974095E+04  0.25500000920E-02 0. -1.
    10030    2    1    2    0    0  0.00000000000E+00  0.00000000000E+00 -0.12570057566E+04  0.19043890623E+04  0.14306062451E+04 0.  0.
        1    1    3    3  502    0  0.47188117887E+03  0.44230071508E+03 -0.22177071981E+03  0.68372803198E+03  0.50400001928E-02 0. -1.
       -1    1    3    3    0  502 -0.47188117887E+03 -0.44230071508E+03 -0.10352350368E+04  0.12206610303E+04  0.50400001928E-02 0.  1.
</event>
<event>
 5   0  0.2163800E-05  0.2598886E+04  0.7818609E-02  0.8368580E-01
        1   -1    0    0  501    0  0.00000000000E+00  0.00000000000E+00  0.22590850265E+04  0.22590850265E+04  0.50400001928E-02 0. -1.
       -1   -1    0    0    0  501  0.00000000000E+00  0.00000000000E+00 -0.74744928861E+03  0.74744928863E+03  0.50400001928E-02 0.  1.
    10030    2    1    2    0    0  0.00000000000E+00  0.00000000000E+00  0.15116357379E+04  0.30065343152E+04  0.25988855273E+04 0.  0.
        1    1    3    3  502    0 -0.63788906490E+03  0.10967864661E+04  0.10803739793E+04  0.16664486031E+04  0.50400001928E-02 0. -1.
       -1    1    3    3    0  502  0.63788906490E+03 -0.10967864661E+04  0.43126175859E+03  0.13400857121E+04  0.50400001928E-02 0.  1.
</event>
<event>
 5   0  0.5049803E-05  0.2717116E+04  0.7818609E-02  0.8329473E-01
       -2   -1    0    0    0  501  0.00000000000E+00  0.00000000000E+00  0.96476220031E+03  0.96476220032E+03  0.25500000920E-02 0. -1.
        2   -1    0    0  501    0  0.00000000000E+00  0.00000000000E+00 -0.19130929077E+04  0.19130929077E+04  0.25500000920E-02 0.  1.
    10030    2    1    2    0    0  0.00000000000E+00  0.00000000000E+00 -0.94833070736E+03  0.28778551080E+04  0.27171159144E+04 0.  0.
        4    1    3    3  502    0  0.81943975771E+02 -0.13489888420E+04 -0.62089754070E+03  0.14872797585E+04  0.12699999809E+01 0.  1.
       -4    1    3    3    0  502 -0.81943975771E+02  0.13489888420E+04 -0.32743316666E+03  0.13905753495E+04  0.12699999809E+01 0. -1.
</event>
<event>
 5   0  0.4955675E-05  0.2204312E+04  0.7818609E-02  0.8516635E-01
       -2   -1    0    0    0  501  0.00000000000E+00  0.00000000000E+00  0.68841454963E+03  0.68841454964E+03  0.25500000920E-02 0. -1.
        2   -1    0    0  501    0  0.00000000000E+00  0.00000000000E+00 -0.17645588498E+04  0.17645588498E+04  0.25500000920E-02 0.  1.
    10030    2    1    2    0    0  0.00000000000E+00  0.00000000000E+00 -0.10761443002E+04  0.24529733995E+04  0.22043121248E+04 0.  0.
        5    1    3    3  502    0  0.26857456556E+03 -0.44173274439E+03 -0.16212543538E+04  0.17016897145E+04  0.46999998093E+01 0.  1.
       -5    1    3    3    0  502 -0.26857456556E+03  0.44173274439E+03  0.54511005362E+03  0.75128368496E+03  0.46999998093E+01 0. -1.
</event>
<event>
 5   0  0.2072710E-05  0.2596761E+04  0.7818609E-02  0.8369302E-01
       -1   -1    0    0    0  501  0.00000000000E+00  0.00000000000E+00  0.11165921619E+04  0.11165921619E+04  0.50400001928E-02 0. -1.
        1   -1    0    0  501    0  0.00000000000E+00  0.00000000000E+00 -0.15097646676E+04  0.15097646676E+04  0.50400001928E-02 0.  1.
    10030    2    1    2    0    0  0.00000000000E+00  0.00000000000E+00 -0.39317250570E+03  0.26263568296E+04  0.25967605929E+04 0.  0.
        2    1    3    3  502    0  0.85797790238E+02  0.11296450565E+04  0.44493966138E+03  0.12171403028E+04  0.25500000920E-02 0. -1.
       -2    1    3    3    0  502 -0.85797790238E+02 -0.11296450565E+04 -0.83811216708E+03  0.14092165267E+04  0.25500000920E-02 0.  1.
</event>
<event>
 5   0  0.2163800E-05  0.2623367E+04  0.7818609E-02  0.8360307E-01
        1   -1    0    0  501    0  0.00000000000E+00  0.00000000000E+00  0.15771969945E+04  0.15771969946E+04  0.50400001928E-02 0.  1.
       -1   -1    0    0    0  501  0.00000000000E+00  0.00000000000E+00 -0.10908675647E+04  0.10908675647E+04  0.50400001928E-02 0. -1.
    10030    2    1    2    0    0  0.00000000000E+00  0.00000000000E+00  0.48632942985E+03  0.26680645593E+04  0.26233665733E+04 0.  0.
        1    1    3    3  502    0 -0.12620651345E+02 -0.12478217575E+03  0.15710847654E+04  0.15760828697E+04  0.50400001928E-02 0.  1.
       -1    1    3    3    0  502  0.12620651345E+02  0.12478217575E+03 -0.10847553355E+04  0.10919816895E+04  0.50400001928E-02 0. -1.
</event>
<event>
 5   0  0.5036452E-05  0.2627680E+04  0.7818609E-02  0.8358859E-01
       -2   -1    0    0    0  501  0.00000000000E+00  0.00000000000E+00  0.98391773651E+03  0.98391773651E+03  0.25500000920E-02 0.  1.
        2   -1    0    0  501    0  0.00000000000E+00  0.00000000000E+00 -0.17543895226E+04  0.17543895226E+04  0.25500000920E-02 0. -1.
    10030    2    1    2    0    0  0.00000000000E+00  0.00000000000E+00 -0.77047178608E+03  0.27383072591E+04  0.26276795604E+04 0.  0.
        2    1    3    3  502    0  0.79435461896E+03 -0.96330976317E+03  0.40892927539E+02  0.12492546546E+04  0.25500000920E-02 0.  1.
       -2    1    3    3    0  502 -0.79435461896E+03  0.96330976317E+03 -0.81136471362E+03  0.14890526045E+04  0.25500000920E-02 0. -1.
</event>
<event>
 5   0  0.2159405E-05  0.2606176E+04  0.7818609E-02  0.8366107E-01
       -1   -1    0    0    0  501  0.00000000000E+00  0.00000000000E+00  0.90124210491E+03  0.90124210493E+03  0.50400001928E-02 0.  1.
        1   -1    0    0  501    0  0.00000000000E+00  0.00000000000E+00 -0.18841083234E+04  0.18841083234E+04  0.50400001928E-02 0. -1.
    10030    2    1    2    0    0  0.00000000000E+00  0.00000000000E+00 -0.98286621850E+03  0.27853504283E+04  0.26061755515E+04 0.  0.
        3    1    3    3  502    0  0.25715769041E+03  0.74762574472E+03  0.61562044742E+03  0.10020293795E+04  0.10100000352E+00 0.  1.
       -3    1    3    3    0  502 -0.25715769041E+03 -0.74762574472E+03 -0.15984866659E+04  0.17833210488E+04  0.10100000352E+00 0. -1.
</event>
<event>
 5   0  0.2159405E-05  0.2599121E+04  0.7818609E-02  0.8368500E-01
       -1   -1    0    0    0  501  0.00000000000E+00  0.00000000000E+00  0.11453774790E+04  0.11453774791E+04  0.50400001928E-02 0.  1.
        1   -1    0    0  501    0  0.00000000000E+00  0.00000000000E+00 -0.14744985259E+04  0.14744985259E+04  0.50400001928E-02 0. -1.
    10030    2    1    2    0    0  0.00000000000E+00  0.00000000000E+00 -0.32912104687E+03  0.26198760050E+04  0.25991209318E+04 0.  0.
        3    1    3    3  502    0 -0.45913957105E+03  0.10018441976E+04 -0.85879576588E+03  0.13971510726E+04  0.10100000352E+00 0. -1.
       -3    1    3    3    0  502  0.45913957105E+03 -0.10018441976E+04  0.52967471901E+03  0.12227249324E+04  0.10100000352E+00 0.  1.
</event>
<event>
 5   0  0.5036452E-05  0.2597204E+04  0.7818609E-02  0.8369152E-01
        2   -1    0    0  501    0  0.00000000000E+00  0.00000000000E+00  0.10288964350E+04  0.10288964350E+04  0.25500000920E-02 0.  1.
       -2   -1    0    0    0  501  0.00000000000E+00  0.00000000000E+00 -0.16390054645E+04  0.16390054645E+04  0.25500000920E-02 0. -1.
    10030    2    1    2    0    0  0.00000000000E+00  0.00000000000E+00 -0.61010902945E+03  0.26679018995E+04  0.25972037883E+04 0.  0.
        2    1    3    3  502    0  0.86155412289E+03 -0.95742461824E+03 -0.47518124750E+03  0.13728563742E+04  0.25500000920E-02 0.  1.
       -2    1    3    3    0  502 -0.86155412289E+03  0.95742461824E+03 -0.13492778195E+03  0.12950455253E+04  0.25500000920E-02 0. -1.
</event>
<event>
 5   0  0.1993815E-05  0.2631083E+04  0.7818609E-02  0.8357719E-01
       -1   -1    0    0    0  501  0.00000000000E+00  0.00000000000E+00  0.16630718586E+04  0.16630718586E+04  0.50400001928E-02 0.  1.
        1   -1    0    0  501    0  0.00000000000E+00  0.00000000000E+00 -0.10406345140E+04  0.10406345140E+04  0.50400001928E-02 0. -1.
    10030    2    1    2    0    0  0.00000000000E+00  0.00000000000E+00  0.62243734462E+03  0.27037063726E+04  0.26310834083E+04 0.  0.
        5    1    3    3  502    0 -0.99032796314E+03  0.70044377028E+03  0.83444561642E+03  0.14723085705E+04  0.46999998093E+01 0.  1.
       -5    1    3    3    0  502  0.99032796314E+03 -0.70044377028E+03 -0.21200827179E+03  0.12313978022E+04  0.46999998093E+01 0. -1.
</event>
<event>
 5   0  0.5182179E-05  0.2883838E+04  0.7818609E-02  0.8277702E-01
       -2   -1    0    0    0  501  0.00000000000E+00  0.00000000000E+00  0.15682190988E+04  0.15682190988E+04  0.25500000920E-02 0. -1.
        2   -1    0    0  501    0  0.00000000000E+00  0.00000000000E+00 -0.13257911228E+04  0.13257911228E+04  0.25500000920E-02 0.  1.
    10030    2    1    2    0    0  0.00000000000E+00  0.00000000000E+00  0.24242797601E+03  0.28940102216E+04  0.28838383864E+04 0.  0.
        3    1    3    3  502    0  0.48058464775E+03  0.32951640476E+03  0.14448006421E+04  0.15578804737E+04  0.10100000352E+00 0. -1.
       -3    1    3    3    0  502 -0.48058464775E+03 -0.32951640476E+03 -0.12023726661E+04  0.13361297479E+04  0.10100000352E+00 0.  1.
</event>
<event>
 5   0  0.5182179E-05  0.2492622E+04  0.7818609E-02  0.8405619E-01
        2   -1    0    0  501    0  0.00000000000E+00  0.00000000000E+00  0.10037834687E+04  0.10037834687E+04  0.25500000920E-02 0.  1.
       -2   -1    0    0    0  501  0.00000000000E+00  0.00000000000E+00 -0.15474360295E+04  0.15474360295E+04  0.25500000920E-02 0. -1.
    10030    2    1    2    0    0  0.00000000000E+00  0.00000000000E+00 -0.54365256074E+03  0.25512194982E+04  0.24926216763E+04 0.  0.
        3    1    3    3  502    0 -0.32865677978E+03  0.52654582605E+03  0.83433260022E+03  0.10398926309E+04  0.10100000352E+00 0.  1.
       -3    1    3    3    0  502  0.32865677978E+03 -0.52654582605E+03 -0.13779851610E+04  0.15113268673E+04  0.10100000352E+00 0. -1.
</event>
<event>
 5   0  0.5036452E-05  0.2599049E+04  0.7818609E-02  0.8368524E-01
       -2   -1    0    0    0  501  0.00000000000E+00  0.00000000000E+00  0.14974174074E+04  0.14974174074E+04  0.25500000920E-02 0. -1.
        2   -1    0    0  501    0  0.00000000000E+00  0.00000000000E+00 -0.11277847762E+04  0.11277847762E+04  0.25500000920E-02 0.  1.
    10030    2    1    2    0    0  0.00000000000E+00  0.00000000000E+00  0.36963263123E+03  0.26252021837E+04  0.25990494845E+04 0.  0.
        2    1    3    3  502    0  0.12960109290E+04  0.61436890352E+02  0.11096606548E+03  0.13022028595E+04  0.25500000920E-02 0.  1.
       -2    1    3    3    0  502 -0.12960109290E+04 -0.61436890352E+02  0.25866656575E+03  0.13229993242E+04  0.25500000920E-02 0. -1.
</event>
<event>
 5   0  0.1954502E-05  0.2587673E+04  0.7818609E-02  0.8372401E-01
       -1   -1    0    0    0  501  0.00000000000E+00  0.00000000000E+00  0.63910072305E+03  0.63910072307E+03  0.50400001928E-02 0.  1.
        1   -1    0    0  501    0  0.00000000000E+00  0.00000000000E+00 -0.26193246593E+04  0.26193246593E+04  0.50400001928E-02 0. -1.
    10030    2    1    2    0    0  0.00000000000E+00  0.00000000000E+00 -0.19802239362E+04  0.32584253823E+04  0.25876725324E+04 0.  0.
        4    1    3    3  502    0 -0.49559053688E+03  0.11763580264E+04 -0.12559888618E+04  0.17907925118E+04  0.12699999809E+01 0. -1.
       -4    1    3    3    0  502  0.49559053688E+03 -0.11763580264E+04 -0.72423507442E+03  0.14676328705E+04  0.12699999809E+01 0.  1.
</event>
<event>
 5   0  0.5170532E-05  0.2589793E+04  0.7818609E-02  0.8371676E-01
        2   -1    0    0  501    0  0.00000000000E+00  0.00000000000E+00  0.11114499411E+04  0.11114499411E+04  0.25500000920E-02 0.  1.
       -2   -1    0    0    0  501  0.00000000000E+00  0.00000000000E+00 -0.15086215958E+04  0.15086215958E+04  0.25500000920E-02 0. -1.
    10030    2    1    2    0    0  0.00000000000E+00  0.00000000000E+00 -0.39717165467E+03  0.26200715370E+04  0.25897933384E+04 0.  0.
        1    1    3    3  502    0  0.28523104959E+03 -0.76148646817E+03  0.82093556072E+03  0.11554884628E+04  0.50400001928E-02 0.  1.
       -1    1    3    3    0  502 -0.28523104959E+03  0.76148646817E+03 -0.12181072154E+04  0.14645830741E+04  0.50400001928E-02 0. -1.
</event>
<event>
 5   0  0.5036452E-05  0.2416541E+04  0.7818609E-02  0.8433337E-01
        2   -1    0    0  501    0  0.00000000000E+00  0.00000000000E+00  0.11613203464E+04  0.11613203465E+04  0.25500000920E-02 0.  1.
       -2   -1    0    0    0  501  0.00000000000E+00  0.00000000000E+00 -0.12571186819E+04  0.12571186819E+04  0.25500000920E-02 0. -1.
    10030    2    1    2    0    0  0.00000000000E+00  0.00000000000E+00 -0.95798335480E+02  0.24184390284E+04  0.24165409189E+04 0.  0.
        2    1    3    3  502    0 -0.27479516356E+03  0.43819344126E+03  0.10449253973E+04  0.11659309412E+04  0.25500000920E-02 0.  1.
       -2    1    3    3    0  502  0.27479516356E+03 -0.43819344126E+03 -0.11407237328E+04  0.12525080871E+04  0.25500000920E-02 0. -1.
</event>
<event>
 5   0  0.5170532E-05  0.2579001E+04  0.7818609E-02  0.8375369E-01
        2   -1    0    0  501    0  0.00000000000E+00  0.00000000000E+00  0.11679285150E+04  0.11679285150E+04  0.25500000920E-02 0.  1.
       -2   -1    0    0    0  501  0.00000000000E+00  0.00000000000E+00 -0.14237269668E+04  0.14237269668E+04  0.25500000920E-02 0. -1.
    10030    2    1    2    0    0  0.00000000000E+00  0.00000000000E+00 -0.25579845182E+03  0.25916554818E+04  0.25790008315E+04 0.  0.
        1    1    3    3  502    0  0.34109541395E+03 -0.12304840035E+04 -0.30871085852E+03  0.13136739925E+04  0.50400001928E-02 0.  1.
       -1    1    3    3    0  502 -0.34109541395E+03  0.12304840035E+04  0.52912406706E+02  0.12779814894E+04  0.50400001928E-02 0. -1.
</event>
<event>
 5   0  0.5182179E-05  0.2577834E+04  0.7818609E-02  0.8375770E-01
        2   -1    0    0  501    0  0.00000000000E+00  0.00000000000E+00  0.24224010233E+04  0.24224010233E+04  0.25500000920E-02 0. -1.
       -2   -1    0    0    0  501  0.00000000000E+00  0.00000000000E+00 -0.68581010289E+03  0.68581010289E+03  0.25500000920E-02 0.  1.
    10030    2    1    2    0    0  0.00000000000E+00  0.00000000000E+00  0.17365909205E+04  0.31082111262E+04  0.25778340482E+04 0.  0.
        3    1    3    3  502    0  0.22985320088E+02 -0.37792094285E+03 -0.61724654046E+03  0.72411730120E+03  0.10100000352E+00 0.  1.
       -3    1    3    3    0  502 -0.22985320088E+02  0.37792094285E+03  0.23538374609E+04  0.23840938250E+04  0.10100000352E+00 0. -1.
</event>
<event>
 5   0  0.2072710E-05  0.2673502E+04  0.7818609E-02  0.8343654E-01
       -1   -1    0    0    0  501  0.00000000000E+00  0.00000000000E+00  0.88268817847E+03  0.88268817849E+03  0.50400001928E-02 0. -1.
        1   -1    0    0  501    0  0.00000000000E+00  0.00000000000E+00 -0.20243871761E+04  0.20243871762E+04  0.50400001928E-02 0.  1.
    10030    2    1    2    0    0  0.00000000000E+00  0.00000000000E+00 -0.11416989977E+04  0.29070753546E+04  0.26735015460E+04 0.  0.
        2    1    3    3  502    0 -0.64329872781E+03 -0.25229249969E+03  0.67342150800E+03  0.96487371508E+03  0.25500000920E-02 0. -1.
       -2    1    3    3    0  502  0.64329872781E+03  0.25229249969E+03 -0.18151205057E+04  0.19422016396E+04  0.25500000920E-02 0.  1.
</event>
<event>
 5   0  0.5182179E-05  0.2422597E+04  0.7818609E-02  0.8431092E-01
        2   -1    0    0  501    0  0.00000000000E+00  0.00000000000E+00  0.10789705015E+04  0.10789705015E+04  0.25500000920E-02 0. -1.
       -2   -1    0    0    0  501  0.00000000000E+00  0.00000000000E+00 -0.13598555237E+04  0.13598555237E+04  0.25500000920E-02 0.  1.
    10030    2    1    2    0    0  0.00000000000E+00  0.00000000000E+00 -0.28088502228E+03  0.24388260252E+04  0.24225969507E+04 0.  0.
        3    1    3    3  502    0  0.10353955124E+04  0.14100047815E+03 -0.75717939292E+03  0.12904439722E+04  0.10100000352E+00 0.  1.
       -3    1    3    3    0  502 -0.10353955124E+04 -0.14100047815E+03  0.47629437065E+03  0.11483820530E+04  0.10100000352E+00 0. -1.
</event>
<event>
 5   0  0.5049803E-05  0.2584695E+04  0.7818609E-02  0.8373419E-01
        2   -1    0    0  501    0  0.00000000000E+00  0.00000000000E+00  0.15278999270E+04  0.15278999270E+04  0.25500000920E-02 0. -1.
       -2   -1    0    0    0  501  0.00000000000E+00  0.00000000000E+00 -0.10931096488E+04  0.10931096488E+04  0.25500000920E-02 0.  1.
    10030    2    1    2    0    0  0.00000000000E+00  0.00000000000E+00  0.43479027820E+03  0.26210095759E+04  0.25846950712E+04 0.  0.
        4    1    3    3  502    0  0.23667172006E+03  0.95406171199E+03 -0.63338799979E+03  0.11693712946E+04  0.12699999809E+01 0.  1.
       -4    1    3    3    0  502 -0.23667172006E+03 -0.95406171199E+03  0.10681782780E+04  0.14516382813E+04  0.12699999809E+01 0. -1.
</event>
<event>
 5   0  0.2163800E-05  0.2576346E+04  0.7818609E-02  0.8376281E-01
        1   -1    0    0  501    0  0.00000000000E+00  0.00000000000E+00  0.89053784945E+03  0.89053784947E+03  0.50400001928E-02 0. -1.
       -1   -1    0    0    0  501  0.00000000000E+00  0.00000000000E+00 -0.18633568657E+04  0.18633568657E+04  0.50400001928E-02 0.  1.
    10030    2    1    2    0    0  0.00000000000E+00  0.00000000000E+00 -0.97281901627E+03  0.27538947152E+04  0.25763461072E+04 0.  0.
        1    1    3    3  502    0  0.80526782847E+03 -0.46626078478E+03  0.46578574400E+03  0.10405824111E+04  0.50400001928E-02 0. -1.
       -1    1    3    3    0  502 -0.80526782847E+03  0.46626078478E+03 -0.14386047603E+04  0.17133123041E+04  0.50400001928E-02 0.  1.
</event>
<event>
 5   0  0.2072710E-05  0.2663054E+04  0.7818609E-02  0.8347093E-01
       -1   -1    0    0    0  501  0.00000000000E+00  0.00000000000E+00  0.10745751651E+04  0.10745751651E+04  0.50400001928E-02 0.  1.
        1   -1    0    0  501    0  0.00000000000E+00  0.00000000000E+00 -0.16499215044E+04  0.16499215044E+04  0.50400001928E-02 0. -1.
    10030    2    1    2    0    0  0.00000000000E+00  0.00000000000E+00 -0.57534633926E+03  0.27244966696E+04  0.26630543915E+04 0.  0.
        2    1    3    3  502    0  0.37929467578E+03 -0.81245605862E+01 -0.15934571834E+04  0.16379976358E+04  0.25500000920E-02 0. -1.
       -2    1    3    3    0  502 -0.37929467578E+03  0.81245605862E+01  0.10181108441E+04  0.10864990338E+04  0.25500000920E-02 0.  1.
</event>
<event>
 5   0  0.1993815E-05  0.2546276E+04  0.7818609E-02  0.8386683E-01
        1   -1    0    0  501    0  0.00000000000E+00  0.00000000000E+00  0.23135767868E+04  0.23135767868E+04  0.50400001928E-02 0.  1.
       -1   -1    0    0    0  501  0.00000000000E+00  0.00000000000E+00 -0.70059482850E+03  0.70059482852E+03  0.50400001928E-02 0. -1.
    10030    2    1    2    0    0  0.00000000000E+00  0.00000000000E+00  0.16129819583E+04  0.30141716153E+04  0.25462756584E+04 0.  0.
        5    1    3    3  502    0 -0.36678388504E+03 -0.33298334095E+03  0.21947959709E+04  0.22500132816E+04  0.46999998093E+01 0.  1.
       -5    1    3    3    0  502  0.36678388504E+03  0.33298334095E+03 -0.58181401260E+03  0.76415833368E+03  0.46999998093E+01 0. -1.
</event>
<event>
 5   0  0.2159405E-05  0.2559230E+04  0.7818609E-02  0.8382183E-01
        1   -1    0    0  501    0  0.00000000000E+00  0.00000000000E+00  0.14630408292E+04  0.14630408292E+04  0.50400001928E-02 0.  1.
       -1   -1    0    0    0  501  0.00000000000E+00  0.00000000000E+00 -0.11191858890E+04  0.11191858890E+04  0.50400001928E-02 0. -1.
    10030    2    1    2    0    0  0.00000000000E+00  0.00000000000E+00  0.34385494016E+03  0.25822267182E+04  0.25592300803E+04 0.  0.
        3    1    3    3  502    0  0.24542270846E+03  0.25039498541E+03  0.14136297597E+04  0.14564611434E+04  0.10100000352E+00 0.  1.
       -3    1    3    3    0  502 -0.24542270846E+03 -0.25039498541E+03 -0.10697748195E+04  0.11257655747E+04  0.10100000352E+00 0. -1.
</event>
<event>
 5   0  0.5049803E-05  0.2495612E+04  0.7818609E-02  0.8404550E-01
        2   -1    0    0  501    0  0.00000000000E+00  0.00000000000E+00  0.11175180269E+04  0.11175180269E+04  0.25500000920E-02 0.  1.
       -2   -1    0    0    0  501  0.00000000000E+00  0.00000000000E+00 -0.13932838348E+04  0.13932838348E+04  0.25500000920E-02 0. -1.
    10030    2    1    2    0    0  0.00000000000E+00  0.00000000000E+00 -0.27576580795E+03  0.25108018617E+04  0.24956119906E+04 0.  0.
        4    1    3    3  502    0  0.10314240930E+04 -0.46858775742E+03  0.38837642571E+03  0.11976009381E+04  0.12699999809E+01 0.  1.
       -4    1    3    3    0  502 -0.10314240930E+04  0.46858775742E+03 -0.66414223366E+03  0.13132009235E+04  0.12699999809E+01 0. -1.
</event>
<event>
 5   0  0.2163800E-05  0.1957184E+04  0.7818609E-02  0.8626904E-01
       -1   -1    0    0    0  501  0.00000000000E+00  0.00000000000E+00  0.12763505164E+04  0.12763505164E+04  0.50400001928E-02 0. -1.
        1   -1    0    0  501    0  0.00000000000E+00  0.00000000000E+00 -0.75029741958E+03  0.75029741960E+03  0.50400001928E-02 0.  1.
    10030    2    1    2    0    0  0.00000000000E+00  0.00000000000E+00  0.52605309685E+03  0.20266479360E+04  0.19571842008E+04 0.  0.
        1    1    3    3  502    0 -0.47462372358E+01  0.62577957029E+03 -0.51601830024E+03  0.81110879885E+03  0.50400001928E-02 0.  1.
       -1    1    3    3    0  502  0.47462372358E+01 -0.62577957029E+03  0.10420713971E+04  0.12155391372E+04  0.50400001928E-02 0. -1.
</event>
<event>
 5   0  0.4955675E-05  0.1422129E+04  0.7818609E-02  0.8937954E-01
        2   -1    0    0  501    0  0.00000000000E+00  0.00000000000E+00  0.61801565680E+03  0.61801565680E+03  0.25500000920E-02 0. -1.
       -2   -1    0    0    0  501  0.00000000000E+00  0.00000000000E+00 -0.81812287955E+03  0.81812287955E+03  0.25500000920E-02 0.  1.
    10030    2    1    2    0    0  0.00000000000E+00  0.00000000000E+00 -0.20010722275E+03  0.14361385364E+04  0.14221290360E+04 0.  0.
        5    1    3    3  502    0  0.59754273128E+03  0.30892034456E+03 -0.33276143668E+03  0.75049407641E+03  0.46999998093E+01 0. -1.
       -5    1    3    3    0  502 -0.59754273128E+03 -0.30892034456E+03  0.13265421393E+03  0.68564445995E+03  0.46999998093E+01 0.  1.
</event>
<event>
 5   0  0.4955675E-05  0.2427918E+04  0.7818609E-02  0.8429125E-01
       -2   -1    0    0    0  501  0.00000000000E+00  0.00000000000E+00  0.11366270232E+04  0.11366270232E+04  0.25500000920E-02 0.  1.
        2   -1    0    0  501    0  0.00000000000E+00  0.00000000000E+00 -0.12965523241E+04  0.12965523241E+04  0.25500000920E-02 0. -1.
    10030    2    1    2    0    0  0.00000000000E+00  0.00000000000E+00 -0.15992530083E+03  0.24331793473E+04  0.24279179628E+04 0.  0.
        5    1    3    3  502    0  0.75524213293E+03 -0.77273026846E+03 -0.63448945638E+03  0.12530369936E+04  0.46999998093E+01 0. -1.
       -5    1    3    3    0  502 -0.75524213293E+03  0.77273026846E+03  0.47456415555E+03  0.11801423537E+04  0.46999998093E+01 0.  1.
</event>
<event>
 5   0  0.4955675E-05  0.1537605E+04  0.7818609E-02  0.8859824E-01
        2   -1    0    0  501    0  0.00000000000E+00  0.00000000000E+00  0.47372298240E+03  0.47372298240E+03  0.25500000920E-02 0. -1.
       -2   -1    0    0    0  501  0.00000000000E+00  0.00000000000E+00 -0.12476862724E+04  0.12476862724E+04  0.25500000920E-02 0.  1.
    10030    2    1    2    0    0  0.00000000000E+00  0.00000000000E+00 -0.77396329000E+03  0.17214092548E+04  0.15376054917E+04 0.  0.
        5    1    3    3  502    0  0.18087189318E+03  0.63970742109E+03  0.45304439148E+02  0.66634436184E+03  0.46999998093E+01 0. -1.
       -5    1    3    3    0  502 -0.18087189318E+03 -0.63970742109E+03 -0.81926772915E+03  0.10550648930E+04  0.46999998093E+01 0.  1.
</event>
<event>
 5   0  0.5036452E-05  0.2098980E+04  0.7818609E-02  0.8561693E-01
       -2   -1    0    0    0  501  0.00000000000E+00  0.00000000000E+00  0.90702830239E+03  0.90702830239E+03  0.25500000920E-02 0. -1.
        2   -1    0    0  501    0  0.00000000000E+00  0.00000000000E+00 -0.12143269537E+04  0.12143269537E+04  0.25500000920E-02 0.  1.
    10030    2    1    2    0    0  0.00000000000E+00  0.00000000000E+00 -0.30729865133E+03  0.21213552561E+04  0.20989796715E+04 0.  0.
        2    1    3    3  502    0 -0.76291480047E+02  0.77989971296E+03  0.55190803039E+03  0.95847087918E+03  0.25500000920E-02 0. -1.
       -2    1    3    3    0  502  0.76291480047E+02 -0.77989971296E+03 -0.85920668173E+03  0.11628843769E+04  0.25500000920E-02 0.  1.
</event>
<event>
 5   0  0.1954502E-05  0.2363736E+04  0.7818609E-02  0.8453207E-01
        1   -1    0    0  501    0  0.00000000000E+00  0.00000000000E+00  0.13419946999E+04  0.13419946999E+04  0.50400001928E-02 0.  1.
       -1   -1    0    0    0  501  0.00000000000E+00  0.00000000000E+00 -0.10408471668E+04  0.10408471668E+04  0.50400001928E-02 0. -1.
    10030    2    1    2    0    0  0.00000000000E+00  0.00000000000E+00  0.30114753307E+03  0.23828418667E+04  0.23637355024E+04 0.  0.
        4    1    3    3  502    0  0.16549253410E+03 -0.11589541843E+04  0.31389315161E+03  0.12120615099E+04  0.12699999809E+01 0.  1.
       -4    1    3    3    0  502 -0.16549253410E+03  0.11589541843E+04 -0.12745618543E+02  0.11707803568E+04  0.12699999809E+01 0. -1.
</event>
<event>
 5   0  0.5170532E-05  0.2516061E+04  0.7818609E-02  0.8397286E-01
       -2   -1    0    0    0  501  0.00000000000E+00  0.00000000000E+00  0.20790157928E+04  0.20790157928E+04  0.25500000920E-02 0. -1.
        2   -1    0    0  501    0  0.00000000000E+00  0.00000000000E+00 -0.76124540777E+03  0.76124540777E+03  0.25500000920E-02 0.  1.
    10030    2    1    2    0    0  0.00000000000E+00  0.00000000000E+00  0.13177703850E+04  0.28402612006E+04  0.25160613863E+04 0.  0.
        1    1    3    3  502    0 -0.66854837481E+03  0.24024143466E+03  0.18309187676E+04  0.19639084525E+04  0.50400001928E-02 0. -1.
       -1    1    3    3    0  502  0.66854837481E+03 -0.24024143466E+03 -0.51314838259E+03  0.87635274802E+03  0.50400001928E-02 0.  1.
</event>
<event>
 5   0  0.4955675E-05  0.2626457E+04  0.7818609E-02  0.8359270E-01
       -2   -1    0    0    0  501  0.00000000000E+00  0.00000000000E+00  0.91985111473E+03  0.91985111473E+03  0.25500000920E-02 0. -1.
        2   -1    0    0  501    0  0.00000000000E+00  0.00000000000E+00 -0.18748345031E+04  0.18748345031E+04  0.25500000920E-02 0.  1.
    10030    2    1    2    0    0  0.00000000000E+00  0.00000000000E+00 -0.95498338839E+03  0.27946856179E+04  0.26264566302E+04 0.  0.
        5    1    3    3  502    0 -0.37825564607E+03  0.99989788481E+02 -0.18113691817E+04  0.18531475100E+04  0.46999998093E+01 0.  1.
       -5    1    3    3    0  502  0.37825564607E+03 -0.99989788481E+02  0.85638579328E+03  0.94153810784E+03  0.46999998093E+01 0. -1.
</event>
<event>
 5   0  0.5049803E-05  0.2653798E+04  0.7818609E-02  0.8350153E-01
       -2   -1    0    0    0  501  0.00000000000E+00  0.00000000000E+00  0.75064793617E+03  0.75064793617E+03  0.25500000920E-02 0.  1.
        2   -1    0    0  501    0  0.00000000000E+00  0.00000000000E+00 -0.23455219121E+04  0.23455219121E+04  0.25500000920E-02 0. -1.
    10030    2    1    2    0    0  0.00000000000E+00  0.00000000000E+00 -0.15948739759E+04  0.30961698483E+04  0.26537981706E+04 0.  0.
        4    1    3    3  502    0 -0.12170194530E+04  0.49907576267E+03 -0.10010128651E+04  0.16529492838E+04  0.12699999809E+01 0. -1.
       -4    1    3    3    0  502  0.12170194530E+04 -0.49907576267E+03 -0.59386111078E+03  0.14432205644E+04  0.12699999809E+01 0.  1.
</event>
<event>
 5   0  0.4955675E-05  0.2549180E+04  0.7818609E-02  0.8385671E-01
       -2   -1    0    0    0  501  0.00000000000E+00  0.00000000000E+00  0.10910292768E+04  0.10910292768E+04  0.25500000920E-02 0.  1.
        2   -1    0    0  501    0  0.00000000000E+00  0.00000000000E+00 -0.14890344004E+04  0.14890344004E+04  0.25500000920E-02 0. -1.
    10030    2    1    2    0    0  0.00000000000E+00  0.00000000000E+00 -0.39800512361E+03  0.25800636773E+04  0.25491803585E+04 0.  0.
        5    1    3    3  502    0 -0.10286989528E+03  0.49159994785E+03 -0.13846490879E+04  0.14729317400E+04  0.46999998093E+01 0. -1.
       -5    1    3    3    0  502  0.10286989528E+03 -0.49159994785E+03  0.98664396434E+03  0.11071319372E+04  0.46999998093E+01 0.  1.
</event>
<event>
 5   0  0.4955675E-05  0.2431518E+04  0.7818609E-02  0.8427797E-01
        2   -1    0    0  501    0  0.00000000000E+00  0.00000000000E+00  0.21085509283E+04  0.21085509283E+04  0.25500000920E-02 0.  1.
       -2   -1    0    0    0  501  0.00000000000E+00  0.00000000000E+00 -0.70098862293E+03  0.70098862294E+03  0.25500000920E-02 0. -1.
    10030    2    1    2    0    0  0.00000000000E+00  0.00000000000E+00  0.14075623054E+04  0.28095395513E+04  0.24315182184E+04 0.  0.
        5    1    3    3  502    0  0.10592381252E+04  0.59559001096E+03  0.66155906742E+03  0.13836167665E+04  0.46999998093E+01 0. -1.
       -5    1    3    3    0  502 -0.10592381252E+04 -0.59559001096E+03  0.74600323798E+03  0.14259227847E+04  0.46999998093E+01 0.  1.
</event>
<event>
 5   0  0.1954502E-05  0.2576454E+04  0.7818609E-02  0.8376243E-01
        1   -1    0    0  501    0  0.00000000000E+00  0.00000000000E+00  0.94357476713E+03  0.94357476715E+03  0.50400001928E-02 0.  1.
       -1   -1    0    0    0  501  0.00000000000E+00  0.00000000000E+00 -0.17587683099E+04  0.17587683099E+04  0.50400001928E-02 0. -1.
    10030    2    1    2    0    0  0.00000000000E+00  0.00000000000E+00 -0.81519354280E+03  0.27023430771E+04  0.25764544619E+04 0.  0.
        4    1    3    3  502    0 -0.70888156882E+03 -0.10496912860E+04 -0.16125299114E+03  0.12768590426E+04  0.12699999809E+01 0. -1.
       -4    1    3    3    0  502  0.70888156882E+03  0.10496912860E+04 -0.65394055166E+03  0.14254840345E+04  0.12699999809E+01 0.  1.
</event>
<event>
 5   0  0.2159405E-05  0.1989330E+04  0.7818609E-02  0.8611626E-01
        1   -1    0    0  501    0  0.00000000000E+00  0.00000000000E+00  0.12900235688E+04  0.12900235688E+04  0.50400001928E-02 0.  1.
       -1   -1    0    0    0  501  0.00000000000E+00  0.00000000000E+00 -0.76693046030E+03  0.76693046032E+03  0.50400001928E-02 0. -1.
    10030    2    1    2    0    0  0.00000000000E+00  0.00000000000E+00  0.52309310847E+03  0.20569540291E+04  0.19893299067E+04 0.  0.
        3    1    3    3  502    0 -0.58824095977E+03  0.52907173384E+03  0.88487740291E+03  0.11869929885E+04  0.10100000352E+00 0.  1.
       -3    1    3    3    0  502  0.58824095977E+03 -0.52907173384E+03 -0.36178429445E+03  0.86996104063E+03  0.10100000352E+00 0. -1.
</event>
<event>
 5   0  0.1993815E-05  0.2606733E+04  0.7818609E-02  0.8365918E-01
        1   -1    0    0  501    0  0.00000000000E+00  0.00000000000E+00  0.18273618289E+04  0.18273618289E+04  0.50400001928E-02 0.  1.
       -1   -1    0    0    0  501  0.00000000000E+00  0.00000000000E+00 -0.92962663851E+03  0.92962663853E+03  0.50400001928E-02 0. -1.
    10030    2    1    2    0    0  0.00000000000E+00  0.00000000000E+00  0.89773519036E+03  0.27569884674E+04  0.26067330008E+04 0.  0.
        5    1    3    3  502    0 -0.29525508294E+03  0.11264957658E+04 -0.17016784922E+03  0.11769228782E+04  0.46999998093E+01 0. -1.
       -5    1    3    3    0  502  0.29525508294E+03 -0.11264957658E+04  0.10679030396E+04  0.15800655892E+04  0.46999998093E+01 0.  1.
</event>
<event>
 5   0  0.5170532E-05  0.2598949E+04  0.7818609E-02  0.8368558E-01
        2   -1    0    0  501    0  0.00000000000E+00  0.00000000000E+00  0.15691595762E+04  0.15691595762E+04  0.25500000920E-02 0.  1.
       -2   -1    0    0    0  501  0.00000000000E+00  0.00000000000E+00 -0.10761389718E+04  0.10761389718E+04  0.25500000920E-02 0. -1.
    10030    2    1    2    0    0  0.00000000000E+00  0.00000000000E+00  0.49302060446E+03  0.26452985480E+04  0.25989488436E+04 0.  0.
        1    1    3    3  502    0 -0.78726133537E+03  0.10338385365E+04  0.24082106283E+03  0.13215889354E+04  0.50400001928E-02 0. -1.
       -1    1    3    3    0  502  0.78726133537E+03 -0.10338385365E+04  0.25219954163E+03  0.13237096126E+04  0.50400001928E-02 0.  1.
</event>
<event>
 5   0  0.4955675E-05  0.2661370E+04  0.7818609E-02  0.8347649E-01
        2   -1    0    0  501    0  0.00000000000E+00  0.00000000000E+00  0.24134038150E+04  0.24134038150E+04  0.25500000920E-02 0. -1.
       -2   -1    0    0    0  501  0.00000000000E+00  0.00000000000E+00 -0.73370334864E+03  0.73370334864E+03  0.25500000920E-02 0.  1.
    10030    2    1    2    0    0  0.00000000000E+00  0.00000000000E+00  0.16797004664E+04  0.31471071637E+04  0.26613699184E+04 0.  0.
        5    1    3    3  502    0  0.11350184122E+04 -0.17630741171E+03  0.45407383368E+02  0.11495368719E+04  0.46999998093E+01 0. -1.
       -5    1    3    3    0  502 -0.11350184122E+04  0.17630741171E+03  0.16342930830E+04  0.19975702918E+04  0.46999998093E+01 0.  1.
</event>
<event>
 5   0  0.1993815E-05  0.2664699E+04  0.7818609E-02  0.8346551E-01
        1   -1    0    0  501    0  0.00000000000E+00  0.00000000000E+00  0.22872000935E+04  0.22872000936E+04  0.50400001928E-02 0.  1.
       -1   -1    0    0    0  501  0.00000000000E+00  0.00000000000E+00 -0.77612593907E+03  0.77612593908E+03  0.50400001928E-02 0. -1.
    10030    2    1    2    0    0  0.00000000000E+00  0.00000000000E+00  0.15110741545E+04  0.30633260326E+04  0.26646990978E+04 0.  0.
        5    1    3    3  502    0  0.12695512403E+04  0.16131320876E+03  0.32948680740E+03  0.13215013997E+04  0.46999998093E+01 0. -1.
       -5    1    3    3    0  502 -0.12695512403E+04 -0.16131320876E+03  0.11815873471E+04  0.17418246329E+04  0.46999998093E+01 0.  1.
</event>
<event>
 5   0  0.2163800E-05  0.2597910E+04  0.7818609E-02  0.8368911E-01
       -1   -1    0    0    0  501  0.00000000000E+00  0.00000000000E+00  0.72099658506E+03  0.72099658508E+03  0.50400001928E-02 0. -1.
        1   -1    0    0  501    0  0.00000000000E+00  0.00000000000E+00 -0.23402114128E+04  0.23402114128E+04  0.50400001928E-02 0.  1.
    10030    2    1    2    0    0  0.00000000000E+00  0.00000000000E+00 -0.16192148277E+04  0.30612079979E+04  0.25979102656E+04 0.  0.
        1    1    3    3  502    0  0.42438179026E+02 -0.14246276715E+03 -0.23301560052E+04  0.23348926415E+04  0.50400001928E-02 0.  1.
       -1    1    3    3    0  502 -0.42438179026E+02  0.14246276715E+03  0.71094117743E+03  0.72631535634E+03  0.50400001928E-02 0. -1.
</event>
<event>
 5   0  0.5049803E-05  0.2614665E+04  0.7818609E-02  0.8363237E-01
       -2   -1    0    0    0  501  0.00000000000E+00  0.00000000000E+00  0.13678957819E+04  0.13678957819E+04  0.25500000920E-02 0. -1.
        2   -1    0    0  501    0  0.00000000000E+00  0.00000000000E+00 -0.12494508271E+04  0.12494508271E+04  0.25500000920E-02 0.  1.
    10030    2    1    2    0    0  0.00000000000E+00  0.00000000000E+00  0.11844495479E+03  0.26173466089E+04  0.26146651916E+04 0.  0.
        4    1    3    3  502    0 -0.12589201565E+04  0.35048475301E+03  0.96642367773E+02  0.13103666978E+04  0.12699999809E+01 0. -1.
       -4    1    3    3    0  502  0.12589201565E+04 -0.35048475301E+03  0.21802587015E+02  0.13069799112E+04  0.12699999809E+01 0.  1.
</event>
<event>
 5   0  0.2163800E-05  0.2625291E+04  0.7818609E-02  0.8359661E-01
       -1   -1    0    0    0  501  0.00000000000E+00  0.00000000000E+00  0.13084366278E+04  0.13084366278E+04  0.50400001928E-02 0.  1.
        1   -1    0    0  501    0  0.00000000000E+00  0.00000000000E+00 -0.13168675735E+04  0.13168675735E+04  0.50400001928E-02 0. -1.
    10030    2    1    2    0    0  0.00000000000E+00  0.00000000000E+00 -0.84309456458E+01  0.26253042013E+04  0.26252906637E+04 0.  0.
        1    1    3    3  502    0 -0.67608617002E+03  0.79973792888E+03  0.78722054028E+03  0.13101104699E+04  0.50400001928E-02 0.  1.
       -1    1    3    3    0  502  0.67608617002E+03 -0.79973792888E+03 -0.79565148593E+03  0.13151937315E+04  0.50400001928E-02 0. -1.
</event>
<event>
 5   0  0.5049803E-05  0.2583524E+04  0.7818609E-02  0.8373819E-01
        2   -1    0    0  501    0  0.00000000000E+00  0.00000000000E+00  0.12822582562E+04  0.12822582562E+04  0.25500000920E-02 0. -1.
       -2   -1    0    0    0  501  0.00000000000E+00  0.00000000000E+00 -0.13013359524E+04  0.13013359524E+04  0.25500000920E-02 0.  1.
    10030    2    1    2    0    0  0.00000000000E+00  0.00000000000E+00 -0.19077696271E+02  0.25835942086E+04  0.25835237712E+04 0.  0.
        4    1    3    3  502    0 -0.71550768988E+03 -0.76796969893E+02 -0.10823206895E+04  0.12997187067E+04  0.12699999809E+01 0.  1.
       -4    1    3    3    0  502  0.71550768988E+03  0.76796969893E+02  0.10632429932E+04  0.12838755019E+04  0.12699999809E+01 0. -1.
</event>
<event>
 5   0  0.5170532E-05  0.2603201E+04  0.7818609E-02  0.8367115E-01
        2   -1    0    0  501    0  0.00000000000E+00  0.00000000000E+00  0.13090817882E+04  0.13090817882E+04  0.25500000920E-02 0. -1.
       -2   -1    0    0    0  501  0.00000000000E+00  0.00000000000E+00 -0.12941622271E+04  0.12941622271E+04  0.25500000920E-02 0.  1.
    10030    2    1    2    0    0  0.00000000000E+00  0.00000000000E+00  0.14919561105E+02  0.26032440153E+04  0.26032012619E+04 0.  0.
        1    1    3    3  502    0 -0.17672238915E+03 -0.49704431498E+03  0.11973870288E+04  0.13084416497E+04  0.50400001928E-02 0. -1.
       -1    1    3    3    0  502  0.17672238915E+03  0.49704431498E+03 -0.11824674677E+04  0.12948023656E+04  0.50400001928E-02 0.  1.
</event>
<event>
 5   0  0.2072710E-05  0.2549692E+04  0.7818609E-02  0.8385493E-01
       -1   -1    0    0    0  501  0.00000000000E+00  0.00000000000E+00  0.25170375606E+04  0.25170375606E+04  0.50400001928E-02 0. -1.
        1   -1    0    0  501    0  0.00000000000E+00  0.00000000000E+00 -0.64569229126E+03  0.64569229128E+03  0.50400001928E-02 0.  1.
    10030    2    1    2    0    0  0.00000000000E+00  0.00000000000E+00  0.18713452694E+04  0.31627298519E+04  0.25496915498E+04 0.  0.
        2    1    3    3  502    0 -0.59259979799E+03  0.62350990714E+03 -0.23145372096E+03  0.89079175448E+03  0.25500000920E-02 0.  1.
       -2    1    3    3    0  502  0.59259979799E+03 -0.62350990714E+03  0.21027989903E+04  0.22719380975E+04  0.25500000920E-02 0. -1.
</event>
<event>
 5   0  0.2163800E-05  0.2610022E+04  0.7818609E-02  0.8364805E-01
        1   -1    0    0  501    0  0.00000000000E+00  0.00000000000E+00  0.14602580823E+04  0.14602580823E+04  0.50400001928E-02 0.  1.
       -1   -1    0    0    0  501  0.00000000000E+00  0.00000000000E+00 -0.11662689120E+04  0.11662689120E+04  0.50400001928E-02 0. -1.
    10030    2    1    2    0    0  0.00000000000E+00  0.00000000000E+00  0.29398917028E+03  0.26265269944E+04  0.26100219194E+04 0.  0.
        1    1    3    3  502    0 -0.85589578510E+03 -0.57466414760E+03 -0.65822610384E+03  0.12231345312E+04  0.50400001928E-02 0. -1.
       -1    1    3    3    0  502  0.85589578510E+03  0.57466414760E+03  0.95221527412E+03  0.14033924632E+04  0.50400001928E-02 0.  1.
</event>
<event>
 5   0  0.1698625E-05  0.2624849E+04  0.7818609E-02  0.8359809E-01
       -3   -1    0    0    0  501  0.00000000000E+00  0.00000000000E+00  0.14459804170E+04  0.14459804205E+04  0.10100000352E+00 0. -1.
        3   -1    0    0  501    0  0.00000000000E+00  0.00000000000E+00 -0.11912044163E+04  0.11912044206E+04  0.10100000352E+00 0.  1.
    10030    2    1    2    0    0  0.00000000000E+00  0.00000000000E+00  0.25477600067E+03  0.26371848411E+04  0.26248491530E+04 0.  0.
        5    1    3    3  502    0  0.11596678412E+04  0.53393260722E+03 -0.17821685346E+03  0.12890682169E+04  0.46999998093E+01 0. -1.
       -5    1    3    3    0  502 -0.11596678412E+04 -0.53393260722E+03  0.43299285413E+03  0.13481166243E+04  0.46999998093E+01 0.  1.
</event>
<event>
 5   0  0.5049803E-05  0.2600553E+04  0.7818609E-02  0.8368013E-01
        2   -1    0    0  501    0  0.00000000000E+00  0.00000000000E+00  0.18971719217E+04  0.18971719217E+04  0.25500000920E-02 0. -1.
       -2   -1    0    0    0  501  0.00000000000E+00  0.00000000000E+00 -0.89117871385E+03  0.89117871386E+03  0.25500000920E-02 0.  1.
    10030    2    1    2    0    0  0.00000000000E+00  0.00000000000E+00  0.10059932078E+04  0.27883506356E+04  0.26005531974E+04 0.  0.
        4    1    3    3  502    0 -0.47621138359E+03 -0.95944772446E+03 -0.28739373126E+03  0.11090148725E+04  0.12699999809E+01 0.  1.
       -4    1    3    3    0  502  0.47621138359E+03  0.95944772446E+03  0.12933869391E+04  0.16793357630E+04  0.12699999809E+01 0. -1.
</event>
<event>
 5   0  0.1954502E-05  0.2439051E+04  0.7818609E-02  0.8425026E-01
       -1   -1    0    0    0  501  0.00000000000E+00  0.00000000000E+00  0.12662913667E+04  0.12662913668E+04  0.50400001928E-02 0.  1.
        1   -1    0    0  501    0  0.00000000000E+00  0.00000000000E+00 -0.11744871145E+04  0.11744871145E+04  0.50400001928E-02 0. -1.
    10030    2    1    2    0    0  0.00000000000E+00  0.00000000000E+00  0.91804252234E+02  0.24407784813E+04  0.24390513676E+04 0.  0.
        4    1    3    3  502    0  0.10595198757E+04  0.97167881639E+02  0.64232526404E+03  0.12428223212E+04  0.12699999809E+01 0.  1.
       -4    1    3    3    0  502 -0.10595198757E+04 -0.97167881639E+02 -0.55052101181E+03  0.11979561601E+04  0.12699999809E+01 0. -1.
</event>
<event>
 5   0  0.5049803E-05  0.2399232E+04  0.7818609E-02  0.8439791E-01
       -2   -1    0    0    0  501  0.00000000000E+00  0.00000000000E+00  0.15786575121E+04  0.15786575121E+04  0.25500000920E-02 0.  1.
        2   -1    0    0  501    0  0.00000000000E+00  0.00000000000E+00 -0.91158391076E+03  0.91158391077E+03  0.25500000920E-02 0. -1.
    10030    2    1    2    0    0  0.00000000000E+00  0.00000000000E+00  0.66707360133E+03  0.24902414229E+04  0.23992322010E+04 0.  0.
        4    1    3    3  502    0 -0.39059337082E+01 -0.11951218334E+04  0.44113053694E+03  0.12739423913E+04  0.12699999809E+01 0. -1.
       -4    1    3    3    0  502  0.39059337082E+01  0.11951218334E+04  0.22594306439E+03  0.12162990315E+04  0.12699999809E+01 0.  1.
</event>
<event>
 5   0  0.2072710E-05  0.2546029E+04  0.7818609E-02  0.8386769E-01
       -1   -1    0    0    0  501  0.00000000000E+00  0.00000000000E+00  0.11088473229E+04  0.11088473229E+04  0.50400001928E-02 0.  1.
        1   -1    0    0  501    0  0.00000000000E+00  0.00000000000E+00 -0.14614866220E+04  0.14614866220E+04  0.50400001928E-02 0. -1.
    10030    2    1    2    0    0  0.00000000000E+00  0.00000000000E+00 -0.35263929909E+03  0.25703339448E+04  0.25460286944E+04 0.  0.
        2    1    3    3  502    0 -0.50376693993E+03 -0.27985219352E+03  0.96962313055E+03  0.11279483123E+04  0.25500000920E-02 0.  1.
       -2    1    3    3    0  502  0.50376693993E+03  0.27985219352E+03 -0.13222624296E+04  0.14423856325E+04  0.25500000920E-02 0. -1.
</event>
<event>
 5   0  0.5170532E-05  0.2654472E+04  0.7818609E-02  0.8349930E-01
       -2   -1    0    0    0  501  0.00000000000E+00  0.00000000000E+00  0.11509387696E+04  0.11509387696E+04  0.25500000920E-02 0.  1.
        2   -1    0    0  501    0  0.00000000000E+00  0.00000000000E+00 -0.15305379143E+04  0.15305379143E+04  0.25500000920E-02 0. -1.
    10030    2    1    2    0    0  0.00000000000E+00  0.00000000000E+00 -0.37959914474E+03  0.26814766839E+04  0.26544720182E+04 0.  0.
        1    1    3    3  502    0  0.65963582208E+03  0.10489247988E+04 -0.67023523261E+03  0.14087504812E+04  0.50400001928E-02 0. -1.
       -1    1    3    3    0  502 -0.65963582208E+03 -0.10489247988E+04  0.29063608787E+03  0.12727262026E+04  0.50400001928E-02 0.  1.
</event>
<event>
 5   0  0.2159405E-05  0.2235616E+04  0.7818609E-02  0.8503749E-01
       -1   -1    0    0    0  501  0.00000000000E+00  0.00000000000E+00  0.10613431887E+04  0.10613431887E+04  0.50400001928E-02 0.  1.
        1   -1    0    0  501    0  0.00000000000E+00  0.00000000000E+00 -0.11772765166E+04  0.11772765166E+04  0.50400001928E-02 0. -1.
    10030    2    1    2    0    0  0.00000000000E+00  0.00000000000E+00 -0.11593332791E+03  0.22386197053E+04  0.22356157202E+04 0.  0.
        3    1    3    3  502    0 -0.32613718714E+03  0.99613291474E+03  0.33094696830E+03  0.10991688472E+04  0.10100000352E+00 0. -1.
       -3    1    3    3    0  502  0.32613718714E+03 -0.99613291474E+03 -0.44688029620E+03  0.11394508581E+04  0.10100000352E+00 0.  1.
</event>
<event>
 5   0  0.2163800E-05  0.1466370E+04  0.7818609E-02  0.8907130E-01
       -1   -1    0    0    0  501  0.00000000000E+00  0.00000000000E+00  0.73214258165E+03  0.73214258167E+03  0.50400001928E-02 0. -1.
        1   -1    0    0  501    0  0.00000000000E+00  0.00000000000E+00 -0.73422905339E+03  0.73422905341E+03  0.50400001928E-02 0.  1.
    10030    2    1    2    0    0  0.00000000000E+00  0.00000000000E+00 -0.20864717390E+01  0.14663716351E+04  0.14663701507E+04 0.  0.
        1    1    3    3  502    0  0.38464474622E+02 -0.66259047601E+03 -0.31257958441E+03  0.73362909656E+03  0.50400001928E-02 0.  1.
       -1    1    3    3    0  502 -0.38464474622E+02  0.66259047601E+03  0.31049311267E+03  0.73274253852E+03  0.50400001928E-02 0. -1.
</event>
<event>
 5   0  0.2159405E-05  0.1357377E+04  0.7818609E-02  0.8985263E-01
        1   -1    0    0  501    0  0.00000000000E+00  0.00000000000E+00  0.62644637361E+03  0.62644637363E+03  0.50400001928E-02 0. -1.
       -1   -1    0    0    0  501  0.00000000000E+00  0.00000000000E+00 -0.73528680127E+03  0.73528680129E+03  0.50400001928E-02 0.  1.
    10030    2    1    2    0    0  0.00000000000E+00  0.00000000000E+00 -0.10884042766E+03  0.13617331749E+04  0.13573765141E+04 0.  0.
        3    1    3    3  502    0  0.29333591128E+03  0.51400594368E+03 -0.38770582582E+03  0.70750539542E+03  0.10100000352E+00 0.  1.
       -3    1    3    3    0  502 -0.29333591128E+03 -0.51400594368E+03  0.27886539815E+03  0.65422777950E+03  0.10100000352E+00 0. -1.
</event>
<event>
 5   0  0.5182179E-05  0.2277055E+04  0.7818609E-02  0.8487023E-01
        2   -1    0    0  501    0  0.00000000000E+00  0.00000000000E+00  0.12327491468E+04  0.12327491468E+04  0.25500000920E-02 0. -1.
       -2   -1    0    0    0  501  0.00000000000E+00  0.00000000000E+00 -0.10515071731E+04  0.10515071731E+04  0.25500000920E-02 0.  1.
    10030    2    1    2    0    0  0.00000000000E+00  0.00000000000E+00  0.18124197377E+03  0.22842563199E+04  0.22770547384E+04 0.  0.
        3    1    3    3  502    0 -0.62617452570E+03 -0.30674127355E+03 -0.81225875445E+03  0.10704900933E+04  0.10100000352E+00 0.  1.
       -3    1    3    3    0  502  0.62617452570E+03  0.30674127355E+03  0.99350072822E+03  0.12137662266E+04  0.10100000352E+00 0. -1.
</event>
<event>
 5   0  0.5036452E-05  0.2561127E+04  0.7818609E-02  0.8381527E-01
       -2   -1    0    0    0  501  0.00000000000E+00  0.00000000000E+00  0.98720485486E+03  0.98720485486E+03  0.25500000920E-02 0.  1.
        2   -1    0    0  501    0  0.00000000000E+00  0.00000000000E+00 -0.16610969473E+04  0.16610969473E+04  0.25500000920E-02 0. -1.
    10030    2    1    2    0    0  0.00000000000E+00  0.00000000000E+00 -0.67389209246E+03  0.26483018022E+04  0.25611270728E+04 0.  0.
        2    1    3    3  502    0 -0.24154870790E+03 -0.10799118474E+04 -0.10033089746E+04  0.14937149243E+04  0.25500000920E-02 0.  1.
       -2    1    3    3    0  502  0.24154870790E+03  0.10799118474E+04  0.32941688212E+03  0.11545868779E+04  0.25500000920E-02 0. -1.
</event>
<event>
 5   0  0.1954502E-05  0.2576934E+04  0.7818609E-02  0.8376079E-01
        1   -1    0    0  501    0  0.00000000000E+00  0.00000000000E+00  0.18245546490E+04  0.18245546490E+04  0.50400001928E-02 0. -1.
       -1   -1    0    0    0  501  0.00000000000E+00  0.00000000000E+00 -0.90989164415E+03  0.90989164416E+03  0.50400001928E-02 0.  1.
    10030    2    1    2    0    0  0.00000000000E+00  0.00000000000E+00  0.91466300486E+03  0.27344462932E+04  0.25769338598E+04 0.  0.
        4    1    3    3  502    0 -0.52887999397E+02 -0.21836010016E+03 -0.88894468898E+03  0.91689832958E+03  0.12699999809E+01 0.  1.
       -4    1    3    3    0  502  0.52887999397E+02  0.21836010016E+03  0.18036076938E+04  0.18175479636E+04  0.12699999809E+01 0. -1.
</event>
<event>
 5   0  0.5170532E-05  0.2579698E+04  0.7818609E-02  0.8375130E-01
       -2   -1    0    0    0  501  0.00000000000E+00  0.00000000000E+00  0.70288527384E+03  0.70288527384E+03  0.25500000920E-02 0. -1.
        2   -1    0    0  501    0  0.00000000000E+00  0.00000000000E+00 -0.23669723537E+04  0.23669723538E+04  0.25500000920E-02 0.  1.
    10030    2    1    2    0    0  0.00000000000E+00  0.00000000000E+00 -0.16640870799E+04  0.30698576276E+04  0.25796976653E+04 0.  0.
        1    1    3    3  502    0  0.38028746410E+03  0.12316215622E+04 -0.77623002722E+03  0.15046738128E+04  0.50400001928E-02 0. -1.
       -1    1    3    3    0  502 -0.38028746410E+03 -0.12316215622E+04 -0.88785705269E+03  0.15651838147E+04  0.50400001928E-02 0.  1.
</event>
<event>
 5   0  0.1698625E-05  0.2502516E+04  0.7818609E-02  0.8402090E-01
       -4   -1    0    0    0  501  0.00000000000E+00  0.00000000000E+00  0.11328829684E+04  0.11328836802E+04  0.12699999809E+01 0.  1.
        4   -1    0    0  501    0  0.00000000000E+00  0.00000000000E+00 -0.13820009375E+04  0.13820015211E+04  0.12699999809E+01 0. -1.
    10030    2    1    2    0    0  0.00000000000E+00  0.00000000000E+00 -0.24911796918E+03  0.25148852013E+04  0.25025162963E+04 0.  0.
        3    1    3    3  502    0 -0.10624044724E+03 -0.12053244424E+04 -0.44480771278E+03  0.12891656044E+04  0.10100000352E+00 0.  1.
       -3    1    3    3    0  502  0.10624044724E+03  0.12053244424E+04  0.19568974360E+03  0.12257195968E+04  0.10100000352E+00 0. -1.
</event>
<event>
 5   0  0.1954502E-05  0.2101244E+04  0.7818609E-02  0.8560696E-01
        1   -1    0    0  501    0  0.00000000000E+00  0.00000000000E+00  0.17053969935E+04  0.17053969935E+04  0.50400001928E-02 0.  1.
       -1   -1    0    0    0  501  0.00000000000E+00  0.00000000000E+00 -0.64724293832E+03  0.64724293834E+03  0.50400001928E-02 0. -1.
    10030    2    1    2    0    0  0.00000000000E+00  0.00000000000E+00  0.10581540551E+04  0.23526399318E+04  0.21012435947E+04 0.  0.
        4    1    3    3  502    0 -0.99026590876E+03 -0.75824583710E+02  0.91275425475E+03  0.13488876454E+04  0.12699999809E+01 0.  1.
       -4    1    3    3    0  502  0.99026590876E+03  0.75824583710E+02  0.14539980038E+03  0.10037522864E+04  0.12699999809E+01 0. -1.
</event>
<event>
 5   0  0.5170532E-05  0.2512184E+04  0.7818609E-02  0.8398658E-01
        2   -1    0    0  501    0  0.00000000000E+00  0.00000000000E+00  0.18477943313E+04  0.18477943313E+04  0.25500000920E-02 0.  1.
       -2   -1    0    0    0  501  0.00000000000E+00  0.00000000000E+00 -0.85386512261E+03  0.85386512261E+03  0.25500000920E-02 0. -1.
    10030    2    1    2    0    0  0.00000000000E+00  0.00000000000E+00  0.99392920872E+03  0.27016594539E+04  0.25121840166E+04 0.  0.
        1    1    3    3  502    0  0.42970151687E+03  0.53721330389E+03  0.16271951778E+04  0.17666368258E+04  0.50400001928E-02 0.  1.
       -1    1    3    3    0  502 -0.42970151687E+03 -0.53721330389E+03 -0.63326596911E+03  0.93502262814E+03  0.50400001928E-02 0. -1.
</event>
<event>
 5   0  0.2163800E-05  0.2612100E+04  0.7818609E-02  0.8364103E-01
        1   -1    0    0  501    0  0.00000000000E+00  0.00000000000E+00  0.14757892300E+04  0.14757892301E+04  0.50400001928E-02 0.  1.
       -1   -1    0    0    0  501  0.00000000000E+00  0.00000000000E+00 -0.11558336615E+04  0.11558336615E+04  0.50400001928E-02 0. -1.
    10030    2    1    2    0    0  0.00000000000E+00  0.00000000000E+00  0.31995556859E+03  0.26316228915E+04  0.26121002043E+04 0.  0.
        1    1    3    3  502    0 -0.27817226458E+03  0.11411569053E+04 -0.41538420535E+03  0.12458583103E+04  0.50400001928E-02 0. -1.
       -1    1    3    3    0  502  0.27817226458E+03 -0.11411569053E+04  0.73533977394E+03  0.13857645812E+04  0.50400001928E-02 0.  1.
</event>
<event>
 5   0  0.5170532E-05  0.1488756E+04  0.7818609E-02  0.8891964E-01
        2   -1    0    0  501    0  0.00000000000E+00  0.00000000000E+00  0.16654468696E+04  0.16654468696E+04  0.25500000920E-02 0. -1.
       -2   -1    0    0    0  501  0.00000000000E+00  0.00000000000E+00 -0.33270287623E+03  0.33270287624E+03  0.25500000920E-02 0.  1.
    10030    2    1    2    0    0  0.00000000000E+00  0.00000000000E+00  0.13327439934E+04  0.19981497459E+04  0.14887564794E+04 0.  0.
        1    1    3    3  502    0 -0.52495160773E+03 -0.17264009319E+03  0.13357321751E+04  0.14455307800E+04  0.50400001928E-02 0. -1.
       -1    1    3    3    0  502  0.52495160773E+03  0.17264009319E+03 -0.29881816799E+01  0.55261896591E+03  0.50400001928E-02 0.  1.
</event>
<event>
 5   0  0.1954502E-05  0.2627832E+04  0.7818609E-02  0.8358808E-01
        1   -1    0    0  501    0  0.00000000000E+00  0.00000000000E+00  0.18344985145E+04  0.18344985145E+04  0.50400001928E-02 0.  1.
       -1   -1    0    0    0  501  0.00000000000E+00  0.00000000000E+00 -0.94106121378E+03  0.94106121379E+03  0.50400001928E-02 0. -1.
    10030    2    1    2    0    0  0.00000000000E+00  0.00000000000E+00  0.89343730075E+03  0.27755597283E+04  0.26278321094E+04 0.  0.
        4    1    3    3  502    0  0.11531173179E+04  0.62889543130E+03  0.48307419297E+03  0.13994825119E+04  0.12699999809E+01 0. -1.
       -4    1    3    3    0  502 -0.11531173179E+04 -0.62889543130E+03  0.41036310778E+03  0.13760772164E+04  0.12699999809E+01 0.  1.
</event>
<event>
 5   0  0.5036452E-05  0.2036126E+04  0.7818609E-02  0.8589914E-01
        2   -1    0    0  501    0  0.00000000000E+00  0.00000000000E+00  0.13305619300E+04  0.13305619300E+04  0.25500000920E-02 0. -1.
       -2   -1    0    0    0  501  0.00000000000E+00  0.00000000000E+00 -0.77895851398E+03  0.77895851398E+03  0.25500000920E-02 0.  1.
    10030    2    1    2    0    0  0.00000000000E+00  0.00000000000E+00  0.55160341607E+03  0.21095204440E+04  0.20361262670E+04 0.  0.
        2    1    3    3  502    0  0.51109762271E+03 -0.87891852382E+03  0.32997405823E+03  0.10689253625E+04  0.25500000920E-02 0.  1.
       -2    1    3    3    0  502 -0.51109762271E+03  0.87891852382E+03  0.22162935784E+03  0.10405950815E+04  0.25500000920E-02 0. -1.
</event>
<event>
 5   0  0.5036452E-05  0.2587276E+04  0.7818609E-02  0.8372536E-01
        2   -1    0    0  501    0  0.00000000000E+00  0.00000000000E+00  0.11907554603E+04  0.11907554603E+04  0.25500000920E-02 0.  1.
       -2   -1    0    0    0  501  0.00000000000E+00  0.00000000000E+00 -0.14054097630E+04  0.14054097630E+04  0.25500000920E-02 0. -1.
    10030    2    1    2    0    0  0.00000000000E+00  0.00000000000E+00 -0.21465430270E+03  0.25961652233E+04  0.25872760574E+04 0.  0.
        2    1    3    3  502    0  0.64070066312E+03  0.30164456236E+03 -0.11936419423E+04  0.13879005253E+04  0.25500000920E-02 0. -1.
       -2    1    3    3    0  502 -0.64070066312E+03 -0.30164456236E+03  0.97898763964E+03  0.12082646979E+04  0.25500000920E-02 0.  1.
</event>
<event>
 5   0  0.1954502E-05  0.2573761E+04  0.7818609E-02  0.8377169E-01
       -1   -1    0    0    0  501  0.00000000000E+00  0.00000000000E+00  0.21482679013E+04  0.21482679013E+04  0.50400001928E-02 0. -1.
        1   -1    0    0  501    0  0.00000000000E+00  0.00000000000E+00 -0.77088220508E+03  0.77088220510E+03  0.50400001928E-02 0.  1.
    10030    2    1    2    0    0  0.00000000000E+00  0.00000000000E+00  0.13773856962E+04  0.29191501064E+04  0.25737610588E+04 0.  0.
        4    1    3    3  502    0 -0.55722160816E+03 -0.86539838294E+03  0.15647811463E+04  0.18729527305E+04  0.12699999809E+01 0. -1.
       -4    1    3    3    0  502  0.55722160816E+03  0.86539838294E+03 -0.18739545010E+03  0.10461973759E+04  0.12699999809E+01 0.  1.
</event>
<event>
 5   0  0.1993815E-05  0.2589779E+04  0.7818609E-02  0.8371681E-01
       -1   -1    0    0    0  501  0.00000000000E+00  0.00000000000E+00  0.12255657359E+04  0.12255657359E+04  0.50400001928E-02 0. -1.
        1   -1    0    0  501    0  0.00000000000E+00  0.00000000000E+00 -0.13681349929E+04  0.13681349929E+04  0.50400001928E-02 0.  1.
    10030    2    1    2    0    0  0.00000000000E+00  0.00000000000E+00 -0.14256925698E+03  0.25937007289E+04  0.25897794265E+04 0.  0.
        5    1    3    3  502    0  0.39238957532E+03  0.54215490298E+03  0.10389134576E+04  0.12358255459E+04  0.46999998093E+01 0. -1.
       -5    1    3    3    0  502 -0.39238957532E+03 -0.54215490298E+03 -0.11814827146E+04  0.13578751829E+04  0.46999998093E+01 0.  1.
</event>
<event>
 5   0  0.2072710E-05  0.2648025E+04  0.7818609E-02  0.8352069E-01
        1   -1    0    0  501    0  0.00000000000E+00  0.00000000000E+00  0.13253213995E+04  0.13253213995E+04  0.50400001928E-02 0. -1.
       -1   -1    0    0    0  501  0.00000000000E+00  0.00000000000E+00 -0.13227044421E+04  0.13227044421E+04  0.50400001928E-02 0.  1.
    10030    2    1    2    0    0  0.00000000000E+00  0.00000000000E+00  0.26169574124E+01  0.26480258416E+04  0.26480245485E+04 0.  0.
        2    1    3    3  502    0  0.10029464259E+03  0.12477790380E+04  0.43258233705E+03  0.13244391347E+04  0.25500000920E-02 0. -1.
       -2    1    3    3    0  502 -0.10029464259E+03 -0.12477790380E+04 -0.42996537964E+03  0.13235867069E+04  0.25500000920E-02 0.  1.
</event>
<event>
 5   0  0.5182179E-05  0.1846792E+04  0.7818609E-02  0.8681804E-01
        2   -1    0    0  501    0  0.00000000000E+00  0.00000000000E+00  0.65371259832E+03  0.65371259832E+03  0.25500000920E-02 0. -1.
       -2   -1    0    0    0  501  0.00000000000E+00  0.00000000000E+00 -0.13043353558E+04  0.13043353558E+04  0.25500000920E-02 0.  1.
    10030    2    1    2    0    0  0.00000000000E+00  0.00000000000E+00 -0.65062275745E+03  0.19580479541E+04  0.18467923051E+04 0.  0.
        3    1    3    3  502    0 -0.29830970700E+03  0.15472313038E+03  0.58657897586E+03  0.67601984696E+03  0.10100000352E+00 0. -1.
       -3    1    3    3    0  502  0.29830970700E+03 -0.15472313038E+03 -0.12372017333E+04  0.12820281071E+04  0.10100000352E+00 0.  1.
</event>
<event>
 5   0  0.2072710E-05  0.2626179E+04  0.7818609E-02  0.8359363E-01
       -1   -1    0    0    0  501  0.00000000000E+00  0.00000000000E+00  0.83063823558E+03  0.83063823559E+03  0.50400001928E-02 0.  1.
        1   -1    0    0  501    0  0.00000000000E+00  0.00000000000E+00 -0.20757579091E+04  0.20757579091E+04  0.50400001928E-02 0. -1.
    10030    2    1    2    0    0  0.00000000000E+00  0.00000000000E+00 -0.12451196736E+04  0.29063961447E+04  0.26261788874E+04 0.  0.
        2    1    3    3  502    0 -0.19198010108E+03 -0.81074566987E+03  0.50064078359E+03  0.97201136549E+03  0.25500000920E-02 0.  1.
       -2    1    3    3    0  502  0.19198010108E+03  0.81074566987E+03 -0.17457604572E+04  0.19343847793E+04  0.25500000920E-02 0. -1.
</event>
<event>
 5   0  0.2163800E-05  0.2580608E+04  0.7818609E-02  0.8374818E-01
       -1   -1    0    0    0  501  0.00000000000E+00  0.00000000000E+00  0.97055984891E+03  0.97055984892E+03  0.50400001928E-02 0.  1.
        1   -1    0    0  501    0  0.00000000000E+00  0.00000000000E+00 -0.17153858522E+04  0.17153858522E+04  0.50400001928E-02 0. -1.
    10030    2    1    2    0    0  0.00000000000E+00  0.00000000000E+00 -0.74482600328E+03  0.26859457011E+04  0.25806081714E+04 0.  0.
        1    1    3    3  502    0 -0.85661108267E+03  0.44814113924E+03  0.51702845533E+03  0.10963263434E+04  0.50400001928E-02 0.  1.
       -1    1    3    3    0  502  0.85661108267E+03 -0.44814113924E+03 -0.12618544586E+04  0.15896193577E+04  0.50400001928E-02 0. -1.
</event>
<event>
 5   0  0.5170532E-05  0.2639232E+04  0.7818609E-02  0.8354996E-01
       -2   -1    0    0    0  501  0.00000000000E+00  0.00000000000E+00  0.67098435052E+03  0.67098435052E+03  0.25500000920E-02 0.  1.
        2   -1    0    0  501    0  0.00000000000E+00  0.00000000000E+00 -0.25952717833E+04  0.25952717833E+04  0.25500000920E-02 0. -1.
    10030    2    1    2    0    0  0.00000000000E+00  0.00000000000E+00 -0.19242874328E+04  0.32662561338E+04  0.26392322762E+04 0.  0.
        1    1    3    3  502    0 -0.10627364352E+04 -0.69881261994E+03 -0.13973050179E+04  0.18894997014E+04  0.50400001928E-02 0.  1.
       -1    1    3    3    0  502  0.10627364352E+04  0.69881261994E+03 -0.52698241484E+03  0.13767564324E+04  0.50400001928E-02 0. -1.
</event>
<event>
 5   0  0.1698625E-05  0.2570455E+04  0.7818609E-02  0.8378307E-01
       -3   -1    0    0    0  501  0.00000000000E+00  0.00000000000E+00  0.97397404577E+03  0.97397405100E+03  0.10100000352E+00 0. -1.
        3   -1    0    0  501    0  0.00000000000E+00  0.00000000000E+00 -0.16959485385E+04  0.16959485415E+04  0.10100000352E+00 0.  1.
    10030    2    1    2    0    0  0.00000000000E+00  0.00000000000E+00 -0.72197449270E+03  0.26699225925E+04  0.25704551118E+04 0.  0.
        4    1    3    3  502    0  0.76552280484E+03 -0.19942776006E+03  0.69113158672E+03  0.10504575571E+04  0.12699999809E+01 0. -1.
       -4    1    3    3    0  502 -0.76552280484E+03  0.19942776006E+03 -0.14131060794E+04  0.16194650354E+04  0.12699999809E+01 0.  1.
</event>
<event>
 5   0  0.1993815E-05  0.2634712E+04  0.7818609E-02  0.8356505E-01
        1   -1    0    0  501    0  0.00000000000E+00  0.00000000000E+00  0.13119919337E+04  0.13119919337E+04  0.50400001928E-02 0. -1.
       -1   -1    0    0    0  501  0.00000000000E+00  0.00000000000E+00 -0.13227418821E+04  0.13227418822E+04  0.50400001928E-02 0.  1.
    10030    2    1    2    0    0  0.00000000000E+00  0.00000000000E+00 -0.10749948422E+02  0.26347338159E+04  0.26347118854E+04 0.  0.
        5    1    3    3  502    0  0.65425704915E+03 -0.11270292603E+04 -0.19813899688E+03  0.13181534023E+04  0.46999998093E+01 0.  1.
       -5    1    3    3    0  502 -0.65425704915E+03  0.11270292603E+04  0.18738904846E+03  0.13165804136E+04  0.46999998093E+01 0. -1.
</event>
<event>
 5   0  0.5036452E-05  0.2564987E+04  0.7818609E-02  0.8380192E-01
       -2   -1    0    0    0  501  0.00000000000E+00  0.00000000000E+00  0.82331172856E+03  0.82331172856E+03  0.25500000920E-02 0.  1.
        2   -1    0    0  501    0  0.00000000000E+00  0.00000000000E+00 -0.19977731303E+04  0.19977731303E+04  0.25500000920E-02 0. -1.
    10030    2    1    2    0    0  0.00000000000E+00  0.00000000000E+00 -0.11744614018E+04  0.28210848589E+04  0.25649873678E+04 0.  0.
        2    1    3    3  502    0 -0.92513449749E+03  0.21805532183E+03  0.35976468560E+03  0.10162935554E+04  0.25500000920E-02 0.  1.
       -2    1    3    3    0  502  0.92513449749E+03 -0.21805532183E+03 -0.15342260874E+04  0.18047913034E+04  0.25500000920E-02 0. -1.
</event>
<event>
 5   0  0.5036452E-05  0.2528883E+04  0.7818609E-02  0.8392767E-01
        2   -1    0    0  501    0  0.00000000000E+00  0.00000000000E+00  0.15287326219E+04  0.15287326219E+04  0.25500000920E-02 0. -1.
       -2   -1    0    0    0  501  0.00000000000E+00  0.00000000000E+00 -0.10458419503E+04  0.10458419503E+04  0.25500000920E-02 0.  1.
    10030    2    1    2    0    0  0.00000000000E+00  0.00000000000E+00  0.48289067157E+03  0.25745745722E+04  0.25288833162E+04 0.  0.
        2    1    3    3  502    0 -0.73243967900E+03  0.86567588187E+03  0.81097221458E+03  0.13941085139E+04  0.25500000920E-02 0. -1.
       -2    1    3    3    0  502  0.73243967900E+03 -0.86567588187E+03 -0.32808154301E+03  0.11804660583E+04  0.25500000920E-02 0.  1.
</event>
<event>
 5   0  0.2159405E-05  0.2603160E+04  0.7818609E-02  0.8367129E-01
       -1   -1    0    0    0  501  0.00000000000E+00  0.00000000000E+00  0.54811932595E+03  0.54811932597E+03  0.50400001928E-02 0. -1.
        1   -1    0    0  501    0  0.00000000000E+00  0.00000000000E+00 -0.30907702768E+04  0.30907702768E+04  0.50400001928E-02 0.  1.
    10030    2    1    2    0    0  0.00000000000E+00  0.00000000000E+00 -0.25426509508E+04  0.36388896027E+04  0.26031603261E+04 0.  0.
        3    1    3    3  502    0 -0.52741066866E+03  0.71837274163E+03  0.54732634448E+02  0.89287013658E+03  0.10100000352E+00 0. -1.
       -3    1    3    3    0  502  0.52741066866E+03 -0.71837274163E+03 -0.25973835852E+04  0.27460194661E+04  0.10100000352E+00 0.  1.
</event>
<event>
 5   0  0.4955675E-05  0.2353806E+04  0.7818609E-02  0.8457003E-01
       -2   -1    0    0    0  501  0.00000000000E+00  0.00000000000E+00  0.12257070736E+04  0.12257070736E+04  0.25500000920E-02 0.  1.
        2   -1    0    0  501    0  0.00000000000E+00  0.00000000000E+00 -0.11300419477E+04  0.11300419477E+04  0.25500000920E-02 0. -1.
    10030    2    1    2    0    0  0.00000000000E+00  0.00000000000E+00  0.95665125909E+02  0.23557490213E+04  0.23538057768E+04 0.  0.
        5    1    3    3  502    0 -0.17371859513E+03 -0.62126950264E+03 -0.93731964582E+03  0.11378682497E+04  0.46999998093E+01 0. -1.
       -5    1    3    3    0  502  0.17371859513E+03  0.62126950264E+03  0.10329847717E+04  0.12178807716E+04  0.46999998093E+01 0.  1.
</event>
<event>
 5   0  0.1954502E-05  0.1297943E+04  0.7818609E-02  0.9031198E-01
       -1   -1    0    0    0  501  0.00000000000E+00  0.00000000000E+00  0.53735594797E+03  0.53735594799E+03  0.50400001928E-02 0. -1.
        1   -1    0    0  501    0  0.00000000000E+00  0.00000000000E+00 -0.78377046533E+03  0.78377046535E+03  0.50400001928E-02 0.  1.
    10030    2    1    2    0    0  0.00000000000E+00  0.00000000000E+00 -0.24641451736E+03  0.13211264133E+04  0.12979425587E+04 0.  0.
        4    1    3    3  502    0 -0.11098968188E+03  0.11980840178E+03 -0.76250996352E+03  0.77980498843E+03  0.12699999809E+01 0.  1.
       -4    1    3    3    0  502  0.11098968188E+03 -0.11980840178E+03  0.51609544616E+03  0.54132142491E+03  0.12699999809E+01 0. -1.
</event>
<event>
 5   0  0.5036452E-05  0.1322920E+04  0.7818609E-02  0.9011585E-01
       -2   -1    0    0    0  501  0.00000000000E+00  0.00000000000E+00  0.32276321334E+03  0.32276321336E+03  0.25500000920E-02 0.  1.
        2   -1    0    0  501    0  0.00000000000E+00  0.00000000000E+00 -0.13555731555E+04  0.13555731555E+04  0.25500000920E-02 0. -1.
    10030    2    1    2    0    0  0.00000000000E+00  0.00000000000E+00 -0.10328099422E+04  0.16783363689E+04  0.13229197218E+04 0.  0.
        2    1    3    3  502    0  0.50946315003E+03  0.70209915313E+02  0.11344212160E+02  0.51440336760E+03  0.25500000920E-02 0. -1.
       -2    1    3    3    0  502 -0.50946315003E+03 -0.70209915313E+02 -0.10441541543E+04  0.11639330013E+04  0.25500000920E-02 0.  1.
</event>
<event>
 5   0  0.1993815E-05  0.2605493E+04  0.7818609E-02  0.8366338E-01
        1   -1    0    0  501    0  0.00000000000E+00  0.00000000000E+00  0.15898424175E+04  0.15898424176E+04  0.50400001928E-02 0. -1.
       -1   -1    0    0    0  501  0.00000000000E+00  0.00000000000E+00 -0.10674944598E+04  0.10674944598E+04  0.50400001928E-02 0.  1.
    10030    2    1    2    0    0  0.00000000000E+00  0.00000000000E+00  0.52234795772E+03  0.26573368774E+04  0.26054926388E+04 0.  0.
        5    1    3    3  502    0 -0.63657651426E+03 -0.95758533891E+03 -0.36332230402E+03  0.12059123212E+04  0.46999998093E+01 0.  1.
       -5    1    3    3    0  502  0.63657651426E+03  0.95758533891E+03  0.88567026174E+03  0.14514245562E+04  0.46999998093E+01 0. -1.
</event>
<event>
 5   0  0.1698625E-05  0.2502624E+04  0.7818609E-02  0.8402051E-01
       -3   -1    0    0    0  501  0.00000000000E+00  0.00000000000E+00  0.51026946989E+03  0.51026947989E+03  0.10100000352E+00 0.  1.
        3   -1    0    0  501    0  0.00000000000E+00  0.00000000000E+00 -0.30685392120E+04  0.30685392137E+04  0.10100000352E+00 0. -1.
    10030    2    1    2    0    0  0.00000000000E+00  0.00000000000E+00 -0.25582697421E+04  0.35788086935E+04  0.25026241411E+04 0.  0.
        4    1    3    3  502    0  0.92855957341E+03  0.83682755911E+03 -0.11972726125E+04  0.17308860640E+04  0.12699999809E+01 0.  1.
       -4    1    3    3    0  502 -0.92855957341E+03 -0.83682755911E+03 -0.13609971296E+04  0.18479226295E+04  0.12699999809E+01 0. -1.
</event>
<event>
 5   0  0.2072710E-05  0.2597207E+04  0.7818609E-02  0.8369151E-01
        1   -1    0    0  501    0  0.00000000000E+00  0.00000000000E+00  0.18156689820E+04  0.18156689821E+04  0.50400001928E-02 0.  1.
       -1   -1    0    0    0  501  0.00000000000E+00  0.00000000000E+00 -0.92878753655E+03  0.92878753656E+03  0.50400001928E-02 0. -1.
    10030    2    1    2    0    0  0.00000000000E+00  0.00000000000E+00  0.88688144550E+03  0.27444565186E+04  0.25972067465E+04 0.  0.
        2    1    3    3  502    0  0.22348366437E+03 -0.43096250623E+03  0.17161763527E+04  0.17835175647E+04  0.25500000920E-02 0.  1.
       -2    1    3    3    0  502 -0.22348366437E+03  0.43096250623E+03 -0.82929490721E+03  0.96093895391E+03  0.25500000920E-02 0. -1.
</event>
<event>
 5   0  0.1993815E-05  0.2625745E+04  0.7818609E-02  0.8359508E-01
       -1   -1    0    0    0  501  0.00000000000E+00  0.00000000000E+00  0.92064942416E+03  0.92064942417E+03  0.50400001928E-02 0.  1.
        1   -1    0    0  501    0  0.00000000000E+00  0.00000000000E+00 -0.18721943574E+04  0.18721943574E+04  0.50400001928E-02 0. -1.
    10030    2    1    2    0    0  0.00000000000E+00  0.00000000000E+00 -0.95154493321E+03  0.27928437816E+04  0.26257453472E+04 0.  0.
        5    1    3    3  502    0 -0.11101916143E+04 -0.21760403923E+03  0.23275418279E+03  0.11550210120E+04  0.46999998093E+01 0.  1.
       -5    1    3    3    0  502  0.11101916143E+04  0.21760403923E+03 -0.11842991160E+04  0.16378227696E+04  0.46999998093E+01 0. -1.
</event>
<event>
 5   0  0.5036452E-05  0.2801049E+04  0.7818609E-02  0.8302943E-01
       -2   -1    0    0    0  501  0.00000000000E+00  0.00000000000E+00  0.82086633340E+03  0.82086633341E+03  0.25500000920E-02 0. -1.
        2   -1    0    0  501    0  0.00000000000E+00  0.00000000000E+00 -0.23895103353E+04  0.23895103353E+04  0.25500000920E-02 0.  1.
    10030    2    1    2    0    0  0.00000000000E+00  0.00000000000E+00 -0.15686440018E+04  0.32103766687E+04  0.28010487947E+04 0.  0.
        2    1    3    3  502    0  0.10749224176E+02 -0.80294174428E+02 -0.23868227581E+04  0.23881971399E+04  0.25500000920E-02 0.  1.
       -2    1    3    3    0  502 -0.10749224176E+02  0.80294174428E+02  0.81817875629E+03  0.82217952876E+03  0.25500000920E-02 0. -1.
</event>
<event>
 5   0  0.5036452E-05  0.2635968E+04  0.7818609E-02  0.8356085E-01
        2   -1    0    0  501    0  0.00000000000E+00  0.00000000000E+00  0.16671150066E+04  0.16671150066E+04  0.25500000920E-02 0.  1.
       -2   -1    0    0    0  501  0.00000000000E+00  0.00000000000E+00 -0.10419687074E+04  0.10419687074E+04  0.25500000920E-02 0. -1.
    10030    2    1    2    0    0  0.00000000000E+00  0.00000000000E+00  0.62514629912E+03  0.27090837140E+04  0.26359678819E+04 0.  0.
        2    1    3    3  502    0 -0.34323166511E+02  0.11846654062E+04 -0.28002391958E+03  0.12177945639E+04  0.25500000920E-02 0.  1.
       -2    1    3    3    0  502  0.34323166511E+02 -0.11846654062E+04  0.90517021870E+03  0.14912891501E+04  0.25500000920E-02 0. -1.
</event>
<event>
 5   0  0.1954502E-05  0.2620050E+04  0.7818609E-02  0.8361423E-01
        1   -1    0    0  501    0  0.00000000000E+00  0.00000000000E+00  0.16401225455E+04  0.16401225455E+04  0.50400001928E-02 0. -1.
       -1   -1    0    0    0  501  0.00000000000E+00  0.00000000000E+00 -0.10463638774E+04  0.10463638774E+04  0.50400001928E-02 0.  1.
    10030    2    1    2    0    0  0.00000000000E+00  0.00000000000E+00  0.59375866815E+03  0.26864864229E+04  0.26200496072E+04 0.  0.
        4    1    3    3  502    0  0.69901044372E+03 -0.75000057979E+03 -0.53930354976E+03  0.11584327351E+04  0.12699999809E+01 0.  1.
       -4    1    3    3    0  502 -0.69901044372E+03  0.75000057979E+03  0.11330622179E+04  0.15280536878E+04  0.12699999809E+01 0. -1.
</event>
<event>
 5   0  0.5049803E-05  0.2569611E+04  0.7818609E-02  0.8378597E-01
        2   -1    0    0  501    0  0.00000000000E+00  0.00000000000E+00  0.25763363128E+04  0.25763363128E+04  0.25500000920E-02 0. -1.
       -2   -1    0    0    0  501  0.00000000000E+00  0.00000000000E+00 -0.64072582382E+03  0.64072582382E+03  0.25500000920E-02 0.  1.
    10030    2    1    2    0    0  0.00000000000E+00  0.00000000000E+00  0.19356104890E+04  0.32170621366E+04  0.25696110262E+04 0.  0.
        4    1    3    3  502    0 -0.13869161054E+03  0.69709347172E+03  0.23077869919E+04  0.24147581834E+04  0.12699999809E+01 0. -1.
       -4    1    3    3    0  502  0.13869161054E+03 -0.69709347172E+03 -0.37217650295E+03  0.80230395325E+03  0.12699999809E+01 0.  1.
</event>
<event>
 5   0  0.1698625E-05  0.2589980E+04  0.7818609E-02  0.8371613E-01
       -3   -1    0    0    0  501  0.00000000000E+00  0.00000000000E+00  0.10954169591E+04  0.10954169637E+04  0.10100000352E+00 0. -1.
        3   -1    0    0  501    0  0.00000000000E+00  0.00000000000E+00 -0.15309231372E+04  0.15309231405E+04  0.10100000352E+00 0.  1.
    10030    2    1    2    0    0  0.00000000000E+00  0.00000000000E+00 -0.43550617809E+03  0.26263401043E+04  0.25899800602E+04 0.  0.
        5    1    3    3  502    0  0.20419863346E+03  0.40391536694E+03  0.10125949400E+04  0.11091507147E+04  0.46999998093E+01 0. -1.
       -5    1    3    3    0  502 -0.20419863346E+03 -0.40391536694E+03 -0.14481011181E+04  0.15171893895E+04  0.46999998093E+01 0.  1.
</event>
<event>
 5   0  0.1698625E-05  0.2717458E+04  0.7818609E-02  0.8329363E-01
       -3   -1    0    0    0  501  0.00000000000E+00  0.00000000000E+00  0.17192842671E+04  0.17192842701E+04  0.10100000352E+00 0. -1.
        3   -1    0    0  501    0  0.00000000000E+00  0.00000000000E+00 -0.10737863540E+04  0.10737863587E+04  0.10100000352E+00 0.  1.
    10030    2    1    2    0    0  0.00000000000E+00  0.00000000000E+00  0.64549791313E+03  0.27930706288E+04  0.27174576320E+04 0.  0.
        4    1    3    3  502    0 -0.12652617257E+04 -0.41041391340E+03  0.37880896420E+02  0.13307003382E+04  0.12699999809E+01 0. -1.
       -4    1    3    3    0  502  0.12652617257E+04  0.41041391340E+03  0.60761701671E+03  0.14623702906E+04  0.12699999809E+01 0.  1.
</event>
<event>
 5   0  0.1993815E-05  0.1679608E+04  0.7818609E-02  0.8773081E-01
       -1   -1    0    0    0  501  0.00000000000E+00  0.00000000000E+00  0.92783601992E+03  0.92783601993E+03  0.50400001928E-02 0.  1.
        1   -1    0    0  501    0  0.00000000000E+00  0.00000000000E+00 -0.76012442002E+03  0.76012442004E+03  0.50400001928E-02 0. -1.
    10030    2    1    2    0    0  0.00000000000E+00  0.00000000000E+00  0.16771159990E+03  0.16879604400E+04  0.16796080692E+04 0.  0.
        5    1    3    3  502    0  0.38141919274E+03 -0.10289202669E+01 -0.66804056226E+03  0.76927364578E+03  0.46999998093E+01 0. -1.
       -5    1    3    3    0  502 -0.38141919274E+03  0.10289202669E+01  0.83575216216E+03  0.91868679419E+03  0.46999998093E+01 0.  1.
</event>
<event>
 5   0  0.5036452E-05  0.2282952E+04  0.7818609E-02  0.8484673E-01
        2   -1    0    0  501    0  0.00000000000E+00  0.00000000000E+00  0.10093828432E+04  0.10093828432E+04  0.25500000920E-02 0.  1.
       -2   -1    0    0    0  501  0.00000000000E+00  0.00000000000E+00 -0.12908558248E+04  0.12908558248E+04  0.25500000920E-02 0. -1.
    10030    2    1    2    0    0  0.00000000000E+00  0.00000000000E+00 -0.28147298157E+03  0.23002386680E+04  0.22829522313E+04 0.  0.
        2    1    3    3  502    0  0.11389695705E+03 -0.93652812792E+03 -0.78818303724E+03  0.12293453345E+04  0.25500000920E-02 0. -1.
       -2    1    3    3    0  502 -0.11389695705E+03  0.93652812792E+03  0.50671005567E+03  0.10708933335E+04  0.25500000920E-02 0.  1.
</event>
<event>
 5   0  0.2163800E-05  0.1362148E+04  0.7818609E-02  0.8981683E-01
       -1   -1    0    0    0  501  0.00000000000E+00  0.00000000000E+00  0.11784273488E+04  0.11784273489E+04  0.50400001928E-02 0. -1.
        1   -1    0    0  501    0  0.00000000000E+00  0.00000000000E+00 -0.39362788776E+03  0.39362788779E+03  0.50400001928E-02 0.  1.
    10030    2    1    2    0    0  0.00000000000E+00  0.00000000000E+00  0.78479946109E+03  0.15720552367E+04  0.13621481098E+04 0.  0.
        1    1    3    3  502    0 -0.54120525689E+03  0.17098001420E+03  0.82687598710E+03  0.10029263150E+04  0.50400001928E-02 0. -1.
       -1    1    3    3    0  502  0.54120525689E+03 -0.17098001420E+03 -0.42076526012E+02  0.56912892161E+03  0.50400001928E-02 0.  1.
</event>
<event>
 5   0  0.5036452E-05  0.2584628E+04  0.7818609E-02  0.8373442E-01
       -2   -1    0    0    0  501  0.00000000000E+00  0.00000000000E+00  0.91940346225E+03  0.91940346225E+03  0.25500000920E-02 0.  1.
        2   -1    0    0  501    0  0.00000000000E+00  0.00000000000E+00 -0.18164770180E+04  0.18164770180E+04  0.25500000920E-02 0. -1.
    10030    2    1    2    0    0  0.00000000000E+00  0.00000000000E+00 -0.89707355573E+03  0.27358804802E+04  0.25846278335E+04 0.  0.
        2    1    3    3  502    0 -0.87352379875E+03  0.24137001886E+03 -0.14237388433E+04  0.16877012789E+04  0.25500000920E-02 0. -1.
       -2    1    3    3    0  502  0.87352379875E+03 -0.24137001886E+03  0.52666528754E+03  0.10481792013E+04  0.25500000920E-02 0.  1.
</event>
<event>
 5   0  0.5036452E-05  0.2665392E+04  0.7818609E-02  0.8346322E-01
        2   -1    0    0  501    0  0.00000000000E+00  0.00000000000E+00  0.21116338304E+04  0.21116338304E+04  0.25500000920E-02 0.  1.
       -2   -1    0    0    0  501  0.00000000000E+00  0.00000000000E+00 -0.84109215925E+03  0.84109215925E+03  0.25500000920E-02 0. -1.
    10030    2    1    2    0    0  0.00000000000E+00  0.00000000000E+00  0.12705416711E+04  0.29527259896E+04  0.26653920222E+04 0.  0.
        2    1    3    3  502    0 -0.11668254616E+04 -0.41899054120E+03  0.93643081824E+02  0.12433035664E+04  0.25500000920E-02 0. -1.
       -2    1    3    3    0  502  0.11668254616E+04  0.41899054120E+03  0.11768985893E+04  0.17094224232E+04  0.25500000920E-02 0.  1.
</event>
<event>
 5   0  0.2159405E-05  0.2385275E+04  0.7818609E-02  0.8445037E-01
       -1   -1    0    0    0  501  0.00000000000E+00  0.00000000000E+00  0.12012105999E+04  0.12012105999E+04  0.50400001928E-02 0. -1.
        1   -1    0    0  501    0  0.00000000000E+00  0.00000000000E+00 -0.11841253881E+04  0.11841253881E+04  0.50400001928E-02 0.  1.
    10030    2    1    2    0    0  0.00000000000E+00  0.00000000000E+00  0.17085211736E+02  0.23853359880E+04  0.23852747999E+04 0.  0.
        3    1    3    3  502    0  0.11565370783E+03  0.11805933845E+04 -0.11477899917E+03  0.11917846905E+04  0.10100000352E+00 0.  1.
       -3    1    3    3    0  502 -0.11565370783E+03 -0.11805933845E+04  0.13186421091E+03  0.11935512975E+04  0.10100000352E+00 0. -1.
</event>
<event>
 5   0  0.2163800E-05  0.2575182E+04  0.7818609E-02  0.8376680E-01
        1   -1    0    0  501    0  0.00000000000E+00  0.00000000000E+00  0.21459596036E+04  0.21459596036E+04  0.50400001928E-02 0. -1.
       -1   -1    0    0    0  501  0.00000000000E+00  0.00000000000E+00 -0.77256379153E+03  0.77256379155E+03  0.50400001928E-02 0.  1.
    10030    2    1    2    0    0  0.00000000000E+00  0.00000000000E+00  0.13733958120E+04  0.29185233951E+04  0.25751820812E+04 0.  0.
        1    1    3    3  502    0  0.78725762676E+03  0.49759296548E+03 -0.32095495519E+03  0.98508142479E+03  0.50400001928E-02 0.  1.
       -1    1    3    3    0  502 -0.78725762676E+03 -0.49759296548E+03  0.16943507672E+04  0.19334419703E+04  0.50400001928E-02 0. -1.
</event>
<event>
 5   0  0.2159405E-05  0.2236716E+04  0.7818609E-02  0.8503300E-01
        1   -1    0    0  501    0  0.00000000000E+00  0.00000000000E+00  0.16901678776E+04  0.16901678776E+04  0.50400001928E-02 0.  1.
       -1   -1    0    0    0  501  0.00000000000E+00  0.00000000000E+00 -0.73999990855E+03  0.73999990857E+03  0.50400001928E-02 0. -1.
    10030    2    1    2    0    0  0.00000000000E+00  0.00000000000E+00  0.95016796904E+03  0.24301677862E+04  0.22367155160E+04 0.  0.
        3    1    3    3  502    0 -0.40442401722E+03 -0.10401840453E+04  0.39686858540E+03  0.11845025615E+04  0.10100000352E+00 0. -1.
       -3    1    3    3    0  502  0.40442401722E+03  0.10401840453E+04  0.55329938363E+03  0.12456652247E+04  0.10100000352E+00 0.  1.
</event>
<event>
 5   0  0.1698625E-05  0.2588147E+04  0.7818609E-02  0.8372238E-01
       -3   -1    0    0    0  501  0.00000000000E+00  0.00000000000E+00  0.90479482946E+03  0.90479483510E+03  0.10100000352E+00 0.  1.
        3   -1    0    0  501    0  0.00000000000E+00  0.00000000000E+00 -0.18508359969E+04  0.18508359996E+04  0.10100000352E+00 0. -1.
    10030    2    1    2    0    0  0.00000000000E+00  0.00000000000E+00 -0.94604116742E+03  0.27556308347E+04  0.25881474855E+04 0.  0.
        3    1    3    3  502    0  0.12418963306E+03 -0.96661343106E+03  0.43346260991E+03  0.10666088479E+04  0.10100000352E+00 0.  1.
       -3    1    3    3    0  502 -0.12418963306E+03  0.96661343106E+03 -0.13795037773E+04  0.16890219868E+04  0.10100000352E+00 0. -1.
</event>
<event>
 5   0  0.1954502E-05  0.2456839E+04  0.7818609E-02  0.8418525E-01
        1   -1    0    0  501    0  0.00000000000E+00  0.00000000000E+00  0.21942234751E+04  0.21942234751E+04  0.50400001928E-02 0.  1.
       -1   -1    0    0    0  501  0.00000000000E+00  0.00000000000E+00 -0.68772157835E+03  0.68772157836E+03  0.50400001928E-02 0. -1.
    10030    2    1    2    0    0  0.00000000000E+00  0.00000000000E+00  0.15065018968E+04  0.28819450535E+04  0.24568392960E+04 0.  0.
        4    1    3    3  502    0 -0.46467887593E+03 -0.46455269220E+03 -0.46425965645E+03  0.80453359350E+03  0.12699999809E+01 0. -1.
       -4    1    3    3    0  502  0.46467887593E+03  0.46455269220E+03  0.19707615532E+04  0.20774114600E+04  0.12699999809E+01 0.  1.
</event>
<event>
 5   0  0.1954502E-05  0.2370241E+04  0.7818609E-02  0.8450730E-01
       -1   -1    0    0    0  501  0.00000000000E+00  0.00000000000E+00  0.66123795035E+03  0.66123795037E+03  0.50400001928E-02 0.  1.
        1   -1    0    0  501    0  0.00000000000E+00  0.00000000000E+00 -0.21240619957E+04  0.21240619958E+04  0.50400001928E-02 0. -1.
    10030    2    1    2    0    0  0.00000000000E+00  0.00000000000E+00 -0.14628240454E+04  0.27852999461E+04  0.23702408321E+04 0.  0.
        4    1    3    3  502    0  0.10386237122E+04  0.17737229744E+03 -0.13689132150E+04  0.17274620547E+04  0.12699999809E+01 0.  1.
       -4    1    3    3    0  502 -0.10386237122E+04 -0.17737229744E+03 -0.93910830397E+02  0.10578378914E+04  0.12699999809E+01 0. -1.
</event>
<event>
 5   0  0.5170532E-05  0.1469938E+04  0.7818609E-02  0.8904693E-01
        2   -1    0    0  501    0  0.00000000000E+00  0.00000000000E+00  0.51969386560E+03  0.51969386561E+03  0.25500000920E-02 0.  1.
       -2   -1    0    0    0  501  0.00000000000E+00  0.00000000000E+00 -0.10394189613E+04  0.10394189613E+04  0.25500000920E-02 0. -1.
    10030    2    1    2    0    0  0.00000000000E+00  0.00000000000E+00 -0.51972509574E+03  0.15591128270E+04  0.14699383089E+04 0.  0.
        1    1    3    3  502    0  0.17384324813E+03 -0.16118793841E+03 -0.99775086177E+03  0.10255290384E+04  0.50400001928E-02 0. -1.
       -1    1    3    3    0  502 -0.17384324813E+03  0.16118793841E+03  0.47802576602E+03  0.53358378856E+03  0.50400001928E-02 0.  1.
</event>
<event>
 5   0  0.5182179E-05  0.2594404E+04  0.7818609E-02  0.8370104E-01
        2   -1    0    0  501    0  0.00000000000E+00  0.00000000000E+00  0.17127582119E+04  0.17127582119E+04  0.25500000920E-02 0. -1.
       -2   -1    0    0    0  501  0.00000000000E+00  0.00000000000E+00 -0.98247002464E+03  0.98247002464E+03  0.25500000920E-02 0.  1.
    10030    2    1    2    0    0  0.00000000000E+00  0.00000000000E+00  0.73028818726E+03  0.26952282365E+04  0.25944044424E+04 0.  0.
        3    1    3    3  502    0  0.68796606275E+03 -0.48954705855E+03 -0.65790028344E+03  0.10704141344E+04  0.10100000352E+00 0.  1.
       -3    1    3    3    0  502 -0.68796606275E+03  0.48954705855E+03  0.13881884707E+04  0.16248141021E+04  0.10100000352E+00 0. -1.
</event>
<event>
 5   0  0.1698625E-05  0.2629559E+04  0.7818609E-02  0.8358229E-01
        3   -1    0    0  501    0  0.00000000000E+00  0.00000000000E+00  0.24508676923E+04  0.24508676943E+04  0.10100000352E+00 0.  1.
       -3   -1    0    0    0  501  0.00000000000E+00  0.00000000000E+00 -0.70531965986E+03  0.70531966709E+03  0.10100000352E+00 0. -1.
    10030    2    1    2    0    0  0.00000000000E+00  0.00000000000E+00  0.17455480324E+04  0.31561873614E+04  0.26295590366E+04 0.  0.
        4    1    3    3  502    0  0.73692776446E+03 -0.30344771272E+03  0.21279058613E+04  0.22722517492E+04  0.12699999809E+01 0.  1.
       -4    1    3    3    0  502 -0.73692776446E+03  0.30344771272E+03 -0.38235782887E+03  0.88393561224E+03  0.12699999809E+01 0. -1.
</event>
<event>
 5   0  0.5036452E-05  0.2682103E+04  0.7818609E-02  0.8340835E-01
        2   -1    0    0  501    0  0.00000000000E+00  0.00000000000E+00  0.17327111192E+04  0.17327111192E+04  0.25500000920E-02 0. -1.
       -2   -1    0    0    0  501  0.00000000000E+00  0.00000000000E+00 -0.10379224372E+04  0.10379224372E+04  0.25500000920E-02 0.  1.
    10030    2    1    2    0    0  0.00000000000E+00  0.00000000000E+00  0.69478868198E+03  0.27706335564E+04  0.26821034639E+04 0.  0.
        2    1    3    3  502    0 -0.55945315978E+03 -0.11350961119E+04  0.80587840922E+03  0.15002903158E+04  0.25500000920E-02 0. -1.
       -2    1    3    3    0  502  0.55945315978E+03  0.11350961119E+04 -0.11108972723E+03  0.12703432406E+04  0.25500000920E-02 0.  1.
</event>
<event>
 5   0  0.5049803E-05  0.1385596E+04  0.7818609E-02  0.8964311E-01
        2   -1    0    0  501    0  0.00000000000E+00  0.00000000000E+00  0.14803429243E+04  0.14803429243E+04  0.25500000920E-02 0. -1.
       -2   -1    0    0    0  501  0.00000000000E+00  0.00000000000E+00 -0.32422829839E+03  0.32422829840E+03  0.25500000920E-02 0.  1.
    10030    2    1    2    0    0  0.00000000000E+00  0.00000000000E+00  0.11561146259E+04  0.18045712227E+04  0.13855959979E+04 0.  0.
        4    1    3    3  502    0 -0.16461230142E+03 -0.25370651508E+03 -0.23371593432E+03  0.38221585057E+03  0.12699999809E+01 0.  1.
       -4    1    3    3    0  502  0.16461230142E+03  0.25370651508E+03  0.13898305602E+04  0.14223553721E+04  0.12699999809E+01 0. -1.
</event>
<event>
 5   0  0.1954502E-05  0.2609942E+04  0.7818609E-02  0.8364832E-01
        1   -1    0    0  501    0  0.00000000000E+00  0.00000000000E+00  0.12205110354E+04  0.12205110354E+04  0.50400001928E-02 0. -1.
       -1   -1    0    0    0  501  0.00000000000E+00  0.00000000000E+00 -0.13952758267E+04  0.13952758267E+04  0.50400001928E-02 0.  1.
    10030    2    1    2    0    0  0.00000000000E+00  0.00000000000E+00 -0.17476479127E+03  0.26157868621E+04  0.26099421786E+04 0.  0.
        4    1    3    3  502    0  0.27373818757E+03 -0.11714186042E+04  0.41951080555E+03  0.12740271074E+04  0.12699999809E+01 0. -1.
       -4    1    3    3    0  502 -0.27373818757E+03  0.11714186042E+04 -0.59427559681E+03  0.13417597547E+04  0.12699999809E+01 0.  1.
</event>
<event>
 5   0  0.4955675E-05  0.2604958E+04  0.7818609E-02  0.8366519E-01
        2   -1    0    0  501    0  0.00000000000E+00  0.00000000000E+00  0.16904440673E+04  0.16904440673E+04  0.25500000920E-02 0.  1.
       -2   -1    0    0    0  501  0.00000000000E+00  0.00000000000E+00 -0.10035540653E+04  0.10035540653E+04  0.25500000920E-02 0. -1.
    10030    2    1    2    0    0  0.00000000000E+00  0.00000000000E+00  0.68689000205E+03  0.26939981326E+04  0.26049583612E+04 0.  0.
        5    1    3    3  502    0 -0.95365549569E+03 -0.88159547722E+03  0.44561734077E+03  0.13730499970E+04  0.46999998093E+01 0.  1.
       -5    1    3    3    0  502  0.95365549569E+03  0.88159547722E+03  0.24127266128E+03  0.13209481356E+04  0.46999998093E+01 0. -1.
</event>
<event>
 5   0  0.5182179E-05  0.2388780E+04  0.7818609E-02  0.8443716E-01
       -2   -1    0    0    0  501  0.00000000000E+00  0.00000000000E+00  0.16986891957E+04  0.16986891957E+04  0.25500000920E-02 0. -1.
        2   -1    0    0  501    0  0.00000000000E+00  0.00000000000E+00 -0.83980492602E+03  0.83980492602E+03  0.25500000920E-02 0.  1.
    10030    2    1    2    0    0  0.00000000000E+00  0.00000000000E+00  0.85888426970E+03  0.25384941217E+04  0.23887800689E+04 0.  0.
        3    1    3    3  502    0  0.27786314541E+03 -0.11518767034E+04  0.26990057353E+03  0.12152671299E+04  0.10100000352E+00 0.  1.
       -3    1    3    3    0  502 -0.27786314541E+03  0.11518767034E+04  0.58898369617E+03  0.13232269918E+04  0.10100000352E+00 0. -1.
</event>
<event>
 5   0  0.1954502E-05  0.2576906E+04  0.7818609E-02  0.8376088E-01
       -1   -1    0    0    0  501  0.00000000000E+00  0.00000000000E+00  0.16565617048E+04  0.16565617048E+04  0.50400001928E-02 0. -1.
        1   -1    0    0  501    0  0.00000000000E+00  0.00000000000E+00 -0.10021428192E+04  0.10021428192E+04  0.50400001928E-02 0.  1.
    10030    2    1    2    0    0  0.00000000000E+00  0.00000000000E+00  0.65441888565E+03  0.26587045240E+04  0.25769062203E+04 0.  0.
        4    1    3    3  502    0  0.88406673293E+03 -0.89165684982E+03  0.62531685061E+03  0.14027290197E+04  0.12699999809E+01 0. -1.
       -4    1    3    3    0  502 -0.88406673293E+03  0.89165684982E+03  0.29102035038E+02  0.12559755043E+04  0.12699999809E+01 0.  1.
</event>
<event>
 5   0  0.2159405E-05  0.2517445E+04  0.7818609E-02  0.8396797E-01
        1   -1    0    0  501    0  0.00000000000E+00  0.00000000000E+00  0.13100551677E+04  0.13100551677E+04  0.50400001928E-02 0.  1.
       -1   -1    0    0    0  501  0.00000000000E+00  0.00000000000E+00 -0.12094016856E+04  0.12094016856E+04  0.50400001928E-02 0. -1.
    10030    2    1    2    0    0  0.00000000000E+00  0.00000000000E+00  0.10065348210E+03  0.25194568533E+04  0.25174454735E+04 0.  0.
        3    1    3    3  502    0 -0.16516795807E+03  0.11597476617E+04 -0.41057115051E+03  0.12413153399E+04  0.10100000352E+00 0. -1.
       -3    1    3    3    0  502  0.16516795807E+03 -0.11597476617E+04  0.51122463261E+03  0.12781415134E+04  0.10100000352E+00 0.  1.
</event>
<event>
 5   0  0.5049803E-05  0.2649145E+04  0.7818609E-02  0.8351697E-01
       -2   -1    0    0    0  501  0.00000000000E+00  0.00000000000E+00  0.17100499899E+04  0.17100499899E+04  0.25500000920E-02 0. -1.
        2   -1    0    0  501    0  0.00000000000E+00  0.00000000000E+00 -0.10259887334E+04  0.10259887334E+04  0.25500000920E-02 0.  1.
    10030    2    1    2    0    0  0.00000000000E+00  0.00000000000E+00  0.68406125642E+03  0.27360387233E+04  0.26491447852E+04 0.  0.
        4    1    3    3  502    0  0.49475863442E+03 -0.10134340281E+04 -0.37549149855E+03  0.11886253043E+04  0.12699999809E+01 0.  1.
       -4    1    3    3    0  502 -0.49475863442E+03  0.10134340281E+04  0.10595527550E+04  0.15474134190E+04  0.12699999809E+01 0. -1.
</event>
<event>
 5   0  0.4955675E-05  0.2465241E+04  0.7818609E-02  0.8415474E-01
       -2   -1    0    0    0  501  0.00000000000E+00  0.00000000000E+00  0.16328017513E+04  0.16328017513E+04  0.25500000920E-02 0.  1.
        2   -1    0    0  501    0  0.00000000000E+00  0.00000000000E+00 -0.93051888951E+03  0.93051888952E+03  0.25500000920E-02 0. -1.
    10030    2    1    2    0    0  0.00000000000E+00  0.00000000000E+00  0.70228286181E+03  0.25633206408E+04  0.24652406555E+04 0.  0.
        5    1    3    3  502    0 -0.75872742076E+03  0.41987760858E+03 -0.55970459587E+03  0.10321123145E+04  0.46999998093E+01 0. -1.
       -5    1    3    3    0  502  0.75872742076E+03 -0.41987760858E+03  0.12619874577E+04  0.15312083263E+04  0.46999998093E+01 0.  1.
</event>
<event>
 5   0  0.5036452E-05  0.2617015E+04  0.7818609E-02  0.8362445E-01
       -2   -1    0    0    0  501  0.00000000000E+00  0.00000000000E+00  0.11826558607E+04  0.11826558607E+04  0.25500000920E-02 0. -1.
        2   -1    0    0  501    0  0.00000000000E+00  0.00000000000E+00 -0.14477512759E+04  0.14477512759E+04  0.25500000920E-02 0.  1.
    10030    2    1    2    0    0  0.00000000000E+00  0.00000000000E+00 -0.26509541520E+03  0.26304071366E+04  0.26170147354E+04 0.  0.
        2    1    3    3  502    0 -0.12577959926E+04  0.35492271937E+03 -0.19745865205E+03  0.13217453669E+04  0.25500000920E-02 0.  1.
       -2    1    3    3    0  502  0.12577959926E+04 -0.35492271937E+03 -0.67636763147E+02  0.13086617697E+04  0.25500000920E-02 0. -1.
</event>
<event>
 5   0  0.5036452E-05  0.2570009E+04  0.7818609E-02  0.8378461E-01
       -2   -1    0    0    0  501  0.00000000000E+00  0.00000000000E+00  0.83466786968E+03  0.83466786968E+03  0.25500000920E-02 0.  1.
        2   -1    0    0  501    0  0.00000000000E+00  0.00000000000E+00 -0.19783150520E+04  0.19783150520E+04  0.25500000920E-02 0. -1.
    10030    2    1    2    0    0  0.00000000000E+00  0.00000000000E+00 -0.11436471823E+04  0.28129829217E+04  0.25700085681E+04 0.  0.
        2    1    3    3  502    0  0.69816132148E+01 -0.12641355409E+04 -0.82415914362E+03  0.15090810789E+04  0.25500000920E-02 0. -1.
       -2    1    3    3    0  502 -0.69816132148E+01  0.12641355409E+04 -0.31948803870E+03  0.13039018428E+04  0.25500000920E-02 0.  1.
</event>
<event>
 5   0  0.5049803E-05  0.2588989E+04  0.7818609E-02  0.8371951E-01
       -2   -1    0    0    0  501  0.00000000000E+00  0.00000000000E+00  0.73581362928E+03  0.73581362929E+03  0.25500000920E-02 0.  1.
        2   -1    0    0  501    0  0.00000000000E+00  0.00000000000E+00 -0.22773638721E+04  0.22773638721E+04  0.25500000920E-02 0. -1.
    10030    2    1    2    0    0  0.00000000000E+00  0.00000000000E+00 -0.15415502428E+04  0.30131775013E+04  0.25889885097E+04 0.  0.
        4    1    3    3  502    0 -0.10567557212E+04 -0.63455567182E+03 -0.31062223016E+03  0.12711732131E+04  0.12699999809E+01 0.  1.
       -4    1    3    3    0  502  0.10567557212E+04  0.63455567182E+03 -0.12309280126E+04  0.17420042882E+04  0.12699999809E+01 0. -1.
</event>
<event>
 5   0  0.4955675E-05  0.2569261E+04  0.7818609E-02  0.8378718E-01
        2   -1    0    0  501    0  0.00000000000E+00  0.00000000000E+00  0.18398593980E+04  0.18398593980E+04  0.25500000920E-02 0. -1.
       -2   -1    0    0    0  501  0.00000000000E+00  0.00000000000E+00 -0.89695708473E+03  0.89695708473E+03  0.25500000920E-02 0.  1.
    10030    2    1    2    0    0  0.00000000000E+00  0.00000000000E+00  0.94290231332E+03  0.27368164828E+04  0.25692605333E+04 0.  0.
        5    1    3    3  502    0 -0.10139828168E+04 -0.36183700209E+02  0.13107318554E+04  0.16575616126E+04  0.46999998093E+01 0. -1.
       -5    1    3    3    0  502  0.10139828168E+04  0.36183700209E+02 -0.36782954204E+03  0.10792548702E+04  0.46999998093E+01 0.  1.
</event>
<event>
 5   0  0.4955675E-05  0.2584338E+04  0.7818609E-02  0.8373541E-01
        2   -1    0    0  501    0  0.00000000000E+00  0.00000000000E+00  0.24403579392E+04  0.24403579392E+04  0.25500000920E-02 0. -1.
       -2   -1    0    0    0  501  0.00000000000E+00  0.00000000000E+00 -0.68420317226E+03  0.68420317226E+03  0.25500000920E-02 0.  1.
    10030    2    1    2    0    0  0.00000000000E+00  0.00000000000E+00  0.17561547669E+04  0.31245611114E+04  0.25843379372E+04 0.  0.
        5    1    3    3  502    0 -0.15399624955E+03 -0.26078968092E+03  0.23968287314E+04  0.24158924149E+04  0.46999998093E+01 0. -1.
       -5    1    3    3    0  502  0.15399624955E+03  0.26078968092E+03 -0.64067396455E+03  0.70866869650E+03  0.46999998093E+01 0.  1.
</event>
<event>
 5   0  0.5182179E-05  0.2600565E+04  0.7818609E-02  0.8368009E-01
        2   -1    0    0  501    0  0.00000000000E+00  0.00000000000E+00  0.17057753903E+04  0.17057753903E+04  0.25500000920E-02 0.  1.
       -2   -1    0    0    0  501  0.00000000000E+00  0.00000000000E+00 -0.99118208714E+03  0.99118208715E+03  0.25500000920E-02 0. -1.
    10030    2    1    2    0    0  0.00000000000E+00  0.00000000000E+00  0.71459330317E+03  0.26969574775E+04  0.26005645630E+04 0.  0.
        3    1    3    3  502    0 -0.66607520561E+03  0.11033274708E+04  0.53616069234E+03  0.13958710491E+04  0.10100000352E+00 0.  1.
       -3    1    3    3    0  502  0.66607520561E+03 -0.11033274708E+04  0.17843261082E+03  0.13010864284E+04  0.10100000352E+00 0. -1.
</event>
<event>
 5   0  0.2163800E-05  0.2575406E+04  0.7818609E-02  0.8376604E-01
        1   -1    0    0  501    0  0.00000000000E+00  0.00000000000E+00  0.93542901076E+03  0.93542901077E+03  0.50400001928E-02 0.  1.
       -1   -1    0    0    0  501  0.00000000000E+00  0.00000000000E+00 -0.17726395409E+04  0.17726395409E+04  0.50400001928E-02 0. -1.
    10030    2    1    2    0    0  0.00000000000E+00  0.00000000000E+00 -0.83721053014E+03  0.27080685517E+04  0.25754055620E+04 0.  0.
        1    1    3    3  502    0  0.50118939522E+03  0.91470238684E+03  0.37548239341E+03  0.11085388104E+04  0.50400001928E-02 0.  1.
       -1    1    3    3    0  502 -0.50118939522E+03 -0.91470238684E+03 -0.12126929236E+04  0.15995297413E+04  0.50400001928E-02 0. -1.
</event>
<event>
 5   0  0.2163800E-05  0.2681176E+04  0.7818609E-02  0.8341139E-01
        1   -1    0    0  501    0  0.00000000000E+00  0.00000000000E+00  0.15337718739E+04  0.15337718739E+04  0.50400001928E-02 0.  1.
       -1   -1    0    0    0  501  0.00000000000E+00  0.00000000000E+00 -0.11717361565E+04  0.11717361565E+04  0.50400001928E-02 0. -1.
    10030    2    1    2    0    0  0.00000000000E+00  0.00000000000E+00  0.36203571742E+03  0.27055080304E+04  0.26811758319E+04 0.  0.
        1    1    3    3  502    0  0.90123217613E+03 -0.98933178186E+03  0.26033881098E+03  0.13633682945E+04  0.50400001928E-02 0. -1.
       -1    1    3    3    0  502 -0.90123217613E+03  0.98933178186E+03  0.10169690643E+03  0.13421397359E+04  0.50400001928E-02 0.  1.
</event>
<event>
 5   0  0.5036452E-05  0.2578802E+04  0.7818609E-02  0.8375437E-01
       -2   -1    0    0    0  501  0.00000000000E+00  0.00000000000E+00  0.11766393067E+04  0.11766393067E+04  0.25500000920E-02 0.  1.
        2   -1    0    0  501    0  0.00000000000E+00  0.00000000000E+00 -0.14129691927E+04  0.14129691927E+04  0.25500000920E-02 0. -1.
    10030    2    1    2    0    0  0.00000000000E+00  0.00000000000E+00 -0.23632988593E+03  0.25896084994E+04  0.25788021183E+04 0.  0.
        2    1    3    3  502    0  0.42208288880E+03 -0.34209538406E+03  0.10560819368E+04  0.11876414754E+04  0.25500000920E-02 0.  1.
       -2    1    3    3    0  502 -0.42208288880E+03  0.34209538406E+03 -0.12924118227E+04  0.14019670240E+04  0.25500000920E-02 0. -1.
</event>
<event>
 5   0  0.5049803E-05  0.2583995E+04  0.7818609E-02  0.8373658E-01
        2   -1    0    0  501    0  0.00000000000E+00  0.00000000000E+00  0.17242195541E+04  0.17242195541E+04  0.25500000920E-02 0.  1.
       -2   -1    0    0    0  501  0.00000000000E+00  0.00000000000E+00 -0.96812351729E+03  0.96812351730E+03  0.25500000920E-02 0. -1.
    10030    2    1    2    0    0  0.00000000000E+00  0.00000000000E+00  0.75609603678E+03  0.26923430714E+04  0.25839949685E+04 0.  0.
        4    1    3    3  502    0 -0.73199462459E+03 -0.37974633930E+03  0.14143537916E+04  0.16371993383E+04  0.12699999809E+01 0.  1.
       -4    1    3    3    0  502  0.73199462459E+03  0.37974633930E+03 -0.65825775486E+03  0.10551437330E+04  0.12699999809E+01 0. -1.
</event>
<event>
 5   0  0.1993815E-05  0.2610688E+04  0.7818609E-02  0.8364580E-01
        1   -1    0    0  501    0  0.00000000000E+00  0.00000000000E+00  0.12063280657E+04  0.12063280657E+04  0.50400001928E-02 0.  1.
       -1   -1    0    0    0  501  0.00000000000E+00  0.00000000000E+00 -0.14124871056E+04  0.14124871056E+04  0.50400001928E-02 0. -1.
    10030    2    1    2    0    0  0.00000000000E+00  0.00000000000E+00 -0.20615903990E+03  0.26188151713E+04  0.26106879078E+04 0.  0.
        5    1    3    3  502    0  0.26787280310E+03  0.83733859882E+03  0.86481231376E+03  0.12332129564E+04  0.46999998093E+01 0.  1.
       -5    1    3    3    0  502 -0.26787280310E+03 -0.83733859882E+03 -0.10709713537E+04  0.13856022149E+04  0.46999998093E+01 0. -1.
</event>
<event>
 5   0  0.5170532E-05  0.2450532E+04  0.7818609E-02  0.8420824E-01
       -2   -1    0    0    0  501  0.00000000000E+00  0.00000000000E+00  0.80988928833E+03  0.80988928833E+03  0.25500000920E-02 0. -1.
        2   -1    0    0  501    0  0.00000000000E+00  0.00000000000E+00 -0.18536810858E+04  0.18536810858E+04  0.25500000920E-02 0.  1.
    10030    2    1    2    0    0  0.00000000000E+00  0.00000000000E+00 -0.10437917975E+04  0.26635703741E+04  0.24505317426E+04 0.  0.
        1    1    3    3  502    0 -0.20567865596E+03 -0.12074639711E+04 -0.48746380331E+03  0.13182920430E+04  0.50400001928E-02 0. -1.
       -1    1    3    3    0  502  0.20567865596E+03  0.12074639711E+04 -0.55632799416E+03  0.13452783311E+04  0.50400001928E-02 0.  1.
</event>
<event>
 5   0  0.1993815E-05  0.2600440E+04  0.7818609E-02  0.8368052E-01
        1   -1    0    0  501    0  0.00000000000E+00  0.00000000000E+00  0.92963877741E+03  0.92963877742E+03  0.50400001928E-02 0.  1.
       -1   -1    0    0    0  501  0.00000000000E+00  0.00000000000E+00 -0.18185261085E+04  0.18185261085E+04  0.50400001928E-02 0. -1.
    10030    2    1    2    0    0  0.00000000000E+00  0.00000000000E+00 -0.88888733110E+03  0.27481648859E+04  0.26004402614E+04 0.  0.
        5    1    3    3  502    0 -0.11966937199E+04  0.13526816446E+03  0.73475018943E+02  0.12065628885E+04  0.46999998093E+01 0.  1.
       -5    1    3    3    0  502  0.11966937199E+04 -0.13526816446E+03 -0.96236235004E+03  0.15416019974E+04  0.46999998093E+01 0. -1.
</event>
<event>
 5   0  0.1954502E-05  0.2015937E+04  0.7818609E-02  0.8599206E-01
       -1   -1    0    0    0  501  0.00000000000E+00  0.00000000000E+00  0.75326575528E+03  0.75326575530E+03  0.50400001928E-02 0.  1.
        1   -1    0    0  501    0  0.00000000000E+00  0.00000000000E+00 -0.13487945030E+04  0.13487945030E+04  0.50400001928E-02 0. -1.
    10030    2    1    2    0    0  0.00000000000E+00  0.00000000000E+00 -0.59552874770E+03  0.21020602583E+04  0.20159372114E+04 0.  0.
        4    1    3    3  502    0 -0.90095068845E+03 -0.22888718511E+03  0.10862620493E+03  0.93589676344E+03  0.12699999809E+01 0.  1.
       -4    1    3    3    0  502  0.90095068845E+03  0.22888718511E+03 -0.70415495263E+03  0.11661634949E+04  0.12699999809E+01 0. -1.
</event>
<event>
 5   0  0.2163800E-05  0.2434451E+04  0.7818609E-02  0.8426717E-01
       -1   -1    0    0    0  501  0.00000000000E+00  0.00000000000E+00  0.13112007213E+04  0.13112007213E+04  0.50400001928E-02 0. -1.
        1   -1    0    0  501    0  0.00000000000E+00  0.00000000000E+00 -0.11299856636E+04  0.11299856636E+04  0.50400001928E-02 0.  1.
    10030    2    1    2    0    0  0.00000000000E+00  0.00000000000E+00  0.18121505763E+03  0.24411863849E+04  0.24344510816E+04 0.  0.
        1    1    3    3  502    0  0.92179602782E+03  0.78123651832E+03  0.23798217267E+03  0.12315331620E+04  0.50400001928E-02 0.  1.
       -1    1    3    3    0  502 -0.92179602782E+03 -0.78123651832E+03 -0.56767115046E+02  0.12096532230E+04  0.50400001928E-02 0. -1.
</event>
<event>
 5   0  0.2163800E-05  0.2538692E+04  0.7818609E-02  0.8389330E-01
        1   -1    0    0  501    0  0.00000000000E+00  0.00000000000E+00  0.17473333575E+04  0.17473333575E+04  0.50400001928E-02 0.  1.
       -1   -1    0    0    0  501  0.00000000000E+00  0.00000000000E+00 -0.92211314362E+03  0.92211314363E+03  0.50400001928E-02 0. -1.
    10030    2    1    2    0    0  0.00000000000E+00  0.00000000000E+00  0.82522021392E+03  0.26694465012E+04  0.25386918327E+04 0.  0.
        1    1    3    3  502    0 -0.52180930276E+03  0.65846126734E+03 -0.58791357219E+03  0.10254260370E+04  0.50400001928E-02 0. -1.
       -1    1    3    3    0  502  0.52180930276E+03 -0.65846126734E+03  0.14131337861E+04  0.16440204641E+04  0.50400001928E-02 0.  1.
</event>
<event>
 5   0  0.2163800E-05  0.1772374E+04  0.7818609E-02  0.8721130E-01
       -1   -1    0    0    0  501  0.00000000000E+00  0.00000000000E+00  0.12871603478E+04  0.12871603478E+04  0.50400001928E-02 0.  1.
        1   -1    0    0  501    0  0.00000000000E+00  0.00000000000E+00 -0.61012409543E+03  0.61012409545E+03  0.50400001928E-02 0. -1.
    10030    2    1    2    0    0  0.00000000000E+00  0.00000000000E+00  0.67703625234E+03  0.18972844432E+04  0.17723741624E+04 0.  0.
        1    1    3    3  502    0  0.76726463001E+02  0.84039169942E+03  0.62810596033E+03  0.10519801595E+04  0.50400001928E-02 0.  1.
       -1    1    3    3    0  502 -0.76726463001E+02 -0.84039169942E+03  0.48930292010E+02  0.84530428372E+03  0.50400001928E-02 0. -1.
</event>
<event>
 5   0  0.2072710E-05  0.2656214E+04  0.7818609E-02  0.8349353E-01
        1   -1    0    0  501    0  0.00000000000E+00  0.00000000000E+00  0.22650023377E+04  0.22650023377E+04  0.50400001928E-02 0. -1.
       -1   -1    0    0    0  501  0.00000000000E+00  0.00000000000E+00 -0.77874906848E+03  0.77874906849E+03  0.50400001928E-02 0.  1.
    10030    2    1    2    0    0  0.00000000000E+00  0.00000000000E+00  0.14862532692E+04  0.30437514062E+04  0.26562141936E+04 0.  0.
        2    1    3    3  502    0 -0.62755789440E+03 -0.15596142392E+03  0.20724257846E+04  0.21709678739E+04  0.25500000920E-02 0. -1.
       -2    1    3    3    0  502  0.62755789440E+03  0.15596142392E+03 -0.58617251537E+03  0.87278353236E+03  0.25500000920E-02 0.  1.
</event>
<event>
 5   0  0.1993815E-05  0.2575998E+04  0.7818609E-02  0.8376400E-01
       -1   -1    0    0    0  501  0.00000000000E+00  0.00000000000E+00  0.12523530963E+04  0.12523530963E+04  0.50400001928E-02 0.  1.
        1   -1    0    0  501    0  0.00000000000E+00  0.00000000000E+00 -0.13246590451E+04  0.13246590451E+04  0.50400001928E-02 0. -1.
    10030    2    1    2    0    0  0.00000000000E+00  0.00000000000E+00 -0.72305948830E+02  0.25770121414E+04  0.25759975595E+04 0.  0.
        5    1    3    3  502    0  0.83348785481E+03  0.12975767383E+03  0.93756470806E+03  0.12611854463E+04  0.46999998093E+01 0.  1.
       -5    1    3    3    0  502 -0.83348785481E+03 -0.12975767383E+03 -0.10098706569E+04  0.13158266952E+04  0.46999998093E+01 0. -1.
</event>
<event>
 5   0  0.5182179E-05  0.2615161E+04  0.7818609E-02  0.8363070E-01
        2   -1    0    0  501    0  0.00000000000E+00  0.00000000000E+00  0.22907374831E+04  0.22907374831E+04  0.25500000920E-02 0.  1.
       -2   -1    0    0    0  501  0.00000000000E+00  0.00000000000E+00 -0.74638249740E+03  0.74638249740E+03  0.25500000920E-02 0. -1.
    10030    2    1    2    0    0  0.00000000000E+00  0.00000000000E+00  0.15443549857E+04  0.30371199805E+04  0.26151606938E+04 0.  0.
        3    1    3    3  502    0  0.62038206444E+03 -0.10792782547E+04  0.12367918483E+04  0.17548132502E+04  0.10100000352E+00 0.  1.
       -3    1    3    3    0  502 -0.62038206444E+03  0.10792782547E+04  0.30756313744E+03  0.12823067303E+04  0.10100000352E+00 0. -1.
</event>
<event>
 5   0  0.2159405E-05  0.2638522E+04  0.7818609E-02  0.8355233E-01
        1   -1    0    0  501    0  0.00000000000E+00  0.00000000000E+00  0.29354000313E+04  0.29354000313E+04  0.50400001928E-02 0.  1.
       -1   -1    0    0    0  501  0.00000000000E+00  0.00000000000E+00 -0.59291745688E+03  0.59291745691E+03  0.50400001928E-02 0. -1.
    10030    2    1    2    0    0  0.00000000000E+00  0.00000000000E+00  0.23424825744E+04  0.35283174882E+04  0.26385222542E+04 0.  0.
        3    1    3    3  502    0  0.79624350234E+03  0.49767026028E+03 -0.67970274151E+02  0.94143474089E+03  0.10100000352E+00 0. -1.
       -3    1    3    3    0  502 -0.79624350234E+03 -0.49767026028E+03  0.24104528485E+04  0.25868827473E+04  0.10100000352E+00 0.  1.
</event>
<event>
 5   0  0.2072710E-05  0.2551981E+04  0.7818609E-02  0.8384697E-01
        1   -1    0    0  501    0  0.00000000000E+00  0.00000000000E+00  0.16723533447E+04  0.16723533447E+04  0.50400001928E-02 0.  1.
       -1   -1    0    0    0  501  0.00000000000E+00  0.00000000000E+00 -0.97356949205E+03  0.97356949207E+03  0.50400001928E-02 0. -1.
    10030    2    1    2    0    0  0.00000000000E+00  0.00000000000E+00  0.69878385267E+03  0.26459228368E+04  0.25519813451E+04 0.  0.
        2    1    3    3  502    0 -0.66862018491E+03  0.10365652322E+04  0.10826211630E+02  0.12335467721E+04  0.25500000920E-02 0. -1.
       -2    1    3    3    0  502  0.66862018491E+03 -0.10365652322E+04  0.68795764104E+03  0.14123760647E+04  0.25500000920E-02 0.  1.
</event>
<event>
 5   0  0.4955675E-05  0.2081068E+04  0.7818609E-02  0.8569629E-01
       -2   -1    0    0    0  501  0.00000000000E+00  0.00000000000E+00  0.79284275032E+03  0.79284275033E+03  0.25500000920E-02 0.  1.
        2   -1    0    0  501    0  0.00000000000E+00  0.00000000000E+00 -0.13656057845E+04  0.13656057845E+04  0.25500000920E-02 0. -1.
    10030    2    1    2    0    0  0.00000000000E+00  0.00000000000E+00 -0.57276303421E+03  0.21584485349E+04  0.20810676549E+04 0.  0.
        5    1    3    3  502    0  0.64466461051E+03 -0.44149334867E+03 -0.99908546336E+03  0.12683464393E+04  0.46999998093E+01 0. -1.
       -5    1    3    3    0  502 -0.64466461051E+03  0.44149334867E+03  0.42632242915E+03  0.89010209558E+03  0.46999998093E+01 0.  1.
</event>
<event>
 5   0  0.5182179E-05  0.2509941E+04  0.7818609E-02  0.8399453E-01
       -2   -1    0    0    0  501  0.00000000000E+00  0.00000000000E+00  0.13581217772E+04  0.13581217772E+04  0.25500000920E-02 0. -1.
        2   -1    0    0  501    0  0.00000000000E+00  0.00000000000E+00 -0.11596536255E+04  0.11596536255E+04  0.25500000920E-02 0.  1.
    10030    2    1    2    0    0  0.00000000000E+00  0.00000000000E+00  0.19846815168E+03  0.25177754027E+04  0.25099409099E+04 0.  0.
        3    1    3    3  502    0 -0.12004992347E+04  0.27413332494E+03  0.34207097266E+03  0.12780297543E+04  0.10100000352E+00 0. -1.
       -3    1    3    3    0  502  0.12004992347E+04 -0.27413332494E+03 -0.14360282098E+03  0.12397456484E+04  0.10100000352E+00 0.  1.
</event>
<event>
 5   0  0.2163800E-05  0.2537909E+04  0.7818609E-02  0.8389603E-01
        1   -1    0    0  501    0  0.00000000000E+00  0.00000000000E+00  0.17689759235E+04  0.17689759235E+04  0.50400001928E-02 0.  1.
       -1   -1    0    0    0  501  0.00000000000E+00  0.00000000000E+00 -0.91026983519E+03  0.91026983521E+03  0.50400001928E-02 0. -1.
    10030    2    1    2    0    0  0.00000000000E+00  0.00000000000E+00  0.85870608831E+03  0.26792457587E+04  0.25379089207E+04 0.  0.
        1    1    3    3  502    0  0.65209166905E+03  0.10770142623E+04  0.59647970536E+03  0.13931874622E+04  0.50400001928E-02 0.  1.
       -1    1    3    3    0  502 -0.65209166905E+03 -0.10770142623E+04  0.26222638295E+03  0.12860582965E+04  0.50400001928E-02 0. -1.
</event>
<event>
 5   0  0.5049803E-05  0.2552630E+04  0.7818609E-02  0.8384472E-01
        2   -1    0    0  501    0  0.00000000000E+00  0.00000000000E+00  0.13616468189E+04  0.13616468189E+04  0.25500000920E-02 0.  1.
       -2   -1    0    0    0  501  0.00000000000E+00  0.00000000000E+00 -0.11963309830E+04  0.11963309830E+04  0.25500000920E-02 0. -1.
    10030    2    1    2    0    0  0.00000000000E+00  0.00000000000E+00  0.16531583585E+03  0.25579778019E+04  0.25526302336E+04 0.  0.
        4    1    3    3  502    0  0.13138919858E+03  0.47976201339E+03  0.12605112526E+04  0.13551106751E+04  0.12699999809E+01 0.  1.
       -4    1    3    3    0  502 -0.13138919858E+03 -0.47976201339E+03 -0.10951954167E+04  0.12028671268E+04  0.12699999809E+01 0. -1.
</event>
<event>
 5   0  0.5170532E-05  0.2631545E+04  0.7818609E-02  0.8357564E-01
        2   -1    0    0  501    0  0.00000000000E+00  0.00000000000E+00  0.18393873113E+04  0.18393873113E+04  0.25500000920E-02 0.  1.
       -2   -1    0    0    0  501  0.00000000000E+00  0.00000000000E+00 -0.94121426360E+03  0.94121426360E+03  0.25500000920E-02 0. -1.
    10030    2    1    2    0    0  0.00000000000E+00  0.00000000000E+00  0.89817304775E+03  0.27806015749E+04  0.26315452295E+04 0.  0.
        1    1    3    3  502    0  0.56844950513E+03 -0.65556571225E+03  0.14942313028E+04  0.17278971119E+04  0.50400001928E-02 0.  1.
       -1    1    3    3    0  502 -0.56844950513E+03  0.65556571225E+03 -0.59605825510E+03  0.10527044630E+04  0.50400001928E-02 0. -1.
</event>
<event>
 5   0  0.5182179E-05  0.2604916E+04  0.7818609E-02  0.8366533E-01
        2   -1    0    0  501    0  0.00000000000E+00  0.00000000000E+00  0.61414185229E+03  0.61414185230E+03  0.25500000920E-02 0.  1.
       -2   -1    0    0    0  501  0.00000000000E+00  0.00000000000E+00 -0.27622233001E+04  0.27622233001E+04  0.25500000920E-02 0. -1.
    10030    2    1    2    0    0  0.00000000000E+00  0.00000000000E+00 -0.21480814478E+04  0.33763651524E+04  0.26049160708E+04 0.  0.
        3    1    3    3  502    0  0.73808972745E+03 -0.88671661322E+03 -0.29058820322E+03  0.11897412794E+04  0.10100000352E+00 0.  1.
       -3    1    3    3    0  502 -0.73808972745E+03  0.88671661322E+03 -0.18574932446E+04  0.21866238730E+04  0.10100000352E+00 0. -1.
</event>
<event>
 5   0  0.1993815E-05  0.2604950E+04  0.7818609E-02  0.8366522E-01
       -1   -1    0    0    0  501  0.00000000000E+00  0.00000000000E+00  0.75222572885E+03  0.75222572886E+03  0.50400001928E-02 0.  1.
        1   -1    0    0  501    0  0.00000000000E+00  0.00000000000E+00 -0.22552289362E+04  0.22552289362E+04  0.50400001928E-02 0. -1.
    10030    2    1    2    0    0  0.00000000000E+00  0.00000000000E+00 -0.15030032073E+04  0.30074546651E+04  0.26049500803E+04 0.  0.
        5    1    3    3  502    0 -0.10934440625E+02 -0.20436477161E+03 -0.22365397635E+04  0.22458888498E+04  0.46999998093E+01 0. -1.
       -5    1    3    3    0  502  0.10934440625E+02  0.20436477161E+03  0.73353655613E+03  0.76156581531E+03  0.46999998093E+01 0.  1.
</event>
<event>
 5   0  0.2072710E-05  0.2626894E+04  0.7818609E-02  0.8359123E-01
        1   -1    0    0  501    0  0.00000000000E+00  0.00000000000E+00  0.11766804154E+04  0.11766804154E+04  0.50400001928E-02 0. -1.
       -1   -1    0    0    0  501  0.00000000000E+00  0.00000000000E+00 -0.14661101219E+04  0.14661101220E+04  0.50400001928E-02 0.  1.
    10030    2    1    2    0    0  0.00000000000E+00  0.00000000000E+00 -0.28942970654E+03  0.26427905374E+04  0.26268940347E+04 0.  0.
        2    1    3    3  502    0 -0.11301574497E+03  0.10551304792E+04  0.63396518254E+03  0.12361167984E+04  0.25500000920E-02 0. -1.
       -2    1    3    3    0  502  0.11301574497E+03 -0.10551304792E+04 -0.92339488909E+03  0.14066737390E+04  0.25500000920E-02 0.  1.
</event>
<event>
 5   0  0.2159405E-05  0.2624470E+04  0.7818609E-02  0.8359937E-01
       -1   -1    0    0    0  501  0.00000000000E+00  0.00000000000E+00  0.17599810642E+04  0.17599810642E+04  0.50400001928E-02 0. -1.
        1   -1    0    0  501    0  0.00000000000E+00  0.00000000000E+00 -0.97839731660E+03  0.97839731662E+03  0.50400001928E-02 0.  1.
    10030    2    1    2    0    0  0.00000000000E+00  0.00000000000E+00  0.78158374755E+03  0.27383783808E+04  0.26244700421E+04 0.  0.
        3    1    3    3  502    0  0.55239533142E+03 -0.57833301027E+03 -0.69472333498E+03  0.10593631083E+04  0.10100000352E+00 0.  1.
       -3    1    3    3    0  502 -0.55239533142E+03  0.57833301027E+03  0.14763070825E+04  0.16790152724E+04  0.10100000352E+00 0. -1.
</event>
<event>
 5   0  0.5036452E-05  0.2590587E+04  0.7818609E-02  0.8371406E-01
        2   -1    0    0  501    0  0.00000000000E+00  0.00000000000E+00  0.18166914335E+04  0.18166914335E+04  0.25500000920E-02 0.  1.
       -2   -1    0    0    0  501  0.00000000000E+00  0.00000000000E+00 -0.92353915513E+03  0.92353915513E+03  0.25500000920E-02 0. -1.
    10030    2    1    2    0    0  0.00000000000E+00  0.00000000000E+00  0.89315227837E+03  0.27402305886E+04  0.25905873246E+04 0.  0.
        2    1    3    3  502    0 -0.40361389708E+03 -0.73582598367E+03  0.14901995869E+04  0.17102744999E+04  0.25500000920E-02 0.  1.
       -2    1    3    3    0  502  0.40361389708E+03  0.73582598367E+03 -0.59704730852E+03  0.10299560888E+04  0.25500000920E-02 0. -1.
</event>
<event>
 5   0  0.5049803E-05  0.1280447E+04  0.7818609E-02  0.9045216E-01
        2   -1    0    0  501    0  0.00000000000E+00  0.00000000000E+00  0.10307479594E+04  0.10307479594E+04  0.25500000920E-02 0. -1.
       -2   -1    0    0    0  501  0.00000000000E+00  0.00000000000E+00 -0.39765878531E+03  0.39765878532E+03  0.25500000920E-02 0.  1.
    10030    2    1    2    0    0  0.00000000000E+00  0.00000000000E+00  0.63308917410E+03  0.14284067447E+04  0.12804467681E+04 0.  0.
        4    1    3    3  502    0 -0.92178465131E+02  0.46735845649E+03  0.79371409045E+03  0.92569134519E+03  0.12699999809E+01 0. -1.
       -4    1    3    3    0  502  0.92178465131E+02 -0.46735845649E+03 -0.16062491635E+03  0.50271539954E+03  0.12699999809E+01 0.  1.
</event>
<event>
 5   0  0.2072710E-05  0.2616199E+04  0.7818609E-02  0.8362719E-01
       -1   -1    0    0    0  501  0.00000000000E+00  0.00000000000E+00  0.16647455297E+04  0.16647455297E+04  0.50400001928E-02 0. -1.
        1   -1    0    0  501    0  0.00000000000E+00  0.00000000000E+00 -0.10278597271E+04  0.10278597271E+04  0.50400001928E-02 0.  1.
    10030    2    1    2    0    0  0.00000000000E+00  0.00000000000E+00  0.63688580261E+03  0.26926052569E+04  0.26161994465E+04 0.  0.
        2    1    3    3  502    0 -0.11169678045E+04  0.96936561553E+02 -0.37511528908E+03  0.11822543100E+04  0.25500000920E-02 0.  1.
       -2    1    3    3    0  502  0.11169678045E+04 -0.96936561553E+02  0.10120010917E+04  0.15103509469E+04  0.25500000920E-02 0. -1.
</event>
<event>
 5   0  0.1993815E-05  0.2572802E+04  0.7818609E-02  0.8377499E-01
        1   -1    0    0  501    0  0.00000000000E+00  0.00000000000E+00  0.12223844455E+04  0.12223844456E+04  0.50400001928E-02 0.  1.
       -1   -1    0    0    0  501  0.00000000000E+00  0.00000000000E+00 -0.13537700694E+04  0.13537700694E+04  0.50400001928E-02 0. -1.
    10030    2    1    2    0    0  0.00000000000E+00  0.00000000000E+00 -0.13138562384E+03  0.25761545149E+04  0.25728019556E+04 0.  0.
        5    1    3    3  502    0 -0.55163544378E+03  0.90451566837E+02 -0.12257888489E+04  0.13472429405E+04  0.46999998093E+01 0. -1.
       -5    1    3    3    0  502  0.55163544378E+03 -0.90451566837E+02  0.10944032250E+04  0.12289115744E+04  0.46999998093E+01 0.  1.
</event>
<event>
 5   0  0.2072710E-05  0.2583337E+04  0.7818609E-02  0.8373883E-01
        1   -1    0    0  501    0  0.00000000000E+00  0.00000000000E+00  0.13719690971E+04  0.13719690971E+04  0.50400001928E-02 0.  1.
       -1   -1    0    0    0  501  0.00000000000E+00  0.00000000000E+00 -0.12160676419E+04  0.12160676419E+04  0.50400001928E-02 0. -1.
    10030    2    1    2    0    0  0.00000000000E+00  0.00000000000E+00  0.15590145522E+03  0.25880367390E+04  0.25833367761E+04 0.  0.
        2    1    3    3  502    0 -0.93550346729E+03  0.58730587100E+03  0.74873016115E+03  0.13344256359E+04  0.25500000920E-02 0.  1.
       -2    1    3    3    0  502  0.93550346729E+03 -0.58730587100E+03 -0.59282870593E+03  0.12536111032E+04  0.25500000920E-02 0. -1.
</event>
<event>
 5   0  0.5036452E-05  0.2339532E+04  0.7818609E-02  0.8462495E-01
       -2   -1    0    0    0  501  0.00000000000E+00  0.00000000000E+00  0.75632363590E+03  0.75632363591E+03  0.25500000920E-02 0. -1.
        2   -1    0    0  501    0  0.00000000000E+00  0.00000000000E+00 -0.18092154832E+04  0.18092154832E+04  0.25500000920E-02 0.  1.
    10030    2    1    2    0    0  0.00000000000E+00  0.00000000000E+00 -0.10528918473E+04  0.25655391191E+04  0.23395319467E+04 0.  0.
        2    1    3    3  502    0  0.82182794844E+02 -0.74956478726E+03  0.45423351718E+03  0.88030078394E+03  0.25500000920E-02 0. -1.
       -2    1    3    3    0  502 -0.82182794844E+02  0.74956478726E+03 -0.15071253645E+04  0.16852383352E+04  0.25500000920E-02 0.  1.
</event>
<event>
 5   0  0.5182179E-05  0.2605337E+04  0.7818609E-02  0.8366391E-01
        2   -1    0    0  501    0  0.00000000000E+00  0.00000000000E+00  0.94907896382E+03  0.94907896382E+03  0.25500000920E-02 0. -1.
       -2   -1    0    0    0  501  0.00000000000E+00  0.00000000000E+00 -0.17879917257E+04  0.17879917257E+04  0.25500000920E-02 0.  1.
    10030    2    1    2    0    0  0.00000000000E+00  0.00000000000E+00 -0.83891276191E+03  0.27370706896E+04  0.26053370871E+04 0.  0.
        3    1    3    3  502    0 -0.91991493111E+03 -0.55186143049E+03 -0.11958436072E+04  0.16064981985E+04  0.10100000352E+00 0.  1.
       -3    1    3    3    0  502  0.91991493111E+03  0.55186143049E+03  0.35693084525E+03  0.11305724910E+04  0.10100000352E+00 0. -1.
</event>
<event>
 5   0  0.5036452E-05  0.2604788E+04  0.7818609E-02  0.8366577E-01
        2   -1    0    0  501    0  0.00000000000E+00  0.00000000000E+00  0.16664878007E+04  0.16664878007E+04  0.25500000920E-02 0.  1.
       -2   -1    0    0    0  501  0.00000000000E+00  0.00000000000E+00 -0.10178469925E+04  0.10178469925E+04  0.25500000920E-02 0. -1.
    10030    2    1    2    0    0  0.00000000000E+00  0.00000000000E+00  0.64864080822E+03  0.26843347932E+04  0.26047875890E+04 0.  0.
        2    1    3    3  502    0 -0.90787815410E+03 -0.37088927122E+03 -0.55883876071E+03  0.11287614250E+04  0.25500000920E-02 0. -1.
       -2    1    3    3    0  502  0.90787815410E+03  0.37088927122E+03  0.12074795689E+04  0.15555733681E+04  0.25500000920E-02 0.  1.
</event>
<event>
 5   0  0.2159405E-05  0.2405780E+04  0.7818609E-02  0.8437343E-01
       -1   -1    0    0    0  501  0.00000000000E+00  0.00000000000E+00  0.15636412426E+04  0.15636412426E+04  0.50400001928E-02 0.  1.
        1   -1    0    0  501    0  0.00000000000E+00  0.00000000000E+00 -0.92536878045E+03  0.92536878046E+03  0.50400001928E-02 0. -1.
    10030    2    1    2    0    0  0.00000000000E+00  0.00000000000E+00  0.63827246212E+03  0.24890100230E+04  0.24057803638E+04 0.  0.
        3    1    3    3  502    0  0.41215519853E+03  0.63992206196E+03 -0.64452323099E+03  0.99738776739E+03  0.10100000352E+00 0. -1.
       -3    1    3    3    0  502 -0.41215519853E+03 -0.63992206196E+03  0.12827956931E+04  0.14916222556E+04  0.10100000352E+00 0.  1.
</event>
<event>
 5   0  0.1993815E-05  0.2589134E+04  0.7818609E-02  0.8371901E-01
       -1   -1    0    0    0  501  0.00000000000E+00  0.00000000000E+00  0.13947974962E+04  0.13947974962E+04  0.50400001928E-02 0. -1.
        1   -1    0    0  501    0  0.00000000000E+00  0.00000000000E+00 -0.12015393442E+04  0.12015393442E+04  0.50400001928E-02 0.  1.
    10030    2    1    2    0    0  0.00000000000E+00  0.00000000000E+00  0.19325815196E+03  0.25963368404E+04  0.25891342715E+04 0.  0.
        5    1    3    3  502    0 -0.58141843315E+03  0.25640459908E+03 -0.10343787182E+04  0.12139819338E+04  0.46999998093E+01 0.  1.
       -5    1    3    3    0  502  0.58141843315E+03 -0.25640459908E+03  0.12276368702E+04  0.13823549066E+04  0.46999998093E+01 0. -1.
</event>
<event>
 5   0  0.4955675E-05  0.2416005E+04  0.7818609E-02  0.8433536E-01
        2   -1    0    0  501    0  0.00000000000E+00  0.00000000000E+00  0.20358865473E+04  0.20358865473E+04  0.25500000920E-02 0. -1.
       -2   -1    0    0    0  501  0.00000000000E+00  0.00000000000E+00 -0.71677357652E+03  0.71677357652E+03  0.25500000920E-02 0.  1.
    10030    2    1    2    0    0  0.00000000000E+00  0.00000000000E+00  0.13191129708E+04  0.27526601239E+04  0.24160047036E+04 0.  0.
        5    1    3    3  502    0 -0.58888404493E+03  0.65008535473E+03 -0.28675224003E+03  0.92284577475E+03  0.46999998093E+01 0.  1.
       -5    1    3    3    0  502  0.58888404493E+03 -0.65008535473E+03  0.16058652108E+04  0.18298143491E+04  0.46999998093E+01 0. -1.
</event>
<event>
 5   0  0.1993815E-05  0.1592868E+04  0.7818609E-02  0.8824942E-01
       -1   -1    0    0    0  501  0.00000000000E+00  0.00000000000E+00  0.48814616205E+03  0.48814616207E+03  0.50400001928E-02 0. -1.
        1   -1    0    0  501    0  0.00000000000E+00  0.00000000000E+00 -0.12994197682E+04  0.12994197682E+04  0.50400001928E-02 0.  1.
    10030    2    1    2    0    0  0.00000000000E+00  0.00000000000E+00 -0.81127360611E+03  0.17875659302E+04  0.15928675686E+04 0.  0.
        5    1    3    3  502    0  0.53837179082E+03 -0.47885096766E+03 -0.24834337528E+02  0.72095857627E+03  0.46999998093E+01 0. -1.
       -5    1    3    3    0  502 -0.53837179082E+03  0.47885096766E+03 -0.78643926858E+03  0.10666073540E+04  0.46999998093E+01 0.  1.
</event>
<event>
 5   0  0.2072710E-05  0.2634166E+04  0.7818609E-02  0.8356688E-01
        1   -1    0    0  501    0  0.00000000000E+00  0.00000000000E+00  0.14829808044E+04  0.14829808044E+04  0.50400001928E-02 0. -1.
       -1   -1    0    0    0  501  0.00000000000E+00  0.00000000000E+00 -0.11697434555E+04  0.11697434555E+04  0.50400001928E-02 0.  1.
    10030    2    1    2    0    0  0.00000000000E+00  0.00000000000E+00  0.31323734891E+03  0.26527242599E+04  0.26341655913E+04 0.  0.
        2    1    3    3  502    0 -0.40712316428E+03 -0.63354861585E+02  0.14164094810E+04  0.14751199705E+04  0.25500000920E-02 0. -1.
       -2    1    3    3    0  502  0.40712316428E+03  0.63354861585E+02 -0.11031721321E+04  0.11776042894E+04  0.25500000920E-02 0.  1.
</event>
<event>
 5   0  0.4955675E-05  0.2511655E+04  0.7818609E-02  0.8398845E-01
       -2   -1    0    0    0  501  0.00000000000E+00  0.00000000000E+00  0.82829380574E+03  0.82829380575E+03  0.25500000920E-02 0.  1.
        2   -1    0    0  501    0  0.00000000000E+00  0.00000000000E+00 -0.19040375509E+04  0.19040375509E+04  0.25500000920E-02 0. -1.
    10030    2    1    2    0    0  0.00000000000E+00  0.00000000000E+00 -0.10757437452E+04  0.27323313567E+04  0.25116548404E+04 0.  0.
        5    1    3    3  502    0 -0.77485599762E+03 -0.44116500587E+03  0.42416393206E+03  0.98740341842E+03  0.46999998093E+01 0.  1.
       -5    1    3    3    0  502  0.77485599762E+03  0.44116500587E+03 -0.14999076772E+04  0.17449279383E+04  0.46999998093E+01 0. -1.
</event>
<event>
 5   0  0.2163800E-05  0.2695874E+04  0.7818609E-02  0.8336345E-01
       -1   -1    0    0    0  501  0.00000000000E+00  0.00000000000E+00  0.12386413056E+04  0.12386413056E+04  0.50400001928E-02 0.  1.
        1   -1    0    0  501    0  0.00000000000E+00  0.00000000000E+00 -0.14668768615E+04  0.14668768615E+04  0.50400001928E-02 0. -1.
    10030    2    1    2    0    0  0.00000000000E+00  0.00000000000E+00 -0.22823555585E+03  0.27055181671E+04  0.26958740853E+04 0.  0.
        1    1    3    3  502    0 -0.85648060034E+03  0.30903129060E+03  0.88335678416E+03  0.12686128509E+04  0.50400001928E-02 0.  1.
       -1    1    3    3    0  502  0.85648060034E+03 -0.30903129060E+03 -0.11115923400E+04  0.14369053162E+04  0.50400001928E-02 0. -1.
</event>
<event>
 5   0  0.5182179E-05  0.2097684E+04  0.7818609E-02  0.8562264E-01
       -2   -1    0    0    0  501  0.00000000000E+00  0.00000000000E+00  0.58021315715E+03  0.58021315716E+03  0.25500000920E-02 0.  1.
        2   -1    0    0  501    0  0.00000000000E+00  0.00000000000E+00 -0.18959740533E+04  0.18959740533E+04  0.25500000920E-02 0. -1.
    10030    2    1    2    0    0  0.00000000000E+00  0.00000000000E+00 -0.13157608961E+04  0.24761872105E+04  0.20976835713E+04 0.  0.
        3    1    3    3  502    0 -0.85921193702E+03  0.33795047023E+03 -0.70484998106E+02  0.92597182365E+03  0.10100000352E+00 0.  1.
       -3    1    3    3    0  502  0.85921193702E+03 -0.33795047023E+03 -0.12452758980E+04  0.15502153868E+04  0.10100000352E+00 0. -1.
</event>
<event>
 5   0  0.5170532E-05  0.2589800E+04  0.7818609E-02  0.8371674E-01
        2   -1    0    0  501    0  0.00000000000E+00  0.00000000000E+00  0.16478561623E+04  0.16478561623E+04  0.25500000920E-02 0.  1.
       -2   -1    0    0    0  501  0.00000000000E+00  0.00000000000E+00 -0.10175439783E+04  0.10175439783E+04  0.25500000920E-02 0. -1.
    10030    2    1    2    0    0  0.00000000000E+00  0.00000000000E+00  0.63031218402E+03  0.26654001406E+04  0.25898000811E+04 0.  0.
        1    1    3    3  502    0 -0.15419497548E+03 -0.12283856487E+04 -0.75474233897E+02  0.12403240514E+04  0.50400001928E-02 0. -1.
       -1    1    3    3    0  502  0.15419497548E+03  0.12283856487E+04  0.70578641791E+03  0.14250760892E+04  0.50400001928E-02 0.  1.
</event>
<event>
 5   0  0.5182179E-05  0.2505076E+04  0.7818609E-02  0.8401179E-01
       -2   -1    0    0    0  501  0.00000000000E+00  0.00000000000E+00  0.80519035199E+03  0.80519035200E+03  0.25500000920E-02 0. -1.
        2   -1    0    0  501    0  0.00000000000E+00  0.00000000000E+00 -0.19484227487E+04  0.19484227487E+04  0.25500000920E-02 0.  1.
    10030    2    1    2    0    0  0.00000000000E+00  0.00000000000E+00 -0.11432323967E+04  0.27536131007E+04  0.25050758063E+04 0.  0.
        3    1    3    3  502    0 -0.27438976428E+03  0.18455688445E+03  0.75634114956E+03  0.82547133873E+03  0.10100000352E+00 0. -1.
       -3    1    3    3    0  502  0.27438976428E+03 -0.18455688445E+03 -0.18995735463E+04  0.19281417620E+04  0.10100000352E+00 0.  1.
</event>
<event>
 5   0  0.2072710E-05  0.1604763E+04  0.7818609E-02  0.8817627E-01
        1   -1    0    0  501    0  0.00000000000E+00  0.00000000000E+00  0.11559417850E+04  0.11559417850E+04  0.50400001928E-02 0. -1.
       -1   -1    0    0    0  501  0.00000000000E+00  0.00000000000E+00 -0.55696231528E+03  0.55696231530E+03  0.50400001928E-02 0.  1.
    10030    2    1    2    0    0  0.00000000000E+00  0.00000000000E+00  0.59897946972E+03  0.17129041003E+04  0.16047629270E+04 0.  0.
        2    1    3    3  502    0  0.49343287911E+03 -0.12626650540E+03  0.96126729171E+03  0.10878667394E+04  0.25500000920E-02 0. -1.
       -2    1    3    3    0  502 -0.49343287911E+03  0.12626650540E+03 -0.36228782199E+03  0.62503736092E+03  0.25500000920E-02 0.  1.
</event>
<event>
 5   0  0.5049803E-05  0.2621705E+04  0.7818609E-02  0.8360866E-01
       -2   -1    0    0    0  501  0.00000000000E+00  0.00000000000E+00  0.97160489091E+03  0.97160489091E+03  0.25500000920E-02 0.  1.
        2   -1    0    0  501    0  0.00000000000E+00  0.00000000000E+00 -0.17685525744E+04  0.17685525744E+04  0.25500000920E-02 0. -1.
    10030    2    1    2    0    0  0.00000000000E+00  0.00000000000E+00 -0.79694768345E+03  0.27401574653E+04  0.26217050415E+04 0.  0.
        4    1    3    3  502    0 -0.37334660756E+03  0.12558057198E+04 -0.44399653870E+03  0.13833185586E+04  0.12699999809E+01 0. -1.
       -4    1    3    3    0  502  0.37334660756E+03 -0.12558057198E+04 -0.35295114476E+03  0.13568389067E+04  0.12699999809E+01 0.  1.
</event>
<event>
 5   0  0.1993815E-05  0.2574635E+04  0.7818609E-02  0.8376868E-01
       -1   -1    0    0    0  501  0.00000000000E+00  0.00000000000E+00  0.17838764155E+04  0.17838764155E+04  0.50400001928E-02 0.  1.
        1   -1    0    0  501    0  0.00000000000E+00  0.00000000000E+00 -0.92898070369E+03  0.92898070370E+03  0.50400001928E-02 0. -1.
    10030    2    1    2    0    0  0.00000000000E+00  0.00000000000E+00  0.85489571184E+03  0.27128571192E+04  0.25746353278E+04 0.  0.
        5    1    3    3  502    0  0.55197390394E+03  0.11604338890E+04  0.50826410326E+03  0.13818959765E+04  0.46999998093E+01 0. -1.
       -5    1    3    3    0  502 -0.55197390394E+03 -0.11604338890E+04  0.34663160858E+03  0.13309611427E+04  0.46999998093E+01 0.  1.
</event>
<event>
 5   0  0.2072710E-05  0.2612176E+04  0.7818609E-02  0.8364077E-01
       -1   -1    0    0    0  501  0.00000000000E+00  0.00000000000E+00  0.15853830560E+04  0.15853830560E+04  0.50400001928E-02 0. -1.
        1   -1    0    0  501    0  0.00000000000E+00  0.00000000000E+00 -0.10759961671E+04  0.10759961672E+04  0.50400001928E-02 0.  1.
    10030    2    1    2    0    0  0.00000000000E+00  0.00000000000E+00  0.50938688884E+03  0.26613792231E+04  0.26121761746E+04 0.  0.
        2    1    3    3  502    0  0.39473874573E+03 -0.12264443622E+04  0.36458763146E+02  0.12889195833E+04  0.25500000920E-02 0. -1.
       -2    1    3    3    0  502 -0.39473874573E+03  0.12264443622E+04  0.47292812570E+03  0.13724596398E+04  0.25500000920E-02 0.  1.
</event>
<event>
 5   0  0.2072710E-05  0.2579790E+04  0.7818609E-02  0.8375099E-01
       -1   -1    0    0    0  501  0.00000000000E+00  0.00000000000E+00  0.10587500474E+04  0.10587500474E+04  0.50400001928E-02 0. -1.
        1   -1    0    0  501    0  0.00000000000E+00  0.00000000000E+00 -0.15715026531E+04  0.15715026532E+04  0.50400001928E-02 0.  1.
    10030    2    1    2    0    0  0.00000000000E+00  0.00000000000E+00 -0.51275260574E+03  0.26302527006E+04  0.25797895329E+04 0.  0.
        2    1    3    3  502    0  0.74067347567E+03  0.81931900825E+03  0.42295103357E+03  0.11826954010E+04  0.25500000920E-02 0. -1.
       -2    1    3    3    0  502 -0.74067347567E+03 -0.81931900825E+03 -0.93570363930E+03  0.14475572995E+04  0.25500000920E-02 0.  1.
</event>
<event>
 5   0  0.2159405E-05  0.2452030E+04  0.7818609E-02  0.8420277E-01
        1   -1    0    0  501    0  0.00000000000E+00  0.00000000000E+00  0.14178288129E+04  0.14178288129E+04  0.50400001928E-02 0. -1.
       -1   -1    0    0    0  501  0.00000000000E+00  0.00000000000E+00 -0.10601515005E+04  0.10601515005E+04  0.50400001928E-02 0.  1.
    10030    2    1    2    0    0  0.00000000000E+00  0.00000000000E+00  0.35767731238E+03  0.24779803134E+04  0.24520304594E+04 0.  0.
        3    1    3    3  502    0  0.10307678885E+04 -0.38318337636E+03 -0.36893219291E+03  0.11599236669E+04  0.10100000352E+00 0. -1.
       -3    1    3    3    0  502 -0.10307678885E+04  0.38318337636E+03  0.72660950530E+03  0.13180566465E+04  0.10100000352E+00 0.  1.
</event>
<event>
 5   0  0.1993815E-05  0.2487645E+04  0.7818609E-02  0.8407400E-01
       -1   -1    0    0    0  501  0.00000000000E+00  0.00000000000E+00  0.21185589192E+04  0.21185589192E+04  0.50400001928E-02 0. -1.
        1   -1    0    0  501    0  0.00000000000E+00  0.00000000000E+00 -0.73025783237E+03  0.73025783238E+03  0.50400001928E-02 0.  1.
    10030    2    1    2    0    0  0.00000000000E+00  0.00000000000E+00  0.13883010868E+04  0.28488167516E+04  0.24876448654E+04 0.  0.
        5    1    3    3  502    0  0.47145129649E+02  0.13940699594E+03  0.21085437625E+04  0.21136782778E+04  0.46999998093E+01 0. -1.
       -5    1    3    3    0  502 -0.47145129649E+02 -0.13940699594E+03 -0.72024267566E+03  0.73513847377E+03  0.46999998093E+01 0.  1.
</event>
<event>
 5   0  0.4955675E-05  0.2645589E+04  0.7818609E-02  0.8352878E-01
       -2   -1    0    0    0  501  0.00000000000E+00  0.00000000000E+00  0.17116238135E+04  0.17116238135E+04  0.25500000920E-02 0.  1.
        2   -1    0    0  501    0  0.00000000000E+00  0.00000000000E+00 -0.10222958297E+04  0.10222958297E+04  0.25500000920E-02 0. -1.
    10030    2    1    2    0    0  0.00000000000E+00  0.00000000000E+00  0.68932798385E+03  0.27339196432E+04  0.26455894515E+04 0.  0.
        5    1    3    3  502    0  0.87970013480E+03  0.35352438947E+03  0.12979113559E+04  0.16073107350E+04  0.46999998093E+01 0.  1.
       -5    1    3    3    0  502 -0.87970013480E+03 -0.35352438947E+03 -0.60858337208E+03  0.11266089081E+04  0.46999998093E+01 0. -1.
</event>
<event>
 5   0  0.2159405E-05  0.2381723E+04  0.7818609E-02  0.8446378E-01
        1   -1    0    0  501    0  0.00000000000E+00  0.00000000000E+00  0.14918266608E+04  0.14918266608E+04  0.50400001928E-02 0. -1.
       -1   -1    0    0    0  501  0.00000000000E+00  0.00000000000E+00 -0.95061352259E+03  0.95061352260E+03  0.50400001928E-02 0.  1.
    10030    2    1    2    0    0  0.00000000000E+00  0.00000000000E+00  0.54121313821E+03  0.24424401834E+04  0.23817225675E+04 0.  0.
        3    1    3    3  502    0 -0.60456127026E+03  0.23813000119E+03  0.12940211758E+04  0.14479955250E+04  0.10100000352E+00 0. -1.
       -3    1    3    3    0  502  0.60456127026E+03 -0.23813000119E+03 -0.75280803756E+03  0.99444465838E+03  0.10100000352E+00 0.  1.
</event>
<event>
 5   0  0.1993815E-05  0.2579070E+04  0.7818609E-02  0.8375346E-01
       -1   -1    0    0    0  501  0.00000000000E+00  0.00000000000E+00  0.86359468634E+03  0.86359468636E+03  0.50400001928E-02 0. -1.
        1   -1    0    0  501    0  0.00000000000E+00  0.00000000000E+00 -0.19255563537E+04  0.19255563537E+04  0.50400001928E-02 0.  1.
    10030    2    1    2    0    0  0.00000000000E+00  0.00000000000E+00 -0.10619616673E+04  0.27891510400E+04  0.25790697822E+04 0.  0.
        5    1    3    3  502    0 -0.84180607517E+03  0.50116268263E+02 -0.15860127548E+04  0.17962760525E+04  0.46999998093E+01 0.  1.
       -5    1    3    3    0  502  0.84180607517E+03 -0.50116268263E+02  0.52405108747E+03  0.99287498750E+03  0.46999998093E+01 0. -1.
</event>
<event>
 5   0  0.1954502E-05  0.1635963E+04  0.7818609E-02  0.8798754E-01
        1   -1    0    0  501    0  0.00000000000E+00  0.00000000000E+00  0.51481392355E+03  0.51481392358E+03  0.50400001928E-02 0. -1.
       -1   -1    0    0    0  501  0.00000000000E+00  0.00000000000E+00 -0.12996815193E+04  0.12996815193E+04  0.50400001928E-02 0.  1.
    10030    2    1    2    0    0  0.00000000000E+00  0.00000000000E+00 -0.78486759571E+03  0.18144954428E+04  0.16359634988E+04 0.  0.
        4    1    3    3  502    0  0.69917668726E+02 -0.75447481717E+03 -0.50627858265E+02  0.75939813213E+03  0.12699999809E+01 0. -1.
       -4    1    3    3    0  502 -0.69917668726E+02  0.75447481717E+03 -0.73423973745E+03  0.10550973107E+04  0.12699999809E+01 0.  1.
</event>
<event>
 5   0  0.2072710E-05  0.2578888E+04  0.7818609E-02  0.8375408E-01
       -1   -1    0    0    0  501  0.00000000000E+00  0.00000000000E+00  0.98285669589E+03  0.98285669590E+03  0.50400001928E-02 0. -1.
        1   -1    0    0  501    0  0.00000000000E+00  0.00000000000E+00 -0.16916671577E+04  0.16916671577E+04  0.50400001928E-02 0.  1.
    10030    2    1    2    0    0  0.00000000000E+00  0.00000000000E+00 -0.70881046180E+03  0.26745238536E+04  0.25788884374E+04 0.  0.
        2    1    3    3  502    0 -0.11187074174E+04  0.52097512217E+03  0.33282543141E+02  0.12345157315E+04  0.25500000920E-02 0. -1.
       -2    1    3    3    0  502  0.11187074174E+04 -0.52097512217E+03 -0.74209300494E+03  0.14400081221E+04  0.25500000920E-02 0.  1.
</event>
<event>
 5   0  0.5036452E-05  0.2700528E+04  0.7818609E-02  0.8334834E-01
        2   -1    0    0  501    0  0.00000000000E+00  0.00000000000E+00  0.22573921705E+04  0.22573921705E+04  0.25500000920E-02 0.  1.
       -2   -1    0    0    0  501  0.00000000000E+00  0.00000000000E+00 -0.80766343727E+03  0.80766343727E+03  0.25500000920E-02 0. -1.
    10030    2    1    2    0    0  0.00000000000E+00  0.00000000000E+00  0.14497287333E+04  0.30650556078E+04  0.27005281852E+04 0.  0.
        2    1    3    3  502    0  0.48904462881E+03 -0.46388241635E+03  0.20527767168E+04  0.21606119027E+04  0.25500000920E-02 0.  1.
       -2    1    3    3    0  502 -0.48904462881E+03  0.46388241635E+03 -0.60304798355E+03  0.90444370507E+03  0.25500000920E-02 0. -1.
</event>
<event>
 5   0  0.5182179E-05  0.2619902E+04  0.7818609E-02  0.8361472E-01
        2   -1    0    0  501    0  0.00000000000E+00  0.00000000000E+00  0.11825719767E+04  0.11825719767E+04  0.25500000920E-02 0.  1.
       -2   -1    0    0    0  501  0.00000000000E+00  0.00000000000E+00 -0.14510506893E+04  0.14510506893E+04  0.25500000920E-02 0. -1.
    10030    2    1    2    0    0  0.00000000000E+00  0.00000000000E+00 -0.26847871258E+03  0.26336226659E+04  0.26199021981E+04 0.  0.
        3    1    3    3  502    0  0.99496038346E+03  0.10865497989E+03  0.71530178504E+03  0.12302067807E+04  0.10100000352E+00 0.  1.
       -3    1    3    3    0  502 -0.99496038346E+03 -0.10865497989E+03 -0.98378049762E+03  0.14034158853E+04  0.10100000352E+00 0. -1.
</event>
<event>
 5   0  0.5049803E-05  0.2518027E+04  0.7818609E-02  0.8396591E-01
       -2   -1    0    0    0  501  0.00000000000E+00  0.00000000000E+00  0.83501606012E+03  0.83501606012E+03  0.25500000920E-02 0.  1.
        2   -1    0    0  501    0  0.00000000000E+00  0.00000000000E+00 -0.18983044929E+04  0.18983044929E+04  0.25500000920E-02 0. -1.
    10030    2    1    2    0    0  0.00000000000E+00  0.00000000000E+00 -0.10632884328E+04  0.27333205530E+04  0.25180267978E+04 0.  0.
        4    1    3    3  502    0 -0.77312743454E+03  0.19030941700E+03  0.52702225586E+03  0.95482866281E+03  0.12699999809E+01 0.  1.
       -4    1    3    3    0  502  0.77312743454E+03 -0.19030941700E+03 -0.15903106886E+04  0.17784918902E+04  0.12699999809E+01 0. -1.
</event>
<event>
 5   0  0.1993815E-05  0.2608936E+04  0.7818609E-02  0.8365172E-01
        1   -1    0    0  501    0  0.00000000000E+00  0.00000000000E+00  0.12413196888E+04  0.12413196888E+04  0.50400001928E-02 0. -1.
       -1   -1    0    0    0  501  0.00000000000E+00  0.00000000000E+00 -0.13708291778E+04  0.13708291778E+04  0.50400001928E-02 0.  1.
    10030    2    1    2    0    0  0.00000000000E+00  0.00000000000E+00 -0.12950948897E+03  0.26121488666E+04  0.26089363721E+04 0.  0.
        5    1    3    3  502    0  0.10142508390E+04 -0.28015598115E+03 -0.83669243521E+03  0.13443468523E+04  0.46999998093E+01 0.  1.
       -5    1    3    3    0  502 -0.10142508390E+04  0.28015598115E+03  0.70718294624E+03  0.12678020143E+04  0.46999998093E+01 0. -1.
</event>
<event>
 5   0  0.5170532E-05  0.2484261E+04  0.7818609E-02  0.8408614E-01
        2   -1    0    0  501    0  0.00000000000E+00  0.00000000000E+00  0.19928003552E+04  0.19928003552E+04  0.25500000920E-02 0.  1.
       -2   -1    0    0    0  501  0.00000000000E+00  0.00000000000E+00 -0.77423094350E+03  0.77423094351E+03  0.25500000920E-02 0. -1.
    10030    2    1    2    0    0  0.00000000000E+00  0.00000000000E+00  0.12185694117E+04  0.27670312987E+04  0.24842606137E+04 0.  0.
        1    1    3    3  502    0  0.54940536450E+02 -0.12257942882E+04  0.82439310060E+03  0.14782469631E+04  0.50400001928E-02 0.  1.
       -1    1    3    3    0  502 -0.54940536450E+02  0.12257942882E+04  0.39417631106E+03  0.12887843356E+04  0.50400001928E-02 0. -1.
</event>
<event>
 5   0  0.4955675E-05  0.2564144E+04  0.7818609E-02  0.8380484E-01
        2   -1    0    0  501    0  0.00000000000E+00  0.00000000000E+00  0.13614507292E+04  0.13614507292E+04  0.25500000920E-02 0. -1.
       -2   -1    0    0    0  501  0.00000000000E+00  0.00000000000E+00 -0.12073212142E+04  0.12073212142E+04  0.25500000920E-02 0.  1.
    10030    2    1    2    0    0  0.00000000000E+00  0.00000000000E+00  0.15412951496E+03  0.25687719434E+04  0.25641437927E+04 0.  0.
        5    1    3    3  502    0 -0.44464315140E+03  0.45208159972E+03  0.11933474511E+04  0.13513643232E+04  0.46999998093E+01 0. -1.
       -5    1    3    3    0  502  0.44464315140E+03 -0.45208159972E+03 -0.10392179362E+04  0.12174076202E+04  0.46999998093E+01 0.  1.
</event>
<event>
 5   0  0.1954502E-05  0.2682605E+04  0.7818609E-02  0.8340671E-01
       -1   -1    0    0    0  501  0.00000000000E+00  0.00000000000E+00  0.98463354370E+03  0.98463354371E+03  0.50400001928E-02 0.  1.
        1   -1    0    0  501    0  0.00000000000E+00  0.00000000000E+00 -0.18271691311E+04  0.18271691311E+04  0.50400001928E-02 0. -1.
    10030    2    1    2    0    0  0.00000000000E+00  0.00000000000E+00 -0.84253558740E+03  0.28118026748E+04  0.26826047167E+04 0.  0.
        4    1    3    3  502    0  0.78150872002E+03  0.87202904510E+02 -0.15602147216E+04  0.17471782440E+04  0.12699999809E+01 0.  1.
       -4    1    3    3    0  502 -0.78150872002E+03 -0.87202904510E+02  0.71767913421E+03  0.10646244308E+04  0.12699999809E+01 0. -1.
</event>
<event>
 5   0  0.2072710E-05  0.2573769E+04  0.7818609E-02  0.8377166E-01
        1   -1    0    0  501    0  0.00000000000E+00  0.00000000000E+00  0.17268811348E+04  0.17268811348E+04  0.50400001928E-02 0. -1.
       -1   -1    0    0    0  501  0.00000000000E+00  0.00000000000E+00 -0.95899553127E+03  0.95899553128E+03  0.50400001928E-02 0.  1.
    10030    2    1    2    0    0  0.00000000000E+00  0.00000000000E+00  0.76788560352E+03  0.26858766661E+04  0.25737686697E+04 0.  0.
        2    1    3    3  502    0  0.50448547550E+03  0.65409483296E+03 -0.64581445362E+03  0.10485332393E+04  0.25500000920E-02 0.  1.
       -2    1    3    3    0  502 -0.50448547550E+03 -0.65409483296E+03  0.14137000571E+04  0.16373434267E+04  0.25500000920E-02 0. -1.
</event>
<event>
 5   0  0.2072710E-05  0.2639147E+04  0.7818609E-02  0.8355024E-01
       -1   -1    0    0    0  501  0.00000000000E+00  0.00000000000E+00  0.98827914590E+03  0.98827914591E+03  0.50400001928E-02 0.  1.
        1   -1    0    0  501    0  0.00000000000E+00  0.00000000000E+00 -0.17619259593E+04  0.17619259593E+04  0.50400001928E-02 0. -1.
    10030    2    1    2    0    0  0.00000000000E+00  0.00000000000E+00 -0.77364681341E+03  0.27502051052E+04  0.26391473488E+04 0.  0.
        2    1    3    3  502    0  0.60153985460E+03  0.91878574002E+03 -0.11492231204E+04  0.15895695056E+04  0.25500000920E-02 0. -1.
       -2    1    3    3    0  502 -0.60153985460E+03 -0.91878574002E+03  0.37557630697E+03  0.11606355996E+04  0.25500000920E-02 0.  1.
</event>
<event>
 5   0  0.1993815E-05  0.1706884E+04  0.7818609E-02  0.8757448E-01
       -1   -1    0    0    0  501  0.00000000000E+00  0.00000000000E+00  0.61053633182E+03  0.61053633184E+03  0.50400001928E-02 0.  1.
        1   -1    0    0  501    0  0.00000000000E+00  0.00000000000E+00 -0.11929892600E+04  0.11929892600E+04  0.50400001928E-02 0. -1.
    10030    2    1    2    0    0  0.00000000000E+00  0.00000000000E+00 -0.58245292818E+03  0.18035255918E+04  0.17068840461E+04 0.  0.
        5    1    3    3  502    0 -0.72035234307E+02  0.82049140798E+03 -0.55087028284E+02  0.82550099711E+03  0.46999998093E+01 0.  1.
       -5    1    3    3    0  502  0.72035234307E+02 -0.82049140798E+03 -0.52736589990E+03  0.97802459474E+03  0.46999998093E+01 0. -1.
</event>
<event>
 5   0  0.1954502E-05  0.2622253E+04  0.7818609E-02  0.8360681E-01
        1   -1    0    0  501    0  0.00000000000E+00  0.00000000000E+00  0.13005462132E+04  0.13005462132E+04  0.50400001928E-02 0.  1.
       -1   -1    0    0    0  501  0.00000000000E+00  0.00000000000E+00 -0.13217932840E+04  0.13217932841E+04  0.50400001928E-02 0. -1.
    10030    2    1    2    0    0  0.00000000000E+00  0.00000000000E+00 -0.21247070857E+02  0.26223394973E+04  0.26222534204E+04 0.  0.
        4    1    3    3  502    0  0.78841200608E+03  0.67338324142E+03 -0.81315418094E+03  0.13176721201E+04  0.12699999809E+01 0. -1.
       -4    1    3    3    0  502 -0.78841200608E+03 -0.67338324142E+03  0.79190711008E+03  0.13046673772E+04  0.12699999809E+01 0.  1.
</event>
<event>
 5   0  0.5036452E-05  0.2218414E+04  0.7818609E-02  0.8510803E-01
        2   -1    0    0  501    0  0.00000000000E+00  0.00000000000E+00  0.14204402329E+04  0.14204402329E+04  0.25500000920E-02 0. -1.
       -2   -1    0    0    0  501  0.00000000000E+00  0.00000000000E+00 -0.86616791184E+03  0.86616791185E+03  0.25500000920E-02 0.  1.
    10030    2    1    2    0    0  0.00000000000E+00  0.00000000000E+00  0.55427232105E+03  0.22866081447E+04  0.22184136228E+04 0.  0.
        2    1    3    3  502    0  0.10251385997E+04 -0.38496869971E+03  0.45928782430E+03  0.11874575167E+04  0.25500000920E-02 0. -1.
       -2    1    3    3    0  502 -0.10251385997E+04  0.38496869971E+03  0.94984496750E+02  0.10991506280E+04  0.25500000920E-02 0.  1.
</event>
<event>
 5   0  0.5036452E-05  0.2741598E+04  0.7818609E-02  0.8321633E-01
        2   -1    0    0  501    0  0.00000000000E+00  0.00000000000E+00  0.13479801453E+04  0.13479801453E+04  0.25500000920E-02 0. -1.
       -2   -1    0    0    0  501  0.00000000000E+00  0.00000000000E+00 -0.13940039313E+04  0.13940039314E+04  0.25500000920E-02 0.  1.
    10030    2    1    2    0    0  0.00000000000E+00  0.00000000000E+00 -0.46023786081E+02  0.27419840766E+04  0.27415977983E+04 0.  0.
        2    1    3    3  502    0  0.50470888009E+03  0.67515175635E+02 -0.12959049546E+04  0.13923573549E+04  0.25500000920E-02 0.  1.
       -2    1    3    3    0  502 -0.50470888009E+03 -0.67515175635E+02  0.12498811685E+04  0.13496267217E+04  0.25500000920E-02 0. -1.
</event>
<event>
 5   0  0.5182179E-05  0.2599089E+04  0.7818609E-02  0.8368511E-01
        2   -1    0    0  501    0  0.00000000000E+00  0.00000000000E+00  0.20241594209E+04  0.20241594209E+04  0.25500000920E-02 0. -1.
       -2   -1    0    0    0  501  0.00000000000E+00  0.00000000000E+00 -0.83432932969E+03  0.83432932969E+03  0.25500000920E-02 0.  1.
    10030    2    1    2    0    0  0.00000000000E+00  0.00000000000E+00  0.11898300912E+04  0.28584887506E+04  0.25990887425E+04 0.  0.
        3    1    3    3  502    0  0.11970796137E+04  0.46503686866E+03  0.37617653430E+03  0.13381956829E+04  0.10100000352E+00 0. -1.
       -3    1    3    3    0  502 -0.11970796137E+04 -0.46503686866E+03  0.81365355691E+03  0.15202930677E+04  0.10100000352E+00 0.  1.
</event>
<event>
 5   0  0.2163800E-05  0.2615775E+04  0.7818609E-02  0.8362862E-01
        1   -1    0    0  501    0  0.00000000000E+00  0.00000000000E+00  0.23213913684E+04  0.23213913684E+04  0.50400001928E-02 0. -1.
       -1   -1    0    0    0  501  0.00000000000E+00  0.00000000000E+00 -0.73687271599E+03  0.73687271600E+03  0.50400001928E-02 0.  1.
    10030    2    1    2    0    0  0.00000000000E+00  0.00000000000E+00  0.15845186524E+04  0.30582640844E+04  0.26157751911E+04 0.  0.
        1    1    3    3  502    0  0.51625324276E+03 -0.39540595228E+03  0.21189908342E+04  0.22165255319E+04  0.50400001928E-02 0. -1.
       -1    1    3    3    0  502 -0.51625324276E+03  0.39540595228E+03 -0.53447218179E+03  0.84173855258E+03  0.50400001928E-02 0.  1.
</event>
<event>
 5   0  0.2072710E-05  0.2544023E+04  0.7818609E-02  0.8387468E-01
       -1   -1    0    0    0  501  0.00000000000E+00  0.00000000000E+00  0.15592626475E+04  0.15592626475E+04  0.50400001928E-02 0.  1.
        1   -1    0    0  501    0  0.00000000000E+00  0.00000000000E+00 -0.10376787849E+04  0.10376787849E+04  0.50400001928E-02 0. -1.
    10030    2    1    2    0    0  0.00000000000E+00  0.00000000000E+00  0.52158386263E+03  0.25969414325E+04  0.25440234036E+04 0.  0.
        2    1    3    3  502    0  0.12259983880E+04  0.14284632405E+03  0.57465567957E+03  0.13615088210E+04  0.25500000920E-02 0. -1.
       -2    1    3    3    0  502 -0.12259983880E+04 -0.14284632405E+03 -0.53071816936E+02  0.12354326114E+04  0.25500000920E-02 0.  1.
</event>
<event>
 5   0  0.2072710E-05  0.2418396E+04  0.7818609E-02  0.8432648E-01
        1   -1    0    0  501    0  0.00000000000E+00  0.00000000000E+00  0.91141441750E+03  0.91141441751E+03  0.50400001928E-02 0. -1.
       -1   -1    0    0    0  501  0.00000000000E+00  0.00000000000E+00 -0.16042756953E+04  0.16042756953E+04  0.50400001928E-02 0.  1.
    10030    2    1    2    0    0  0.00000000000E+00  0.00000000000E+00 -0.69286127780E+03  0.25156901128E+04  0.24183961614E+04 0.  0.
        2    1    3    3  502    0  0.10788872386E+04  0.51726374599E+03 -0.52839831836E+03  0.13079618646E+04  0.25500000920E-02 0.  1.
       -2    1    3    3    0  502 -0.10788872386E+04 -0.51726374599E+03 -0.16446295944E+03  0.12077282482E+04  0.25500000920E-02 0. -1.
</event>
<event>
 5   0  0.5182179E-05  0.2503935E+04  0.7818609E-02  0.8401585E-01
        2   -1    0    0  501    0  0.00000000000E+00  0.00000000000E+00  0.22142442137E+04  0.22142442137E+04  0.25500000920E-02 0.  1.
       -2   -1    0    0    0  501  0.00000000000E+00  0.00000000000E+00 -0.70788148226E+03  0.70788148227E+03  0.25500000920E-02 0. -1.
    10030    2    1    2    0    0  0.00000000000E+00  0.00000000000E+00  0.15063627314E+04  0.29221256959E+04  0.25039348842E+04 0.  0.
        3    1    3    3  502    0 -0.86757538826E+03  0.64606245208E+03  0.17556659814E+02  0.10818465662E+04  0.10100000352E+00 0. -1.
       -3    1    3    3    0  502  0.86757538826E+03 -0.64606245208E+03  0.14888060716E+04  0.18402791297E+04  0.10100000352E+00 0.  1.
</event>
<event>
 5   0  0.5036452E-05  0.2610758E+04  0.7818609E-02  0.8364556E-01
        2   -1    0    0  501    0  0.00000000000E+00  0.00000000000E+00  0.22733334669E+04  0.22733334669E+04  0.25500000920E-02 0. -1.
       -2   -1    0    0    0  501  0.00000000000E+00  0.00000000000E+00 -0.74956642707E+03  0.74956642707E+03  0.25500000920E-02 0.  1.
    10030    2    1    2    0    0  0.00000000000E+00  0.00000000000E+00  0.15237670398E+04  0.30228998939E+04  0.26107580848E+04 0.  0.
        2    1    3    3  502    0  0.35717752354E+03  0.73095381209E+03 -0.42012674221E+03  0.91562860280E+03  0.25500000920E-02 0.  1.
       -2    1    3    3    0  502 -0.35717752354E+03 -0.73095381209E+03  0.19438937820E+04  0.21072712911E+04  0.25500000920E-02 0. -1.
</event>
<event>
 5   0  0.5036452E-05  0.2602177E+04  0.7818609E-02  0.8367462E-01
       -2   -1    0    0    0  501  0.00000000000E+00  0.00000000000E+00  0.13284512800E+04  0.13284512800E+04  0.25500000920E-02 0. -1.
        2   -1    0    0  501    0  0.00000000000E+00  0.00000000000E+00 -0.12742890747E+04  0.12742890747E+04  0.25500000920E-02 0.  1.
    10030    2    1    2    0    0  0.00000000000E+00  0.00000000000E+00  0.54162205285E+02  0.26027403546E+04  0.26021767444E+04 0.  0.
        2    1    3    3  502    0  0.12069248720E+03  0.56962890196E+03 -0.11366945166E+04  0.12771523740E+04  0.25500000920E-02 0.  1.
       -2    1    3    3    0  502 -0.12069248720E+03 -0.56962890196E+03  0.11908567219E+04  0.13255879806E+04  0.25500000920E-02 0. -1.
</event>
<event>
 5   0  0.1954502E-05  0.2654560E+04  0.7818609E-02  0.8349901E-01
       -1   -1    0    0    0  501  0.00000000000E+00  0.00000000000E+00  0.14150027131E+04  0.14150027132E+04  0.50400001928E-02 0. -1.
        1   -1    0    0  501    0  0.00000000000E+00  0.00000000000E+00 -0.12449956012E+04  0.12449956012E+04  0.50400001928E-02 0.  1.
    10030    2    1    2    0    0  0.00000000000E+00  0.00000000000E+00  0.17000711194E+03  0.26599983144E+04  0.26545599662E+04 0.  0.
        4    1    3    3  502    0 -0.16189453132E+03  0.31204522662E+03  0.13675039250E+04  0.14119669474E+04  0.12699999809E+01 0. -1.
       -4    1    3    3    0  502  0.16189453132E+03 -0.31204522662E+03 -0.11974968131E+04  0.12480313670E+04  0.12699999809E+01 0.  1.
</event>
<event>
 5   0  0.1698625E-05  0.2633410E+04  0.7818609E-02  0.8356940E-01
       -3   -1    0    0    0  501  0.00000000000E+00  0.00000000000E+00  0.81355205485E+03  0.81355206112E+03  0.10100000352E+00 0.  1.
        3   -1    0    0  501    0  0.00000000000E+00  0.00000000000E+00 -0.21310404978E+04  0.21310405002E+04  0.10100000352E+00 0. -1.
    10030    2    1    2    0    0  0.00000000000E+00  0.00000000000E+00 -0.13174884430E+04  0.29445925613E+04  0.26334102519E+04 0.  0.
        5    1    3    3  502    0 -0.24338225628E+03  0.10688392249E+04  0.15685734357E+03  0.11073746103E+04  0.46999998093E+01 0. -1.
       -5    1    3    3    0  502  0.24338225628E+03 -0.10688392249E+04 -0.14743457865E+04  0.18372179510E+04  0.46999998093E+01 0.  1.
</event>
<event>
 5   0  0.5170532E-05  0.2568356E+04  0.7818609E-02  0.8379030E-01
       -2   -1    0    0    0  501  0.00000000000E+00  0.00000000000E+00  0.27049692312E+04  0.27049692312E+04  0.25500000920E-02 0.  1.
        2   -1    0    0  501    0  0.00000000000E+00  0.00000000000E+00 -0.60966063090E+03  0.60966063090E+03  0.25500000920E-02 0. -1.
    10030    2    1    2    0    0  0.00000000000E+00  0.00000000000E+00  0.20953086003E+04  0.33146298621E+04  0.25683560875E+04 0.  0.
        1    1    3    3  502    0  0.51278276464E+03  0.61103341476E+02  0.25650607372E+04  0.26165275400E+04  0.50400001928E-02 0.  1.
       -1    1    3    3    0  502 -0.51278276464E+03 -0.61103341476E+02 -0.46975213687E+03  0.69810232213E+03  0.50400001928E-02 0. -1.
</event>
<event>
 5   0  0.5182179E-05  0.2646100E+04  0.7818609E-02  0.8352709E-01
        2   -1    0    0  501    0  0.00000000000E+00  0.00000000000E+00  0.22965767972E+04  0.22965767972E+04  0.25500000920E-02 0.  1.
       -2   -1    0    0    0  501  0.00000000000E+00  0.00000000000E+00 -0.76220447351E+03  0.76220447352E+03  0.25500000920E-02 0. -1.
    10030    2    1    2    0    0  0.00000000000E+00  0.00000000000E+00  0.15343723237E+04  0.30587812707E+04  0.26460998535E+04 0.  0.
        3    1    3    3  502    0 -0.72579143199E+03  0.52204295505E+03  0.18945621108E+04  0.20949147122E+04  0.10100000352E+00 0.  1.
       -3    1    3    3    0  502  0.72579143199E+03 -0.52204295505E+03 -0.36018978709E+03  0.96386655850E+03  0.10100000352E+00 0. -1.
</event>
<event>
 5   0  0.2072710E-05  0.2564666E+04  0.7818609E-02  0.8380304E-01
       -1   -1    0    0    0  501  0.00000000000E+00  0.00000000000E+00  0.13630307751E+04  0.13630307751E+04  0.50400001928E-02 0.  1.
        1   -1    0    0  501    0  0.00000000000E+00  0.00000000000E+00 -0.12064124988E+04  0.12064124988E+04  0.50400001928E-02 0. -1.
    10030    2    1    2    0    0  0.00000000000E+00  0.00000000000E+00  0.15661827628E+03  0.25694432740E+04  0.25646655637E+04 0.  0.
        2    1    3    3  502    0  0.12005691499E+04  0.29573216378E+03  0.41887410555E+03  0.13054804911E+04  0.25500000920E-02 0.  1.
       -2    1    3    3    0  502 -0.12005691499E+04 -0.29573216378E+03 -0.26225582927E+03  0.12639627828E+04  0.25500000920E-02 0. -1.
</event>
<event>
 5   0  0.5182179E-05  0.2603632E+04  0.7818609E-02  0.8366969E-01
        2   -1    0    0  501    0  0.00000000000E+00  0.00000000000E+00  0.18311564484E+04  0.18311564484E+04  0.25500000920E-02 0. -1.
       -2   -1    0    0    0  501  0.00000000000E+00  0.00000000000E+00 -0.92549421286E+03  0.92549421286E+03  0.25500000920E-02 0.  1.
    10030    2    1    2    0    0  0.00000000000E+00  0.00000000000E+00  0.90566223557E+03  0.27566506613E+04  0.26036318448E+04 0.  0.
        3    1    3    3  502    0 -0.19856043489E+03 -0.11925676345E+04  0.96398949154E+03  0.15462598615E+04  0.10100000352E+00 0. -1.
       -3    1    3    3    0  502  0.19856043489E+03  0.11925676345E+04 -0.58327255975E+02  0.12103907998E+04  0.10100000352E+00 0.  1.
</event>
<event>
 5   0  0.5036452E-05  0.2719057E+04  0.7818609E-02  0.8328848E-01
       -2   -1    0    0    0  501  0.00000000000E+00  0.00000000000E+00  0.81052410919E+03  0.81052410919E+03  0.25500000920E-02 0. -1.
        2   -1    0    0  501    0  0.00000000000E+00  0.00000000000E+00 -0.22803990042E+04  0.22803990042E+04  0.25500000920E-02 0.  1.
    10030    2    1    2    0    0  0.00000000000E+00  0.00000000000E+00 -0.14698748950E+04  0.30909231134E+04  0.27190574628E+04 0.  0.
        2    1    3    3  502    0 -0.11187504636E+04  0.26203607433E+03 -0.15609916006E+04  0.19382879769E+04  0.25500000920E-02 0.  1.
       -2    1    3    3    0  502  0.11187504636E+04 -0.26203607433E+03  0.91116705617E+02  0.11526351365E+04  0.25500000920E-02 0. -1.
</event>
<event>
 5   0  0.4955675E-05  0.2662147E+04  0.7818609E-02  0.8347392E-01
       -2   -1    0    0    0  501  0.00000000000E+00  0.00000000000E+00  0.14113128019E+04  0.14113128019E+04  0.25500000920E-02 0. -1.
        2   -1    0    0  501    0  0.00000000000E+00  0.00000000000E+00 -0.12553965166E+04  0.12553965166E+04  0.25500000920E-02 0.  1.
    10030    2    1    2    0    0  0.00000000000E+00  0.00000000000E+00  0.15591628525E+03  0.26667093185E+04  0.26621473853E+04 0.  0.
        5    1    3    3  502    0  0.11701782871E+04 -0.63397322603E+03  0.55653186356E+02  0.13320505404E+04  0.46999998093E+01 0.  1.
       -5    1    3    3    0  502 -0.11701782871E+04  0.63397322603E+03  0.10026309890E+03  0.13346587781E+04  0.46999998093E+01 0. -1.
</event>
<event>
 5   0  0.1993815E-05  0.2624066E+04  0.7818609E-02  0.8360072E-01
        1   -1    0    0  501    0  0.00000000000E+00  0.00000000000E+00  0.26803054743E+04  0.26803054743E+04  0.50400001928E-02 0.  1.
       -1   -1    0    0    0  501  0.00000000000E+00  0.00000000000E+00 -0.64225183885E+03  0.64225183887E+03  0.50400001928E-02 0. -1.
    10030    2    1    2    0    0  0.00000000000E+00  0.00000000000E+00  0.20380536355E+04  0.33225573132E+04  0.26240664013E+04 0.  0.
        5    1    3    3  502    0 -0.21031684712E+03  0.12745718266E+04  0.13095400805E+04  0.18394792279E+04  0.46999998093E+01 0. -1.
       -5    1    3    3    0  502  0.21031684712E+03 -0.12745718266E+04  0.72851355493E+03  0.14830780853E+04  0.46999998093E+01 0.  1.
</event>
<event>
 5   0  0.1993815E-05  0.2583850E+04  0.7818609E-02  0.8373708E-01
       -1   -1    0    0    0  501  0.00000000000E+00  0.00000000000E+00  0.77034382436E+03  0.77034382437E+03  0.50400001928E-02 0. -1.
        1   -1    0    0  501    0  0.00000000000E+00  0.00000000000E+00 -0.21666564835E+04  0.21666564835E+04  0.50400001928E-02 0.  1.
    10030    2    1    2    0    0  0.00000000000E+00  0.00000000000E+00 -0.13963126591E+04  0.29370003079E+04  0.25838501827E+04 0.  0.
        5    1    3    3  502    0 -0.94278101985E+03 -0.95950435481E+02  0.29992398483E+03  0.99399146080E+03  0.46999998093E+01 0. -1.
       -5    1    3    3    0  502  0.94278101985E+03  0.95950435481E+02 -0.16962366440E+04  0.19430088471E+04  0.46999998093E+01 0.  1.
</event>
<event>
 5   0  0.5170532E-05  0.2599269E+04  0.7818609E-02  0.8368450E-01
        2   -1    0    0  501    0  0.00000000000E+00  0.00000000000E+00  0.17467540876E+04  0.17467540876E+04  0.25500000920E-02 0. -1.
       -2   -1    0    0    0  501  0.00000000000E+00  0.00000000000E+00 -0.96696488712E+03  0.96696488712E+03  0.25500000920E-02 0.  1.
    10030    2    1    2    0    0  0.00000000000E+00  0.00000000000E+00  0.77978920046E+03  0.27137189747E+04  0.25992690273E+04 0.  0.
        1    1    3    3  502    0  0.95489149608E+03 -0.73416990274E+03 -0.11968122293E+03  0.12104324890E+04  0.50400001928E-02 0. -1.
       -1    1    3    3    0  502 -0.95489149608E+03  0.73416990274E+03  0.89947042339E+03  0.15032864857E+04  0.50400001928E-02 0.  1.
</event>
<event>
 5   0  0.1954502E-05  0.1410579E+04  0.7818609E-02  0.8946197E-01
        1   -1    0    0  501    0  0.00000000000E+00  0.00000000000E+00  0.11879793825E+04  0.11879793825E+04  0.50400001928E-02 0.  1.
       -1   -1    0    0    0  501  0.00000000000E+00  0.00000000000E+00 -0.41872189394E+03  0.41872189397E+03  0.50400001928E-02 0. -1.
    10030    2    1    2    0    0  0.00000000000E+00  0.00000000000E+00  0.76925748858E+03  0.16067012765E+04  0.14105785721E+04 0.  0.
        4    1    3    3  502    0 -0.57597203574E+03  0.19879001380E+03 -0.19962141213E+02  0.60964034933E+03  0.12699999809E+01 0. -1.
       -4    1    3    3    0  502  0.57597203574E+03 -0.19879001380E+03  0.78921962979E+03  0.99706092717E+03  0.12699999809E+01 0.  1.
</event>
<event>
 5   0  0.5036452E-05  0.1377886E+04  0.7818609E-02  0.8969983E-01
        2   -1    0    0  501    0  0.00000000000E+00  0.00000000000E+00  0.88661089518E+03  0.88661089519E+03  0.25500000920E-02 0.  1.
       -2   -1    0    0    0  501  0.00000000000E+00  0.00000000000E+00 -0.53534483984E+03  0.53534483985E+03  0.25500000920E-02 0. -1.
    10030    2    1    2    0    0  0.00000000000E+00  0.00000000000E+00  0.35126605534E+03  0.14219557350E+04  0.13778861603E+04 0.  0.
        2    1    3    3  502    0  0.20625506131E+03 -0.15065060250E+03 -0.48467981132E+03  0.54786063361E+03  0.25500000920E-02 0. -1.
       -2    1    3    3    0  502 -0.20625506131E+03  0.15065060250E+03  0.83594586666E+03  0.87409510143E+03  0.25500000920E-02 0.  1.
</event>
<event>
 5   0  0.2163800E-05  0.2688387E+04  0.7818609E-02  0.8338783E-01
       -1   -1    0    0    0  501  0.00000000000E+00  0.00000000000E+00  0.10029260882E+04  0.10029260882E+04  0.50400001928E-02 0.  1.
        1   -1    0    0  501    0  0.00000000000E+00  0.00000000000E+00 -0.18015842357E+04  0.18015842357E+04  0.50400001928E-02 0. -1.
    10030    2    1    2    0    0  0.00000000000E+00  0.00000000000E+00 -0.79865814749E+03  0.28045103240E+04  0.26883867506E+04 0.  0.
        1    1    3    3  502    0  0.12401030094E+04  0.50805170498E+03 -0.50816092048E+03  0.14332478955E+04  0.50400001928E-02 0. -1.
       -1    1    3    3    0  502 -0.12401030094E+04 -0.50805170498E+03 -0.29049722701E+03  0.13712624285E+04  0.50400001928E-02 0.  1.
</event>
<event>
 5   0  0.5049803E-05  0.2601346E+04  0.7818609E-02  0.8367744E-01
        2   -1    0    0  501    0  0.00000000000E+00  0.00000000000E+00  0.23595447619E+04  0.23595447619E+04  0.25500000920E-02 0.  1.
       -2   -1    0    0    0  501  0.00000000000E+00  0.00000000000E+00 -0.71698161956E+03  0.71698161956E+03  0.25500000920E-02 0. -1.
    10030    2    1    2    0    0  0.00000000000E+00  0.00000000000E+00  0.16425631424E+04  0.30765263815E+04  0.26013459784E+04 0.  0.
        4    1    3    3  502    0  0.95837770104E+03 -0.23785434177E+03  0.18224958141E+04  0.20728133324E+04  0.12699999809E+01 0.  1.
       -4    1    3    3    0  502 -0.95837770104E+03  0.23785434177E+03 -0.17993267167E+03  0.10037130491E+04  0.12699999809E+01 0. -1.
</event>
<event>
 5   0  0.1954502E-05  0.2605094E+04  0.7818609E-02  0.8366473E-01
        1   -1    0    0  501    0  0.00000000000E+00  0.00000000000E+00  0.12241643456E+04  0.12241643456E+04  0.50400001928E-02 0.  1.
       -1   -1    0    0    0  501  0.00000000000E+00  0.00000000000E+00 -0.13859488876E+04  0.13859488876E+04  0.50400001928E-02 0. -1.
    10030    2    1    2    0    0  0.00000000000E+00  0.00000000000E+00 -0.16178454203E+03  0.26101132332E+04  0.26050944037E+04 0.  0.
        4    1    3    3  502    0  0.49656809451E+02 -0.11463437936E+04 -0.69856816891E+03  0.13433424699E+04  0.12699999809E+01 0. -1.
       -4    1    3    3    0  502 -0.49656809451E+02  0.11463437936E+04  0.53678362688E+03  0.12667707633E+04  0.12699999809E+01 0.  1.
</event>
<event>
 5   0  0.2072710E-05  0.2544185E+04  0.7818609E-02  0.8387411E-01
       -1   -1    0    0    0  501  0.00000000000E+00  0.00000000000E+00  0.11939319761E+04  0.11939319761E+04  0.50400001928E-02 0. -1.
        1   -1    0    0  501    0  0.00000000000E+00  0.00000000000E+00 -0.13553694577E+04  0.13553694577E+04  0.50400001928E-02 0.  1.
    10030    2    1    2    0    0  0.00000000000E+00  0.00000000000E+00 -0.16143748164E+03  0.25493014338E+04  0.25441846906E+04 0.  0.
        2    1    3    3  502    0  0.69767795245E+03 -0.29848326275E+03 -0.11037383429E+04  0.13394346244E+04  0.25500000920E-02 0.  1.
       -2    1    3    3    0  502 -0.69767795245E+03  0.29848326275E+03  0.94230086123E+03  0.12098668094E+04  0.25500000920E-02 0. -1.
</event>
<event>
 5   0  0.1954502E-05  0.1485629E+04  0.7818609E-02  0.8894066E-01
        1   -1    0    0  501    0  0.00000000000E+00  0.00000000000E+00  0.42383935991E+03  0.42383935994E+03  0.50400001928E-02 0.  1.
       -1   -1    0    0    0  501  0.00000000000E+00  0.00000000000E+00 -0.13018461066E+04  0.13018461066E+04  0.50400001928E-02 0. -1.
    10030    2    1    2    0    0  0.00000000000E+00  0.00000000000E+00 -0.87800674665E+03  0.17256854665E+04  0.14856293219E+04 0.  0.
        4    1    3    3  502    0 -0.35240009745E+03 -0.60648284417E+03 -0.72297417763E+03  0.10073234552E+04  0.12699999809E+01 0. -1.
       -4    1    3    3    0  502  0.35240009745E+03  0.60648284417E+03 -0.15503256902E+03  0.71836201132E+03  0.12699999809E+01 0.  1.
</event>
<event>
 5   0  0.1993815E-05  0.2600861E+04  0.7818609E-02  0.8367909E-01
        1   -1    0    0  501    0  0.00000000000E+00  0.00000000000E+00  0.25409818704E+04  0.25409818704E+04  0.50400001928E-02 0. -1.
       -1   -1    0    0    0  501  0.00000000000E+00  0.00000000000E+00 -0.66553765653E+03  0.66553765655E+03  0.50400001928E-02 0.  1.
    10030    2    1    2    0    0  0.00000000000E+00  0.00000000000E+00  0.18754442138E+04  0.32065195269E+04  0.26008607186E+04 0.  0.
        5    1    3    3  502    0 -0.71752373400E+03  0.49141800383E+02  0.22734610243E+04  0.23845130204E+04  0.46999998093E+01 0. -1.
       -5    1    3    3    0  502  0.71752373400E+03 -0.49141800383E+02 -0.39801681045E+03  0.82200650654E+03  0.46999998093E+01 0.  1.
</event>
<event>
 5   0  0.5170532E-05  0.2591346E+04  0.7818609E-02  0.8371147E-01
       -2   -1    0    0    0  501  0.00000000000E+00  0.00000000000E+00  0.67650498214E+03  0.67650498215E+03  0.25500000920E-02 0. -1.
        2   -1    0    0  501    0  0.00000000000E+00  0.00000000000E+00 -0.24815318391E+04  0.24815318391E+04  0.25500000920E-02 0.  1.
    10030    2    1    2    0    0  0.00000000000E+00  0.00000000000E+00 -0.18050268569E+04  0.31580368212E+04  0.25913461000E+04 0.  0.
        1    1    3    3  502    0 -0.12775686139E+04  0.84651843480E+02 -0.66054626225E+03  0.14407181759E+04  0.50400001928E-02 0. -1.
       -1    1    3    3    0  502  0.12775686139E+04 -0.84651843480E+02 -0.11444805947E+04  0.17173186453E+04  0.50400001928E-02 0.  1.
</event>
<event>
 5   0  0.1993815E-05  0.2398240E+04  0.7818609E-02  0.8440163E-01
       -1   -1    0    0    0  501  0.00000000000E+00  0.00000000000E+00  0.86368305294E+03  0.86368305295E+03  0.50400001928E-02 0.  1.
        1   -1    0    0  501    0  0.00000000000E+00  0.00000000000E+00 -0.16648331865E+04  0.16648331865E+04  0.50400001928E-02 0. -1.
    10030    2    1    2    0    0  0.00000000000E+00  0.00000000000E+00 -0.80115013360E+03  0.25285162395E+04  0.23982395287E+04 0.  0.
        5    1    3    3  502    0  0.98717770784E+03  0.39625792342E+03  0.18295748158E+03  0.10793681943E+04  0.46999998093E+01 0. -1.
       -5    1    3    3    0  502 -0.98717770784E+03 -0.39625792342E+03 -0.98410761518E+03  0.14491480452E+04  0.46999998093E+01 0.  1.
</event>
<event>
 5   0  0.5170532E-05  0.2437852E+04  0.7818609E-02  0.8425467E-01
       -2   -1    0    0    0  501  0.00000000000E+00  0.00000000000E+00  0.65784847902E+03  0.65784847902E+03  0.25500000920E-02 0. -1.
        2   -1    0    0  501    0  0.00000000000E+00  0.00000000000E+00 -0.22585461130E+04  0.22585461130E+04  0.25500000920E-02 0.  1.
    10030    2    1    2    0    0  0.00000000000E+00  0.00000000000E+00 -0.16006976340E+04  0.29163945920E+04  0.24378524363E+04 0.  0.
        1    1    3    3  502    0 -0.19739304114E+03 -0.11975400333E+04 -0.93524408956E+03  0.15322361604E+04  0.50400001928E-02 0. -1.
       -1    1    3    3    0  502  0.19739304114E+03  0.11975400333E+04 -0.66545354441E+03  0.13841584316E+04  0.50400001928E-02 0.  1.
</event>
<event>
 5   0  0.2159405E-05  0.2583867E+04  0.7818609E-02  0.8373702E-01
        1   -1    0    0  501    0  0.00000000000E+00  0.00000000000E+00  0.11719369031E+04  0.11719369031E+04  0.50400001928E-02 0. -1.
       -1   -1    0    0    0  501  0.00000000000E+00  0.00000000000E+00 -0.14242168453E+04  0.14242168453E+04  0.50400001928E-02 0.  1.
    10030    2    1    2    0    0  0.00000000000E+00  0.00000000000E+00 -0.25227994221E+03  0.25961537485E+04  0.25838670857E+04 0.  0.
        3    1    3    3  502    0  0.15006997430E+03 -0.97313810837E+03 -0.96652230017E+03  0.13797406068E+04  0.10100000352E+00 0.  1.
       -3    1    3    3    0  502 -0.15006997430E+03  0.97313810837E+03  0.71424235795E+03  0.12164131417E+04  0.10100000352E+00 0. -1.
</event>
<event>
 5   0  0.1993815E-05  0.2750752E+04  0.7818609E-02  0.8318723E-01
       -1   -1    0    0    0  501  0.00000000000E+00  0.00000000000E+00  0.11214826493E+04  0.11214826493E+04  0.50400001928E-02 0.  1.
        1   -1    0    0  501    0  0.00000000000E+00  0.00000000000E+00 -0.16867480376E+04  0.16867480376E+04  0.50400001928E-02 0. -1.
    10030    2    1    2    0    0  0.00000000000E+00  0.00000000000E+00 -0.56526538826E+03  0.28082306870E+04  0.27507516485E+04 0.  0.
        5    1    3    3  502    0 -0.11222577334E+04  0.26382064768E+03 -0.10483540672E+04  0.15582464807E+04  0.46999998093E+01 0. -1.
       -5    1    3    3    0  502  0.11222577334E+04 -0.26382064768E+03  0.48308867893E+03  0.12499842063E+04  0.46999998093E+01 0.  1.
</event>
<event>
 5   0  0.5049803E-05  0.2077896E+04  0.7818609E-02  0.8571043E-01
        2   -1    0    0  501    0  0.00000000000E+00  0.00000000000E+00  0.12374385575E+04  0.12374385575E+04  0.25500000920E-02 0. -1.
       -2   -1    0    0    0  501  0.00000000000E+00  0.00000000000E+00 -0.87229648149E+03  0.87229648149E+03  0.25500000920E-02 0.  1.
    10030    2    1    2    0    0  0.00000000000E+00  0.00000000000E+00  0.36514207598E+03  0.21097350390E+04  0.20778963398E+04 0.  0.
        4    1    3    3  502    0  0.23406982213E+03  0.88822302001E+03  0.67548151411E+03  0.11401779263E+04  0.12699999809E+01 0. -1.
       -4    1    3    3    0  502 -0.23406982213E+03 -0.88822302001E+03 -0.31033943813E+03  0.96955711263E+03  0.12699999809E+01 0.  1.
</event>
<event>
 5   0  0.5036452E-05  0.2389133E+04  0.7818609E-02  0.8443583E-01
        2   -1    0    0  501    0  0.00000000000E+00  0.00000000000E+00  0.21659830625E+04  0.21659830625E+04  0.25500000920E-02 0. -1.
       -2   -1    0    0    0  501  0.00000000000E+00  0.00000000000E+00 -0.65881838544E+03  0.65881838544E+03  0.25500000920E-02 0.  1.
    10030    2    1    2    0    0  0.00000000000E+00  0.00000000000E+00  0.15071646770E+04  0.28248014479E+04  0.23891332856E+04 0.  0.
        2    1    3    3  502    0 -0.49665972020E+03 -0.72016768983E+03  0.17153509417E+04  0.19255495923E+04  0.25500000920E-02 0. -1.
       -2    1    3    3    0  502  0.49665972020E+03  0.72016768983E+03 -0.20818626462E+03  0.89925185567E+03  0.25500000920E-02 0.  1.
</event>
<event>
 5   0  0.1954502E-05  0.2683584E+04  0.7818609E-02  0.8340351E-01
       -1   -1    0    0    0  501  0.00000000000E+00  0.00000000000E+00  0.13682872974E+04  0.13682872974E+04  0.50400001928E-02 0.  1.
        1   -1    0    0  501    0  0.00000000000E+00  0.00000000000E+00 -0.13158096378E+04  0.13158096378E+04  0.50400001928E-02 0. -1.
    10030    2    1    2    0    0  0.00000000000E+00  0.00000000000E+00  0.52477659586E+02  0.26840969352E+04  0.26835838822E+04 0.  0.
        4    1    3    3  502    0  0.11309031420E+04  0.52334507492E+03  0.52390004788E+03  0.13517784053E+04  0.12699999809E+01 0.  1.
       -4    1    3    3    0  502 -0.11309031420E+04 -0.52334507492E+03 -0.47142238829E+03  0.13323185299E+04  0.12699999809E+01 0. -1.
</event>
<event>
 5   0  0.4955675E-05  0.2558517E+04  0.7818609E-02  0.8382430E-01
       -2   -1    0    0    0  501  0.00000000000E+00  0.00000000000E+00  0.71252907842E+03  0.71252907842E+03  0.25500000920E-02 0.  1.
        2   -1    0    0  501    0  0.00000000000E+00  0.00000000000E+00 -0.22967518028E+04  0.22967518028E+04  0.25500000920E-02 0. -1.
    10030    2    1    2    0    0  0.00000000000E+00  0.00000000000E+00 -0.15842227244E+04  0.30092808812E+04  0.25585171060E+04 0.  0.
        5    1    3    3  502    0  0.63453384248E+03 -0.67798745724E+03 -0.18270042954E+04  0.20494552873E+04  0.46999998093E+01 0. -1.
       -5    1    3    3    0  502 -0.63453384248E+03  0.67798745724E+03  0.24278157102E+03  0.95982559387E+03  0.46999998093E+01 0.  1.
</event>
<event>
 5   0  0.2163800E-05  0.2768921E+04  0.7818609E-02  0.8312983E-01
        1   -1    0    0  501    0  0.00000000000E+00  0.00000000000E+00  0.27989248405E+04  0.27989248405E+04  0.50400001928E-02 0.  1.
       -1   -1    0    0    0  501  0.00000000000E+00  0.00000000000E+00 -0.68480945974E+03  0.68480945976E+03  0.50400001928E-02 0. -1.
    10030    2    1    2    0    0  0.00000000000E+00  0.00000000000E+00  0.21141153808E+04  0.34837343003E+04  0.27689205174E+04 0.  0.
        1    1    3    3  502    0 -0.69075352591E+03 -0.53182865672E+03 -0.29611718002E+03  0.92068862163E+03  0.50400001928E-02 0. -1.
       -1    1    3    3    0  502  0.69075352591E+03  0.53182865672E+03  0.24102325608E+04  0.25630456787E+04  0.50400001928E-02 0.  1.
</event>
<event>
 5   0  0.5049803E-05  0.2508885E+04  0.7818609E-02  0.8399827E-01
       -2   -1    0    0    0  501  0.00000000000E+00  0.00000000000E+00  0.87517641273E+03  0.87517641274E+03  0.25500000920E-02 0. -1.
        2   -1    0    0  501    0  0.00000000000E+00  0.00000000000E+00 -0.17980666129E+04  0.17980666129E+04  0.25500000920E-02 0.  1.
    10030    2    1    2    0    0  0.00000000000E+00  0.00000000000E+00 -0.92289020014E+03  0.26732430256E+04  0.25088846033E+04 0.  0.
        4    1    3    3  502    0  0.83329314885E+03  0.58638738582E+03 -0.12410874348E+04  0.16057793348E+04  0.12699999809E+01 0.  1.
       -4    1    3    3    0  502 -0.83329314885E+03 -0.58638738582E+03  0.31819723471E+03  0.10674636908E+04  0.12699999809E+01 0. -1.
</event>
<event>
 5   0  0.1954502E-05  0.2594073E+04  0.7818609E-02  0.8370217E-01
        1   -1    0    0  501    0  0.00000000000E+00  0.00000000000E+00  0.13472630994E+04  0.13472630994E+04  0.50400001928E-02 0.  1.
       -1   -1    0    0    0  501  0.00000000000E+00  0.00000000000E+00 -0.12486825134E+04  0.12486825134E+04  0.50400001928E-02 0. -1.
    10030    2    1    2    0    0  0.00000000000E+00  0.00000000000E+00  0.98580585975E+02  0.25959456128E+04  0.25940731472E+04 0.  0.
        4    1    3    3  502    0 -0.60338723616E+02  0.37310020886E+03  0.12909347557E+04  0.13451240403E+04  0.12699999809E+01 0.  1.
       -4    1    3    3    0  502  0.60338723616E+02 -0.37310020886E+03 -0.11923541697E+04  0.12508215726E+04  0.12699999809E+01 0. -1.
</event>
<event>
 5   0  0.2072710E-05  0.2588356E+04  0.7818609E-02  0.8372167E-01
       -1   -1    0    0    0  501  0.00000000000E+00  0.00000000000E+00  0.97218904377E+03  0.97218904378E+03  0.50400001928E-02 0.  1.
        1   -1    0    0  501    0  0.00000000000E+00  0.00000000000E+00 -0.17228096425E+04  0.17228096425E+04  0.50400001928E-02 0. -1.
    10030    2    1    2    0    0  0.00000000000E+00  0.00000000000E+00 -0.75062059869E+03  0.26949986862E+04  0.25883559716E+04 0.  0.
        2    1    3    3  502    0 -0.81048489036E+03  0.75271706027E+03  0.32425581693E+03  0.11526537056E+04  0.25500000920E-02 0.  1.
       -2    1    3    3    0  502  0.81048489036E+03 -0.75271706027E+03 -0.10748764156E+04  0.15423449806E+04  0.25500000920E-02 0. -1.
</event>
<event>
 5   0  0.5036452E-05  0.2377021E+04  0.7818609E-02  0.8448157E-01
       -2   -1    0    0    0  501  0.00000000000E+00  0.00000000000E+00  0.60485405766E+03  0.60485405766E+03  0.25500000920E-02 0.  1.
        2   -1    0    0  501    0  0.00000000000E+00  0.00000000000E+00 -0.23353682114E+04  0.23353682114E+04  0.25500000920E-02 0. -1.
    10030    2    1    2    0    0  0.00000000000E+00  0.00000000000E+00 -0.17305141537E+04  0.29402222690E+04  0.23770207730E+04 0.  0.
        2    1    3    3  502    0  0.29102633534E+03  0.73491427744E+02  0.55719746313E+03  0.63290309743E+03  0.25500000920E-02 0.  1.
       -2    1    3    3    0  502 -0.29102633534E+03 -0.73491427744E+02 -0.22877116168E+04  0.23073191716E+04  0.25500000920E-02 0. -1.
</event>
<event>
 5   0  0.1993815E-05  0.2600797E+04  0.7818609E-02  0.8367930E-01
        1   -1    0    0  501    0  0.00000000000E+00  0.00000000000E+00  0.73183737440E+03  0.73183737441E+03  0.50400001928E-02 0. -1.
       -1   -1    0    0    0  501  0.00000000000E+00  0.00000000000E+00 -0.23106726714E+04  0.23106726714E+04  0.50400001928E-02 0.  1.
    10030    2    1    2    0    0  0.00000000000E+00  0.00000000000E+00 -0.15788352970E+04  0.30425100458E+04  0.26007972785E+04 0.  0.
        5    1    3    3  502    0  0.11242218441E+04 -0.61849198868E+03 -0.10364928453E+04  0.16494685821E+04  0.46999998093E+01 0.  1.
       -5    1    3    3    0  502 -0.11242218441E+04  0.61849198868E+03 -0.54234245163E+03  0.13930414637E+04  0.46999998093E+01 0. -1.
</event>
<event>
 5   0  0.2163800E-05  0.2642190E+04  0.7818609E-02  0.8354010E-01
        1   -1    0    0  501    0  0.00000000000E+00  0.00000000000E+00  0.14436137809E+04  0.14436137809E+04  0.50400001928E-02 0. -1.
       -1   -1    0    0    0  501  0.00000000000E+00  0.00000000000E+00 -0.12089746113E+04  0.12089746113E+04  0.50400001928E-02 0.  1.
    10030    2    1    2    0    0  0.00000000000E+00  0.00000000000E+00  0.23463916956E+03  0.26525883922E+04  0.26421903108E+04 0.  0.
        1    1    3    3  502    0 -0.73809457076E+02  0.10969075760E+03 -0.12023161774E+04  0.12095635943E+04  0.50400001928E-02 0.  1.
       -1    1    3    3    0  502  0.73809457076E+02 -0.10969075760E+03  0.14369553469E+04  0.14430247979E+04  0.50400001928E-02 0. -1.
</event>
<event>
 5   0  0.1993815E-05  0.1412310E+04  0.7818609E-02  0.8944956E-01
        1   -1    0    0  501    0  0.00000000000E+00  0.00000000000E+00  0.97211107937E+03  0.97211107938E+03  0.50400001928E-02 0.  1.
       -1   -1    0    0    0  501  0.00000000000E+00  0.00000000000E+00 -0.51296074600E+03  0.51296074603E+03  0.50400001928E-02 0. -1.
    10030    2    1    2    0    0  0.00000000000E+00  0.00000000000E+00  0.45915033337E+03  0.14850718254E+04  0.14123099157E+04 0.  0.
        5    1    3    3  502    0  0.66598323204E+03 -0.11944856341E+03  0.17097620177E+02  0.67684270202E+03  0.46999998093E+01 0.  1.
       -5    1    3    3    0  502 -0.66598323204E+03  0.11944856341E+03  0.44205271319E+03  0.80822912339E+03  0.46999998093E+01 0. -1.
</event>
<event>
 5   0  0.5036452E-05  0.2607448E+04  0.7818609E-02  0.8365676E-01
        2   -1    0    0  501    0  0.00000000000E+00  0.00000000000E+00  0.25227351065E+04  0.25227351065E+04  0.25500000920E-02 0.  1.
       -2   -1    0    0    0  501  0.00000000000E+00  0.00000000000E+00 -0.67375114017E+03  0.67375114017E+03  0.25500000920E-02 0. -1.
    10030    2    1    2    0    0  0.00000000000E+00  0.00000000000E+00  0.18489839663E+04  0.31964862466E+04  0.26074475292E+04 0.  0.
        2    1    3    3  502    0  0.76632423162E+03  0.62269700822E+03  0.19680912732E+04  0.22019054593E+04  0.25500000920E-02 0.  1.
       -2    1    3    3    0  502 -0.76632423162E+03 -0.62269700822E+03 -0.11910730689E+03  0.99458078735E+03  0.25500000920E-02 0. -1.
</event>
<event>
 5   0  0.5036452E-05  0.2146616E+04  0.7818609E-02  0.8540982E-01
       -2   -1    0    0    0  501  0.00000000000E+00  0.00000000000E+00  0.12064024464E+04  0.12064024464E+04  0.25500000920E-02 0.  1.
        2   -1    0    0  501    0  0.00000000000E+00  0.00000000000E+00 -0.95489659317E+03  0.95489659317E+03  0.25500000920E-02 0. -1.
    10030    2    1    2    0    0  0.00000000000E+00  0.00000000000E+00  0.25150585321E+03  0.21612990396E+04  0.21466155557E+04 0.  0.
        2    1    3    3  502    0 -0.44881176314E+03  0.95570510388E+03 -0.68401133449E+02  0.10580562175E+04  0.25500000920E-02 0. -1.
       -2    1    3    3    0  502  0.44881176314E+03 -0.95570510388E+03  0.31990698666E+03  0.11032428221E+04  0.25500000920E-02 0.  1.
</event>
<event>
 5   0  0.2163800E-05  0.1430588E+04  0.7818609E-02  0.8931970E-01
        1   -1    0    0  501    0  0.00000000000E+00  0.00000000000E+00  0.24093992054E+04  0.24093992054E+04  0.50400001928E-02 0. -1.
       -1   -1    0    0    0  501  0.00000000000E+00  0.00000000000E+00 -0.21235396125E+03  0.21235396131E+03  0.50400001928E-02 0.  1.
    10030    2    1    2    0    0  0.00000000000E+00  0.00000000000E+00  0.21970452441E+04  0.26217531667E+04  0.14305879429E+04 0.  0.
        1    1    3    3  502    0 -0.59637394599E+03  0.38997613452E+03  0.98404204368E+03  0.12149411561E+04  0.50400001928E-02 0.  1.
       -1    1    3    3    0  502  0.59637394599E+03 -0.38997613452E+03  0.12130032005E+04  0.14068120107E+04  0.50400001928E-02 0. -1.
</event>
<event>
 5   0  0.5182179E-05  0.2641909E+04  0.7818609E-02  0.8354103E-01
       -2   -1    0    0    0  501  0.00000000000E+00  0.00000000000E+00  0.13144496311E+04  0.13144496311E+04  0.25500000920E-02 0. -1.
        2   -1    0    0  501    0  0.00000000000E+00  0.00000000000E+00 -0.13274914004E+04  0.13274914004E+04  0.25500000920E-02 0.  1.
    10030    2    1    2    0    0  0.00000000000E+00  0.00000000000E+00 -0.13041769375E+02  0.26419410315E+04  0.26419088414E+04 0.  0.
        3    1    3    3  502    0  0.36966883489E+03  0.19058970171E+03  0.12472651401E+04  0.13147812829E+04  0.10100000352E+00 0. -1.
       -3    1    3    3    0  502 -0.36966883489E+03 -0.19058970171E+03 -0.12603069095E+04  0.13271597486E+04  0.10100000352E+00 0.  1.
</event>
<event>
 5   0  0.5182179E-05  0.2597082E+04  0.7818609E-02  0.8369193E-01
        2   -1    0    0  501    0  0.00000000000E+00  0.00000000000E+00  0.17208936408E+04  0.17208936408E+04  0.25500000920E-02 0.  1.
       -2   -1    0    0    0  501  0.00000000000E+00  0.00000000000E+00 -0.97984470702E+03  0.97984470702E+03  0.25500000920E-02 0. -1.
    10030    2    1    2    0    0  0.00000000000E+00  0.00000000000E+00  0.74104893375E+03  0.27007383478E+04  0.25970818433E+04 0.  0.
        3    1    3    3  502    0  0.34653431889E+03 -0.78656382164E+03  0.13827392958E+04  0.16281083041E+04  0.10100000352E+00 0.  1.
       -3    1    3    3    0  502 -0.34653431889E+03  0.78656382164E+03 -0.64169036201E+03  0.10726300437E+04  0.10100000352E+00 0. -1.
</event>
<event>
 5   0  0.5049803E-05  0.2936445E+04  0.7818609E-02  0.8262116E-01
        2   -1    0    0  501    0  0.00000000000E+00  0.00000000000E+00  0.12279083359E+04  0.12279083359E+04  0.25500000920E-02 0.  1.
       -2   -1    0    0    0  501  0.00000000000E+00  0.00000000000E+00 -0.17555691420E+04  0.17555691420E+04  0.25500000920E-02 0. -1.
    10030    2    1    2    0    0  0.00000000000E+00  0.00000000000E+00 -0.52766080616E+03  0.29834774779E+04  0.29364454592E+04 0.  0.
        4    1    3    3  502    0  0.63504202280E+03  0.60688140585E+03 -0.14591483899E+04  0.17031438718E+04  0.12699999809E+01 0. -1.
       -4    1    3    3    0  502 -0.63504202280E+03 -0.60688140585E+03  0.93148758370E+03  0.12803336061E+04  0.12699999809E+01 0.  1.
</event>
<event>
 5   0  0.1954502E-05  0.2599336E+04  0.7818609E-02  0.8368427E-01
       -1   -1    0    0    0  501  0.00000000000E+00  0.00000000000E+00  0.98811340365E+03  0.98811340367E+03  0.50400001928E-02 0.  1.
        1   -1    0    0  501    0  0.00000000000E+00  0.00000000000E+00 -0.17094560368E+04  0.17094560368E+04  0.50400001928E-02 0. -1.
    10030    2    1    2    0    0  0.00000000000E+00  0.00000000000E+00 -0.72134263316E+03  0.26975694405E+04  0.25993356251E+04 0.  0.
        4    1    3    3  502    0  0.16788329239E+02 -0.12823050314E+04 -0.57970876718E+03  0.14073563548E+04  0.12699999809E+01 0. -1.
       -4    1    3    3    0  502 -0.16788329239E+02  0.12823050314E+04 -0.14163386598E+03  0.12902130857E+04  0.12699999809E+01 0.  1.
</event>
<event>
 5   0  0.1954502E-05  0.2604341E+04  0.7818609E-02  0.8366728E-01
       -1   -1    0    0    0  501  0.00000000000E+00  0.00000000000E+00  0.11230625239E+04  0.11230625240E+04  0.50400001928E-02 0.  1.
        1   -1    0    0  501    0  0.00000000000E+00  0.00000000000E+00 -0.15098431476E+04  0.15098431476E+04  0.50400001928E-02 0. -1.
    10030    2    1    2    0    0  0.00000000000E+00  0.00000000000E+00 -0.38678062365E+03  0.26329056716E+04  0.26043411882E+04 0.  0.
        4    1    3    3  502    0  0.76708789917E+03  0.55832507127E+03 -0.10950785339E+04  0.14489131577E+04  0.12699999809E+01 0. -1.
       -4    1    3    3    0  502 -0.76708789917E+03 -0.55832507127E+03  0.70829791025E+03  0.11839925138E+04  0.12699999809E+01 0.  1.
</event>
<event>
 5   0  0.4955675E-05  0.2798405E+04  0.7818609E-02  0.8303764E-01
       -2   -1    0    0    0  501  0.00000000000E+00  0.00000000000E+00  0.14858348607E+04  0.14858348607E+04  0.25500000920E-02 0. -1.
        2   -1    0    0  501    0  0.00000000000E+00  0.00000000000E+00 -0.13176213219E+04  0.13176213219E+04  0.25500000920E-02 0.  1.
    10030    2    1    2    0    0  0.00000000000E+00  0.00000000000E+00  0.16821353884E+03  0.28034561826E+04  0.27984050409E+04 0.  0.
        5    1    3    3  502    0 -0.31070316865E+03 -0.14596564822E+03  0.14429854416E+04  0.14832638013E+04  0.46999998093E+01 0. -1.
       -5    1    3    3    0  502  0.31070316865E+03  0.14596564822E+03 -0.12747719028E+04  0.13201923813E+04  0.46999998093E+01 0.  1.
</event>
<event>
 5   0  0.1954502E-05  0.2645739E+04  0.7818609E-02  0.8352829E-01
       -1   -1    0    0    0  501  0.00000000000E+00  0.00000000000E+00  0.21180291555E+04  0.21180291555E+04  0.50400001928E-02 0.  1.
        1   -1    0    0  501    0  0.00000000000E+00  0.00000000000E+00 -0.82623181756E+03  0.82623181757E+03  0.50400001928E-02 0. -1.
    10030    2    1    2    0    0  0.00000000000E+00  0.00000000000E+00  0.12917973379E+04  0.29442609730E+04  0.26457385198E+04 0.  0.
        4    1    3    3  502    0 -0.88132993086E+03 -0.22916077377E+03 -0.42191185909E+03  0.10036275888E+04  0.12699999809E+01 0. -1.
       -4    1    3    3    0  502  0.88132993086E+03  0.22916077377E+03  0.17137091970E+04  0.19406333842E+04  0.12699999809E+01 0.  1.
</event>
<event>
 5   0  0.5182179E-05  0.2546018E+04  0.7818609E-02  0.8386772E-01
       -2   -1    0    0    0  501  0.00000000000E+00  0.00000000000E+00  0.14584112682E+04  0.14584112682E+04  0.25500000920E-02 0.  1.
        2   -1    0    0  501    0  0.00000000000E+00  0.00000000000E+00 -0.11111765873E+04  0.11111765873E+04  0.25500000920E-02 0. -1.
    10030    2    1    2    0    0  0.00000000000E+00  0.00000000000E+00  0.34723468091E+03  0.25695878555E+04  0.25460184256E+04 0.  0.
        3    1    3    3  502    0 -0.15282584824E+03  0.93778713022E+03  0.10286626631E+04  0.14003382899E+04  0.10100000352E+00 0.  1.
       -3    1    3    3    0  502  0.15282584824E+03 -0.93778713022E+03 -0.68142798219E+03  0.11692495656E+04  0.10100000352E+00 0. -1.
</event>
<event>
 5   0  0.4955675E-05  0.2539951E+04  0.7818609E-02  0.8388890E-01
        2   -1    0    0  501    0  0.00000000000E+00  0.00000000000E+00  0.15651582790E+04  0.15651582790E+04  0.25500000920E-02 0. -1.
       -2   -1    0    0    0  501  0.00000000000E+00  0.00000000000E+00 -0.10304626543E+04  0.10304626543E+04  0.25500000920E-02 0.  1.
    10030    2    1    2    0    0  0.00000000000E+00  0.00000000000E+00  0.53469562472E+03  0.25956209333E+04  0.25399505149E+04 0.  0.
        5    1    3    3  502    0  0.11153308384E+04  0.57470702707E+03  0.46802922714E+03  0.13391506612E+04  0.46999998093E+01 0.  1.
       -5    1    3    3    0  502 -0.11153308384E+04 -0.57470702707E+03  0.66666397581E+02  0.12564702720E+04  0.46999998093E+01 0. -1.
</event>
<event>
 5   0  0.1954502E-05  0.1971609E+04  0.7818609E-02  0.8620010E-01
        1   -1    0    0  501    0  0.00000000000E+00  0.00000000000E+00  0.19536798821E+04  0.19536798821E+04  0.50400001928E-02 0. -1.
       -1   -1    0    0    0  501  0.00000000000E+00  0.00000000000E+00 -0.49742589463E+03  0.49742589466E+03  0.50400001928E-02 0.  1.
    10030    2    1    2    0    0  0.00000000000E+00  0.00000000000E+00  0.14562539875E+04  0.24511057768E+04  0.19716094575E+04 0.  0.
        4    1    3    3  502    0  0.65638313676E+03  0.32330855958E+03  0.15494320204E+04  0.17135076439E+04  0.12699999809E+01 0. -1.
       -4    1    3    3    0  502 -0.65638313676E+03 -0.32330855958E+03 -0.93178032918E+02  0.73759813289E+03  0.12699999809E+01 0.  1.
</event>
<event>
 5   0  0.2159405E-05  0.2620476E+04  0.7818609E-02  0.8361279E-01
       -1   -1    0    0    0  501  0.00000000000E+00  0.00000000000E+00  0.83640599363E+03  0.83640599365E+03  0.50400001928E-02 0. -1.
        1   -1    0    0  501    0  0.00000000000E+00  0.00000000000E+00 -0.20525005447E+04  0.20525005447E+04  0.50400001928E-02 0.  1.
    10030    2    1    2    0    0  0.00000000000E+00  0.00000000000E+00 -0.12160945511E+04  0.28889065384E+04  0.26204761076E+04 0.  0.
        3    1    3    3  502    0 -0.89551592774E+02 -0.88785680805E+03 -0.16657047057E+04  0.18896775853E+04  0.10100000352E+00 0.  1.
       -3    1    3    3    0  502  0.89551592774E+02  0.88785680805E+03  0.44961015465E+03  0.99922895311E+03  0.10100000352E+00 0. -1.
</event>
<event>
 5   0  0.1954502E-05  0.2046682E+04  0.7818609E-02  0.8585101E-01
       -1   -1    0    0    0  501  0.00000000000E+00  0.00000000000E+00  0.48908845510E+03  0.48908845513E+03  0.50400001928E-02 0.  1.
        1   -1    0    0  501    0  0.00000000000E+00  0.00000000000E+00 -0.21411812520E+04  0.21411812520E+04  0.50400001928E-02 0. -1.
    10030    2    1    2    0    0  0.00000000000E+00  0.00000000000E+00 -0.16520927969E+04  0.26302697071E+04  0.20466822232E+04 0.  0.
        4    1    3    3  502    0  0.94904003718E+03 -0.68088607343E+01 -0.33415215634E+03  0.10061722662E+04  0.12699999809E+01 0.  1.
       -4    1    3    3    0  502 -0.94904003718E+03  0.68088607343E+01 -0.13179406406E+04  0.16240974409E+04  0.12699999809E+01 0. -1.
</event>
<event>
 5   0  0.4955675E-05  0.2619593E+04  0.7818609E-02  0.8361576E-01
        2   -1    0    0  501    0  0.00000000000E+00  0.00000000000E+00  0.21441768648E+04  0.21441768648E+04  0.25500000920E-02 0. -1.
       -2   -1    0    0    0  501  0.00000000000E+00  0.00000000000E+00 -0.80010529280E+03  0.80010529280E+03  0.25500000920E-02 0.  1.
    10030    2    1    2    0    0  0.00000000000E+00  0.00000000000E+00  0.13440715720E+04  0.29442821576E+04  0.26195932953E+04 0.  0.
        5    1    3    3  502    0 -0.11463583020E+04  0.51593055730E+03  0.10853416793E+04  0.16608161690E+04  0.46999998093E+01 0. -1.
       -5    1    3    3    0  502  0.11463583020E+04 -0.51593055730E+03  0.25872989271E+03  0.12834659886E+04  0.46999998093E+01 0.  1.
</event>
<event>
 5   0  0.1954502E-05  0.2599824E+04  0.7818609E-02  0.8368261E-01
        1   -1    0    0  501    0  0.00000000000E+00  0.00000000000E+00  0.20434619977E+04  0.20434619977E+04  0.50400001928E-02 0. -1.
       -1   -1    0    0    0  501  0.00000000000E+00  0.00000000000E+00 -0.82691583854E+03  0.82691583856E+03  0.50400001928E-02 0.  1.
    10030    2    1    2    0    0  0.00000000000E+00  0.00000000000E+00  0.12165461591E+04  0.28703778362E+04  0.25998239105E+04 0.  0.
        4    1    3    3  502    0 -0.94362246506E+03  0.86978159725E+03  0.83675370153E+03  0.15320253762E+04  0.12699999809E+01 0. -1.
       -4    1    3    3    0  502  0.94362246506E+03 -0.86978159725E+03  0.37979245760E+03  0.13383524600E+04  0.12699999809E+01 0.  1.
</event>
<event>
 5   0  0.2072710E-05  0.2594470E+04  0.7818609E-02  0.8370082E-01
        1   -1    0    0  501    0  0.00000000000E+00  0.00000000000E+00  0.14004484282E+04  0.14004484282E+04  0.50400001928E-02 0.  1.
       -1   -1    0    0    0  501  0.00000000000E+00  0.00000000000E+00 -0.12016286087E+04  0.12016286087E+04  0.50400001928E-02 0. -1.
    10030    2    1    2    0    0  0.00000000000E+00  0.00000000000E+00  0.19881981942E+03  0.26020770369E+04  0.25944701936E+04 0.  0.
        2    1    3    3  502    0  0.40745020356E+03 -0.21580176659E+03  0.13154965624E+04  0.13939574157E+04  0.25500000920E-02 0.  1.
       -2    1    3    3    0  502 -0.40745020356E+03  0.21580176659E+03 -0.11166767430E+04  0.12081196213E+04  0.25500000920E-02 0. -1.
</event>
<event>
 5   0  0.1993815E-05  0.2586769E+04  0.7818609E-02  0.8372709E-01
       -1   -1    0    0    0  501  0.00000000000E+00  0.00000000000E+00  0.13872744820E+04  0.13872744820E+04  0.50400001928E-02 0.  1.
        1   -1    0    0  501    0  0.00000000000E+00  0.00000000000E+00 -0.12058493842E+04  0.12058493842E+04  0.50400001928E-02 0. -1.
    10030    2    1    2    0    0  0.00000000000E+00  0.00000000000E+00  0.18142509780E+03  0.25931238662E+04  0.25867694755E+04 0.  0.
        5    1    3    3  502    0 -0.22390771507E+03  0.47775093881E+03  0.12744780076E+04  0.13793827990E+04  0.46999998093E+01 0.  1.
       -5    1    3    3    0  502  0.22390771507E+03 -0.47775093881E+03 -0.10930529098E+04  0.12137410671E+04  0.46999998093E+01 0. -1.
</event>
<event>
 5   0  0.5036452E-05  0.2568455E+04  0.7818609E-02  0.8378996E-01
        2   -1    0    0  501    0  0.00000000000E+00  0.00000000000E+00  0.11162270355E+04  0.11162270355E+04  0.25500000920E-02 0.  1.
       -2   -1    0    0    0  501  0.00000000000E+00  0.00000000000E+00 -0.14775127177E+04  0.14775127177E+04  0.25500000920E-02 0. -1.
    10030    2    1    2    0    0  0.00000000000E+00  0.00000000000E+00 -0.36128568225E+03  0.25937397533E+04  0.25684545087E+04 0.  0.
        2    1    3    3  502    0 -0.48134841330E+03 -0.11496222615E+04 -0.49338828939E+03  0.13404326329E+04  0.25500000920E-02 0. -1.
       -2    1    3    3    0  502  0.48134841330E+03  0.11496222615E+04  0.13210260715E+03  0.12533071204E+04  0.25500000920E-02 0.  1.
</event>
<event>
 5   0  0.5049803E-05  0.2565667E+04  0.7818609E-02  0.8379958E-01
        2   -1    0    0  501    0  0.00000000000E+00  0.00000000000E+00  0.24702760352E+04  0.24702760352E+04  0.25500000920E-02 0.  1.
       -2   -1    0    0    0  501  0.00000000000E+00  0.00000000000E+00 -0.66618520566E+03  0.66618520566E+03  0.25500000920E-02 0. -1.
    10030    2    1    2    0    0  0.00000000000E+00  0.00000000000E+00  0.18040908296E+04  0.31364612409E+04  0.25656666569E+04 0.  0.
        4    1    3    3  502    0  0.87849175051E+03 -0.47644266261E+03  0.18852934648E+04  0.21337943733E+04  0.12699999809E+01 0.  1.
       -4    1    3    3    0  502 -0.87849175051E+03  0.47644266261E+03 -0.81202635193E+02  0.10026668676E+04  0.12699999809E+01 0. -1.
</event>
<event>
 5   0  0.5182179E-05  0.2602452E+04  0.7818609E-02  0.8367369E-01
        2   -1    0    0  501    0  0.00000000000E+00  0.00000000000E+00  0.10653499837E+04  0.10653499837E+04  0.25500000920E-02 0. -1.
       -2   -1    0    0    0  501  0.00000000000E+00  0.00000000000E+00 -0.15893271332E+04  0.15893271332E+04  0.25500000920E-02 0.  1.
    10030    2    1    2    0    0  0.00000000000E+00  0.00000000000E+00 -0.52397714952E+03  0.26546771170E+04  0.26024524092E+04 0.  0.
        3    1    3    3  502    0  0.99560413730E+02  0.73647996066E+03  0.82756319076E+03  0.11122840704E+04  0.10100000352E+00 0. -1.
       -3    1    3    3    0  502 -0.99560413730E+02 -0.73647996066E+03 -0.13515403403E+04  0.15423930465E+04  0.10100000352E+00 0.  1.
</event>
<event>
 5   0  0.2163800E-05  0.2610951E+04  0.7818609E-02  0.8364491E-01
        1   -1    0    0  501    0  0.00000000000E+00  0.00000000000E+00  0.10315607866E+04  0.10315607866E+04  0.50400001928E-02 0.  1.
       -1   -1    0    0    0  501  0.00000000000E+00  0.00000000000E+00 -0.16521241637E+04  0.16521241638E+04  0.50400001928E-02 0. -1.
    10030    2    1    2    0    0  0.00000000000E+00  0.00000000000E+00 -0.62056337714E+03  0.26836849504E+04  0.26109511692E+04 0.  0.
        1    1    3    3  502    0 -0.81966667190E+02 -0.97207854395E+03 -0.12019804027E+04  0.15480349216E+04  0.50400001928E-02 0.  1.
       -1    1    3    3    0  502  0.81966667190E+02  0.97207854395E+03  0.58141702556E+03  0.11356500287E+04  0.50400001928E-02 0. -1.
</event>
<event>
 5   0  0.2159405E-05  0.2489836E+04  0.7818609E-02  0.8406615E-01
        1   -1    0    0  501    0  0.00000000000E+00  0.00000000000E+00  0.26063883559E+04  0.26063883559E+04  0.50400001928E-02 0.  1.
       -1   -1    0    0    0  501  0.00000000000E+00  0.00000000000E+00 -0.59462407563E+03  0.59462407565E+03  0.50400001928E-02 0. -1.
    10030    2    1    2    0    0  0.00000000000E+00  0.00000000000E+00  0.20117642803E+04  0.32010124316E+04  0.24898363536E+04 0.  0.
        3    1    3    3  502    0 -0.11032269022E+04  0.46056336195E+03  0.55942713683E+03  0.13199192929E+04  0.10100000352E+00 0.  1.
       -3    1    3    3    0  502  0.11032269022E+04 -0.46056336195E+03  0.14523371435E+04  0.18810931387E+04  0.10100000352E+00 0. -1.
</event>
<event>
 5   0  0.1993815E-05  0.2598527E+04  0.7818609E-02  0.8368702E-01
        1   -1    0    0  501    0  0.00000000000E+00  0.00000000000E+00  0.18850215995E+04  0.18850215995E+04  0.50400001928E-02 0.  1.
       -1   -1    0    0    0  501  0.00000000000E+00  0.00000000000E+00 -0.89552611170E+03  0.89552611171E+03  0.50400001928E-02 0. -1.
    10030    2    1    2    0    0  0.00000000000E+00  0.00000000000E+00  0.98949548776E+03  0.27805477112E+04  0.25985273240E+04 0.  0.
        5    1    3    3  502    0 -0.25372518091E+03  0.76716000561E+03 -0.59394503630E+03  0.10028478139E+04  0.46999998093E+01 0. -1.
       -5    1    3    3    0  502  0.25372518091E+03 -0.76716000561E+03  0.15834405241E+04  0.17776998973E+04  0.46999998093E+01 0.  1.
</event>
<event>
 5   0  0.1993815E-05  0.2505960E+04  0.7818609E-02  0.8400865E-01
        1   -1    0    0  501    0  0.00000000000E+00  0.00000000000E+00  0.13928747240E+04  0.13928747240E+04  0.50400001928E-02 0. -1.
       -1   -1    0    0    0  501  0.00000000000E+00  0.00000000000E+00 -0.11271360620E+04  0.11271360620E+04  0.50400001928E-02 0.  1.
    10030    2    1    2    0    0  0.00000000000E+00  0.00000000000E+00  0.26573866195E+03  0.25200107860E+04  0.25059603598E+04 0.  0.
        5    1    3    3  502    0 -0.10942894166E+04 -0.22808260473E+03  0.70212293958E+03  0.13200339822E+04  0.46999998093E+01 0. -1.
       -5    1    3    3    0  502  0.10942894166E+04  0.22808260473E+03 -0.43638427763E+03  0.11999768038E+04  0.46999998093E+01 0.  1.
</event>
<event>
 5   0  0.5036452E-05  0.1660107E+04  0.7818609E-02  0.8784450E-01
        2   -1    0    0  501    0  0.00000000000E+00  0.00000000000E+00  0.49233566382E+03  0.49233566383E+03  0.25500000920E-02 0.  1.
       -2   -1    0    0    0  501  0.00000000000E+00  0.00000000000E+00 -0.13994292414E+04  0.13994292414E+04  0.25500000920E-02 0. -1.
    10030    2    1    2    0    0  0.00000000000E+00  0.00000000000E+00 -0.90709357755E+03  0.18917649052E+04  0.16601071345E+04 0.  0.
        2    1    3    3  502    0 -0.68841627804E+03  0.36637598770E+03 -0.77754736389E+03  0.11012394105E+04  0.25500000920E-02 0. -1.
       -2    1    3    3    0  502  0.68841627804E+03 -0.36637598770E+03 -0.12954621366E+03  0.79052549466E+03  0.25500000920E-02 0.  1.
</event>
<event>
 5   0  0.5036452E-05  0.1337698E+04  0.7818609E-02  0.9000193E-01
        2   -1    0    0  501    0  0.00000000000E+00  0.00000000000E+00  0.80392156061E+03  0.80392156061E+03  0.25500000920E-02 0.  1.
       -2   -1    0    0    0  501  0.00000000000E+00  0.00000000000E+00 -0.55647102853E+03  0.55647102854E+03  0.25500000920E-02 0. -1.
    10030    2    1    2    0    0  0.00000000000E+00  0.00000000000E+00  0.24745053208E+03  0.13603925891E+04  0.13376981090E+04 0.  0.
        2    1    3    3  502    0  0.29011244768E+03  0.11150613403E+03 -0.47857257082E+03  0.57064047856E+03  0.25500000920E-02 0. -1.
       -2    1    3    3    0  502 -0.29011244768E+03 -0.11150613403E+03  0.72602310290E+03  0.78975211058E+03  0.25500000920E-02 0.  1.
</event>
<event>
 5   0  0.2159405E-05  0.2910257E+04  0.7818609E-02  0.8269832E-01
       -1   -1    0    0    0  501  0.00000000000E+00  0.00000000000E+00  0.18797031025E+04  0.18797031025E+04  0.50400001928E-02 0. -1.
        1   -1    0    0  501    0  0.00000000000E+00  0.00000000000E+00 -0.11264539942E+04  0.11264539942E+04  0.50400001928E-02 0.  1.
    10030    2    1    2    0    0  0.00000000000E+00  0.00000000000E+00  0.75324910830E+03  0.30061570968E+04  0.29102570799E+04 0.  0.
        3    1    3    3  502    0 -0.12384343002E+04  0.11737329473E+03  0.11564202056E+04  0.16984709914E+04  0.10100000352E+00 0. -1.
       -3    1    3    3    0  502  0.12384343002E+04 -0.11737329473E+03 -0.40317109732E+03  0.13076861054E+04  0.10100000352E+00 0.  1.
</event>
<event>
 5   0  0.2163800E-05  0.2257271E+04  0.7818609E-02  0.8494962E-01
        1   -1    0    0  501    0  0.00000000000E+00  0.00000000000E+00  0.14157105047E+04  0.14157105047E+04  0.50400001928E-02 0.  1.
       -1   -1    0    0    0  501  0.00000000000E+00  0.00000000000E+00 -0.89977263332E+03  0.89977263334E+03  0.50400001928E-02 0. -1.
    10030    2    1    2    0    0  0.00000000000E+00  0.00000000000E+00  0.51593787137E+03  0.23154831380E+04  0.22572705366E+04 0.  0.
        1    1    3    3  502    0 -0.28277795620E+03 -0.10086324899E+03  0.13739975032E+04  0.14064159791E+04  0.50400001928E-02 0.  1.
       -1    1    3    3    0  502  0.28277795620E+03  0.10086324899E+03 -0.85805963186E+03  0.90906715888E+03  0.50400001928E-02 0. -1.
</event>
<event>
 5   0  0.5182179E-05  0.2555943E+04  0.7818609E-02  0.8383322E-01
        2   -1    0    0  501    0  0.00000000000E+00  0.00000000000E+00  0.11818530950E+04  0.11818530950E+04  0.25500000920E-02 0. -1.
       -2   -1    0    0    0  501  0.00000000000E+00  0.00000000000E+00 -0.13819072798E+04  0.13819072798E+04  0.25500000920E-02 0.  1.
    10030    2    1    2    0    0  0.00000000000E+00  0.00000000000E+00 -0.20005418479E+03  0.25637603749E+04  0.25559431885E+04 0.  0.
        3    1    3    3  502    0 -0.63061627580E+03 -0.83110602147E+03  0.64033419074E+03  0.12241086522E+04  0.10100000352E+00 0. -1.
       -3    1    3    3    0  502  0.63061627580E+03  0.83110602147E+03 -0.84038837553E+03  0.13396517227E+04  0.10100000352E+00 0.  1.
</event>
<event>
 5   0  0.4955675E-05  0.2580424E+04  0.7818609E-02  0.8374881E-01
       -2   -1    0    0    0  501  0.00000000000E+00  0.00000000000E+00  0.13104282097E+04  0.13104282097E+04  0.25500000920E-02 0.  1.
        2   -1    0    0  501    0  0.00000000000E+00  0.00000000000E+00 -0.12703073112E+04  0.12703073112E+04  0.25500000920E-02 0. -1.
    10030    2    1    2    0    0  0.00000000000E+00  0.00000000000E+00  0.40120898466E+02  0.25807355209E+04  0.25804236362E+04 0.  0.
        5    1    3    3  502    0 -0.54463138521E+03  0.56510224789E+03 -0.10041046052E+04  0.12744457794E+04  0.46999998093E+01 0. -1.
       -5    1    3    3    0  502  0.54463138521E+03 -0.56510224789E+03  0.10442255037E+04  0.13062897415E+04  0.46999998093E+01 0.  1.
</event>
<event>
 5   0  0.2072710E-05  0.2583593E+04  0.7818609E-02  0.8373796E-01
        1   -1    0    0  501    0  0.00000000000E+00  0.00000000000E+00  0.21777216200E+04  0.21777216200E+04  0.50400001928E-02 0.  1.
       -1   -1    0    0    0  501  0.00000000000E+00  0.00000000000E+00 -0.76627728646E+03  0.76627728648E+03  0.50400001928E-02 0. -1.
    10030    2    1    2    0    0  0.00000000000E+00  0.00000000000E+00  0.14114443335E+04  0.29439989064E+04  0.25835933222E+04 0.  0.
        2    1    3    3  502    0 -0.43282528037E+03  0.10136170057E+04 -0.62050324727E+02  0.11039055215E+04  0.25500000920E-02 0. -1.
       -2    1    3    3    0  502  0.43282528037E+03 -0.10136170057E+04  0.14734946582E+04  0.18400933850E+04  0.25500000920E-02 0.  1.
</event>
<event>
 5   0  0.2072710E-05  0.2621373E+04  0.7818609E-02  0.8360977E-01
       -1   -1    0    0    0  501  0.00000000000E+00  0.00000000000E+00  0.16047506415E+04  0.16047506415E+04  0.50400001928E-02 0.  1.
        1   -1    0    0  501    0  0.00000000000E+00  0.00000000000E+00 -0.10705085080E+04  0.10705085081E+04  0.50400001928E-02 0. -1.
    10030    2    1    2    0    0  0.00000000000E+00  0.00000000000E+00  0.53424213345E+03  0.26752591496E+04  0.26213730868E+04 0.  0.
        2    1    3    3  502    0  0.59775012423E+03 -0.78171155952E+03  0.11506666018E+04  0.15140712671E+04  0.25500000920E-02 0.  1.
       -2    1    3    3    0  502 -0.59775012423E+03  0.78171155952E+03 -0.61642446832E+03  0.11611878825E+04  0.25500000920E-02 0. -1.
</event>
<event>
 5   0  0.2159405E-05  0.2311264E+04  0.7818609E-02  0.8473493E-01
       -1   -1    0    0    0  501  0.00000000000E+00  0.00000000000E+00  0.96866441416E+03  0.96866441417E+03  0.50400001928E-02 0.  1.
        1   -1    0    0  501    0  0.00000000000E+00  0.00000000000E+00 -0.13786875729E+04  0.13786875729E+04  0.50400001928E-02 0. -1.
    10030    2    1    2    0    0  0.00000000000E+00  0.00000000000E+00 -0.41002315877E+03  0.23473519871E+04  0.23112642343E+04 0.  0.
        3    1    3    3  502    0 -0.11192803404E+04  0.27394890682E+03 -0.11618689464E+03  0.11581605625E+04  0.10100000352E+00 0.  1.
       -3    1    3    3    0  502  0.11192803404E+04 -0.27394890682E+03 -0.29383626413E+03  0.11891914246E+04  0.10100000352E+00 0. -1.
</event>
<event>
 5   0  0.5182179E-05  0.2590963E+04  0.7818609E-02  0.8371277E-01
        2   -1    0    0  501    0  0.00000000000E+00  0.00000000000E+00  0.18660162549E+04  0.18660162549E+04  0.25500000920E-02 0.  1.
       -2   -1    0    0    0  501  0.00000000000E+00  0.00000000000E+00 -0.89938788874E+03  0.89938788874E+03  0.25500000920E-02 0. -1.
    10030    2    1    2    0    0  0.00000000000E+00  0.00000000000E+00  0.96662836617E+03  0.27654041436E+04  0.25909630795E+04 0.  0.
        3    1    3    3  502    0 -0.11525068066E+04 -0.47295119095E+03  0.10397352892E+03  0.12501061048E+04  0.10100000352E+00 0. -1.
       -3    1    3    3    0  502  0.11525068066E+04  0.47295119095E+03  0.86265483725E+03  0.15152980389E+04  0.10100000352E+00 0.  1.
</event>
<event>
 5   0  0.1993815E-05  0.2591953E+04  0.7818609E-02  0.8370940E-01
       -1   -1    0    0    0  501  0.00000000000E+00  0.00000000000E+00  0.96195575303E+03  0.96195575305E+03  0.50400001928E-02 0.  1.
        1   -1    0    0  501    0  0.00000000000E+00  0.00000000000E+00 -0.17459790413E+04  0.17459790413E+04  0.50400001928E-02 0. -1.
    10030    2    1    2    0    0  0.00000000000E+00  0.00000000000E+00 -0.78402328826E+03  0.27079347944E+04  0.25919526103E+04 0.  0.
        5    1    3    3  502    0  0.86397230121E+03  0.22867455250E+03  0.58848904136E+03  0.10700848705E+04  0.46999998093E+01 0.  1.
       -5    1    3    3    0  502 -0.86397230121E+03 -0.22867455250E+03 -0.13725123296E+04  0.16378499239E+04  0.46999998093E+01 0. -1.
</event>
<event>
 5   0  0.1954502E-05  0.2474536E+04  0.7818609E-02  0.8412114E-01
        1   -1    0    0  501    0  0.00000000000E+00  0.00000000000E+00  0.14565718150E+04  0.14565718150E+04  0.50400001928E-02 0.  1.
       -1   -1    0    0    0  501  0.00000000000E+00  0.00000000000E+00 -0.10509828056E+04  0.10509828056E+04  0.50400001928E-02 0. -1.
    10030    2    1    2    0    0  0.00000000000E+00  0.00000000000E+00  0.40558900946E+03  0.25075546206E+04  0.24745358617E+04 0.  0.
        4    1    3    3  502    0 -0.27108976788E+03 -0.30254872133E+03  0.13870652127E+04  0.14453293425E+04  0.12699999809E+01 0.  1.
       -4    1    3    3    0  502  0.27108976788E+03  0.30254872133E+03 -0.98147620325E+03  0.10622252781E+04  0.12699999809E+01 0. -1.
</event>
<event>
 5   0  0.5182179E-05  0.2564541E+04  0.7818609E-02  0.8380347E-01
        2   -1    0    0  501    0  0.00000000000E+00  0.00000000000E+00  0.30902501772E+04  0.30902501772E+04  0.25500000920E-02 0.  1.
       -2   -1    0    0    0  501  0.00000000000E+00  0.00000000000E+00 -0.53206613200E+03  0.53206613200E+03  0.25500000920E-02 0. -1.
    10030    2    1    2    0    0  0.00000000000E+00  0.00000000000E+00  0.25581840452E+04  0.36223163092E+04  0.25645408624E+04 0.  0.
        3    1    3    3  502    0  0.10496726231E+04 -0.37988363357E+03  0.21702796718E+04  0.24405405251E+04  0.10100000352E+00 0. -1.
       -3    1    3    3    0  502 -0.10496726231E+04  0.37988363357E+03  0.38790437337E+03  0.11817757841E+04  0.10100000352E+00 0.  1.
</event>
<event>
 5   0  0.4955675E-05  0.2589444E+04  0.7818609E-02  0.8371796E-01
       -2   -1    0    0    0  501  0.00000000000E+00  0.00000000000E+00  0.10264183698E+04  0.10264183698E+04  0.25500000920E-02 0. -1.
        2   -1    0    0  501    0  0.00000000000E+00  0.00000000000E+00 -0.16331598293E+04  0.16331598293E+04  0.25500000920E-02 0.  1.
    10030    2    1    2    0    0  0.00000000000E+00  0.00000000000E+00 -0.60674145954E+03  0.26595781991E+04  0.25894441485E+04 0.  0.
        5    1    3    3  502    0  0.10842860244E+04 -0.79950615241E+02  0.41867403413E+03  0.11650658009E+04  0.46999998093E+01 0. -1.
       -5    1    3    3    0  502 -0.10842860244E+04  0.79950615241E+02 -0.10254154937E+04  0.14945123982E+04  0.46999998093E+01 0.  1.
</event>
<event>
 5   0  0.4955675E-05  0.2448011E+04  0.7818609E-02  0.8421744E-01
       -2   -1    0    0    0  501  0.00000000000E+00  0.00000000000E+00  0.15124189602E+04  0.15124189602E+04  0.25500000920E-02 0. -1.
        2   -1    0    0  501    0  0.00000000000E+00  0.00000000000E+00 -0.99059170720E+03  0.99059170720E+03  0.25500000920E-02 0.  1.
    10030    2    1    2    0    0  0.00000000000E+00  0.00000000000E+00  0.52182725296E+03  0.25030106674E+04  0.24480111762E+04 0.  0.
        5    1    3    3  502    0 -0.79116903146E+03 -0.18014150582E+03  0.11978908079E+04  0.14468461826E+04  0.46999998093E+01 0. -1.
       -5    1    3    3    0  502  0.79116903146E+03  0.18014150582E+03 -0.67606355498E+03  0.10561644847E+04  0.46999998093E+01 0.  1.
</event>
<event>
 5   0  0.4955675E-05  0.3012544E+04  0.7818609E-02  0.8240158E-01
        2   -1    0    0  501    0  0.00000000000E+00  0.00000000000E+00  0.29578927097E+04  0.29578927097E+04  0.25500000920E-02 0. -1.
       -2   -1    0    0    0  501  0.00000000000E+00  0.00000000000E+00 -0.76705151673E+03  0.76705151674E+03  0.25500000920E-02 0.  1.
    10030    2    1    2    0    0  0.00000000000E+00  0.00000000000E+00  0.21908411929E+04  0.37249442264E+04  0.30125444988E+04 0.  0.
        5    1    3    3  502    0 -0.31307285941E+03  0.13612143923E+04  0.39824584412E+03  0.14524259291E+04  0.46999998093E+01 0.  1.
       -5    1    3    3    0  502  0.31307285941E+03 -0.13612143923E+04  0.17925953488E+04  0.22725182973E+04  0.46999998093E+01 0. -1.
</event>
<event>
 5   0  0.5036452E-05  0.2671979E+04  0.7818609E-02  0.8344154E-01
       -2   -1    0    0    0  501  0.00000000000E+00  0.00000000000E+00  0.10450120739E+04  0.10450120739E+04  0.25500000920E-02 0.  1.
        2   -1    0    0  501    0  0.00000000000E+00  0.00000000000E+00 -0.17079878151E+04  0.17079878151E+04  0.25500000920E-02 0. -1.
    10030    2    1    2    0    0  0.00000000000E+00  0.00000000000E+00 -0.66297574122E+03  0.27529998890E+04  0.26719789586E+04 0.  0.
        2    1    3    3  502    0 -0.78469827106E+03  0.35164777143E+02  0.78196608246E+03  0.11083586479E+04  0.25500000920E-02 0.  1.
       -2    1    3    3    0  502  0.78469827106E+03 -0.35164777143E+02 -0.14449418237E+04  0.16446412411E+04  0.25500000920E-02 0. -1.
</event>
<event>
 5   0  0.5049803E-05  0.2482248E+04  0.7818609E-02  0.8409337E-01
        2   -1    0    0  501    0  0.00000000000E+00  0.00000000000E+00  0.10954036734E+04  0.10954036734E+04  0.25500000920E-02 0.  1.
       -2   -1    0    0    0  501  0.00000000000E+00  0.00000000000E+00 -0.14062291932E+04  0.14062291932E+04  0.25500000920E-02 0. -1.
    10030    2    1    2    0    0  0.00000000000E+00  0.00000000000E+00 -0.31082551974E+03  0.25016328666E+04  0.24822478715E+04 0.  0.
        4    1    3    3  502    0  0.56609313539E+03  0.33308702405E+03 -0.12167172738E+04  0.13826825163E+04  0.12699999809E+01 0. -1.
       -4    1    3    3    0  502 -0.56609313539E+03 -0.33308702405E+03  0.90589175406E+03  0.11189503503E+04  0.12699999809E+01 0.  1.
</event>
<event>
 5   0  0.4955675E-05  0.2603500E+04  0.7818609E-02  0.8367013E-01
        2   -1    0    0  501    0  0.00000000000E+00  0.00000000000E+00  0.11537578548E+04  0.11537578548E+04  0.25500000920E-02 0. -1.
       -2   -1    0    0    0  501  0.00000000000E+00  0.00000000000E+00 -0.14687254340E+04  0.14687254340E+04  0.25500000920E-02 0.  1.
    10030    2    1    2    0    0  0.00000000000E+00  0.00000000000E+00 -0.31496757914E+03  0.26224832888E+04  0.26035003407E+04 0.  0.
        5    1    3    3  502    0 -0.98130277811E+03 -0.17639783771E+03  0.68555349859E+03  0.12099905078E+04  0.46999998093E+01 0.  1.
       -5    1    3    3    0  502  0.98130277811E+03  0.17639783771E+03 -0.10005210777E+04  0.14124927810E+04  0.46999998093E+01 0. -1.
</event>
<event>
 5   0  0.4955675E-05  0.2564123E+04  0.7818609E-02  0.8380491E-01
        2   -1    0    0  501    0  0.00000000000E+00  0.00000000000E+00  0.22271951145E+04  0.22271951145E+04  0.25500000920E-02 0.  1.
       -2   -1    0    0    0  501  0.00000000000E+00  0.00000000000E+00 -0.73800551201E+03  0.73800551201E+03  0.25500000920E-02 0. -1.
    10030    2    1    2    0    0  0.00000000000E+00  0.00000000000E+00  0.14891896025E+04  0.29652006266E+04  0.25641234532E+04 0.  0.
        5    1    3    3  502    0 -0.76923920927E+03  0.88861663373E+03  0.13368480130E+04  0.17800430283E+04  0.46999998093E+01 0.  1.
       -5    1    3    3    0  502  0.76923920927E+03 -0.88861663373E+03  0.15234158959E+03  0.11851575983E+04  0.46999998093E+01 0. -1.
</event>
<event>
 5   0  0.5170532E-05  0.2456140E+04  0.7818609E-02  0.8418780E-01
        2   -1    0    0  501    0  0.00000000000E+00  0.00000000000E+00  0.10762037815E+04  0.10762037815E+04  0.25500000920E-02 0. -1.
       -2   -1    0    0    0  501  0.00000000000E+00  0.00000000000E+00 -0.14013667074E+04  0.14013667074E+04  0.25500000920E-02 0.  1.
    10030    2    1    2    0    0  0.00000000000E+00  0.00000000000E+00 -0.32516292584E+03  0.24775704889E+04  0.24561401831E+04 0.  0.
        1    1    3    3  502    0  0.96770987184E+03 -0.63697078499E+03  0.24835735113E+03  0.11848525439E+04  0.50400001928E-02 0. -1.
       -1    1    3    3    0  502 -0.96770987184E+03  0.63697078499E+03 -0.57352027698E+03  0.12927179449E+04  0.50400001928E-02 0.  1.
</event>
<event>
 5   0  0.5170532E-05  0.2573632E+04  0.7818609E-02  0.8377213E-01
        2   -1    0    0  501    0  0.00000000000E+00  0.00000000000E+00  0.22644872922E+04  0.22644872922E+04  0.25500000920E-02 0.  1.
       -2   -1    0    0    0  501  0.00000000000E+00  0.00000000000E+00 -0.73124501123E+03  0.73124501123E+03  0.25500000920E-02 0. -1.
    10030    2    1    2    0    0  0.00000000000E+00  0.00000000000E+00  0.15332422810E+04  0.29957323035E+04  0.25736317028E+04 0.  0.
        1    1    3    3  502    0 -0.83538008320E+03 -0.19658951097E+03  0.18827284522E+04  0.20690997424E+04  0.50400001928E-02 0.  1.
       -1    1    3    3    0  502  0.83538008320E+03  0.19658951097E+03 -0.34948617125E+03  0.92663256103E+03  0.50400001928E-02 0. -1.
</event>
<event>
 5   0  0.2072710E-05  0.2535382E+04  0.7818609E-02  0.8390488E-01
        1   -1    0    0  501    0  0.00000000000E+00  0.00000000000E+00  0.13913770670E+04  0.13913770670E+04  0.50400001928E-02 0.  1.
       -1   -1    0    0    0  501  0.00000000000E+00  0.00000000000E+00 -0.11550001276E+04  0.11550001276E+04  0.50400001928E-02 0. -1.
    10030    2    1    2    0    0  0.00000000000E+00  0.00000000000E+00  0.23637693939E+03  0.25463771946E+04  0.25353821723E+04 0.  0.
        2    1    3    3  502    0  0.64275763363E+03  0.68907029564E+03  0.96985494484E+03  0.13522477073E+04  0.25500000920E-02 0.  1.
       -2    1    3    3    0  502 -0.64275763363E+03 -0.68907029564E+03 -0.73347800545E+03  0.11941294873E+04  0.25500000920E-02 0. -1.
</event>
<event>
 5   0  0.5182179E-05  0.2208671E+04  0.7818609E-02  0.8514828E-01
       -2   -1    0    0    0  501  0.00000000000E+00  0.00000000000E+00  0.57797103343E+03  0.57797103344E+03  0.25500000920E-02 0.  1.
        2   -1    0    0  501    0  0.00000000000E+00  0.00000000000E+00 -0.21100649502E+04  0.21100649502E+04  0.25500000920E-02 0. -1.
    10030    2    1    2    0    0  0.00000000000E+00  0.00000000000E+00 -0.15320939167E+04  0.26880359836E+04  0.22086705683E+04 0.  0.
        3    1    3    3  502    0 -0.27651857228E+03  0.77938369043E+03 -0.16567782228E+04  0.18517061180E+04  0.10100000352E+00 0. -1.
       -3    1    3    3    0  502  0.27651857228E+03 -0.77938369043E+03  0.12468430605E+03  0.83632986561E+03  0.10100000352E+00 0.  1.
</event>
<event>
 5   0  0.1954502E-05  0.2587991E+04  0.7818609E-02  0.8372292E-01
       -1   -1    0    0    0  501  0.00000000000E+00  0.00000000000E+00  0.14775510810E+04  0.14775510810E+04  0.50400001928E-02 0. -1.
        1   -1    0    0  501    0  0.00000000000E+00  0.00000000000E+00 -0.11332431447E+04  0.11332431447E+04  0.50400001928E-02 0.  1.
    10030    2    1    2    0    0  0.00000000000E+00  0.00000000000E+00  0.34430793634E+03  0.26107942258E+04  0.25879912160E+04 0.  0.
        4    1    3    3  502    0 -0.93552750307E+03  0.30756067277E+03  0.10189652462E+04  0.14170734146E+04  0.12699999809E+01 0. -1.
       -4    1    3    3    0  502  0.93552750307E+03 -0.30756067277E+03 -0.67465730984E+03  0.11937208112E+04  0.12699999809E+01 0.  1.
</event>
<event>
 5   0  0.2163800E-05  0.2504196E+04  0.7818609E-02  0.8401492E-01
        1   -1    0    0  501    0  0.00000000000E+00  0.00000000000E+00  0.13810887759E+04  0.13810887759E+04  0.50400001928E-02 0.  1.
       -1   -1    0    0    0  501  0.00000000000E+00  0.00000000000E+00 -0.11351542920E+04  0.11351542920E+04  0.50400001928E-02 0. -1.
    10030    2    1    2    0    0  0.00000000000E+00  0.00000000000E+00  0.24593448384E+03  0.25162430679E+04  0.25041955608E+04 0.  0.
        1    1    3    3  502    0  0.11573366597E+04  0.20438390495E+03 -0.31102259956E+03  0.12157039039E+04  0.50400001928E-02 0. -1.
       -1    1    3    3    0  502 -0.11573366597E+04 -0.20438390495E+03  0.55695708341E+03  0.13005391641E+04  0.50400001928E-02 0.  1.
</event>
<event>
 5   0  0.1993815E-05  0.1340265E+04  0.7818609E-02  0.8998230E-01
       -1   -1    0    0    0  501  0.00000000000E+00  0.00000000000E+00  0.65226121213E+03  0.65226121215E+03  0.50400001928E-02 0.  1.
        1   -1    0    0  501    0  0.00000000000E+00  0.00000000000E+00 -0.68849327316E+03  0.68849327318E+03  0.50400001928E-02 0. -1.
    10030    2    1    2    0    0  0.00000000000E+00  0.00000000000E+00 -0.36232061034E+02  0.13407544853E+04  0.13402648349E+04 0.  0.
        5    1    3    3  502    0  0.53190460892E+03  0.81246481463E+02  0.38144429128E+03  0.65957967001E+03  0.46999998093E+01 0.  1.
       -5    1    3    3    0  502 -0.53190460892E+03 -0.81246481463E+02 -0.41767635232E+03  0.68117481532E+03  0.46999998093E+01 0. -1.
</event>
<event>
 5   0  0.5049803E-05  0.2561808E+04  0.7818609E-02  0.8381291E-01
       -2   -1    0    0    0  501  0.00000000000E+00  0.00000000000E+00  0.14871986147E+04  0.14871986147E+04  0.25500000920E-02 0. -1.
        2   -1    0    0  501    0  0.00000000000E+00  0.00000000000E+00 -0.11032253654E+04  0.11032253654E+04  0.25500000920E-02 0.  1.
    10030    2    1    2    0    0  0.00000000000E+00  0.00000000000E+00  0.38397324931E+03  0.25904239801E+04  0.25618081388E+04 0.  0.
        4    1    3    3  502    0  0.33324943934E+02 -0.95465486579E+03  0.10548870200E+04  0.14231179511E+04  0.12699999809E+01 0. -1.
       -4    1    3    3    0  502 -0.33324943934E+02  0.95465486579E+03 -0.67091377073E+03  0.11673060290E+04  0.12699999809E+01 0.  1.
</event>
<event>
 5   0  0.1954502E-05  0.2160254E+04  0.7818609E-02  0.8535156E-01
       -1   -1    0    0    0  501  0.00000000000E+00  0.00000000000E+00  0.79362154621E+03  0.79362154623E+03  0.50400001928E-02 0. -1.
        1   -1    0    0  501    0  0.00000000000E+00  0.00000000000E+00 -0.14700640263E+04  0.14700640263E+04  0.50400001928E-02 0.  1.
    10030    2    1    2    0    0  0.00000000000E+00  0.00000000000E+00 -0.67644248007E+03  0.22636855725E+04  0.21602541384E+04 0.  0.
        4    1    3    3  502    0 -0.97121444295E+03  0.36528025176E+03 -0.65256007982E+03  0.12257746233E+04  0.12699999809E+01 0.  1.
       -4    1    3    3    0  502  0.97121444295E+03 -0.36528025176E+03 -0.23882400253E+02  0.10379109492E+04  0.12699999809E+01 0. -1.
</event>
<event>
 5   0  0.5036452E-05  0.2566559E+04  0.7818609E-02  0.8379650E-01
       -2   -1    0    0    0  501  0.00000000000E+00  0.00000000000E+00  0.11665178363E+04  0.11665178363E+04  0.25500000920E-02 0. -1.
        2   -1    0    0  501    0  0.00000000000E+00  0.00000000000E+00 -0.14117287503E+04  0.14117287503E+04  0.25500000920E-02 0.  1.
    10030    2    1    2    0    0  0.00000000000E+00  0.00000000000E+00 -0.24521091403E+03  0.25782465866E+04  0.25665593835E+04 0.  0.
        2    1    3    3  502    0  0.80893095064E+03  0.99342618640E+03 -0.47822550519E+02  0.12820108685E+04  0.25500000920E-02 0.  1.
       -2    1    3    3    0  502 -0.80893095064E+03 -0.99342618640E+03 -0.19738836351E+03  0.12962357181E+04  0.25500000920E-02 0. -1.
</event>
<event>
 5   0  0.5170532E-05  0.2671521E+04  0.7818609E-02  0.8344305E-01
        2   -1    0    0  501    0  0.00000000000E+00  0.00000000000E+00  0.20500163406E+04  0.20500163406E+04  0.25500000920E-02 0. -1.
       -2   -1    0    0    0  501  0.00000000000E+00  0.00000000000E+00 -0.87036169031E+03  0.87036169032E+03  0.25500000920E-02 0.  1.
    10030    2    1    2    0    0  0.00000000000E+00  0.00000000000E+00  0.11796546503E+04  0.29203780309E+04  0.26715206811E+04 0.  0.
        1    1    3    3  502    0 -0.93424056853E+02 -0.12388537885E+03 -0.86047678863E+03  0.87435458785E+03  0.50400001928E-02 0.  1.
       -1    1    3    3    0  502  0.93424056853E+02  0.12388537885E+03  0.20401314389E+04  0.20460234430E+04  0.50400001928E-02 0. -1.
</event>
<event>
 5   0  0.4955675E-05  0.2547329E+04  0.7818609E-02  0.8386316E-01
       -2   -1    0    0    0  501  0.00000000000E+00  0.00000000000E+00  0.80455278985E+03  0.80455278986E+03  0.25500000920E-02 0.  1.
        2   -1    0    0  501    0  0.00000000000E+00  0.00000000000E+00 -0.20163011628E+04  0.20163011628E+04  0.25500000920E-02 0. -1.
    10030    2    1    2    0    0  0.00000000000E+00  0.00000000000E+00 -0.12117483730E+04  0.28208539527E+04  0.25473285817E+04 0.  0.
        5    1    3    3  502    0  0.11428154323E+03  0.12583404767E+04 -0.78346108771E+03  0.14867126126E+04  0.46999998093E+01 0. -1.
       -5    1    3    3    0  502 -0.11428154323E+03 -0.12583404767E+04 -0.42828728526E+03  0.13341413401E+04  0.46999998093E+01 0.  1.
</event>
<event>
 5   0  0.2072710E-05  0.2621595E+04  0.7818609E-02  0.8360903E-01
       -1   -1    0    0    0  501  0.00000000000E+00  0.00000000000E+00  0.12962112725E+04  0.12962112725E+04  0.50400001928E-02 0. -1.
        1   -1    0    0  501    0  0.00000000000E+00  0.00000000000E+00 -0.13255479172E+04  0.13255479172E+04  0.50400001928E-02 0.  1.
    10030    2    1    2    0    0  0.00000000000E+00  0.00000000000E+00 -0.29336644676E+02  0.26217591897E+04  0.26215950507E+04 0.  0.
        2    1    3    3  502    0  0.40431304659E+03  0.52874733600E+03 -0.11439632561E+04  0.13235160430E+04  0.25500000920E-02 0.  1.
       -2    1    3    3    0  502 -0.40431304659E+03 -0.52874733600E+03  0.11146266114E+04  0.12982431466E+04  0.25500000920E-02 0. -1.
</event>
<event>
 5   0  0.1954502E-05  0.2574532E+04  0.7818609E-02  0.8376904E-01
       -1   -1    0    0    0  501  0.00000000000E+00  0.00000000000E+00  0.11936794330E+04  0.11936794331E+04  0.50400001928E-02 0.  1.
        1   -1    0    0  501    0  0.00000000000E+00  0.00000000000E+00 -0.13881895477E+04  0.13881895477E+04  0.50400001928E-02 0. -1.
    10030    2    1    2    0    0  0.00000000000E+00  0.00000000000E+00 -0.19451011469E+03  0.25818689808E+04  0.25745316563E+04 0.  0.
        4    1    3    3  502    0  0.40369330303E+03 -0.48264002512E+03 -0.12234613824E+04  0.13757794314E+04  0.12699999809E+01 0. -1.
       -4    1    3    3    0  502 -0.40369330303E+03  0.48264002512E+03  0.10289512677E+04  0.12060895494E+04  0.12699999809E+01 0.  1.
</event>
<event>
 5   0  0.5049803E-05  0.2598666E+04  0.7818609E-02  0.8368655E-01
        2   -1    0    0  501    0  0.00000000000E+00  0.00000000000E+00  0.11054028709E+04  0.11054028709E+04  0.25500000920E-02 0. -1.
       -2   -1    0    0    0  501  0.00000000000E+00  0.00000000000E+00 -0.15272856144E+04  0.15272856144E+04  0.25500000920E-02 0.  1.
    10030    2    1    2    0    0  0.00000000000E+00  0.00000000000E+00 -0.42188274359E+03  0.26326884853E+04  0.25986657367E+04 0.  0.
        4    1    3    3  502    0  0.11052274361E+04 -0.56722323294E+03  0.17482527913E+03  0.12545259554E+04  0.12699999809E+01 0. -1.
       -4    1    3    3    0  502 -0.11052274361E+04  0.56722323294E+03 -0.59670802272E+03  0.13781625299E+04  0.12699999809E+01 0.  1.
</event>
<event>
 5   0  0.5182179E-05  0.2571645E+04  0.7818609E-02  0.8377897E-01
        2   -1    0    0  501    0  0.00000000000E+00  0.00000000000E+00  0.23741607501E+04  0.23741607501E+04  0.25500000920E-02 0.  1.
       -2   -1    0    0    0  501  0.00000000000E+00  0.00000000000E+00 -0.69638900587E+03  0.69638900587E+03  0.25500000920E-02 0. -1.
    10030    2    1    2    0    0  0.00000000000E+00  0.00000000000E+00  0.16777717443E+04  0.30705497560E+04  0.25716449557E+04 0.  0.
        3    1    3    3  502    0 -0.88994523263E+03  0.77442235755E+03  0.14495884478E+04  0.18689674110E+04  0.10100000352E+00 0.  1.
       -3    1    3    3    0  502  0.88994523263E+03 -0.77442235755E+03  0.22818329644E+03  0.12015823450E+04  0.10100000352E+00 0. -1.
</event>
<event>
 5   0  0.2163800E-05  0.2624095E+04  0.7818609E-02  0.8360062E-01
        1   -1    0    0  501    0  0.00000000000E+00  0.00000000000E+00  0.84127073216E+03  0.84127073217E+03  0.50400001928E-02 0. -1.
       -1   -1    0    0    0  501  0.00000000000E+00  0.00000000000E+00 -0.20462719326E+04  0.20462719326E+04  0.50400001928E-02 0.  1.
    10030    2    1    2    0    0  0.00000000000E+00  0.00000000000E+00 -0.12050012004E+04  0.28875426647E+04  0.26240950340E+04 0.  0.
        1    1    3    3  502    0 -0.33903100632E+03 -0.11991358121E+04 -0.15066796694E+03  0.12552169355E+04  0.50400001928E-02 0. -1.
       -1    1    3    3    0  502  0.33903100632E+03  0.11991358121E+04 -0.10543332335E+04  0.16323257292E+04  0.50400001928E-02 0.  1.
</event>
<event>
 5   0  0.2159405E-05  0.2565846E+04  0.7818609E-02  0.8379896E-01
        1   -1    0    0  501    0  0.00000000000E+00  0.00000000000E+00  0.12371989760E+04  0.12371989760E+04  0.50400001928E-02 0.  1.
       -1   -1    0    0    0  501  0.00000000000E+00  0.00000000000E+00 -0.13303366906E+04  0.13303366906E+04  0.50400001928E-02 0. -1.
    10030    2    1    2    0    0  0.00000000000E+00  0.00000000000E+00 -0.93137714664E+02  0.25675356666E+04  0.25658458187E+04 0.  0.
        3    1    3    3  502    0 -0.33931399738E+03 -0.28306206540E+03  0.11586466595E+04  0.12400484722E+04  0.10100000352E+00 0.  1.
       -3    1    3    3    0  502  0.33931399738E+03  0.28306206540E+03 -0.12517843742E+04  0.13274871944E+04  0.10100000352E+00 0. -1.
</event>
<event>
 5   0  0.2072710E-05  0.2659203E+04  0.7818609E-02  0.8348365E-01
       -1   -1    0    0    0  501  0.00000000000E+00  0.00000000000E+00  0.11730896359E+04  0.11730896359E+04  0.50400001928E-02 0. -1.
        1   -1    0    0  501    0  0.00000000000E+00  0.00000000000E+00 -0.15069947491E+04  0.15069947491E+04  0.50400001928E-02 0.  1.
    10030    2    1    2    0    0  0.00000000000E+00  0.00000000000E+00 -0.33390511322E+03  0.26800843850E+04  0.26592028291E+04 0.  0.
        2    1    3    3  502    0 -0.10506573407E+04  0.64905529254E+03  0.32954788099E+03  0.12781844257E+04  0.25500000920E-02 0. -1.
       -2    1    3    3    0  502  0.10506573407E+04 -0.64905529254E+03 -0.66345299421E+03  0.14018999593E+04  0.25500000920E-02 0.  1.
</event>
<event>
 5   0  0.2072710E-05  0.2567387E+04  0.7818609E-02  0.8379364E-01
       -1   -1    0    0    0  501  0.00000000000E+00  0.00000000000E+00  0.90858512115E+03  0.90858512116E+03  0.50400001928E-02 0.  1.
        1   -1    0    0  501    0  0.00000000000E+00  0.00000000000E+00 -0.18136655073E+04  0.18136655073E+04  0.50400001928E-02 0. -1.
    10030    2    1    2    0    0  0.00000000000E+00  0.00000000000E+00 -0.90508038616E+03  0.27222506285E+04  0.25673873839E+04 0.  0.
        2    1    3    3  502    0  0.19453424664E+03 -0.12260675776E+04 -0.10605056648E+03  0.12459261618E+04  0.25500000920E-02 0.  1.
       -2    1    3    3    0  502 -0.19453424664E+03  0.12260675776E+04 -0.79902981968E+03  0.14763244666E+04  0.25500000920E-02 0. -1.
</event>
<event>
 5   0  0.4955675E-05  0.2552172E+04  0.7818609E-02  0.8384631E-01
       -2   -1    0    0    0  501  0.00000000000E+00  0.00000000000E+00  0.13219796317E+04  0.13219796317E+04  0.25500000920E-02 0.  1.
        2   -1    0    0  501    0  0.00000000000E+00  0.00000000000E+00 -0.12317856151E+04  0.12317856151E+04  0.25500000920E-02 0. -1.
    10030    2    1    2    0    0  0.00000000000E+00  0.00000000000E+00  0.90194016627E+02  0.25537652468E+04  0.25521720113E+04 0.  0.
        5    1    3    3  502    0 -0.39945231583E+03  0.37036982364E+03 -0.11095893375E+04  0.12361013497E+04  0.46999998093E+01 0. -1.
       -5    1    3    3    0  502  0.39945231583E+03 -0.37036982364E+03  0.11997833541E+04  0.13176638971E+04  0.46999998093E+01 0.  1.
</event>
<event>
 5   0  0.1993815E-05  0.2594996E+04  0.7818609E-02  0.8369903E-01
       -1   -1    0    0    0  501  0.00000000000E+00  0.00000000000E+00  0.14507344681E+04  0.14507344681E+04  0.50400001928E-02 0. -1.
        1   -1    0    0  501    0  0.00000000000E+00  0.00000000000E+00 -0.11604469838E+04  0.11604469838E+04  0.50400001928E-02 0.  1.
    10030    2    1    2    0    0  0.00000000000E+00  0.00000000000E+00  0.29028748431E+03  0.26111814519E+04  0.25949955205E+04 0.  0.
        5    1    3    3  502    0 -0.87827161030E+03  0.77559420479E+03  0.70590868996E+03  0.13679314897E+04  0.46999998093E+01 0. -1.
       -5    1    3    3    0  502  0.87827161030E+03 -0.77559420479E+03 -0.41562120565E+03  0.12432499622E+04  0.46999998093E+01 0.  1.
</event>
<event>
 5   0  0.2159405E-05  0.2691525E+04  0.7818609E-02  0.8337760E-01
       -1   -1    0    0    0  501  0.00000000000E+00  0.00000000000E+00  0.15829464986E+04  0.15829464986E+04  0.50400001928E-02 0. -1.
        1   -1    0    0  501    0  0.00000000000E+00  0.00000000000E+00 -0.11441177292E+04  0.11441177292E+04  0.50400001928E-02 0.  1.
    10030    2    1    2    0    0  0.00000000000E+00  0.00000000000E+00  0.43882876939E+03  0.27270642278E+04  0.26915253322E+04 0.  0.
        3    1    3    3  502    0  0.26511401497E+03 -0.87680931787E+03 -0.77950256994E+03  0.12027902093E+04  0.10100000352E+00 0.  1.
       -3    1    3    3    0  502 -0.26511401497E+03  0.87680931787E+03  0.12183313393E+04  0.15242740185E+04  0.10100000352E+00 0. -1.
</event>
<event>
 5   0  0.1993815E-05  0.2490726E+04  0.7818609E-02  0.8406297E-01
        1   -1    0    0  501    0  0.00000000000E+00  0.00000000000E+00  0.22285361322E+04  0.22285361322E+04  0.50400001928E-02 0.  1.
       -1   -1    0    0    0  501  0.00000000000E+00  0.00000000000E+00 -0.69594084113E+03  0.69594084115E+03  0.50400001928E-02 0. -1.
    10030    2    1    2    0    0  0.00000000000E+00  0.00000000000E+00  0.15325952910E+04  0.29244769733E+04  0.24907262478E+04 0.  0.
        5    1    3    3  502    0 -0.36094755415E+02 -0.13419286860E+03  0.22193940041E+04  0.22237451276E+04  0.46999998093E+01 0.  1.
       -5    1    3    3    0  502  0.36094755415E+02  0.13419286860E+03 -0.68679871303E+03  0.70073184569E+03  0.46999998093E+01 0. -1.
</event>
<event>
 5   0  0.2163800E-05  0.2632307E+04  0.7818609E-02  0.8357309E-01
       -1   -1    0    0    0  501  0.00000000000E+00  0.00000000000E+00  0.92125391107E+03  0.92125391108E+03  0.50400001928E-02 0. -1.
        1   -1    0    0  501    0  0.00000000000E+00  0.00000000000E+00 -0.18803284339E+04  0.18803284339E+04  0.50400001928E-02 0.  1.
    10030    2    1    2    0    0  0.00000000000E+00  0.00000000000E+00 -0.95907452284E+03  0.28015823450E+04  0.26323069151E+04 0.  0.
        1    1    3    3  502    0 -0.75955276667E+03  0.10430055628E+04 -0.20306541627E+03  0.13061456935E+04  0.50400001928E-02 0.  1.
       -1    1    3    3    0  502  0.75955276667E+03 -0.10430055628E+04 -0.75600910657E+03  0.14954366515E+04  0.50400001928E-02 0. -1.
</event>
<event>
 5   0  0.5036452E-05  0.1300349E+04  0.7818609E-02  0.9029289E-01
       -2   -1    0    0    0  501  0.00000000000E+00  0.00000000000E+00  0.22532944964E+03  0.22532944965E+03  0.25500000920E-02 0. -1.
        2   -1    0    0  501    0  0.00000000000E+00  0.00000000000E+00 -0.18760385772E+04  0.18760385772E+04  0.25500000920E-02 0.  1.
    10030    2    1    2    0    0  0.00000000000E+00  0.00000000000E+00 -0.16507091275E+04  0.21013680268E+04  0.13003487841E+04 0.  0.
        2    1    3    3  502    0 -0.83193017064E+02  0.64060076789E+03 -0.94450474248E+03  0.11442812725E+04  0.25500000920E-02 0. -1.
       -2    1    3    3    0  502  0.83193017064E+02 -0.64060076789E+03 -0.70620438504E+03  0.95708675436E+03  0.25500000920E-02 0.  1.
</event>
<event>
 5   0  0.5170532E-05  0.2580912E+04  0.7818609E-02  0.8374714E-01
       -2   -1    0    0    0  501  0.00000000000E+00  0.00000000000E+00  0.77445015732E+03  0.77445015732E+03  0.25500000920E-02 0. -1.
        2   -1    0    0  501    0  0.00000000000E+00  0.00000000000E+00 -0.21502695639E+04  0.21502695639E+04  0.25500000920E-02 0.  1.
    10030    2    1    2    0    0  0.00000000000E+00  0.00000000000E+00 -0.13758194065E+04  0.29247197212E+04  0.25809119334E+04 0.  0.
        1    1    3    3  502    0  0.11144641302E+04  0.53092490255E+03 -0.26183858399E+03  0.12619314536E+04  0.50400001928E-02 0. -1.
       -1    1    3    3    0  502 -0.11144641302E+04 -0.53092490255E+03 -0.11139808226E+04  0.16627882675E+04  0.50400001928E-02 0.  1.
</event>
<event>
 5   0  0.1698625E-05  0.2704079E+04  0.7818609E-02  0.8333683E-01
        3   -1    0    0  501    0  0.00000000000E+00  0.00000000000E+00  0.85841749400E+03  0.85841749994E+03  0.10100000352E+00 0.  1.
       -3   -1    0    0    0  501  0.00000000000E+00  0.00000000000E+00 -0.21295124272E+04  0.21295124296E+04  0.10100000352E+00 0. -1.
    10030    2    1    2    0    0  0.00000000000E+00  0.00000000000E+00 -0.12710949332E+04  0.29879299296E+04  0.27040789439E+04 0.  0.
        4    1    3    3  502    0  0.24840989609E+03 -0.13012759126E+04 -0.33703612427E+03  0.13669752884E+04  0.12699999809E+01 0.  1.
       -4    1    3    3    0  502 -0.24840989609E+03  0.13012759126E+04 -0.93405880896E+03  0.16209546412E+04  0.12699999809E+01 0. -1.
</event>
<event>
 5   0  0.2072710E-05  0.2578576E+04  0.7818609E-02  0.8375515E-01
        1   -1    0    0  501    0  0.00000000000E+00  0.00000000000E+00  0.12927209527E+04  0.12927209527E+04  0.50400001928E-02 0.  1.
       -1   -1    0    0    0  501  0.00000000000E+00  0.00000000000E+00 -0.12858641917E+04  0.12858641917E+04  0.50400001928E-02 0. -1.
    10030    2    1    2    0    0  0.00000000000E+00  0.00000000000E+00  0.68567609731E+01  0.25785851443E+04  0.25785760279E+04 0.  0.
        2    1    3    3  502    0  0.36815567770E+02  0.12614269257E+04 -0.26059964987E+03  0.12885904906E+04  0.25500000920E-02 0. -1.
       -2    1    3    3    0  502 -0.36815567770E+02 -0.12614269257E+04  0.26745641085E+03  0.12899946537E+04  0.25500000920E-02 0.  1.
</event>
<event>
 5   0  0.2159405E-05  0.2595590E+04  0.7818609E-02  0.8369701E-01
       -1   -1    0    0    0  501  0.00000000000E+00  0.00000000000E+00  0.99110625708E+03  0.99110625709E+03  0.50400001928E-02 0. -1.
        1   -1    0    0  501    0  0.00000000000E+00  0.00000000000E+00 -0.16993855646E+04  0.16993855646E+04  0.50400001928E-02 0.  1.
    10030    2    1    2    0    0  0.00000000000E+00  0.00000000000E+00 -0.70827930748E+03  0.26904918216E+04  0.25955898491E+04 0.  0.
        3    1    3    3  502    0 -0.10411170602E+04  0.74377796290E+03 -0.57919857108E+03  0.14044932844E+04  0.10100000352E+00 0. -1.
       -3    1    3    3    0  502  0.10411170602E+04 -0.74377796290E+03 -0.12908073639E+03  0.12859985372E+04  0.10100000352E+00 0.  1.
</event>
<event>
 5   0  0.5036452E-05  0.2707608E+04  0.7818609E-02  0.8332541E-01
        2   -1    0    0  501    0  0.00000000000E+00  0.00000000000E+00  0.11863850372E+04  0.11863850372E+04  0.25500000920E-02 0. -1.
       -2   -1    0    0    0  501  0.00000000000E+00  0.00000000000E+00 -0.15448486556E+04  0.15448486556E+04  0.25500000920E-02 0.  1.
    10030    2    1    2    0    0  0.00000000000E+00  0.00000000000E+00 -0.35846361841E+03  0.27312336927E+04  0.27076080437E+04 0.  0.
        2    1    3    3  502    0  0.96849358687E+03  0.90485157342E+03 -0.45740815391E+03  0.14021263912E+04  0.25500000920E-02 0. -1.
       -2    1    3    3    0  502 -0.96849358687E+03 -0.90485157342E+03  0.98944535501E+02  0.13291073015E+04  0.25500000920E-02 0.  1.
</event>
<event>
 5   0  0.5182179E-05  0.2646334E+04  0.7818609E-02  0.8352631E-01
       -2   -1    0    0    0  501  0.00000000000E+00  0.00000000000E+00  0.97689493443E+03  0.97689493443E+03  0.25500000920E-02 0.  1.
        2   -1    0    0  501    0  0.00000000000E+00  0.00000000000E+00 -0.17921794288E+04  0.17921794288E+04  0.25500000920E-02 0. -1.
    10030    2    1    2    0    0  0.00000000000E+00  0.00000000000E+00 -0.81528449432E+03  0.27690743632E+04  0.26463340723E+04 0.  0.
        3    1    3    3  502    0 -0.21039062981E+03 -0.48667306016E+03  0.86087919530E+03  0.10110528590E+04  0.10100000352E+00 0.  1.
       -3    1    3    3    0  502  0.21039062981E+03  0.48667306016E+03 -0.16761636896E+04  0.17580215042E+04  0.10100000352E+00 0. -1.
</event>
<event>
 5   0  0.2163800E-05  0.2252652E+04  0.7818609E-02  0.8496827E-01
       -1   -1    0    0    0  501  0.00000000000E+00  0.00000000000E+00  0.55893775884E+03  0.55893775887E+03  0.50400001928E-02 0. -1.
        1   -1    0    0  501    0  0.00000000000E+00  0.00000000000E+00 -0.22696807759E+04  0.22696807759E+04  0.50400001928E-02 0.  1.
    10030    2    1    2    0    0  0.00000000000E+00  0.00000000000E+00 -0.17107430170E+04  0.28286185347E+04  0.22526520248E+04 0.  0.
        1    1    3    3  502    0  0.73510014251E+03 -0.75382765983E+03 -0.13576166373E+04  0.17180661495E+04  0.50400001928E-02 0.  1.
       -1    1    3    3    0  502 -0.73510014251E+03  0.75382765983E+03 -0.35312637974E+03  0.11105523852E+04  0.50400001928E-02 0. -1.
</event>
<event>
 5   0  0.5036452E-05  0.2573450E+04  0.7818609E-02  0.8377276E-01
       -2   -1    0    0    0  501  0.00000000000E+00  0.00000000000E+00  0.81563748966E+03  0.81563748966E+03  0.25500000920E-02 0. -1.
        2   -1    0    0  501    0  0.00000000000E+00  0.00000000000E+00 -0.20298984364E+04  0.20298984364E+04  0.25500000920E-02 0.  1.
    10030    2    1    2    0    0  0.00000000000E+00  0.00000000000E+00 -0.12142609467E+04  0.28455359260E+04  0.25734500305E+04 0.  0.
        2    1    3    3  502    0  0.99877657019E+03  0.80797465632E+03 -0.68750391746E+03  0.14570653105E+04  0.25500000920E-02 0. -1.
       -2    1    3    3    0  502 -0.99877657019E+03 -0.80797465632E+03 -0.52675702926E+03  0.13884706156E+04  0.25500000920E-02 0.  1.
</event>
<event>
 5   0  0.1954502E-05  0.2612252E+04  0.7818609E-02  0.8364051E-01
       -1   -1    0    0    0  501  0.00000000000E+00  0.00000000000E+00  0.14301596005E+04  0.14301596005E+04  0.50400001928E-02 0. -1.
        1   -1    0    0  501    0  0.00000000000E+00  0.00000000000E+00 -0.11928494367E+04  0.11928494367E+04  0.50400001928E-02 0.  1.
    10030    2    1    2    0    0  0.00000000000E+00  0.00000000000E+00  0.23731016378E+03  0.26230090372E+04  0.26122519587E+04 0.  0.
        4    1    3    3  502    0 -0.84258595140E+03 -0.53747719568E+03 -0.72571833307E+03  0.12351119517E+04  0.12699999809E+01 0.  1.
       -4    1    3    3    0  502  0.84258595140E+03  0.53747719568E+03  0.96302849685E+03  0.13878970855E+04  0.12699999809E+01 0. -1.
</event>
<event>
 5   0  0.2159405E-05  0.2837480E+04  0.7818609E-02  0.8291726E-01
       -1   -1    0    0    0  501  0.00000000000E+00  0.00000000000E+00  0.88776936412E+03  0.88776936413E+03  0.50400001928E-02 0.  1.
        1   -1    0    0  501    0  0.00000000000E+00  0.00000000000E+00 -0.22672814105E+04  0.22672814105E+04  0.50400001928E-02 0. -1.
    10030    2    1    2    0    0  0.00000000000E+00  0.00000000000E+00 -0.13795120464E+04  0.31550507746E+04  0.28374798509E+04 0.  0.
        3    1    3    3  502    0 -0.14086428910E+04 -0.16851311981E+03 -0.70344213366E+03  0.15835094920E+04  0.10100000352E+00 0. -1.
       -3    1    3    3    0  502  0.14086428910E+04  0.16851311981E+03 -0.67606991272E+03  0.15715412826E+04  0.10100000352E+00 0.  1.
</event>
<event>
 5   0  0.4955675E-05  0.2451859E+04  0.7818609E-02  0.8420340E-01
        2   -1    0    0  501    0  0.00000000000E+00  0.00000000000E+00  0.21128694724E+04  0.21128694724E+04  0.25500000920E-02 0. -1.
       -2   -1    0    0    0  501  0.00000000000E+00  0.00000000000E+00 -0.71130893153E+03  0.71130893153E+03  0.25500000920E-02 0.  1.
    10030    2    1    2    0    0  0.00000000000E+00  0.00000000000E+00  0.14015605409E+04  0.28241784040E+04  0.24518588270E+04 0.  0.
        5    1    3    3  502    0 -0.74847078878E+01  0.11102881691E+04  0.12993943090E+04  0.17091645618E+04  0.46999998093E+01 0. -1.
       -5    1    3    3    0  502  0.74847078878E+01 -0.11102881691E+04  0.10216623196E+03  0.11150138422E+04  0.46999998093E+01 0.  1.
</event>
<event>
 5   0  0.5036452E-05  0.2630028E+04  0.7818609E-02  0.8358072E-01
       -2   -1    0    0    0  501  0.00000000000E+00  0.00000000000E+00  0.12187024932E+04  0.12187024932E+04  0.25500000920E-02 0. -1.
        2   -1    0    0  501    0  0.00000000000E+00  0.00000000000E+00 -0.14189372139E+04  0.14189372139E+04  0.25500000920E-02 0.  1.
    10030    2    1    2    0    0  0.00000000000E+00  0.00000000000E+00 -0.20023472073E+03  0.26376397071E+04  0.26300283802E+04 0.  0.
        2    1    3    3  502    0 -0.11395645098E+04  0.31702467597E+03  0.47613265905E+03  0.12750742042E+04  0.25500000920E-02 0.  1.
       -2    1    3    3    0  502  0.11395645098E+04 -0.31702467597E+03 -0.67636737978E+03  0.13625655029E+04  0.25500000920E-02 0. -1.
</event>
<event>
 5   0  0.1698625E-05  0.2355709E+04  0.7818609E-02  0.8456274E-01
        3   -1    0    0  501    0  0.00000000000E+00  0.00000000000E+00  0.78397253003E+03  0.78397253654E+03  0.10100000352E+00 0.  1.
       -3   -1    0    0    0  501  0.00000000000E+00  0.00000000000E+00 -0.17696291571E+04  0.17696291600E+04  0.10100000352E+00 0. -1.
    10030    2    1    2    0    0  0.00000000000E+00  0.00000000000E+00 -0.98565662711E+03  0.25536016966E+04  0.23557085215E+04 0.  0.
        5    1    3    3  502    0  0.48647403721E+03  0.93392397360E+03 -0.10648379413E+04  0.14975890319E+04  0.46999998093E+01 0.  1.
       -5    1    3    3    0  502 -0.48647403721E+03 -0.93392397360E+03  0.79181314193E+02  0.10560126646E+04  0.46999998093E+01 0. -1.
</event>
<event>
 5   0  0.1698625E-05  0.2633969E+04  0.7818609E-02  0.8356753E-01
        3   -1    0    0  501    0  0.00000000000E+00  0.00000000000E+00  0.13796695213E+04  0.13796695250E+04  0.10100000352E+00 0.  1.
       -3   -1    0    0    0  501  0.00000000000E+00  0.00000000000E+00 -0.12571480251E+04  0.12571480292E+04  0.10100000352E+00 0. -1.
    10030    2    1    2    0    0  0.00000000000E+00  0.00000000000E+00  0.12252149617E+03  0.26368175542E+04  0.26339694944E+04 0.  0.
        2    1    3    3  502    0 -0.57306148543E+03  0.34681928477E+03  0.11964029383E+04  0.13711539203E+04  0.25500000920E-02 0.  1.
       -2    1    3    3    0  502  0.57306148543E+03 -0.34681928477E+03 -0.10738814422E+04  0.12656636339E+04  0.25500000920E-02 0. -1.
</event>
<event>
 5   0  0.2072710E-05  0.1614499E+04  0.7818609E-02  0.8811690E-01
        1   -1    0    0  501    0  0.00000000000E+00  0.00000000000E+00  0.82192498097E+03  0.82192498099E+03  0.50400001928E-02 0.  1.
       -1   -1    0    0    0  501  0.00000000000E+00  0.00000000000E+00 -0.79283581136E+03  0.79283581137E+03  0.50400001928E-02 0. -1.
    10030    2    1    2    0    0  0.00000000000E+00  0.00000000000E+00  0.29089169614E+02  0.16147607924E+04  0.16144987571E+04 0.  0.
        2    1    3    3  502    0  0.66848200825E+03  0.72243908340E+02  0.46134315893E+03  0.81542926606E+03  0.25500000920E-02 0.  1.
       -2    1    3    3    0  502 -0.66848200825E+03 -0.72243908340E+02 -0.43225398932E+03  0.79933152630E+03  0.25500000920E-02 0. -1.
</event>
<event>
 5   0  0.2163800E-05  0.1762365E+04  0.7818609E-02  0.8726573E-01
       -1   -1    0    0    0  501  0.00000000000E+00  0.00000000000E+00  0.70822758517E+03  0.70822758519E+03  0.50400001928E-02 0. -1.
        1   -1    0    0  501    0  0.00000000000E+00  0.00000000000E+00 -0.10963741719E+04  0.10963741719E+04  0.50400001928E-02 0.  1.
    10030    2    1    2    0    0  0.00000000000E+00  0.00000000000E+00 -0.38814658670E+03  0.18046017571E+04  0.17623648115E+04 0.  0.
        1    1    3    3  502    0 -0.58575438278E+03 -0.85623971842E+02  0.47428934273E+03  0.75854468698E+03  0.50400001928E-02 0. -1.
       -1    1    3    3    0  502  0.58575438278E+03  0.85623971842E+02 -0.86243592943E+03  0.10460570701E+04  0.50400001928E-02 0.  1.
</event>
<event>
 5   0  0.5036452E-05  0.1923833E+04  0.7818609E-02  0.8643083E-01
       -2   -1    0    0    0  501  0.00000000000E+00  0.00000000000E+00  0.12084114673E+04  0.12084114673E+04  0.25500000920E-02 0. -1.
        2   -1    0    0  501    0  0.00000000000E+00  0.00000000000E+00 -0.76570216698E+03  0.76570216698E+03  0.25500000920E-02 0.  1.
    10030    2    1    2    0    0  0.00000000000E+00  0.00000000000E+00  0.44270930029E+03  0.19741136343E+04  0.19238329232E+04 0.  0.
        2    1    3    3  502    0  0.92216499472E+03 -0.26752358213E+03  0.28053461537E+03  0.10003283535E+04  0.25500000920E-02 0.  1.
       -2    1    3    3    0  502 -0.92216499472E+03  0.26752358213E+03  0.16217468492E+03  0.97378528071E+03  0.25500000920E-02 0. -1.
</event>
<event>
 5   0  0.2163800E-05  0.2538354E+04  0.7818609E-02  0.8389448E-01
       -1   -1    0    0    0  501  0.00000000000E+00  0.00000000000E+00  0.89661196444E+03  0.89661196445E+03  0.50400001928E-02 0. -1.
        1   -1    0    0  501    0  0.00000000000E+00  0.00000000000E+00 -0.17965528301E+04  0.17965528301E+04  0.50400001928E-02 0.  1.
    10030    2    1    2    0    0  0.00000000000E+00  0.00000000000E+00 -0.89994086562E+03  0.26931647945E+04  0.25383543978E+04 0.  0.
        1    1    3    3  502    0 -0.23090849421E+02  0.30844380586E+03  0.85601115062E+03  0.91017902563E+03  0.50400001928E-02 0. -1.
       -1    1    3    3    0  502  0.23090849421E+02 -0.30844380586E+03 -0.17559520162E+04  0.17829857689E+04  0.50400001928E-02 0.  1.
</event>
<event>
 5   0  0.1698625E-05  0.2600459E+04  0.7818609E-02  0.8368045E-01
        4   -1    0    0  501    0  0.00000000000E+00  0.00000000000E+00  0.13969609053E+04  0.13969614826E+04  0.12699999809E+01 0. -1.
       -4   -1    0    0    0  501  0.00000000000E+00  0.00000000000E+00 -0.12101949017E+04  0.12101955680E+04  0.12699999809E+01 0.  1.
    10030    2    1    2    0    0  0.00000000000E+00  0.00000000000E+00  0.18676600369E+03  0.26071570507E+04  0.26004588723E+04 0.  0.
        5    1    3    3  502    0 -0.50279189120E+03 -0.64261411700E+03 -0.92155941689E+03  0.12308722265E+04  0.46999998093E+01 0.  1.
       -5    1    3    3    0  502  0.50279189120E+03  0.64261411700E+03  0.11083254206E+04  0.13762848241E+04  0.46999998093E+01 0. -1.
</event>
<event>
 5   0  0.2159405E-05  0.2566145E+04  0.7818609E-02  0.8379793E-01
        1   -1    0    0  501    0  0.00000000000E+00  0.00000000000E+00  0.12752303139E+04  0.12752303139E+04  0.50400001928E-02 0.  1.
       -1   -1    0    0    0  501  0.00000000000E+00  0.00000000000E+00 -0.12909631632E+04  0.12909631633E+04  0.50400001928E-02 0. -1.
    10030    2    1    2    0    0  0.00000000000E+00  0.00000000000E+00 -0.15732849348E+02  0.25661934772E+04  0.25661452491E+04 0.  0.
        3    1    3    3  502    0  0.89047494784E+03 -0.19376401838E+03  0.89535884409E+03  0.12775592344E+04  0.10100000352E+00 0.  1.
       -3    1    3    3    0  502 -0.89047494784E+03  0.19376401838E+03 -0.91109169344E+03  0.12886342428E+04  0.10100000352E+00 0. -1.
</event>
<event>
 5   0  0.1698625E-05  0.2621812E+04  0.7818609E-02  0.8360830E-01
        3   -1    0    0  501    0  0.00000000000E+00  0.00000000000E+00  0.99355774868E+03  0.99355775381E+03  0.10100000352E+00 0. -1.
       -3   -1    0    0    0  501  0.00000000000E+00  0.00000000000E+00 -0.17296166745E+04  0.17296166774E+04  0.10100000352E+00 0.  1.
    10030    2    1    2    0    0  0.00000000000E+00  0.00000000000E+00 -0.73605892582E+03  0.27231744313E+04  0.26218116334E+04 0.  0.
        3    1    3    3  502    0 -0.62579458081E+03  0.11185859540E+04 -0.65365313284E+03  0.14387897074E+04  0.10100000352E+00 0.  1.
       -3    1    3    3    0  502  0.62579458081E+03 -0.11185859540E+04 -0.82405792988E+02  0.12843847238E+04  0.10100000352E+00 0. -1.
</event>
<event>
 5   0  0.1993815E-05  0.2615338E+04  0.7818609E-02  0.8363010E-01
        1   -1    0    0  501    0  0.00000000000E+00  0.00000000000E+00  0.18500862982E+04  0.18500862982E+04  0.50400001928E-02 0. -1.
       -1   -1    0    0    0  501  0.00000000000E+00  0.00000000000E+00 -0.92428024527E+03  0.92428024529E+03  0.50400001928E-02 0.  1.
    10030    2    1    2    0    0  0.00000000000E+00  0.00000000000E+00  0.92580605290E+03  0.27743665435E+04  0.26153380030E+04 0.  0.
        5    1    3    3  502    0  0.32547414225E+02 -0.76675488645E+03 -0.66025158444E+03  0.10123866034E+04  0.46999998093E+01 0.  1.
       -5    1    3    3    0  502 -0.32547414225E+02  0.76675488645E+03  0.15860576373E+04  0.17619799400E+04  0.46999998093E+01 0. -1.
</event>
<event>
 5   0  0.5036452E-05  0.2576671E+04  0.7818609E-02  0.8376169E-01
       -2   -1    0    0    0  501  0.00000000000E+00  0.00000000000E+00  0.68254031122E+03  0.68254031123E+03  0.25500000920E-02 0. -1.
        2   -1    0    0  501    0  0.00000000000E+00  0.00000000000E+00 -0.24318105129E+04  0.24318105129E+04  0.25500000920E-02 0.  1.
    10030    2    1    2    0    0  0.00000000000E+00  0.00000000000E+00 -0.17492702017E+04  0.31143508242E+04  0.25766712668E+04 0.  0.
        2    1    3    3  502    0  0.68102622376E+02 -0.11743936379E+04 -0.23968483759E+03  0.12005362157E+04  0.25500000920E-02 0. -1.
       -2    1    3    3    0  502 -0.68102622376E+02  0.11743936379E+04 -0.15095853641E+04  0.19138146084E+04  0.25500000920E-02 0.  1.
</event>
<event>
 5   0  0.1698625E-05  0.2679015E+04  0.7818609E-02  0.8341846E-01
       -3   -1    0    0    0  501  0.00000000000E+00  0.00000000000E+00  0.13206752198E+04  0.13206752236E+04  0.10100000352E+00 0. -1.
        3   -1    0    0  501    0  0.00000000000E+00  0.00000000000E+00 -0.13586088129E+04  0.13586088166E+04  0.10100000352E+00 0.  1.
    10030    2    1    2    0    0  0.00000000000E+00  0.00000000000E+00 -0.37933593084E+02  0.26792840403E+04  0.26790154929E+04 0.  0.
        5    1    3    3  502    0 -0.56427413177E+03  0.71815195178E+03  0.96098416446E+03  0.13257677685E+04  0.46999998093E+01 0. -1.
       -5    1    3    3    0  502  0.56427413177E+03 -0.71815195178E+03 -0.99891775754E+03  0.13535162718E+04  0.46999998093E+01 0.  1.
</event>
<event>
 5   0  0.2163800E-05  0.2587248E+04  0.7818609E-02  0.8372546E-01
       -1   -1    0    0    0  501  0.00000000000E+00  0.00000000000E+00  0.81281832773E+03  0.81281832775E+03  0.50400001928E-02 0.  1.
        1   -1    0    0  501    0  0.00000000000E+00  0.00000000000E+00 -0.20588402295E+04  0.20588402295E+04  0.50400001928E-02 0. -1.
    10030    2    1    2    0    0  0.00000000000E+00  0.00000000000E+00 -0.12460219018E+04  0.28716585573E+04  0.25872480147E+04 0.  0.
        1    1    3    3  502    0  0.61688101549E+03  0.18140422480E+03 -0.18689084637E+04  0.19764282243E+04  0.50400001928E-02 0. -1.
       -1    1    3    3    0  502 -0.61688101549E+03 -0.18140422480E+03  0.62288656192E+03  0.89523033298E+03  0.50400001928E-02 0.  1.
</event>
<event>
 5   0  0.5036452E-05  0.2607870E+04  0.7818609E-02  0.8365533E-01
        2   -1    0    0  501    0  0.00000000000E+00  0.00000000000E+00  0.19901017314E+04  0.19901017314E+04  0.25500000920E-02 0.  1.
       -2   -1    0    0    0  501  0.00000000000E+00  0.00000000000E+00 -0.85435169064E+03  0.85435169064E+03  0.25500000920E-02 0. -1.
    10030    2    1    2    0    0  0.00000000000E+00  0.00000000000E+00  0.11357500408E+04  0.28444534221E+04  0.26078702259E+04 0.  0.
        2    1    3    3  502    0 -0.85825717591E+03 -0.91367880684E+03  0.95936933645E+03  0.15785448571E+04  0.25500000920E-02 0.  1.
       -2    1    3    3    0  502  0.85825717591E+03  0.91367880684E+03  0.17638070435E+03  0.12659085650E+04  0.25500000920E-02 0. -1.
</event>
<event>
 5   0  0.2072710E-05  0.2565194E+04  0.7818609E-02  0.8380121E-01
       -1   -1    0    0    0  501  0.00000000000E+00  0.00000000000E+00  0.60998924612E+03  0.60998924614E+03  0.50400001928E-02 0.  1.
        1   -1    0    0  501    0  0.00000000000E+00  0.00000000000E+00 -0.26968592840E+04  0.26968592840E+04  0.50400001928E-02 0. -1.
    10030    2    1    2    0    0  0.00000000000E+00  0.00000000000E+00 -0.20868700378E+04  0.33068485301E+04  0.25651940757E+04 0.  0.
        2    1    3    3  502    0  0.63460348071E+03  0.73730868301E+03  0.34127297508E+02  0.97340143015E+03  0.25500000920E-02 0.  1.
       -2    1    3    3    0  502 -0.63460348071E+03 -0.73730868301E+03 -0.21209973353E+04  0.23334471000E+04  0.25500000920E-02 0. -1.
</event>
<event>
 5   0  0.2072710E-05  0.2638300E+04  0.7818609E-02  0.8355307E-01
        1   -1    0    0  501    0  0.00000000000E+00  0.00000000000E+00  0.25286190236E+04  0.25286190236E+04  0.50400001928E-02 0.  1.
       -1   -1    0    0    0  501  0.00000000000E+00  0.00000000000E+00 -0.68818446729E+03  0.68818446731E+03  0.50400001928E-02 0. -1.
    10030    2    1    2    0    0  0.00000000000E+00  0.00000000000E+00  0.18404345563E+04  0.32168034909E+04  0.26382997068E+04 0.  0.
        2    1    3    3  502    0 -0.78718381786E+03  0.97474660791E+03  0.14234781545E+04  0.18963331377E+04  0.25500000920E-02 0.  1.
       -2    1    3    3    0  502  0.78718381786E+03 -0.97474660791E+03  0.41695640180E+03  0.13204703532E+04  0.25500000920E-02 0. -1.
</event>
<event>
 5   0  0.1954502E-05  0.2644322E+04  0.7818609E-02  0.8353300E-01
       -1   -1    0    0    0  501  0.00000000000E+00  0.00000000000E+00  0.68649926355E+03  0.68649926357E+03  0.50400001928E-02 0. -1.
        1   -1    0    0  501    0  0.00000000000E+00  0.00000000000E+00 -0.25464110406E+04  0.25464110406E+04  0.50400001928E-02 0.  1.
    10030    2    1    2    0    0  0.00000000000E+00  0.00000000000E+00 -0.18599117770E+04  0.32329103041E+04  0.26443216931E+04 0.  0.
        4    1    3    3  502    0 -0.92057931812E+03 -0.37709036513E+03 -0.19946900882E+04  0.22290028231E+04  0.12699999809E+01 0.  1.
       -4    1    3    3    0  502  0.92057931812E+03  0.37709036513E+03  0.13477831121E+03  0.10039074810E+04  0.12699999809E+01 0. -1.
</event>
<event>
 5   0  0.1954502E-05  0.2648914E+04  0.7818609E-02  0.8351774E-01
        1   -1    0    0  501    0  0.00000000000E+00  0.00000000000E+00  0.14540401671E+04  0.14540401671E+04  0.50400001928E-02 0. -1.
       -1   -1    0    0    0  501  0.00000000000E+00  0.00000000000E+00 -0.12064217894E+04  0.12064217894E+04  0.50400001928E-02 0.  1.
    10030    2    1    2    0    0  0.00000000000E+00  0.00000000000E+00  0.24761837768E+03  0.26604619565E+04  0.26489135436E+04 0.  0.
        4    1    3    3  502    0  0.13175729700E+03  0.26743026372E+03  0.14199022568E+04  0.14508628340E+04  0.12699999809E+01 0. -1.
       -4    1    3    3    0  502 -0.13175729700E+03 -0.26743026372E+03 -0.11722838791E+04  0.12095991226E+04  0.12699999809E+01 0.  1.
</event>
<event>
 5   0  0.1993815E-05  0.2619825E+04  0.7818609E-02  0.8361498E-01
        1   -1    0    0  501    0  0.00000000000E+00  0.00000000000E+00  0.10861405472E+04  0.10861405472E+04  0.50400001928E-02 0. -1.
       -1   -1    0    0    0  501  0.00000000000E+00  0.00000000000E+00 -0.15797865497E+04  0.15797865497E+04  0.50400001928E-02 0.  1.
    10030    2    1    2    0    0  0.00000000000E+00  0.00000000000E+00 -0.49364600250E+03  0.26659270969E+04  0.26198245954E+04 0.  0.
        5    1    3    3  502    0  0.55496371114E+03  0.11863350934E+04 -0.26894172266E+03  0.13370592413E+04  0.46999998093E+01 0.  1.
       -5    1    3    3    0  502 -0.55496371114E+03 -0.11863350934E+04 -0.22470427985E+03  0.13288678557E+04  0.46999998093E+01 0. -1.
</event>
<event>
 5   0  0.2159405E-05  0.2701395E+04  0.7818609E-02  0.8334552E-01
       -1   -1    0    0    0  501  0.00000000000E+00  0.00000000000E+00  0.79322350217E+03  0.79322350218E+03  0.50400001928E-02 0. -1.
        1   -1    0    0  501    0  0.00000000000E+00  0.00000000000E+00 -0.22999624303E+04  0.22999624303E+04  0.50400001928E-02 0.  1.
    10030    2    1    2    0    0  0.00000000000E+00  0.00000000000E+00 -0.15067389281E+04  0.30931859325E+04  0.27013953830E+04 0.  0.
        3    1    3    3  502    0  0.80982250286E+03 -0.34368676902E+01 -0.19911492075E+04  0.21495347113E+04  0.10100000352E+00 0.  1.
       -3    1    3    3    0  502 -0.80982250286E+03  0.34368676902E+01  0.48441027943E+03  0.94365122117E+03  0.10100000352E+00 0. -1.
</event>
<event>
 5   0  0.4955675E-05  0.2517618E+04  0.7818609E-02  0.8396736E-01
       -2   -1    0    0    0  501  0.00000000000E+00  0.00000000000E+00  0.97186749518E+03  0.97186749518E+03  0.25500000920E-02 0.  1.
        2   -1    0    0  501    0  0.00000000000E+00  0.00000000000E+00 -0.16304694028E+04  0.16304694028E+04  0.25500000920E-02 0. -1.
    10030    2    1    2    0    0  0.00000000000E+00  0.00000000000E+00 -0.65860190765E+03  0.26023368980E+04  0.25176180922E+04 0.  0.
        5    1    3    3  502    0  0.30434508208E+03  0.53248992463E+03  0.80696560850E+03  0.10136010222E+04  0.46999998093E+01 0.  1.
       -5    1    3    3    0  502 -0.30434508208E+03 -0.53248992463E+03 -0.14655675161E+04  0.15887358758E+04  0.46999998093E+01 0. -1.
</event>
<event>
 5   0  0.1993815E-05  0.2389954E+04  0.7818609E-02  0.8443274E-01
        1   -1    0    0  501    0  0.00000000000E+00  0.00000000000E+00  0.31168471742E+04  0.31168471742E+04  0.50400001928E-02 0. -1.
       -1   -1    0    0    0  501  0.00000000000E+00  0.00000000000E+00 -0.45814580136E+03  0.45814580139E+03  0.50400001928E-02 0.  1.
    10030    2    1    2    0    0  0.00000000000E+00  0.00000000000E+00  0.26587013728E+04  0.35749929756E+04  0.23899543480E+04 0.  0.
        5    1    3    3  502    0 -0.10282705639E+04 -0.66443593003E+02  0.42415858345E+03  0.11143104135E+04  0.46999998093E+01 0. -1.
       -5    1    3    3    0  502  0.10282705639E+04  0.66443593003E+02  0.22345427894E+04  0.24606825621E+04  0.46999998093E+01 0.  1.
</event>
<event>
 5   0  0.5170532E-05  0.2560716E+04  0.7818609E-02  0.8381669E-01
       -2   -1    0    0    0  501  0.00000000000E+00  0.00000000000E+00  0.10284350571E+04  0.10284350571E+04  0.25500000920E-02 0.  1.
        2   -1    0    0  501    0  0.00000000000E+00  0.00000000000E+00 -0.15939918115E+04  0.15939918115E+04  0.25500000920E-02 0. -1.
    10030    2    1    2    0    0  0.00000000000E+00  0.00000000000E+00 -0.56555675442E+03  0.26224268685E+04  0.25607163526E+04 0.  0.
        1    1    3    3  502    0  0.33033329609E+03 -0.12240167875E+04 -0.99639602088E+02  0.12717174344E+04  0.50400001928E-02 0. -1.
       -1    1    3    3    0  502 -0.33033329609E+03  0.12240167875E+04 -0.46591715233E+03  0.13507094341E+04  0.50400001928E-02 0.  1.
</event>
<event>
 5   0  0.2159405E-05  0.2656310E+04  0.7818609E-02  0.8349322E-01
       -1   -1    0    0    0  501  0.00000000000E+00  0.00000000000E+00  0.72987643029E+03  0.72987643031E+03  0.50400001928E-02 0. -1.
        1   -1    0    0  501    0  0.00000000000E+00  0.00000000000E+00 -0.24168412460E+04  0.24168412460E+04  0.50400001928E-02 0.  1.
    10030    2    1    2    0    0  0.00000000000E+00  0.00000000000E+00 -0.16869648157E+04  0.31467176763E+04  0.26563098172E+04 0.  0.
        3    1    3    3  502    0  0.10185847212E+04 -0.30255620946E+03 -0.17874248603E+04  0.20794092275E+04  0.10100000352E+00 0.  1.
       -3    1    3    3    0  502 -0.10185847212E+04  0.30255620946E+03  0.10046004462E+03  0.10673084488E+04  0.10100000352E+00 0. -1.
</event>
<event>
 5   0  0.1954502E-05  0.2551156E+04  0.7818609E-02  0.8384984E-01
        1   -1    0    0  501    0  0.00000000000E+00  0.00000000000E+00  0.21929243252E+04  0.21929243252E+04  0.50400001928E-02 0.  1.
       -1   -1    0    0    0  501  0.00000000000E+00  0.00000000000E+00 -0.74197700503E+03  0.74197700505E+03  0.50400001928E-02 0. -1.
    10030    2    1    2    0    0  0.00000000000E+00  0.00000000000E+00  0.14509473202E+04  0.29349013303E+04  0.25511561482E+04 0.  0.
        4    1    3    3  502    0  0.12205815849E+04  0.21093974354E+03  0.37505254284E+03  0.12942105716E+04  0.12699999809E+01 0. -1.
       -4    1    3    3    0  502 -0.12205815849E+04 -0.21093974354E+03  0.10758947774E+04  0.16406907587E+04  0.12699999809E+01 0.  1.
</event>
<event>
 5   0  0.5170532E-05  0.1925734E+04  0.7818609E-02  0.8642152E-01
       -2   -1    0    0    0  501  0.00000000000E+00  0.00000000000E+00  0.69305934010E+03  0.69305934010E+03  0.25500000920E-02 0. -1.
        2   -1    0    0  501    0  0.00000000000E+00  0.00000000000E+00 -0.13377110353E+04  0.13377110353E+04  0.25500000920E-02 0.  1.
    10030    2    1    2    0    0  0.00000000000E+00  0.00000000000E+00 -0.64465169523E+03  0.20307703754E+04  0.19257342780E+04 0.  0.
        1    1    3    3  502    0 -0.48443294672E+03 -0.61975260452E+03  0.26324925272E+03  0.82949908967E+03  0.50400001928E-02 0. -1.
       -1    1    3    3    0  502  0.48443294672E+03  0.61975260452E+03 -0.90790094795E+03  0.12012712858E+04  0.50400001928E-02 0.  1.
</event>
<event>
 5   0  0.4955675E-05  0.2381180E+04  0.7818609E-02  0.8446583E-01
       -2   -1    0    0    0  501  0.00000000000E+00  0.00000000000E+00  0.99273222002E+03  0.99273222002E+03  0.25500000920E-02 0. -1.
        2   -1    0    0  501    0  0.00000000000E+00  0.00000000000E+00 -0.14278816151E+04  0.14278816151E+04  0.25500000920E-02 0.  1.
    10030    2    1    2    0    0  0.00000000000E+00  0.00000000000E+00 -0.43514939505E+03  0.24206138351E+04  0.23811796116E+04 0.  0.
        5    1    3    3  502    0  0.99789256150E+03  0.51818001563E+02 -0.87560237966E+03  0.13285993703E+04  0.46999998093E+01 0.  1.
       -5    1    3    3    0  502 -0.99789256150E+03 -0.51818001563E+02  0.44045298461E+03  0.10920144648E+04  0.46999998093E+01 0. -1.
</event>
<event>
 5   0  0.5170532E-05  0.2592520E+04  0.7818609E-02  0.8370746E-01
        2   -1    0    0  501    0  0.00000000000E+00  0.00000000000E+00  0.16603584419E+04  0.16603584419E+04  0.25500000920E-02 0.  1.
       -2   -1    0    0    0  501  0.00000000000E+00  0.00000000000E+00 -0.10120045392E+04  0.10120045392E+04  0.25500000920E-02 0. -1.
    10030    2    1    2    0    0  0.00000000000E+00  0.00000000000E+00  0.64835390264E+03  0.26723629811E+04  0.25925202255E+04 0.  0.
        1    1    3    3  502    0 -0.10762539530E+04 -0.65984638978E+03  0.20886922491E+02  0.12625989438E+04  0.50400001928E-02 0. -1.
       -1    1    3    3    0  502  0.10762539530E+04  0.65984638978E+03  0.62746698015E+03  0.14097640372E+04  0.50400001928E-02 0.  1.
</event>
<event>
 5   0  0.5182179E-05  0.2850949E+04  0.7818609E-02  0.8287623E-01
       -2   -1    0    0    0  501  0.00000000000E+00  0.00000000000E+00  0.82610913127E+03  0.82610913127E+03  0.25500000920E-02 0.  1.
        2   -1    0    0  501    0  0.00000000000E+00  0.00000000000E+00 -0.24596960936E+04  0.24596960936E+04  0.25500000920E-02 0. -1.
    10030    2    1    2    0    0  0.00000000000E+00  0.00000000000E+00 -0.16335869623E+04  0.32858052249E+04  0.28509488968E+04 0.  0.
        3    1    3    3  502    0 -0.59041299097E+03 -0.64401922766E+03  0.48134110936E+03  0.99751568372E+03  0.10100000352E+00 0.  1.
       -3    1    3    3    0  502  0.59041299097E+03  0.64401922766E+03 -0.21149280717E+04  0.22882895411E+04  0.10100000352E+00 0. -1.
</event>
<event>
 5   0  0.5036452E-05  0.2466010E+04  0.7818609E-02  0.8415196E-01
       -2   -1    0    0    0  501  0.00000000000E+00  0.00000000000E+00  0.90891829445E+03  0.90891829446E+03  0.25500000920E-02 0. -1.
        2   -1    0    0  501    0  0.00000000000E+00  0.00000000000E+00 -0.16726492717E+04  0.16726492717E+04  0.25500000920E-02 0.  1.
    10030    2    1    2    0    0  0.00000000000E+00  0.00000000000E+00 -0.76373097723E+03  0.25815675661E+04  0.24660101567E+04 0.  0.
        2    1    3    3  502    0 -0.36491489022E+03 -0.26331677235E+03 -0.15836147627E+04  0.16463093016E+04  0.25500000920E-02 0.  1.
       -2    1    3    3    0  502  0.36491489022E+03  0.26331677235E+03  0.81988378550E+03  0.93525826457E+03  0.25500000920E-02 0. -1.
</event>
<event>
 5   0  0.5170532E-05  0.2693106E+04  0.7818609E-02  0.8337245E-01
       -2   -1    0    0    0  501  0.00000000000E+00  0.00000000000E+00  0.11896512445E+04  0.11896512445E+04  0.25500000920E-02 0.  1.
        2   -1    0    0  501    0  0.00000000000E+00  0.00000000000E+00 -0.15241488156E+04  0.15241488156E+04  0.25500000920E-02 0. -1.
    10030    2    1    2    0    0  0.00000000000E+00  0.00000000000E+00 -0.33449757112E+03  0.27138000600E+04  0.26931064110E+04 0.  0.
        1    1    3    3  502    0  0.90185215622E+03 -0.26303988786E+03  0.80488069611E+03  0.12370772932E+04  0.50400001928E-02 0.  1.
       -1    1    3    3    0  502 -0.90185215622E+03  0.26303988786E+03 -0.11393782672E+04  0.14767227669E+04  0.50400001928E-02 0. -1.
</event>
<event>
 5   0  0.1993815E-05  0.1772264E+04  0.7818609E-02  0.8721190E-01
       -1   -1    0    0    0  501  0.00000000000E+00  0.00000000000E+00  0.78028304958E+03  0.78028304960E+03  0.50400001928E-02 0.  1.
        1   -1    0    0  501    0  0.00000000000E+00  0.00000000000E+00 -0.10063403702E+04  0.10063403702E+04  0.50400001928E-02 0. -1.
    10030    2    1    2    0    0  0.00000000000E+00  0.00000000000E+00 -0.22605732057E+03  0.17866234198E+04  0.17722644644E+04 0.  0.
        5    1    3    3  502    0 -0.29587625143E+02  0.78697224028E+03  0.29647364066E+03  0.84149833282E+03  0.46999998093E+01 0.  1.
       -5    1    3    3    0  502  0.29587625143E+02 -0.78697224028E+03 -0.52253096123E+03  0.94512508695E+03  0.46999998093E+01 0. -1.
</event>
<event>
 5   0  0.1993815E-05  0.2579714E+04  0.7818609E-02  0.8375125E-01
        1   -1    0    0  501    0  0.00000000000E+00  0.00000000000E+00  0.18043117782E+04  0.18043117782E+04  0.50400001928E-02 0. -1.
       -1   -1    0    0    0  501  0.00000000000E+00  0.00000000000E+00 -0.92208605576E+03  0.92208605577E+03  0.50400001928E-02 0.  1.
    10030    2    1    2    0    0  0.00000000000E+00  0.00000000000E+00  0.88222572243E+03  0.27263978340E+04  0.25797137290E+04 0.  0.
        5    1    3    3  502    0  0.69213326007E+03 -0.86307474321E+01  0.15913859416E+04  0.17354118371E+04  0.46999998093E+01 0. -1.
       -5    1    3    3    0  502 -0.69213326007E+03  0.86307474321E+01 -0.70916021913E+03  0.99098599682E+03  0.46999998093E+01 0.  1.
</event>
<event>
 5   0  0.5036452E-05  0.2571953E+04  0.7818609E-02  0.8377791E-01
       -2   -1    0    0    0  501  0.00000000000E+00  0.00000000000E+00  0.16381790359E+04  0.16381790359E+04  0.25500000920E-02 0.  1.
        2   -1    0    0  501    0  0.00000000000E+00  0.00000000000E+00 -0.10094964246E+04  0.10094964246E+04  0.25500000920E-02 0. -1.
    10030    2    1    2    0    0  0.00000000000E+00  0.00000000000E+00  0.62868261128E+03  0.26476754604E+04  0.25719532496E+04 0.  0.
        2    1    3    3  502    0 -0.12810762094E+04 -0.96171439132E+02  0.25493013478E+03  0.13097307256E+04  0.25500000920E-02 0.  1.
       -2    1    3    3    0  502  0.12810762094E+04  0.96171439132E+02  0.37375247649E+03  0.13379447349E+04  0.25500000920E-02 0. -1.
</event>
<event>
 5   0  0.2159405E-05  0.1365853E+04  0.7818609E-02  0.8978913E-01
       -1   -1    0    0    0  501  0.00000000000E+00  0.00000000000E+00  0.53411933258E+03  0.53411933260E+03  0.50400001928E-02 0.  1.
        1   -1    0    0  501    0  0.00000000000E+00  0.00000000000E+00 -0.87319227611E+03  0.87319227612E+03  0.50400001928E-02 0. -1.
    10030    2    1    2    0    0  0.00000000000E+00  0.00000000000E+00 -0.33907294353E+03  0.14073116087E+04  0.13658533973E+04 0.  0.
        3    1    3    3  502    0  0.26611136859E+03 -0.61880485501E+03 -0.53631308489E+02  0.67573000269E+03  0.10100000352E+00 0. -1.
       -3    1    3    3    0  502 -0.26611136859E+03  0.61880485501E+03 -0.28544163504E+03  0.73158160604E+03  0.10100000352E+00 0.  1.
</event>
<event>
 5   0  0.1993815E-05  0.2685221E+04  0.7818609E-02  0.8339816E-01
        1   -1    0    0  501    0  0.00000000000E+00  0.00000000000E+00  0.12612263696E+04  0.12612263696E+04  0.50400001928E-02 0. -1.
       -1   -1    0    0    0  501  0.00000000000E+00  0.00000000000E+00 -0.14292465594E+04  0.14292465594E+04  0.50400001928E-02 0.  1.
    10030    2    1    2    0    0  0.00000000000E+00  0.00000000000E+00 -0.16802018983E+03  0.26904729290E+04  0.26852213684E+04 0.  0.
        5    1    3    3  502    0  0.73477281943E+03  0.11873696407E+03 -0.12035994760E+04  0.14151548860E+04  0.46999998093E+01 0.  1.
       -5    1    3    3    0  502 -0.73477281943E+03 -0.11873696407E+03  0.10355792862E+04  0.12753180430E+04  0.46999998093E+01 0. -1.
</event>
<event>
 5   0  0.2072710E-05  0.2772258E+04  0.7818609E-02  0.8311933E-01
       -1   -1    0    0    0  501  0.00000000000E+00  0.00000000000E+00  0.16209901305E+04  0.16209901305E+04  0.50400001928E-02 0. -1.
        1   -1    0    0  501    0  0.00000000000E+00  0.00000000000E+00 -0.11852963425E+04  0.11852963425E+04  0.50400001928E-02 0.  1.
    10030    2    1    2    0    0  0.00000000000E+00  0.00000000000E+00  0.43569378795E+03  0.28062864730E+04  0.27722580493E+04 0.  0.
        2    1    3    3  502    0  0.12495831546E+03  0.17943401479E+03  0.16034221769E+04  0.16182625942E+04  0.25500000920E-02 0. -1.
       -2    1    3    3    0  502 -0.12495831546E+03 -0.17943401479E+03 -0.11677283890E+04  0.11880238788E+04  0.25500000920E-02 0.  1.
</event>
<event>
 5   0  0.5182179E-05  0.2588756E+04  0.7818609E-02  0.8372031E-01
        2   -1    0    0  501    0  0.00000000000E+00  0.00000000000E+00  0.18203508067E+04  0.18203508067E+04  0.25500000920E-02 0. -1.
       -2   -1    0    0    0  501  0.00000000000E+00  0.00000000000E+00 -0.92038011085E+03  0.92038011086E+03  0.25500000920E-02 0.  1.
    10030    2    1    2    0    0  0.00000000000E+00  0.00000000000E+00  0.89997069589E+03  0.27407309176E+04  0.25887562089E+04 0.  0.
        3    1    3    3  502    0  0.19046942186E+03 -0.65125438984E+03 -0.71699639344E+03  0.98716499095E+03  0.10100000352E+00 0.  1.
       -3    1    3    3    0  502 -0.19046942186E+03  0.65125438984E+03  0.16169670893E+04  0.17535659267E+04  0.10100000352E+00 0. -1.
</event>
<event>
 5   0  0.1698625E-05  0.1622894E+04  0.7818609E-02  0.8806606E-01
        3   -1    0    0  501    0  0.00000000000E+00  0.00000000000E+00  0.65877521132E+03  0.65877521906E+03  0.10100000352E+00 0.  1.
       -3   -1    0    0    0  501  0.00000000000E+00  0.00000000000E+00 -0.99950022068E+03  0.99950022578E+03  0.10100000352E+00 0. -1.
    10030    2    1    2    0    0  0.00000000000E+00  0.00000000000E+00 -0.34072500936E+03  0.16582754448E+04  0.16228936869E+04 0.  0.
        2    1    3    3  502    0 -0.63272755870E+03 -0.32819015497E+03 -0.56662271506E+03  0.91055710562E+03  0.25500000920E-02 0.  1.
       -2    1    3    3    0  502  0.63272755870E+03  0.32819015497E+03  0.22589770571E+03  0.74771833922E+03  0.25500000920E-02 0. -1.
</event>
<event>
 5   0  0.5036452E-05  0.2663736E+04  0.7818609E-02  0.8346868E-01
        2   -1    0    0  501    0  0.00000000000E+00  0.00000000000E+00  0.13517518506E+04  0.13517518506E+04  0.25500000920E-02 0. -1.
       -2   -1    0    0    0  501  0.00000000000E+00  0.00000000000E+00 -0.13122762868E+04  0.13122762868E+04  0.25500000920E-02 0.  1.
    10030    2    1    2    0    0  0.00000000000E+00  0.00000000000E+00  0.39475563714E+02  0.26640281374E+04  0.26637356469E+04 0.  0.
        2    1    3    3  502    0 -0.52080943589E+03  0.23249367691E+03 -0.11839624545E+04  0.13141776410E+04  0.25500000920E-02 0.  1.
       -2    1    3    3    0  502  0.52080943589E+03 -0.23249367691E+03  0.12234380182E+04  0.13498504964E+04  0.25500000920E-02 0. -1.
</event>
<event>
 5   0  0.2163800E-05  0.2563478E+04  0.7818609E-02  0.8380714E-01
       -1   -1    0    0    0  501  0.00000000000E+00  0.00000000000E+00  0.90839391692E+03  0.90839391693E+03  0.50400001928E-02 0. -1.
        1   -1    0    0  501    0  0.00000000000E+00  0.00000000000E+00 -0.18085269562E+04  0.18085269562E+04  0.50400001928E-02 0.  1.
    10030    2    1    2    0    0  0.00000000000E+00  0.00000000000E+00 -0.90013303932E+03  0.27169208732E+04  0.25634780168E+04 0.  0.
        1    1    3    3  502    0 -0.97550061918E+03  0.80488769387E+03 -0.67088652868E+03  0.14316194998E+04  0.50400001928E-02 0. -1.
       -1    1    3    3    0  502  0.97550061918E+03 -0.80488769387E+03 -0.22924651064E+03  0.12853013734E+04  0.50400001928E-02 0.  1.
</event>
<event>
 5   0  0.5182179E-05  0.2617365E+04  0.7818609E-02  0.8362327E-01
       -2   -1    0    0    0  501  0.00000000000E+00  0.00000000000E+00  0.13434905835E+04  0.13434905835E+04  0.25500000920E-02 0. -1.
        2   -1    0    0  501    0  0.00000000000E+00  0.00000000000E+00 -0.12747758156E+04  0.12747758156E+04  0.25500000920E-02 0.  1.
    10030    2    1    2    0    0  0.00000000000E+00  0.00000000000E+00  0.68714767934E+02  0.26182663991E+04  0.26173645557E+04 0.  0.
        3    1    3    3  502    0 -0.77575513434E+03  0.85666086200E+03 -0.57984556901E+03  0.12930138263E+04  0.10100000352E+00 0.  1.
       -3    1    3    3    0  502  0.77575513434E+03 -0.85666086200E+03  0.64856033694E+03  0.13252525728E+04  0.10100000352E+00 0. -1.
</event>
<event>
 5   0  0.2072710E-05  0.2494308E+04  0.7818609E-02  0.8405016E-01
        1   -1    0    0  501    0  0.00000000000E+00  0.00000000000E+00  0.21215830642E+04  0.21215830642E+04  0.50400001928E-02 0. -1.
       -1   -1    0    0    0  501  0.00000000000E+00  0.00000000000E+00 -0.73312856908E+03  0.73312856910E+03  0.50400001928E-02 0.  1.
    10030    2    1    2    0    0  0.00000000000E+00  0.00000000000E+00  0.13884544951E+04  0.28547116333E+04  0.24943080452E+04 0.  0.
        2    1    3    3  502    0  0.11437510418E+04 -0.21719820097E+03  0.12061250067E+04  0.16763290357E+04  0.25500000920E-02 0. -1.
       -2    1    3    3    0  502 -0.11437510418E+04  0.21719820097E+03  0.18232948846E+03  0.11783825977E+04  0.25500000920E-02 0.  1.
</event>
<event>
 5   0  0.1993815E-05  0.2476655E+04  0.7818609E-02  0.8411350E-01
       -1   -1    0    0    0  501  0.00000000000E+00  0.00000000000E+00  0.10944904819E+04  0.10944904819E+04  0.50400001928E-02 0. -1.
        1   -1    0    0  501    0  0.00000000000E+00  0.00000000000E+00 -0.14010671159E+04  0.14010671159E+04  0.50400001928E-02 0.  1.
    10030    2    1    2    0    0  0.00000000000E+00  0.00000000000E+00 -0.30657663393E+03  0.24955575978E+04  0.24766546977E+04 0.  0.
        5    1    3    3  502    0 -0.75465718900E+03  0.17644562145E+03  0.81989475203E+03  0.11282242794E+04  0.46999998093E+01 0. -1.
       -5    1    3    3    0  502  0.75465718900E+03 -0.17644562145E+03 -0.11264713860E+04  0.13673333184E+04  0.46999998093E+01 0.  1.
</event>
<event>
 5   0  0.1993815E-05  0.2604142E+04  0.7818609E-02  0.8366796E-01
       -1   -1    0    0    0  501  0.00000000000E+00  0.00000000000E+00  0.94510510959E+03  0.94510510960E+03  0.50400001928E-02 0.  1.
        1   -1    0    0  501    0  0.00000000000E+00  0.00000000000E+00 -0.17938630619E+04  0.17938630619E+04  0.50400001928E-02 0. -1.
    10030    2    1    2    0    0  0.00000000000E+00  0.00000000000E+00 -0.84875795227E+03  0.27389681715E+04  0.26041421971E+04 0.  0.
        5    1    3    3  502    0 -0.96592053533E+03 -0.19020984588E+03 -0.13206634323E+04  0.16472268385E+04  0.46999998093E+01 0. -1.
       -5    1    3    3    0  502  0.96592053533E+03  0.19020984588E+03  0.47190548003E+03  0.10917413330E+04  0.46999998093E+01 0.  1.
</event>
<event>
 5   0  0.2072710E-05  0.2618495E+04  0.7818609E-02  0.8361946E-01
       -1   -1    0    0    0  501  0.00000000000E+00  0.00000000000E+00  0.10725967006E+04  0.10725967006E+04  0.50400001928E-02 0. -1.
        1   -1    0    0  501    0  0.00000000000E+00  0.00000000000E+00 -0.15981108768E+04  0.15981108768E+04  0.50400001928E-02 0.  1.
    10030    2    1    2    0    0  0.00000000000E+00  0.00000000000E+00 -0.52551417624E+03  0.26707075774E+04  0.26184945702E+04 0.  0.
        2    1    3    3  502    0  0.17825946393E+03 -0.76051441533E+03  0.80889364541E+03  0.11244854566E+04  0.25500000920E-02 0. -1.
       -2    1    3    3    0  502 -0.17825946393E+03  0.76051441533E+03 -0.13344078217E+04  0.15462221208E+04  0.25500000920E-02 0.  1.
</event>
<event>
 5   0  0.5049803E-05  0.2560071E+04  0.7818609E-02  0.8381892E-01
       -2   -1    0    0    0  501  0.00000000000E+00  0.00000000000E+00  0.80628540191E+03  0.80628540191E+03  0.25500000920E-02 0. -1.
        2   -1    0    0  501    0  0.00000000000E+00  0.00000000000E+00 -0.20321469143E+04  0.20321469143E+04  0.25500000920E-02 0.  1.
    10030    2    1    2    0    0  0.00000000000E+00  0.00000000000E+00 -0.12258615124E+04  0.28384323162E+04  0.25600706174E+04 0.  0.
        4    1    3    3  502    0 -0.55415990015E+03  0.43809959313E+03 -0.17964544720E+04  0.19303561151E+04  0.12699999809E+01 0.  1.
       -4    1    3    3    0  502  0.55415990015E+03 -0.43809959313E+03  0.57059295962E+03  0.90807620105E+03  0.12699999809E+01 0. -1.
</event>
<event>
 5   0  0.1954502E-05  0.2488732E+04  0.7818609E-02  0.8407011E-01
       -1   -1    0    0    0  501  0.00000000000E+00  0.00000000000E+00  0.98024075151E+03  0.98024075152E+03  0.50400001928E-02 0. -1.
        1   -1    0    0  501    0  0.00000000000E+00  0.00000000000E+00 -0.15796602069E+04  0.15796602069E+04  0.50400001928E-02 0.  1.
    10030    2    1    2    0    0  0.00000000000E+00  0.00000000000E+00 -0.59941945536E+03  0.25599009584E+04  0.24887324552E+04 0.  0.
        4    1    3    3  502    0  0.31314012919E+03 -0.90135669115E+03  0.52184518021E+03  0.10875774134E+04  0.12699999809E+01 0. -1.
       -4    1    3    3    0  502 -0.31314012919E+03  0.90135669115E+03 -0.11212646356E+04  0.14723235450E+04  0.12699999809E+01 0.  1.
</event>
<event>
 5   0  0.1993815E-05  0.2548053E+04  0.7818609E-02  0.8386064E-01
       -1   -1    0    0    0  501  0.00000000000E+00  0.00000000000E+00  0.74648261296E+03  0.74648261298E+03  0.50400001928E-02 0.  1.
        1   -1    0    0  501    0  0.00000000000E+00  0.00000000000E+00 -0.21743887955E+04  0.21743887955E+04  0.50400001928E-02 0. -1.
    10030    2    1    2    0    0  0.00000000000E+00  0.00000000000E+00 -0.14279061826E+04  0.29208714085E+04  0.25480529270E+04 0.  0.
        5    1    3    3  502    0  0.49777038796E+03 -0.11575464160E+04 -0.92972927829E+03  0.15659207149E+04  0.46999998093E+01 0. -1.
       -5    1    3    3    0  502 -0.49777038796E+03  0.11575464160E+04 -0.49817690429E+03  0.13549506937E+04  0.46999998093E+01 0.  1.
</event>
<event>
 5   0  0.2072710E-05  0.2566412E+04  0.7818609E-02  0.8379700E-01
        1   -1    0    0  501    0  0.00000000000E+00  0.00000000000E+00  0.13334630970E+04  0.13334630970E+04  0.50400001928E-02 0.  1.
       -1   -1    0    0    0  501  0.00000000000E+00  0.00000000000E+00 -0.12348432949E+04  0.12348432949E+04  0.50400001928E-02 0. -1.
    10030    2    1    2    0    0  0.00000000000E+00  0.00000000000E+00  0.98619802104E+02  0.25683063920E+04  0.25664122540E+04 0.  0.
        2    1    3    3  502    0  0.57869848543E+03 -0.26258833221E+03 -0.10663103423E+04  0.12413147527E+04  0.25500000920E-02 0. -1.
       -2    1    3    3    0  502 -0.57869848543E+03  0.26258833221E+03  0.11649301444E+04  0.13269916392E+04  0.25500000920E-02 0.  1.
</event>
<event>
 5   0  0.5170532E-05  0.2349305E+04  0.7818609E-02  0.8458731E-01
       -2   -1    0    0    0  501  0.00000000000E+00  0.00000000000E+00  0.99504456488E+03  0.99504456488E+03  0.25500000920E-02 0.  1.
        2   -1    0    0  501    0  0.00000000000E+00  0.00000000000E+00 -0.13866804565E+04  0.13866804565E+04  0.25500000920E-02 0. -1.
    10030    2    1    2    0    0  0.00000000000E+00  0.00000000000E+00 -0.39163589161E+03  0.23817250214E+04  0.23493053028E+04 0.  0.
        1    1    3    3  502    0 -0.89070596937E+03 -0.76009266637E+03 -0.10119797083E+03  0.11753037968E+04  0.50400001928E-02 0.  1.
       -1    1    3    3    0  502  0.89070596937E+03  0.76009266637E+03 -0.29043792078E+03  0.12064212246E+04  0.50400001928E-02 0. -1.
</event>
<event>
 5   0  0.5182179E-05  0.2115667E+04  0.7818609E-02  0.8554373E-01
       -2   -1    0    0    0  501  0.00000000000E+00  0.00000000000E+00  0.75898549835E+03  0.75898549835E+03  0.25500000920E-02 0.  1.
        2   -1    0    0  501    0  0.00000000000E+00  0.00000000000E+00 -0.14743521910E+04  0.14743521910E+04  0.25500000920E-02 0. -1.
    10030    2    1    2    0    0  0.00000000000E+00  0.00000000000E+00 -0.71536669269E+03  0.22333376894E+04  0.21156672068E+04 0.  0.
        3    1    3    3  502    0 -0.87479775956E+03 -0.96392654838E+02  0.26185710456E+03  0.91822209593E+03  0.10100000352E+00 0. -1.
       -3    1    3    3    0  502  0.87479775956E+03  0.96392654838E+02 -0.97722379725E+03  0.13151155935E+04  0.10100000352E+00 0.  1.
</event>
<event>
 5   0  0.5182179E-05  0.2539818E+04  0.7818609E-02  0.8388936E-01
       -2   -1    0    0    0  501  0.00000000000E+00  0.00000000000E+00  0.86627857003E+03  0.86627857003E+03  0.25500000920E-02 0. -1.
        2   -1    0    0  501    0  0.00000000000E+00  0.00000000000E+00 -0.18616049301E+04  0.18616049301E+04  0.25500000920E-02 0.  1.
    10030    2    1    2    0    0  0.00000000000E+00  0.00000000000E+00 -0.99532636010E+03  0.27278835002E+04  0.25398176760E+04 0.  0.
        3    1    3    3  502    0  0.11009469843E+04  0.25929930655E+03 -0.11177781843E+04  0.15902039090E+04  0.10100000352E+00 0.  1.
       -3    1    3    3    0  502 -0.11009469843E+04 -0.25929930655E+03  0.12245182425E+03  0.11376795911E+04  0.10100000352E+00 0. -1.
</event>
<event>
 5   0  0.1954502E-05  0.2653391E+04  0.7818609E-02  0.8350288E-01
        1   -1    0    0  501    0  0.00000000000E+00  0.00000000000E+00  0.28959140785E+04  0.28959140785E+04  0.50400001928E-02 0.  1.
       -1   -1    0    0    0  501  0.00000000000E+00  0.00000000000E+00 -0.60779471206E+03  0.60779471208E+03  0.50400001928E-02 0. -1.
    10030    2    1    2    0    0  0.00000000000E+00  0.00000000000E+00  0.22881193664E+04  0.35037087906E+04  0.26533912365E+04 0.  0.
        4    1    3    3  502    0 -0.47493510047E+03 -0.11383413519E+04  0.17892457837E+04  0.21731972921E+04  0.12699999809E+01 0.  1.
       -4    1    3    3    0  502  0.47493510047E+03  0.11383413519E+04  0.49887358272E+03  0.13305114984E+04  0.12699999809E+01 0. -1.
</event>
<event>
 5   0  0.5170532E-05  0.2609388E+04  0.7818609E-02  0.8365019E-01
       -2   -1    0    0    0  501  0.00000000000E+00  0.00000000000E+00  0.88450628351E+03  0.88450628351E+03  0.25500000920E-02 0.  1.
        2   -1    0    0  501    0  0.00000000000E+00  0.00000000000E+00 -0.19244935734E+04  0.19244935734E+04  0.25500000920E-02 0. -1.
    10030    2    1    2    0    0  0.00000000000E+00  0.00000000000E+00 -0.10399872899E+04  0.28089998569E+04  0.26093881722E+04 0.  0.
        1    1    3    3  502    0 -0.77896193876E+02  0.36509434577E+03  0.82578537850E+03  0.90624675983E+03  0.50400001928E-02 0.  1.
       -1    1    3    3    0  502  0.77896193876E+02 -0.36509434577E+03 -0.18657726684E+04  0.19027530971E+04  0.50400001928E-02 0. -1.
</event>
<event>
 5   0  0.2072710E-05  0.2544608E+04  0.7818609E-02  0.8387264E-01
       -1   -1    0    0    0  501  0.00000000000E+00  0.00000000000E+00  0.11300457226E+04  0.11300457226E+04  0.50400001928E-02 0. -1.
        1   -1    0    0  501    0  0.00000000000E+00  0.00000000000E+00 -0.14324707867E+04  0.14324707867E+04  0.50400001928E-02 0.  1.
    10030    2    1    2    0    0  0.00000000000E+00  0.00000000000E+00 -0.30242506414E+03  0.25625165093E+04  0.25446080132E+04 0.  0.
        2    1    3    3  502    0  0.39749821437E+03  0.31414760599E+03 -0.13265011458E+04  0.14199643793E+04  0.25500000920E-02 0.  1.
       -2    1    3    3    0  502 -0.39749821437E+03 -0.31414760599E+03  0.10240760816E+04  0.11425521300E+04  0.25500000920E-02 0. -1.
</event>
<event>
 5   0  0.2159405E-05  0.2533926E+04  0.7818609E-02  0.8390998E-01
        1   -1    0    0  501    0  0.00000000000E+00  0.00000000000E+00  0.15321639615E+04  0.15321639615E+04  0.50400001928E-02 0. -1.
       -1   -1    0    0    0  501  0.00000000000E+00  0.00000000000E+00 -0.10476652806E+04  0.10476652806E+04  0.50400001928E-02 0.  1.
    10030    2    1    2    0    0  0.00000000000E+00  0.00000000000E+00  0.48449868095E+03  0.25798292421E+04  0.25339257974E+04 0.  0.
        3    1    3    3  502    0 -0.11623972869E+04  0.36608982291E+03 -0.11044470211E+03  0.12236777572E+04  0.10100000352E+00 0. -1.
       -3    1    3    3    0  502  0.11623972869E+04 -0.36608982291E+03  0.59494338307E+03  0.13561514850E+04  0.10100000352E+00 0.  1.
</event>
<event>
 5   0  0.1993815E-05  0.1301729E+04  0.7818609E-02  0.9028195E-01
        1   -1    0    0  501    0  0.00000000000E+00  0.00000000000E+00  0.42758344021E+03  0.42758344024E+03  0.50400001928E-02 0. -1.
       -1   -1    0    0    0  501  0.00000000000E+00  0.00000000000E+00 -0.99074153314E+03  0.99074153315E+03  0.50400001928E-02 0.  1.
    10030    2    1    2    0    0  0.00000000000E+00  0.00000000000E+00 -0.56315809293E+03  0.14183249734E+04  0.13017291164E+04 0.  0.
        5    1    3    3  502    0 -0.99443820935E+02 -0.22155683414E+03  0.37634990033E+03  0.44792615658E+03  0.46999998093E+01 0. -1.
       -5    1    3    3    0  502  0.99443820935E+02  0.22155683414E+03 -0.93950799326E+03  0.97039881681E+03  0.46999998093E+01 0.  1.
</event>
<event>
 5   0  0.5036452E-05  0.2718253E+04  0.7818609E-02  0.8329107E-01
       -2   -1    0    0    0  501  0.00000000000E+00  0.00000000000E+00  0.11096374625E+04  0.11096374625E+04  0.25500000920E-02 0.  1.
        2   -1    0    0  501    0  0.00000000000E+00  0.00000000000E+00 -0.16647102934E+04  0.16647102934E+04  0.25500000920E-02 0. -1.
    10030    2    1    2    0    0  0.00000000000E+00  0.00000000000E+00 -0.55507283089E+03  0.27743477558E+04  0.27182530461E+04 0.  0.
        2    1    3    3  502    0 -0.89878097248E+03  0.52838673335E+03  0.61236546558E+03  0.12091282975E+04  0.25500000920E-02 0.  1.
       -2    1    3    3    0  502  0.89878097248E+03 -0.52838673335E+03 -0.11674382965E+04  0.15652194583E+04  0.25500000920E-02 0. -1.
</event>
<event>
 5   0  0.5170532E-05  0.2552508E+04  0.7818609E-02  0.8384514E-01
        2   -1    0    0  501    0  0.00000000000E+00  0.00000000000E+00  0.10091685095E+04  0.10091685095E+04  0.25500000920E-02 0.  1.
       -2   -1    0    0    0  501  0.00000000000E+00  0.00000000000E+00 -0.16140266130E+04  0.16140266130E+04  0.25500000920E-02 0. -1.
    10030    2    1    2    0    0  0.00000000000E+00  0.00000000000E+00 -0.60485810349E+03  0.26231951224E+04  0.25525084378E+04 0.  0.
        1    1    3    3  502    0  0.66112865438E+03  0.28264737391E+03  0.78121181835E+03  0.10617309173E+04  0.50400001928E-02 0.  1.
       -1    1    3    3    0  502 -0.66112865438E+03 -0.28264737391E+03 -0.13860699218E+04  0.15614642051E+04  0.50400001928E-02 0. -1.
</event>
<event>
 5   0  0.4955675E-05  0.2638721E+04  0.7818609E-02  0.8355166E-01
       -2   -1    0    0    0  501  0.00000000000E+00  0.00000000000E+00  0.10519112176E+04  0.10519112176E+04  0.25500000920E-02 0.  1.
        2   -1    0    0  501    0  0.00000000000E+00  0.00000000000E+00 -0.16548088619E+04  0.16548088619E+04  0.25500000920E-02 0. -1.
    10030    2    1    2    0    0  0.00000000000E+00  0.00000000000E+00 -0.60289764432E+03  0.27067200795E+04  0.26387209059E+04 0.  0.
        5    1    3    3  502    0 -0.65950038131E+03  0.45628031282E+03 -0.13760900933E+04  0.15927267536E+04  0.46999998093E+01 0. -1.
       -5    1    3    3    0  502  0.65950038131E+03 -0.45628031282E+03  0.77319244899E+03  0.11139933258E+04  0.46999998093E+01 0.  1.
</event>
<event>
 5   0  0.2072710E-05  0.2479358E+04  0.7818609E-02  0.8410376E-01
        1   -1    0    0  501    0  0.00000000000E+00  0.00000000000E+00  0.13468484899E+04  0.13468484899E+04  0.50400001928E-02 0.  1.
       -1   -1    0    0    0  501  0.00000000000E+00  0.00000000000E+00 -0.11410371150E+04  0.11410371150E+04  0.50400001928E-02 0. -1.
    10030    2    1    2    0    0  0.00000000000E+00  0.00000000000E+00  0.20581137490E+03  0.24878856049E+04  0.24793580744E+04 0.  0.
        2    1    3    3  502    0 -0.92094058152E+03  0.57974694267E+00 -0.72981132587E+03  0.11750559400E+04  0.25500000920E-02 0. -1.
       -2    1    3    3    0  502  0.92094058152E+03 -0.57974694267E+00  0.93562270077E+03  0.13128296649E+04  0.25500000920E-02 0.  1.
</event>
<event>
 5   0  0.5049803E-05  0.2613349E+04  0.7818609E-02  0.8363681E-01
        2   -1    0    0  501    0  0.00000000000E+00  0.00000000000E+00  0.12899748807E+04  0.12899748807E+04  0.25500000920E-02 0.  1.
       -2   -1    0    0    0  501  0.00000000000E+00  0.00000000000E+00 -0.13235904211E+04  0.13235904211E+04  0.25500000920E-02 0. -1.
    10030    2    1    2    0    0  0.00000000000E+00  0.00000000000E+00 -0.33615540417E+02  0.26135653018E+04  0.26133491122E+04 0.  0.
        4    1    3    3  502    0 -0.89640474433E+03 -0.78988891604E+03 -0.54593642554E+03  0.13135882760E+04  0.12699999809E+01 0. -1.
       -4    1    3    3    0  502  0.89640474433E+03  0.78988891604E+03  0.51232088513E+03  0.12999770258E+04  0.12699999809E+01 0.  1.
</event>
<event>
 5   0  0.5170532E-05  0.2611948E+04  0.7818609E-02  0.8364154E-01
       -2   -1    0    0    0  501  0.00000000000E+00  0.00000000000E+00  0.10647138474E+04  0.10647138474E+04  0.25500000920E-02 0.  1.
        2   -1    0    0  501    0  0.00000000000E+00  0.00000000000E+00 -0.16019027677E+04  0.16019027677E+04  0.25500000920E-02 0. -1.
    10030    2    1    2    0    0  0.00000000000E+00  0.00000000000E+00 -0.53718892029E+03  0.26666166152E+04  0.26119479773E+04 0.  0.
        1    1    3    3  502    0  0.11471863965E+04 -0.54402776494E+03  0.43692092618E+02  0.12703982983E+04  0.50400001928E-02 0.  1.
       -1    1    3    3    0  502 -0.11471863965E+04  0.54402776494E+03 -0.58088101291E+03  0.13962183169E+04  0.50400001928E-02 0. -1.
</event>
<event>
 5   0  0.2163800E-05  0.2075650E+04  0.7818609E-02  0.8572046E-01
        1   -1    0    0  501    0  0.00000000000E+00  0.00000000000E+00  0.97974102588E+03  0.97974102590E+03  0.50400001928E-02 0.  1.
       -1   -1    0    0    0  501  0.00000000000E+00  0.00000000000E+00 -0.10993527888E+04  0.10993527888E+04  0.50400001928E-02 0. -1.
    10030    2    1    2    0    0  0.00000000000E+00  0.00000000000E+00 -0.11961176287E+03  0.20790938147E+04  0.20756502876E+04 0.  0.
        1    1    3    3  502    0 -0.69181941981E+03  0.29494335081E+03 -0.77616740582E+03  0.10807597012E+04  0.50400001928E-02 0. -1.
       -1    1    3    3    0  502  0.69181941981E+03 -0.29494335081E+03  0.65655564295E+03  0.99833411348E+03  0.50400001928E-02 0.  1.
</event>
<event>
 5   0  0.1993815E-05  0.2518749E+04  0.7818609E-02  0.8396336E-01
        1   -1    0    0  501    0  0.00000000000E+00  0.00000000000E+00  0.14362727869E+04  0.14362727869E+04  0.50400001928E-02 0.  1.
       -1   -1    0    0    0  501  0.00000000000E+00  0.00000000000E+00 -0.11042639669E+04  0.11042639669E+04  0.50400001928E-02 0. -1.
    10030    2    1    2    0    0  0.00000000000E+00  0.00000000000E+00  0.33200881996E+03  0.25405367538E+04  0.25187491223E+04 0.  0.
        5    1    3    3  502    0  0.67692620811E+03 -0.96806294297E+02 -0.90068864803E+03  0.11308681093E+04  0.46999998093E+01 0. -1.
       -5    1    3    3    0  502 -0.67692620811E+03  0.96806294297E+02  0.12326974680E+04  0.14096686445E+04  0.46999998093E+01 0.  1.
</event>
<event>
 5   0  0.4955675E-05  0.2626498E+04  0.7818609E-02  0.8359256E-01
        2   -1    0    0  501    0  0.00000000000E+00  0.00000000000E+00  0.13322917276E+04  0.13322917276E+04  0.25500000920E-02 0. -1.
       -2   -1    0    0    0  501  0.00000000000E+00  0.00000000000E+00 -0.12944781662E+04  0.12944781662E+04  0.25500000920E-02 0.  1.
    10030    2    1    2    0    0  0.00000000000E+00  0.00000000000E+00  0.37813561422E+02  0.26267698938E+04  0.26264977079E+04 0.  0.
        5    1    3    3  502    0 -0.73467144834E+03  0.78767800654E+03 -0.73245110495E+03  0.13025688044E+04  0.46999998093E+01 0.  1.
       -5    1    3    3    0  502  0.73467144834E+03 -0.78767800654E+03  0.77026466637E+03  0.13242010894E+04  0.46999998093E+01 0. -1.
</event>
<event>
 5   0  0.4955675E-05  0.2207550E+04  0.7818609E-02  0.8515292E-01
        2   -1    0    0  501    0  0.00000000000E+00  0.00000000000E+00  0.11868118963E+04  0.11868118963E+04  0.25500000920E-02 0. -1.
       -2   -1    0    0    0  501  0.00000000000E+00  0.00000000000E+00 -0.10265483349E+04  0.10265483349E+04  0.25500000920E-02 0.  1.
    10030    2    1    2    0    0  0.00000000000E+00  0.00000000000E+00  0.16026356140E+03  0.22133602312E+04  0.22075504760E+04 0.  0.
        5    1    3    3  502    0 -0.55165347535E+03 -0.84536251258E+03  0.52778003066E+03  0.11390931416E+04  0.46999998093E+01 0.  1.
       -5    1    3    3    0  502  0.55165347535E+03  0.84536251258E+03 -0.36751646926E+03  0.10742670896E+04  0.46999998093E+01 0. -1.
</event>
<event>
 5   0  0.4955675E-05  0.2183410E+04  0.7818609E-02  0.8525365E-01
        2   -1    0    0  501    0  0.00000000000E+00  0.00000000000E+00  0.14991804870E+04  0.14991804870E+04  0.25500000920E-02 0. -1.
       -2   -1    0    0    0  501  0.00000000000E+00  0.00000000000E+00 -0.79498057477E+03  0.79498057477E+03  0.25500000920E-02 0.  1.
    10030    2    1    2    0    0  0.00000000000E+00  0.00000000000E+00  0.70419991221E+03  0.22941610618E+04  0.21834095953E+04 0.  0.
        5    1    3    3  502    0  0.65595069491E+03  0.87053891900E+03  0.41590886152E+03  0.11666668739E+04  0.46999998093E+01 0.  1.
       -5    1    3    3    0  502 -0.65595069491E+03 -0.87053891900E+03  0.28829105069E+03  0.11274941878E+04  0.46999998093E+01 0. -1.
</event>
<event>
 5   0  0.5049803E-05  0.1838854E+04  0.7818609E-02  0.8685906E-01
        2   -1    0    0  501    0  0.00000000000E+00  0.00000000000E+00  0.57515087024E+03  0.57515087025E+03  0.25500000920E-02 0.  1.
       -2   -1    0    0    0  501  0.00000000000E+00  0.00000000000E+00 -0.14697818280E+04  0.14697818280E+04  0.25500000920E-02 0. -1.
    10030    2    1    2    0    0  0.00000000000E+00  0.00000000000E+00 -0.89463095771E+03  0.20449326982E+04  0.18388543144E+04 0.  0.
        4    1    3    3  502    0 -0.14204696537E+03 -0.70144446473E+03 -0.10891854331E+04  0.13032759486E+04  0.12699999809E+01 0. -1.
       -4    1    3    3    0  502  0.14204696537E+03  0.70144446473E+03  0.19455447542E+03  0.74165674964E+03  0.12699999809E+01 0.  1.
</event>
<event>
 5   0  0.5049803E-05  0.2359683E+04  0.7818609E-02  0.8454754E-01
        2   -1    0    0  501    0  0.00000000000E+00  0.00000000000E+00  0.11197823638E+04  0.11197823638E+04  0.25500000920E-02 0. -1.
       -2   -1    0    0    0  501  0.00000000000E+00  0.00000000000E+00 -0.12431217110E+04  0.12431217110E+04  0.25500000920E-02 0.  1.
    10030    2    1    2    0    0  0.00000000000E+00  0.00000000000E+00 -0.12333934728E+03  0.23629040748E+04  0.23596828330E+04 0.  0.
        4    1    3    3  502    0 -0.44232068124E+03 -0.75983423665E+03 -0.84952736922E+03  0.12225767936E+04  0.12699999809E+01 0.  1.
       -4    1    3    3    0  502  0.44232068124E+03  0.75983423665E+03  0.72618802193E+03  0.11403272812E+04  0.12699999809E+01 0. -1.
</event>
<event>
 5   0  0.1993815E-05  0.2599857E+04  0.7818609E-02  0.8368250E-01
        1   -1    0    0  501    0  0.00000000000E+00  0.00000000000E+00  0.19938347256E+04  0.19938347256E+04  0.50400001928E-02 0. -1.
       -1   -1    0    0    0  501  0.00000000000E+00  0.00000000000E+00 -0.84751939061E+03  0.84751939062E+03  0.50400001928E-02 0.  1.
    10030    2    1    2    0    0  0.00000000000E+00  0.00000000000E+00  0.11463153350E+04  0.28413541162E+04  0.25998566050E+04 0.  0.
        5    1    3    3  502    0 -0.87627064137E+02  0.73680450999E+03  0.17396505067E+04  0.18912866953E+04  0.46999998093E+01 0. -1.
       -5    1    3    3    0  502  0.87627064137E+02 -0.73680450999E+03 -0.59333517172E+03  0.95006742093E+03  0.46999998093E+01 0.  1.
</event>
<event>
 5   0  0.5182179E-05  0.2610197E+04  0.7818609E-02  0.8364746E-01
       -2   -1    0    0    0  501  0.00000000000E+00  0.00000000000E+00  0.22693277848E+04  0.22693277848E+04  0.25500000920E-02 0. -1.
        2   -1    0    0  501    0  0.00000000000E+00  0.00000000000E+00 -0.75056669716E+03  0.75056669716E+03  0.25500000920E-02 0.  1.
    10030    2    1    2    0    0  0.00000000000E+00  0.00000000000E+00  0.15187610877E+04  0.30198944820E+04  0.26101968203E+04 0.  0.
        3    1    3    3  502    0  0.57076110113E+03 -0.11456126409E+04  0.46421888464E+03  0.13615049543E+04  0.10100000352E+00 0. -1.
       -3    1    3    3    0  502 -0.57076110113E+03  0.11456126409E+04  0.10545422030E+04  0.16583895277E+04  0.10100000352E+00 0.  1.
</event>
<event>
 5   0  0.5036452E-05  0.2593357E+04  0.7818609E-02  0.8370461E-01
        2   -1    0    0  501    0  0.00000000000E+00  0.00000000000E+00  0.27104060152E+04  0.27104060152E+04  0.25500000920E-02 0. -1.
       -2   -1    0    0    0  501  0.00000000000E+00  0.00000000000E+00 -0.62034051447E+03  0.62034051447E+03  0.25500000920E-02 0.  1.
    10030    2    1    2    0    0  0.00000000000E+00  0.00000000000E+00  0.20900655007E+04  0.33307465297E+04  0.25933566372E+04 0.  0.
        2    1    3    3  502    0 -0.64982491753E+03 -0.42091527823E+03 -0.29088412532E+03  0.82707658004E+03  0.25500000920E-02 0. -1.
       -2    1    3    3    0  502  0.64982491753E+03  0.42091527823E+03  0.23809496261E+04  0.25036699496E+04  0.25500000920E-02 0.  1.
</event>
<event>
 5   0  0.2159405E-05  0.2595905E+04  0.7818609E-02  0.8369594E-01
       -1   -1    0    0    0  501  0.00000000000E+00  0.00000000000E+00  0.96186887563E+03  0.96186887564E+03  0.50400001928E-02 0.  1.
        1   -1    0    0  501    0  0.00000000000E+00  0.00000000000E+00 -0.17514658491E+04  0.17514658491E+04  0.50400001928E-02 0. -1.
    10030    2    1    2    0    0  0.00000000000E+00  0.00000000000E+00 -0.78959697347E+03  0.27133347247E+04  0.25959048419E+04 0.  0.
        3    1    3    3  502    0  0.16688201896E+03  0.18338735139E+03 -0.17264807471E+04  0.17441950318E+04  0.10100000352E+00 0. -1.
       -3    1    3    3    0  502 -0.16688201896E+03 -0.18338735139E+03  0.93688377361E+03  0.96913969290E+03  0.10100000352E+00 0.  1.
</event>
<event>
 5   0  0.4955675E-05  0.2603304E+04  0.7818609E-02  0.8367080E-01
       -2   -1    0    0    0  501  0.00000000000E+00  0.00000000000E+00  0.79010028005E+03  0.79010028005E+03  0.25500000920E-02 0.  1.
        2   -1    0    0  501    0  0.00000000000E+00  0.00000000000E+00 -0.21444082186E+04  0.21444082186E+04  0.25500000920E-02 0. -1.
    10030    2    1    2    0    0  0.00000000000E+00  0.00000000000E+00 -0.13543079386E+04  0.29345084987E+04  0.26033036965E+04 0.  0.
        5    1    3    3  502    0  0.34958078424E+02 -0.78198723089E+03  0.49513237607E+03  0.92623121106E+03  0.46999998093E+01 0.  1.
       -5    1    3    3    0  502 -0.34958078424E+02  0.78198723089E+03 -0.18494403147E+04  0.20082772876E+04  0.46999998093E+01 0. -1.
</event>
<event>
 5   0  0.5036452E-05  0.2607124E+04  0.7818609E-02  0.8365785E-01
        2   -1    0    0  501    0  0.00000000000E+00  0.00000000000E+00  0.94871485777E+03  0.94871485778E+03  0.25500000920E-02 0. -1.
       -2   -1    0    0    0  501  0.00000000000E+00  0.00000000000E+00 -0.17911320545E+04  0.17911320545E+04  0.25500000920E-02 0.  1.
    10030    2    1    2    0    0  0.00000000000E+00  0.00000000000E+00 -0.84241719670E+03  0.27398469123E+04  0.26071237733E+04 0.  0.
        2    1    3    3  502    0  0.29675654678E+03 -0.95309128992E+03 -0.13022343440E+04  0.16408113059E+04  0.25500000920E-02 0.  1.
       -2    1    3    3    0  502 -0.29675654678E+03  0.95309128992E+03  0.45981714731E+03  0.10990356063E+04  0.25500000920E-02 0. -1.
</event>
<event>
 5   0  0.2163800E-05  0.2523029E+04  0.7818609E-02  0.8394827E-01
        1   -1    0    0  501    0  0.00000000000E+00  0.00000000000E+00  0.11560558837E+04  0.11560558837E+04  0.50400001928E-02 0. -1.
       -1   -1    0    0    0  501  0.00000000000E+00  0.00000000000E+00 -0.13765934466E+04  0.13765934466E+04  0.50400001928E-02 0.  1.
    10030    2    1    2    0    0  0.00000000000E+00  0.00000000000E+00 -0.22053756288E+03  0.25326493303E+04  0.25230290949E+04 0.  0.
        1    1    3    3  502    0  0.38187899369E+03  0.53939232620E+03  0.96837172156E+03  0.11723990099E+04  0.50400001928E-02 0. -1.
       -1    1    3    3    0  502 -0.38187899369E+03 -0.53939232620E+03 -0.11889092844E+04  0.13602503204E+04  0.50400001928E-02 0.  1.
</event>
<event>
 5   0  0.4955675E-05  0.2506090E+04  0.7818609E-02  0.8400819E-01
       -2   -1    0    0    0  501  0.00000000000E+00  0.00000000000E+00  0.98132933328E+03  0.98132933329E+03  0.25500000920E-02 0. -1.
        2   -1    0    0  501    0  0.00000000000E+00  0.00000000000E+00 -0.15999944343E+04  0.15999944343E+04  0.25500000920E-02 0.  1.
    10030    2    1    2    0    0  0.00000000000E+00  0.00000000000E+00 -0.61866510100E+03  0.25813237676E+04  0.25060897601E+04 0.  0.
        5    1    3    3  502    0  0.74869254785E+03  0.43334565008E+03 -0.12430621035E+04  0.15144485685E+04  0.46999998093E+01 0.  1.
       -5    1    3    3    0  502 -0.74869254785E+03 -0.43334565008E+03  0.62439700246E+03  0.10668751990E+04  0.46999998093E+01 0. -1.
</event>
<event>
 5   0  0.2072710E-05  0.1736158E+04  0.7818609E-02  0.8741007E-01
        1   -1    0    0  501    0  0.00000000000E+00  0.00000000000E+00  0.20864091550E+04  0.20864091550E+04  0.50400001928E-02 0. -1.
       -1   -1    0    0    0  501  0.00000000000E+00  0.00000000000E+00 -0.36117594376E+03  0.36117594380E+03  0.50400001928E-02 0.  1.
    10030    2    1    2    0    0  0.00000000000E+00  0.00000000000E+00  0.17252332113E+04  0.24475850988E+04  0.17361575916E+04 0.  0.
        2    1    3    3  502    0 -0.64258447846E+02 -0.59306299553E+03 -0.26442803582E+02  0.59711982605E+03  0.25500000920E-02 0.  1.
       -2    1    3    3    0  502  0.64258447846E+02  0.59306299553E+03  0.17516760149E+04  0.18504652728E+04  0.25500000920E-02 0. -1.
</event>
<event>
 5   0  0.5182179E-05  0.2606502E+04  0.7818609E-02  0.8365996E-01
        2   -1    0    0  501    0  0.00000000000E+00  0.00000000000E+00  0.24944461503E+04  0.24944461503E+04  0.25500000920E-02 0. -1.
       -2   -1    0    0    0  501  0.00000000000E+00  0.00000000000E+00 -0.68089777646E+03  0.68089777646E+03  0.25500000920E-02 0.  1.
    10030    2    1    2    0    0  0.00000000000E+00  0.00000000000E+00  0.18135483738E+04  0.31753439268E+04  0.26065017454E+04 0.  0.
        3    1    3    3  502    0 -0.46499843716E+03 -0.63777175776E+03  0.21701577605E+04  0.23092338723E+04  0.10100000352E+00 0. -1.
       -3    1    3    3    0  502  0.46499843716E+03  0.63777175776E+03 -0.35660938663E+03  0.86611005444E+03  0.10100000352E+00 0.  1.
</event>
<event>
 5   0  0.2072710E-05  0.2458855E+04  0.7818609E-02  0.8417792E-01
       -1   -1    0    0    0  501  0.00000000000E+00  0.00000000000E+00  0.97122528321E+03  0.97122528322E+03  0.50400001928E-02 0.  1.
        1   -1    0    0  501    0  0.00000000000E+00  0.00000000000E+00 -0.15562727208E+04  0.15562727208E+04  0.50400001928E-02 0. -1.
    10030    2    1    2    0    0  0.00000000000E+00  0.00000000000E+00 -0.58504743755E+03  0.25274980040E+04  0.24588545414E+04 0.  0.
        2    1    3    3  502    0 -0.53496092227E+03 -0.85969039956E+03  0.42425253932E+03  0.10978346818E+04  0.25500000920E-02 0.  1.
       -2    1    3    3    0  502  0.53496092227E+03  0.85969039956E+03 -0.10092999769E+04  0.14296633222E+04  0.25500000920E-02 0. -1.
</event>
<event>
 5   0  0.1993815E-05  0.2613187E+04  0.7818609E-02  0.8363736E-01
        1   -1    0    0  501    0  0.00000000000E+00  0.00000000000E+00  0.16751266806E+04  0.16751266806E+04  0.50400001928E-02 0.  1.
       -1   -1    0    0    0  501  0.00000000000E+00  0.00000000000E+00 -0.10191389062E+04  0.10191389063E+04  0.50400001928E-02 0. -1.
    10030    2    1    2    0    0  0.00000000000E+00  0.00000000000E+00  0.65598777433E+03  0.26942655868E+04  0.26131871522E+04 0.  0.
        5    1    3    3  502    0 -0.71652406327E+02 -0.94814869294E+03 -0.59593754522E+03  0.11221780871E+04  0.46999998093E+01 0. -1.
       -5    1    3    3    0  502  0.71652406327E+02  0.94814869294E+03  0.12519253195E+04  0.15720874998E+04  0.46999998093E+01 0.  1.
</event>
<event>
 5   0  0.5036452E-05  0.2598832E+04  0.7818609E-02  0.8368598E-01
        2   -1    0    0  501    0  0.00000000000E+00  0.00000000000E+00  0.17888765219E+04  0.17888765219E+04  0.25500000920E-02 0.  1.
       -2   -1    0    0    0  501  0.00000000000E+00  0.00000000000E+00 -0.94387827835E+03  0.94387827835E+03  0.25500000920E-02 0. -1.
    10030    2    1    2    0    0  0.00000000000E+00  0.00000000000E+00  0.84499824351E+03  0.27327548002E+04  0.25988318081E+04 0.  0.
        2    1    3    3  502    0 -0.74553257669E+03 -0.20859338761E+03 -0.67490521610E+03  0.10270477472E+04  0.25500000920E-02 0. -1.
       -2    1    3    3    0  502  0.74553257669E+03  0.20859338761E+03  0.15199034596E+04  0.17057070530E+04  0.25500000920E-02 0.  1.
</event>
<event>
 5   0  0.5170532E-05  0.2620456E+04  0.7818609E-02  0.8361286E-01
        2   -1    0    0  501    0  0.00000000000E+00  0.00000000000E+00  0.15904381817E+04  0.15904381817E+04  0.25500000920E-02 0. -1.
       -2   -1    0    0    0  501  0.00000000000E+00  0.00000000000E+00 -0.10793868538E+04  0.10793868538E+04  0.25500000920E-02 0.  1.
    10030    2    1    2    0    0  0.00000000000E+00  0.00000000000E+00  0.51105132787E+03  0.26698250355E+04  0.26204564985E+04 0.  0.
        1    1    3    3  502    0 -0.97451779093E+03  0.85058750745E+03  0.46805579609E+03  0.13755945118E+04  0.50400001928E-02 0. -1.
       -1    1    3    3    0  502  0.97451779093E+03 -0.85058750745E+03  0.42995531776E+02  0.12942305237E+04  0.50400001928E-02 0.  1.
</event>
<event>
 5   0  0.1954502E-05  0.2627256E+04  0.7818609E-02  0.8359001E-01
        1   -1    0    0  501    0  0.00000000000E+00  0.00000000000E+00  0.11848686021E+04  0.11848686021E+04  0.50400001928E-02 0.  1.
       -1   -1    0    0    0  501  0.00000000000E+00  0.00000000000E+00 -0.14563797619E+04  0.14563797619E+04  0.50400001928E-02 0. -1.
    10030    2    1    2    0    0  0.00000000000E+00  0.00000000000E+00 -0.27151115977E+03  0.26412483641E+04  0.26272560992E+04 0.  0.
        4    1    3    3  502    0  0.29885842317E+03  0.48959795617E+03 -0.13238254976E+04  0.14427536439E+04  0.12699999809E+01 0. -1.
       -4    1    3    3    0  502 -0.29885842317E+03 -0.48959795617E+03  0.10523143379E+04  0.11984947202E+04  0.12699999809E+01 0.  1.
</event>
<event>
 5   0  0.2159405E-05  0.2574265E+04  0.7818609E-02  0.8376996E-01
       -1   -1    0    0    0  501  0.00000000000E+00  0.00000000000E+00  0.14487835080E+04  0.14487835080E+04  0.50400001928E-02 0.  1.
        1   -1    0    0  501    0  0.00000000000E+00  0.00000000000E+00 -0.11435184771E+04  0.11435184771E+04  0.50400001928E-02 0. -1.
    10030    2    1    2    0    0  0.00000000000E+00  0.00000000000E+00  0.30526503094E+03  0.25923019851E+04  0.25742654958E+04 0.  0.
        3    1    3    3  502    0  0.12120595209E+04  0.26318539082E+03 -0.19380678648E+03  0.12553548952E+04  0.10100000352E+00 0.  1.
       -3    1    3    3    0  502 -0.12120595209E+04 -0.26318539082E+03  0.49907181742E+03  0.13369470899E+04  0.10100000352E+00 0. -1.
</event>
<event>
 5   0  0.5036452E-05  0.2563941E+04  0.7818609E-02  0.8380554E-01
       -2   -1    0    0    0  501  0.00000000000E+00  0.00000000000E+00  0.78333205466E+03  0.78333205466E+03  0.25500000920E-02 0.  1.
        2   -1    0    0  501    0  0.00000000000E+00  0.00000000000E+00 -0.20980226110E+04  0.20980226110E+04  0.25500000920E-02 0. -1.
    10030    2    1    2    0    0  0.00000000000E+00  0.00000000000E+00 -0.13146905563E+04  0.28813546656E+04  0.25639409998E+04 0.  0.
        2    1    3    3  502    0 -0.23232945579E+03 -0.11778131455E+04 -0.15197594442E+03  0.12100898600E+04  0.25500000920E-02 0.  1.
       -2    1    3    3    0  502  0.23232945579E+03  0.11778131455E+04 -0.11627146119E+04  0.16712648056E+04  0.25500000920E-02 0. -1.
</event>
<event>
 5   0  0.2159405E-05  0.2565575E+04  0.7818609E-02  0.8379989E-01
       -1   -1    0    0    0  501  0.00000000000E+00  0.00000000000E+00  0.12824284818E+04  0.12824284818E+04  0.50400001928E-02 0. -1.
        1   -1    0    0  501    0  0.00000000000E+00  0.00000000000E+00 -0.12831469575E+04  0.12831469575E+04  0.50400001928E-02 0.  1.
    10030    2    1    2    0    0  0.00000000000E+00  0.00000000000E+00 -0.71847565771E+00  0.25655754393E+04  0.25655753387E+04 0.  0.
        3    1    3    3  502    0  0.37767177698E+02 -0.17615834065E+03 -0.12704325429E+04  0.12831433969E+04  0.10100000352E+00 0.  1.
       -3    1    3    3    0  502 -0.37767177698E+02  0.17615834065E+03  0.12697140673E+04  0.12824320424E+04  0.10100000352E+00 0. -1.
</event>
<event>
 5   0  0.2163800E-05  0.2542621E+04  0.7818609E-02  0.8387957E-01
        1   -1    0    0  501    0  0.00000000000E+00  0.00000000000E+00  0.14237113287E+04  0.14237113287E+04  0.50400001928E-02 0.  1.
       -1   -1    0    0    0  501  0.00000000000E+00  0.00000000000E+00 -0.11352233445E+04  0.11352233445E+04  0.50400001928E-02 0. -1.
    10030    2    1    2    0    0  0.00000000000E+00  0.00000000000E+00  0.28848798421E+03  0.25589346732E+04  0.25426209597E+04 0.  0.
        1    1    3    3  502    0  0.51487814609E+03 -0.59913024647E+03  0.11467141401E+04  0.13924833488E+04  0.50400001928E-02 0.  1.
       -1    1    3    3    0  502 -0.51487814609E+03  0.59913024647E+03 -0.85822615587E+03  0.11664513244E+04  0.50400001928E-02 0. -1.
</event>
<event>
 5   0  0.2072710E-05  0.1581954E+04  0.7818609E-02  0.8831711E-01
       -1   -1    0    0    0  501  0.00000000000E+00  0.00000000000E+00  0.47338817392E+03  0.47338817395E+03  0.50400001928E-02 0.  1.
        1   -1    0    0  501    0  0.00000000000E+00  0.00000000000E+00 -0.13216317902E+04  0.13216317902E+04  0.50400001928E-02 0. -1.
    10030    2    1    2    0    0  0.00000000000E+00  0.00000000000E+00 -0.84824361629E+03  0.17950199642E+04  0.15819543101E+04 0.  0.
        2    1    3    3  502    0 -0.59608321447E+03  0.26881784376E+02 -0.10132922545E+04  0.11759247519E+04  0.25500000920E-02 0. -1.
       -2    1    3    3    0  502  0.59608321447E+03 -0.26881784376E+02  0.16504863826E+03  0.61909521231E+03  0.25500000920E-02 0.  1.
</event>
<event>
 5   0  0.5049803E-05  0.1438657E+04  0.7818609E-02  0.8926302E-01
       -2   -1    0    0    0  501  0.00000000000E+00  0.00000000000E+00  0.36927903203E+03  0.36927903204E+03  0.25500000920E-02 0. -1.
        2   -1    0    0  501    0  0.00000000000E+00  0.00000000000E+00 -0.14011993629E+04  0.14011993629E+04  0.25500000920E-02 0.  1.
    10030    2    1    2    0    0  0.00000000000E+00  0.00000000000E+00 -0.10319203309E+04  0.17704783949E+04  0.14386570744E+04 0.  0.
        4    1    3    3  502    0  0.70513699357E+03  0.14087979446E+03 -0.53952424631E+03  0.89897348206E+03  0.12699999809E+01 0.  1.
       -4    1    3    3    0  502 -0.70513699357E+03 -0.14087979446E+03 -0.49239608455E+03  0.87150491288E+03  0.12699999809E+01 0. -1.
</event>
<event>
 5   0  0.2072710E-05  0.2596120E+04  0.7818609E-02  0.8369520E-01
        1   -1    0    0  501    0  0.00000000000E+00  0.00000000000E+00  0.15061903867E+04  0.15061903867E+04  0.50400001928E-02 0. -1.
       -1   -1    0    0    0  501  0.00000000000E+00  0.00000000000E+00 -0.11186897818E+04  0.11186897818E+04  0.50400001928E-02 0.  1.
    10030    2    1    2    0    0  0.00000000000E+00  0.00000000000E+00  0.38750060489E+03  0.26248801686E+04  0.25961200243E+04 0.  0.
        2    1    3    3  502    0  0.11507315112E+04 -0.53086212570E+03  0.47786539271E+03  0.13543828635E+04  0.25500000920E-02 0.  1.
       -2    1    3    3    0  502 -0.11507315112E+04  0.53086212570E+03 -0.90364787813E+02  0.12704973051E+04  0.25500000920E-02 0. -1.
</event>
<event>
 5   0  0.5049803E-05  0.1405528E+04  0.7818609E-02  0.8949826E-01
       -2   -1    0    0    0  501  0.00000000000E+00  0.00000000000E+00  0.45523069050E+03  0.45523069051E+03  0.25500000920E-02 0.  1.
        2   -1    0    0  501    0  0.00000000000E+00  0.00000000000E+00 -0.10848951092E+04  0.10848951092E+04  0.25500000920E-02 0. -1.
    10030    2    1    2    0    0  0.00000000000E+00  0.00000000000E+00 -0.62966441865E+03  0.15401257997E+04  0.14055284411E+04 0.  0.
        4    1    3    3  502    0 -0.62588972944E+02  0.41381258232E+03  0.30378165916E+03  0.51714905217E+03  0.12699999809E+01 0.  1.
       -4    1    3    3    0  502  0.62588972944E+02 -0.41381258232E+03 -0.93344607782E+03  0.10229767475E+04  0.12699999809E+01 0. -1.
</event>
<event>
 5   0  0.5170532E-05  0.1393167E+04  0.7818609E-02  0.8958780E-01
        2   -1    0    0  501    0  0.00000000000E+00  0.00000000000E+00  0.43590044228E+03  0.43590044229E+03  0.25500000920E-02 0. -1.
       -2   -1    0    0    0  501  0.00000000000E+00  0.00000000000E+00 -0.11131634112E+04  0.11131634112E+04  0.25500000920E-02 0.  1.
    10030    2    1    2    0    0  0.00000000000E+00  0.00000000000E+00 -0.67726296889E+03  0.15490638535E+04  0.13931667858E+04 0.  0.
        1    1    3    3  502    0  0.21073983153E+03 -0.64409625229E+03 -0.51777241760E+03  0.85285375960E+03  0.50400001928E-02 0.  1.
       -1    1    3    3    0  502 -0.21073983153E+03  0.64409625229E+03 -0.15949055128E+03  0.69621009386E+03  0.50400001928E-02 0. -1.
</event>
<event>
 5   0  0.1698625E-05  0.1904622E+04  0.7818609E-02  0.8652559E-01
        4   -1    0    0  501    0  0.00000000000E+00  0.00000000000E+00  0.13890462405E+04  0.13890468211E+04  0.12699999809E+01 0. -1.
       -4   -1    0    0    0  501  0.00000000000E+00  0.00000000000E+00 -0.65289024537E+03  0.65289148057E+03  0.12699999809E+01 0.  1.
    10030    2    1    2    0    0  0.00000000000E+00  0.00000000000E+00  0.73615599513E+03  0.20419383017E+04  0.19046223717E+04 0.  0.
        5    1    3    3  502    0  0.35009297277E+03  0.88036124882E+03  0.47131972428E+03  0.10581896761E+04  0.46999998093E+01 0. -1.
       -5    1    3    3    0  502 -0.35009297277E+03 -0.88036124882E+03  0.26483627086E+03  0.98374862560E+03  0.46999998093E+01 0.  1.
</event>
<event>
 5   0  0.5182179E-05  0.2587091E+04  0.7818609E-02  0.8372599E-01
       -2   -1    0    0    0  501  0.00000000000E+00  0.00000000000E+00  0.96790662618E+03  0.96790662618E+03  0.25500000920E-02 0. -1.
        2   -1    0    0  501    0  0.00000000000E+00  0.00000000000E+00 -0.17287414787E+04  0.17287414787E+04  0.25500000920E-02 0.  1.
    10030    2    1    2    0    0  0.00000000000E+00  0.00000000000E+00 -0.76083485251E+03  0.26966481049E+04  0.25870912873E+04 0.  0.
        3    1    3    3  502    0 -0.36259426623E+03 -0.26767565447E+03  0.88341996858E+03  0.99174377185E+03  0.10100000352E+00 0. -1.
       -3    1    3    3    0  502  0.36259426623E+03  0.26767565447E+03 -0.16442548211E+04  0.17049043330E+04  0.10100000352E+00 0.  1.
</event>
<event>
 5   0  0.5049803E-05  0.2464414E+04  0.7818609E-02  0.8415774E-01
        2   -1    0    0  501    0  0.00000000000E+00  0.00000000000E+00  0.20561328680E+04  0.20561328680E+04  0.25500000920E-02 0. -1.
       -2   -1    0    0    0  501  0.00000000000E+00  0.00000000000E+00 -0.73844161427E+03  0.73844161427E+03  0.25500000920E-02 0.  1.
    10030    2    1    2    0    0  0.00000000000E+00  0.00000000000E+00  0.13176912538E+04  0.27945744823E+04  0.24644139865E+04 0.  0.
        4    1    3    3  502    0  0.14742895619E+03 -0.12834337715E+02  0.20460184828E+04  0.20513637566E+04  0.12699999809E+01 0. -1.
       -4    1    3    3    0  502 -0.14742895619E+03  0.12834337715E+02 -0.72832722900E+03  0.74321072567E+03  0.12699999809E+01 0.  1.
</event>
<event>
 5   0  0.2159405E-05  0.2579956E+04  0.7818609E-02  0.8375042E-01
       -1   -1    0    0    0  501  0.00000000000E+00  0.00000000000E+00  0.10695827078E+04  0.10695827078E+04  0.50400001928E-02 0.  1.
        1   -1    0    0  501    0  0.00000000000E+00  0.00000000000E+00 -0.15557878092E+04  0.15557878092E+04  0.50400001928E-02 0. -1.
    10030    2    1    2    0    0  0.00000000000E+00  0.00000000000E+00 -0.48620510140E+03  0.26253705171E+04  0.25799563856E+04 0.  0.
        3    1    3    3  502    0 -0.47310937919E+03  0.70627496483E+03  0.74422741639E+03  0.11298368325E+04  0.10100000352E+00 0.  1.
       -3    1    3    3    0  502  0.47310937919E+03 -0.70627496483E+03 -0.12304325178E+04  0.14955336846E+04  0.10100000352E+00 0. -1.
</event>
<event>
 5   0  0.2072710E-05  0.2581556E+04  0.7818609E-02  0.8374493E-01
       -1   -1    0    0    0  501  0.00000000000E+00  0.00000000000E+00  0.11119148188E+04  0.11119148188E+04  0.50400001928E-02 0. -1.
        1   -1    0    0  501    0  0.00000000000E+00  0.00000000000E+00 -0.14984132207E+04  0.14984132207E+04  0.50400001928E-02 0.  1.
    10030    2    1    2    0    0  0.00000000000E+00  0.00000000000E+00 -0.38649840187E+03  0.26103280396E+04  0.25815560152E+04 0.  0.
        2    1    3    3  502    0  0.80460778774E+03 -0.25827228027E+03 -0.11798335007E+04  0.14512426924E+04  0.25500000920E-02 0.  1.
       -2    1    3    3    0  502 -0.80460778774E+03  0.25827228027E+03  0.79333509887E+03  0.11590853471E+04  0.25500000920E-02 0. -1.
</event>
<event>
 5   0  0.1993815E-05  0.2531452E+04  0.7818609E-02  0.8391865E-01
        1   -1    0    0  501    0  0.00000000000E+00  0.00000000000E+00  0.16022409848E+04  0.16022409848E+04  0.50400001928E-02 0.  1.
       -1   -1    0    0    0  501  0.00000000000E+00  0.00000000000E+00 -0.99988885422E+03  0.99988885423E+03  0.50400001928E-02 0. -1.
    10030    2    1    2    0    0  0.00000000000E+00  0.00000000000E+00  0.60235213059E+03  0.26021298391E+04  0.25314524704E+04 0.  0.
        5    1    3    3  502    0  0.64457419088E+03  0.10395427994E+04  0.63570935538E+03  0.13785041145E+04  0.46999998093E+01 0.  1.
       -5    1    3    3    0  502 -0.64457419088E+03 -0.10395427994E+04 -0.33357224783E+02  0.12236257245E+04  0.46999998093E+01 0. -1.
</event>
<event>
 5   0  0.5049803E-05  0.2559516E+04  0.7818609E-02  0.8382084E-01
       -2   -1    0    0    0  501  0.00000000000E+00  0.00000000000E+00  0.75189254631E+03  0.75189254632E+03  0.25500000920E-02 0. -1.
        2   -1    0    0  501    0  0.00000000000E+00  0.00000000000E+00 -0.21782101411E+04  0.21782101411E+04  0.25500000920E-02 0.  1.
    10030    2    1    2    0    0  0.00000000000E+00  0.00000000000E+00 -0.14263175948E+04  0.29301026874E+04  0.25595155553E+04 0.  0.
        4    1    3    3  502    0  0.41820830724E+03 -0.74482233271E+03  0.37777062406E+03  0.93400789763E+03  0.12699999809E+01 0.  1.
       -4    1    3    3    0  502 -0.41820830724E+03  0.74482233271E+03 -0.18040882189E+04  0.19960947898E+04  0.12699999809E+01 0. -1.
</event>
<event>
 5   0  0.2163800E-05  0.2581314E+04  0.7818609E-02  0.8374576E-01
        1   -1    0    0  501    0  0.00000000000E+00  0.00000000000E+00  0.18458329295E+04  0.18458329295E+04  0.50400001928E-02 0.  1.
       -1   -1    0    0    0  501  0.00000000000E+00  0.00000000000E+00 -0.90246278614E+03  0.90246278615E+03  0.50400001928E-02 0. -1.
    10030    2    1    2    0    0  0.00000000000E+00  0.00000000000E+00  0.94337014337E+03  0.27482957157E+04  0.25813140284E+04 0.  0.
        1    1    3    3  502    0  0.43578570674E+03 -0.79784475707E+03  0.14470991411E+04  0.17089649975E+04  0.50400001928E-02 0.  1.
       -1    1    3    3    0  502 -0.43578570674E+03  0.79784475707E+03 -0.50372899769E+03  0.10393307182E+04  0.50400001928E-02 0. -1.
</event>
<event>
 5   0  0.1993815E-05  0.2600759E+04  0.7818609E-02  0.8367943E-01
       -1   -1    0    0    0  501  0.00000000000E+00  0.00000000000E+00  0.16998056157E+04  0.16998056157E+04  0.50400001928E-02 0. -1.
        1   -1    0    0  501    0  0.00000000000E+00  0.00000000000E+00 -0.99481219421E+03  0.99481219423E+03  0.50400001928E-02 0.  1.
    10030    2    1    2    0    0  0.00000000000E+00  0.00000000000E+00  0.70499342152E+03  0.26946178100E+04  0.26007593924E+04 0.  0.
        5    1    3    3  502    0  0.58665557169E+03 -0.69862819617E+03 -0.60761678391E+03  0.10961142105E+04  0.46999998093E+01 0.  1.
       -5    1    3    3    0  502 -0.58665557169E+03  0.69862819617E+03  0.13126102054E+04  0.15985035995E+04  0.46999998093E+01 0. -1.
</event>
<event>
 5   0  0.2163800E-05  0.2482655E+04  0.7818609E-02  0.8409191E-01
        1   -1    0    0  501    0  0.00000000000E+00  0.00000000000E+00  0.15139505345E+04  0.15139505345E+04  0.50400001928E-02 0.  1.
       -1   -1    0    0    0  501  0.00000000000E+00  0.00000000000E+00 -0.10177970479E+04  0.10177970479E+04  0.50400001928E-02 0. -1.
    10030    2    1    2    0    0  0.00000000000E+00  0.00000000000E+00  0.49615348660E+03  0.25317475824E+04  0.24826553403E+04 0.  0.
        1    1    3    3  502    0 -0.10101520871E+04 -0.65977862817E+03 -0.49549364049E+02  0.12075471903E+04  0.50400001928E-02 0. -1.
       -1    1    3    3    0  502  0.10101520871E+04  0.65977862817E+03  0.54570285065E+03  0.13242003921E+04  0.50400001928E-02 0.  1.
</event>
<event>
 5   0  0.2072710E-05  0.2597667E+04  0.7818609E-02  0.8368994E-01
        1   -1    0    0  501    0  0.00000000000E+00  0.00000000000E+00  0.11137380905E+04  0.11137380905E+04  0.50400001928E-02 0.  1.
       -1   -1    0    0    0  501  0.00000000000E+00  0.00000000000E+00 -0.15146908370E+04  0.15146908370E+04  0.50400001928E-02 0. -1.
    10030    2    1    2    0    0  0.00000000000E+00  0.00000000000E+00 -0.40095274646E+03  0.26284289275E+04  0.25976673232E+04 0.  0.
        2    1    3    3  502    0  0.25101676345E+03  0.91412005594E+03  0.69792537221E+03  0.11771680922E+04  0.25500000920E-02 0.  1.
       -2    1    3    3    0  502 -0.25101676345E+03 -0.91412005594E+03 -0.10988781187E+04  0.14512608352E+04  0.25500000920E-02 0. -1.
</event>
<event>
 5   0  0.4955675E-05  0.2596306E+04  0.7818609E-02  0.8369457E-01
        2   -1    0    0  501    0  0.00000000000E+00  0.00000000000E+00  0.17314814716E+04  0.17314814716E+04  0.25500000920E-02 0. -1.
       -2   -1    0    0    0  501  0.00000000000E+00  0.00000000000E+00 -0.97327164502E+03  0.97327164502E+03  0.25500000920E-02 0.  1.
    10030    2    1    2    0    0  0.00000000000E+00  0.00000000000E+00  0.75820982658E+03  0.27047531166E+04  0.25963064690E+04 0.  0.
        5    1    3    3  502    0 -0.82977083282E+03 -0.93889406665E+03  0.25611711877E+02  0.12532835885E+04  0.46999998093E+01 0. -1.
       -5    1    3    3    0  502  0.82977083282E+03  0.93889406665E+03  0.73259811470E+03  0.14514695281E+04  0.46999998093E+01 0.  1.
</event>
<event>
 5   0  0.5049803E-05  0.2576080E+04  0.7818609E-02  0.8376372E-01
       -2   -1    0    0    0  501  0.00000000000E+00  0.00000000000E+00  0.10977861580E+04  0.10977861580E+04  0.25500000920E-02 0.  1.
        2   -1    0    0  501    0  0.00000000000E+00  0.00000000000E+00 -0.15112663636E+04  0.15112663636E+04  0.25500000920E-02 0. -1.
    10030    2    1    2    0    0  0.00000000000E+00  0.00000000000E+00 -0.41348020560E+03  0.26090525215E+04  0.25760801967E+04 0.  0.
        4    1    3    3  502    0  0.26564050199E+03  0.21338431696E+03  0.10513133066E+04  0.11051511320E+04  0.12699999809E+01 0.  1.
       -4    1    3    3    0  502 -0.26564050199E+03 -0.21338431696E+03 -0.14647935122E+04  0.15039013895E+04  0.12699999809E+01 0. -1.
</event>
<event>
 5   0  0.1993815E-05  0.2650510E+04  0.7818609E-02  0.8351244E-01
       -1   -1    0    0    0  501  0.00000000000E+00  0.00000000000E+00  0.70298203416E+03  0.70298203418E+03  0.50400001928E-02 0.  1.
        1   -1    0    0  501    0  0.00000000000E+00  0.00000000000E+00 -0.24983579553E+04  0.24983579553E+04  0.50400001928E-02 0. -1.
    10030    2    1    2    0    0  0.00000000000E+00  0.00000000000E+00 -0.17953759212E+04  0.32013399895E+04  0.26505099566E+04 0.  0.
        5    1    3    3  502    0 -0.10693533052E+04  0.24193607621E+03 -0.17968687638E+04  0.21049486931E+04  0.46999998093E+01 0.  1.
       -5    1    3    3    0  502  0.10693533052E+04 -0.24193607621E+03  0.14928426496E+01  0.10963912964E+04  0.46999998093E+01 0. -1.
</event>
<event>
 5   0  0.2072710E-05  0.2606162E+04  0.7818609E-02  0.8366111E-01
       -1   -1    0    0    0  501  0.00000000000E+00  0.00000000000E+00  0.90268192004E+03  0.90268192006E+03  0.50400001928E-02 0.  1.
        1   -1    0    0  501    0  0.00000000000E+00  0.00000000000E+00 -0.18810840054E+04  0.18810840054E+04  0.50400001928E-02 0. -1.
    10030    2    1    2    0    0  0.00000000000E+00  0.00000000000E+00 -0.97840208534E+03  0.27837659254E+04  0.26061623294E+04 0.  0.
        2    1    3    3  502    0  0.35132657780E+03  0.11287054078E+04  0.96446115831E+02  0.11860472651E+04  0.25500000920E-02 0.  1.
       -2    1    3    3    0  502 -0.35132657780E+03 -0.11287054078E+04 -0.10748482012E+04  0.15977186603E+04  0.25500000920E-02 0. -1.
</event>
<event>
 5   0  0.5049803E-05  0.1497619E+04  0.7818609E-02  0.8886038E-01
        2   -1    0    0  501    0  0.00000000000E+00  0.00000000000E+00  0.16462059949E+04  0.16462059949E+04  0.25500000920E-02 0. -1.
       -2   -1    0    0    0  501  0.00000000000E+00  0.00000000000E+00 -0.34061107622E+03  0.34061107623E+03  0.25500000920E-02 0.  1.
    10030    2    1    2    0    0  0.00000000000E+00  0.00000000000E+00  0.13055949187E+04  0.19868170712E+04  0.14976194385E+04 0.  0.
        4    1    3    3  502    0 -0.72153246932E+03 -0.12950479688E+03  0.45014633388E+03  0.86024062419E+03  0.12699999809E+01 0.  1.
       -4    1    3    3    0  502  0.72153246932E+03  0.12950479688E+03  0.85544858484E+03  0.11265764470E+04  0.12699999809E+01 0. -1.
</event>
<event>
 5   0  0.2163800E-05  0.2607161E+04  0.7818609E-02  0.8365773E-01
        1   -1    0    0  501    0  0.00000000000E+00  0.00000000000E+00  0.12728339282E+04  0.12728339283E+04  0.50400001928E-02 0. -1.
       -1   -1    0    0    0  501  0.00000000000E+00  0.00000000000E+00 -0.13350698381E+04  0.13350698381E+04  0.50400001928E-02 0.  1.
    10030    2    1    2    0    0  0.00000000000E+00  0.00000000000E+00 -0.62235909870E+02  0.26079037664E+04  0.26071610511E+04 0.  0.
        1    1    3    3  502    0 -0.18567262602E+03  0.12897999359E+04  0.44447805977E+01  0.13031032019E+04  0.50400001928E-02 0. -1.
       -1    1    3    3    0  502  0.18567262602E+03 -0.12897999359E+04 -0.66680690467E+02  0.13048005645E+04  0.50400001928E-02 0.  1.
</event>
<event>
 5   0  0.5170532E-05  0.2599445E+04  0.7818609E-02  0.8368390E-01
       -2   -1    0    0    0  501  0.00000000000E+00  0.00000000000E+00  0.74336576910E+03  0.74336576911E+03  0.25500000920E-02 0. -1.
        2   -1    0    0  501    0  0.00000000000E+00  0.00000000000E+00 -0.22724721513E+04  0.22724721513E+04  0.25500000920E-02 0.  1.
    10030    2    1    2    0    0  0.00000000000E+00  0.00000000000E+00 -0.15291063822E+04  0.30158379204E+04  0.25994445626E+04 0.  0.
        1    1    3    3  502    0 -0.65927408551E+03 -0.11200219587E+04 -0.78039729446E+03  0.15159523228E+04  0.50400001928E-02 0.  1.
       -1    1    3    3    0  502  0.65927408551E+03  0.11200219587E+04 -0.74870908775E+03  0.14998855976E+04  0.50400001928E-02 0. -1.
</event>
<event>
 5   0  0.2163800E-05  0.2603423E+04  0.7818609E-02  0.8367039E-01
        1   -1    0    0  501    0  0.00000000000E+00  0.00000000000E+00  0.24262965963E+04  0.24262965963E+04  0.50400001928E-02 0. -1.
       -1   -1    0    0    0  501  0.00000000000E+00  0.00000000000E+00 -0.69837026526E+03  0.69837026528E+03  0.50400001928E-02 0.  1.
    10030    2    1    2    0    0  0.00000000000E+00  0.00000000000E+00  0.17279263311E+04  0.31246668616E+04  0.26034234366E+04 0.  0.
        1    1    3    3  502    0  0.31738298485E+03 -0.84638630126E+03  0.19881688174E+04  0.21840139598E+04  0.50400001928E-02 0. -1.
       -1    1    3    3    0  502 -0.31738298485E+03  0.84638630126E+03 -0.26024248631E+03  0.94065290184E+03  0.50400001928E-02 0.  1.
</event>
<event>
 5   0  0.2163800E-05  0.2567181E+04  0.7818609E-02  0.8379435E-01
        1   -1    0    0  501    0  0.00000000000E+00  0.00000000000E+00  0.12262492629E+04  0.12262492629E+04  0.50400001928E-02 0.  1.
       -1   -1    0    0    0  501  0.00000000000E+00  0.00000000000E+00 -0.13436129673E+04  0.13436129673E+04  0.50400001928E-02 0. -1.
    10030    2    1    2    0    0  0.00000000000E+00  0.00000000000E+00 -0.11736370443E+03  0.25698622302E+04  0.25671808746E+04 0.  0.
        1    1    3    3  502    0  0.57907345469E+03  0.10340494076E+04 -0.55216750483E+03  0.13074682393E+04  0.50400001928E-02 0.  1.
       -1    1    3    3    0  502 -0.57907345469E+03 -0.10340494076E+04  0.43480380040E+03  0.12623939909E+04  0.50400001928E-02 0. -1.
</event>
<event>
 5   0  0.4955675E-05  0.2637939E+04  0.7818609E-02  0.8355427E-01
        2   -1    0    0  501    0  0.00000000000E+00  0.00000000000E+00  0.13177252183E+04  0.13177252183E+04  0.25500000920E-02 0. -1.
       -2   -1    0    0    0  501  0.00000000000E+00  0.00000000000E+00 -0.13202152203E+04  0.13202152204E+04  0.25500000920E-02 0.  1.
    10030    2    1    2    0    0  0.00000000000E+00  0.00000000000E+00 -0.24900020610E+01  0.26379404386E+04  0.26379392635E+04 0.  0.
        5    1    3    3  502    0 -0.80825705305E+03 -0.24599212204E+03 -0.10140964835E+04  0.13199262691E+04  0.46999998093E+01 0.  1.
       -5    1    3    3    0  502  0.80825705305E+03  0.24599212204E+03  0.10116064814E+04  0.13180141696E+04  0.46999998093E+01 0. -1.
</event>
<event>
 5   0  0.1698625E-05  0.2559810E+04  0.7818609E-02  0.8381982E-01
        3   -1    0    0  501    0  0.00000000000E+00  0.00000000000E+00  0.11818197667E+04  0.11818197710E+04  0.10100000352E+00 0. -1.
       -3   -1    0    0    0  501  0.00000000000E+00  0.00000000000E+00 -0.13861310383E+04  0.13861310420E+04  0.10100000352E+00 0.  1.
    10030    2    1    2    0    0  0.00000000000E+00  0.00000000000E+00 -0.20431127163E+03  0.25679508130E+04  0.25598102043E+04 0.  0.
        2    1    3    3  502    0  0.52546298670E+03  0.11510737507E+04 -0.29531651187E+03  0.12993436698E+04  0.25500000920E-02 0. -1.
       -2    1    3    3    0  502 -0.52546298670E+03 -0.11510737507E+04  0.91005240242E+02  0.12686071432E+04  0.25500000920E-02 0.  1.
</event>
<event>
 5   0  0.5182179E-05  0.1959599E+04  0.7818609E-02  0.8625746E-01
       -2   -1    0    0    0  501  0.00000000000E+00  0.00000000000E+00  0.47411112069E+03  0.47411112070E+03  0.25500000920E-02 0.  1.
        2   -1    0    0  501    0  0.00000000000E+00  0.00000000000E+00 -0.20248572131E+04  0.20248572131E+04  0.25500000920E-02 0. -1.
    10030    2    1    2    0    0  0.00000000000E+00  0.00000000000E+00 -0.15507460924E+04  0.24989683338E+04  0.19595992677E+04 0.  0.
        3    1    3    3  502    0  0.56738650163E+03 -0.10380700877E+03 -0.17853989315E+04  0.18762602943E+04  0.10100000352E+00 0. -1.
       -3    1    3    3    0  502 -0.56738650163E+03  0.10380700877E+03  0.23465283910E+03  0.62270803946E+03  0.10100000352E+00 0.  1.
</event>
<event>
 5   0  0.5049803E-05  0.2630921E+04  0.7818609E-02  0.8357773E-01
       -2   -1    0    0    0  501  0.00000000000E+00  0.00000000000E+00  0.13133142451E+04  0.13133142451E+04  0.25500000920E-02 0. -1.
        2   -1    0    0  501    0  0.00000000000E+00  0.00000000000E+00 -0.13176102238E+04  0.13176102238E+04  0.25500000920E-02 0.  1.
    10030    2    1    2    0    0  0.00000000000E+00  0.00000000000E+00 -0.42959787034E+01  0.26309244689E+04  0.26309209615E+04 0.  0.
        4    1    3    3  502    0  0.51568111912E+03 -0.49854942371E+03  0.11005574841E+04  0.13136616509E+04  0.12699999809E+01 0. -1.
       -4    1    3    3    0  502 -0.51568111912E+03  0.49854942371E+03 -0.11048534628E+04  0.13172628180E+04  0.12699999809E+01 0.  1.
</event>
<event>
 5   0  0.5182179E-05  0.2624419E+04  0.7818609E-02  0.8359954E-01
       -2   -1    0    0    0  501  0.00000000000E+00  0.00000000000E+00  0.65643455580E+03  0.65643455580E+03  0.25500000920E-02 0. -1.
        2   -1    0    0  501    0  0.00000000000E+00  0.00000000000E+00 -0.26231002814E+04  0.26231002814E+04  0.25500000920E-02 0.  1.
    10030    2    1    2    0    0  0.00000000000E+00  0.00000000000E+00 -0.19666657256E+04  0.32795348372E+04  0.26244189209E+04 0.  0.
        3    1    3    3  502    0 -0.11357388833E+04  0.54116589689E+03 -0.14494445351E+04  0.19192844525E+04  0.10100000352E+00 0.  1.
       -3    1    3    3    0  502  0.11357388833E+04 -0.54116589689E+03 -0.51722119058E+03  0.13602503848E+04  0.10100000352E+00 0. -1.
</event>
<event>
 5   0  0.5170532E-05  0.2557763E+04  0.7818609E-02  0.8382691E-01
        2   -1    0    0  501    0  0.00000000000E+00  0.00000000000E+00  0.28915914249E+04  0.28915914249E+04  0.25500000920E-02 0.  1.
       -2   -1    0    0    0  501  0.00000000000E+00  0.00000000000E+00 -0.56561839935E+03  0.56561839936E+03  0.25500000920E-02 0. -1.
    10030    2    1    2    0    0  0.00000000000E+00  0.00000000000E+00  0.23259730256E+04  0.34572098243E+04  0.25577625483E+04 0.  0.
        1    1    3    3  502    0 -0.69524509495E+03  0.68752943394E+03  0.48814596946E+02  0.97900221117E+03  0.50400001928E-02 0. -1.
       -1    1    3    3    0  502  0.69524509495E+03 -0.68752943394E+03  0.22771584286E+04  0.24782076131E+04  0.50400001928E-02 0.  1.
</event>
<event>
 5   0  0.2072710E-05  0.2601270E+04  0.7818609E-02  0.8367770E-01
        1   -1    0    0  501    0  0.00000000000E+00  0.00000000000E+00  0.15834132099E+04  0.15834132099E+04  0.50400001928E-02 0. -1.
       -1   -1    0    0    0  501  0.00000000000E+00  0.00000000000E+00 -0.10683577707E+04  0.10683577708E+04  0.50400001928E-02 0.  1.
    10030    2    1    2    0    0  0.00000000000E+00  0.00000000000E+00  0.51505543919E+03  0.26517709807E+04  0.26012703106E+04 0.  0.
        2    1    3    3  502    0  0.24508282835E+03 -0.59541577483E+03  0.14095403659E+04  0.15496417588E+04  0.25500000920E-02 0. -1.
       -2    1    3    3    0  502 -0.24508282835E+03  0.59541577483E+03 -0.89448492667E+03  0.11021292219E+04  0.25500000920E-02 0.  1.
</event>
<event>
 5   0  0.1954502E-05  0.2565120E+04  0.7818609E-02  0.8380146E-01
       -1   -1    0    0    0  501  0.00000000000E+00  0.00000000000E+00  0.80029170602E+03  0.80029170604E+03  0.50400001928E-02 0. -1.
        1   -1    0    0  501    0  0.00000000000E+00  0.00000000000E+00 -0.20554513437E+04  0.20554513437E+04  0.50400001928E-02 0.  1.
    10030    2    1    2    0    0  0.00000000000E+00  0.00000000000E+00 -0.12551596377E+04  0.28557430497E+04  0.25651203968E+04 0.  0.
        4    1    3    3  502    0  0.49793847219E+03 -0.56794034481E+03  0.52642206882E+03  0.92066322007E+03  0.12699999809E+01 0. -1.
       -4    1    3    3    0  502 -0.49793847219E+03  0.56794034481E+03 -0.17815817065E+04  0.19350798296E+04  0.12699999809E+01 0.  1.
</event>
<event>
 5   0  0.4955675E-05  0.2590681E+04  0.7818609E-02  0.8371373E-01
       -2   -1    0    0    0  501  0.00000000000E+00  0.00000000000E+00  0.15731993455E+04  0.15731993455E+04  0.25500000920E-02 0.  1.
        2   -1    0    0  501    0  0.00000000000E+00  0.00000000000E+00 -0.10665574854E+04  0.10665574854E+04  0.25500000920E-02 0. -1.
    10030    2    1    2    0    0  0.00000000000E+00  0.00000000000E+00  0.50664186014E+03  0.26397568309E+04  0.25906814069E+04 0.  0.
        5    1    3    3  502    0  0.10086206048E+04 -0.65915129284E+03  0.73781683180E+03  0.14128664900E+04  0.46999998093E+01 0.  1.
       -5    1    3    3    0  502 -0.10086206048E+04  0.65915129284E+03 -0.23117497166E+03  0.12268903410E+04  0.46999998093E+01 0. -1.
</event>
<event>
 5   0  0.2163800E-05  0.2590327E+04  0.7818609E-02  0.8371494E-01
       -1   -1    0    0    0  501  0.00000000000E+00  0.00000000000E+00  0.15916924393E+04  0.15916924393E+04  0.50400001928E-02 0. -1.
        1   -1    0    0  501    0  0.00000000000E+00  0.00000000000E+00 -0.10538773908E+04  0.10538773908E+04  0.50400001928E-02 0.  1.
    10030    2    1    2    0    0  0.00000000000E+00  0.00000000000E+00  0.53781504846E+03  0.26455698301E+04  0.25903271414E+04 0.  0.
        1    1    3    3  502    0  0.71460409403E+03  0.23006468598E+03 -0.80899601656E+03  0.11036590623E+04  0.50400001928E-02 0.  1.
       -1    1    3    3    0  502 -0.71460409403E+03 -0.23006468598E+03  0.13468110650E+04  0.15419107678E+04  0.50400001928E-02 0. -1.
</event>
<event>
 5   0  0.1954502E-05  0.2486839E+04  0.7818609E-02  0.8407689E-01
        1   -1    0    0  501    0  0.00000000000E+00  0.00000000000E+00  0.10554597155E+04  0.10554597155E+04  0.50400001928E-02 0. -1.
       -1   -1    0    0    0  501  0.00000000000E+00  0.00000000000E+00 -0.14648513123E+04  0.14648513123E+04  0.50400001928E-02 0.  1.
    10030    2    1    2    0    0  0.00000000000E+00  0.00000000000E+00 -0.40939159681E+03  0.25203110278E+04  0.24868385950E+04 0.  0.
        4    1    3    3  502    0 -0.35556100197E+03 -0.54346760299E+03 -0.12793022350E+04  0.14347112890E+04  0.12699999809E+01 0.  1.
       -4    1    3    3    0  502  0.35556100197E+03  0.54346760299E+03  0.86991063814E+03  0.10855997388E+04  0.12699999809E+01 0. -1.
</event>
<event>
 5   0  0.1993815E-05  0.1374745E+04  0.7818609E-02  0.8972305E-01
        1   -1    0    0  501    0  0.00000000000E+00  0.00000000000E+00  0.27107274943E+04  0.27107274943E+04  0.50400001928E-02 0.  1.
       -1   -1    0    0    0  501  0.00000000000E+00  0.00000000000E+00 -0.17430054064E+03  0.17430054072E+03  0.50400001928E-02 0. -1.
    10030    2    1    2    0    0  0.00000000000E+00  0.00000000000E+00  0.25364269537E+04  0.28850280351E+04  0.13747454570E+04 0.  0.
        5    1    3    3  502    0 -0.66980083584E+03  0.45056856987E+02  0.95838942694E+03  0.11701263452E+04  0.46999998093E+01 0.  1.
       -5    1    3    3    0  502  0.66980083584E+03 -0.45056856987E+02  0.15780375268E+04  0.17149016899E+04  0.46999998093E+01 0. -1.
</event>
<event>
 5   0  0.5049803E-05  0.1473741E+04  0.7818609E-02  0.8902105E-01
        2   -1    0    0  501    0  0.00000000000E+00  0.00000000000E+00  0.12439418435E+04  0.12439418435E+04  0.25500000920E-02 0. -1.
       -2   -1    0    0    0  501  0.00000000000E+00  0.00000000000E+00 -0.43649808957E+03  0.43649808958E+03  0.25500000920E-02 0.  1.
    10030    2    1    2    0    0  0.00000000000E+00  0.00000000000E+00  0.80744375394E+03  0.16804399331E+04  0.14737411418E+04 0.  0.
        4    1    3    3  502    0 -0.40677566882E+01 -0.34966558086E+03 -0.33585781224E+03  0.48485528565E+03  0.12699999809E+01 0.  1.
       -4    1    3    3    0  502  0.40677566882E+01  0.34966558086E+03  0.11433015662E+04  0.11955846474E+04  0.12699999809E+01 0. -1.
</event>
<event>
 5   0  0.2163800E-05  0.2594253E+04  0.7818609E-02  0.8370156E-01
       -1   -1    0    0    0  501  0.00000000000E+00  0.00000000000E+00  0.90928006015E+03  0.90928006016E+03  0.50400001928E-02 0. -1.
        1   -1    0    0  501    0  0.00000000000E+00  0.00000000000E+00 -0.18504060363E+04  0.18504060363E+04  0.50400001928E-02 0.  1.
    10030    2    1    2    0    0  0.00000000000E+00  0.00000000000E+00 -0.94112597610E+03  0.27596860964E+04  0.25942531195E+04 0.  0.
        1    1    3    3  502    0  0.13943660561E+03  0.80558142647E+03 -0.15418229211E+04  0.17451710293E+04  0.50400001928E-02 0.  1.
       -1    1    3    3    0  502 -0.13943660561E+03 -0.80558142647E+03  0.60069694496E+03  0.10145150671E+04  0.50400001928E-02 0. -1.
</event>
<event>
 5   0  0.5036452E-05  0.2564338E+04  0.7818609E-02  0.8380417E-01
       -2   -1    0    0    0  501  0.00000000000E+00  0.00000000000E+00  0.12328982608E+04  0.12328982608E+04  0.25500000920E-02 0. -1.
        2   -1    0    0  501    0  0.00000000000E+00  0.00000000000E+00 -0.13334089769E+04  0.13334089769E+04  0.25500000920E-02 0.  1.
    10030    2    1    2    0    0  0.00000000000E+00  0.00000000000E+00 -0.10051071607E+03  0.25663072376E+04  0.25643382058E+04 0.  0.
        2    1    3    3  502    0  0.29260081136E+03  0.16677837162E+03 -0.12883501393E+04  0.13316442248E+04  0.25500000920E-02 0.  1.
       -2    1    3    3    0  502 -0.29260081136E+03 -0.16677837162E+03  0.11878394232E+04  0.12346630129E+04  0.25500000920E-02 0. -1.
</event>
<event>
 5   0  0.4955675E-05  0.2533075E+04  0.7818609E-02  0.8391296E-01
        2   -1    0    0  501    0  0.00000000000E+00  0.00000000000E+00  0.19126676200E+04  0.19126676200E+04  0.25500000920E-02 0. -1.
       -2   -1    0    0    0  501  0.00000000000E+00  0.00000000000E+00 -0.83868087692E+03  0.83868087692E+03  0.25500000920E-02 0.  1.
    10030    2    1    2    0    0  0.00000000000E+00  0.00000000000E+00  0.10739867431E+04  0.27513484970E+04  0.25330754089E+04 0.  0.
        5    1    3    3  502    0  0.15576776413E+03  0.81512327478E+03 -0.50221919500E+03  0.97001843243E+03  0.46999998093E+01 0.  1.
       -5    1    3    3    0  502 -0.15576776413E+03 -0.81512327478E+03  0.15762059381E+04  0.17813300645E+04  0.46999998093E+01 0. -1.
</event>
<event>
 5   0  0.2159405E-05  0.2507635E+04  0.7818609E-02  0.8400271E-01
        1   -1    0    0  501    0  0.00000000000E+00  0.00000000000E+00  0.20511153132E+04  0.20511153132E+04  0.50400001928E-02 0.  1.
       -1   -1    0    0    0  501  0.00000000000E+00  0.00000000000E+00 -0.76644084721E+03  0.76644084723E+03  0.50400001928E-02 0. -1.
    10030    2    1    2    0    0  0.00000000000E+00  0.00000000000E+00  0.12846744660E+04  0.28175561604E+04  0.25076351875E+04 0.  0.
        3    1    3    3  502    0 -0.74793057585E+03  0.55741371038E+03 -0.29903374926E+03  0.97955672843E+03  0.10100000352E+00 0. -1.
       -3    1    3    3    0  502  0.74793057585E+03 -0.55741371038E+03  0.15837082153E+04  0.18379994320E+04  0.10100000352E+00 0.  1.
</event>
<event>
 5   0  0.1993815E-05  0.2557046E+04  0.7818609E-02  0.8382940E-01
       -1   -1    0    0    0  501  0.00000000000E+00  0.00000000000E+00  0.10698234348E+04  0.10698234348E+04  0.50400001928E-02 0. -1.
        1   -1    0    0  501    0  0.00000000000E+00  0.00000000000E+00 -0.15279348426E+04  0.15279348427E+04  0.50400001928E-02 0.  1.
    10030    2    1    2    0    0  0.00000000000E+00  0.00000000000E+00 -0.45811140782E+03  0.25977582775E+04  0.25570455620E+04 0.  0.
        5    1    3    3  502    0 -0.58650290266E+03  0.10300612796E+04  0.25772511912E+03  0.12130359523E+04  0.46999998093E+01 0. -1.
       -5    1    3    3    0  502  0.58650290266E+03 -0.10300612796E+04 -0.71583652694E+03  0.13847223252E+04  0.46999998093E+01 0.  1.
</event>
<event>
 5   0  0.5036452E-05  0.2629021E+04  0.7818609E-02  0.8358410E-01
        2   -1    0    0  501    0  0.00000000000E+00  0.00000000000E+00  0.23277177717E+04  0.23277177717E+04  0.25500000920E-02 0. -1.
       -2   -1    0    0    0  501  0.00000000000E+00  0.00000000000E+00 -0.74233118750E+03  0.74233118751E+03  0.25500000920E-02 0.  1.
    10030    2    1    2    0    0  0.00000000000E+00  0.00000000000E+00  0.15853865842E+04  0.30700489592E+04  0.26290207285E+04 0.  0.
        2    1    3    3  502    0  0.96915976483E+03  0.88734515441E+03  0.75082602308E+03  0.15134040405E+04  0.25500000920E-02 0.  1.
       -2    1    3    3    0  502 -0.96915976483E+03 -0.88734515441E+03  0.83456056113E+03  0.15566449187E+04  0.25500000920E-02 0. -1.
</event>
<event>
 5   0  0.1954502E-05  0.2545458E+04  0.7818609E-02  0.8386968E-01
        1   -1    0    0  501    0  0.00000000000E+00  0.00000000000E+00  0.23671203779E+04  0.23671203779E+04  0.50400001928E-02 0.  1.
       -1   -1    0    0    0  501  0.00000000000E+00  0.00000000000E+00 -0.68430775805E+03  0.68430775807E+03  0.50400001928E-02 0. -1.
    10030    2    1    2    0    0  0.00000000000E+00  0.00000000000E+00  0.16828126199E+04  0.30514281360E+04  0.25454577890E+04 0.  0.
        4    1    3    3  502    0  0.17639465914E+03  0.12024503963E+04  0.12944654146E+04  0.17755687409E+04  0.12699999809E+01 0.  1.
       -4    1    3    3    0  502 -0.17639465914E+03 -0.12024503963E+04  0.38834720532E+03  0.12758593951E+04  0.12699999809E+01 0. -1.
</event>
<event>
 5   0  0.5182179E-05  0.2622830E+04  0.7818609E-02  0.8360488E-01
       -2   -1    0    0    0  501  0.00000000000E+00  0.00000000000E+00  0.10328529491E+04  0.10328529491E+04  0.25500000920E-02 0. -1.
        2   -1    0    0  501    0  0.00000000000E+00  0.00000000000E+00 -0.16651054936E+04  0.16651054936E+04  0.25500000920E-02 0.  1.
    10030    2    1    2    0    0  0.00000000000E+00  0.00000000000E+00 -0.63225254456E+03  0.26979584427E+04  0.26228298607E+04 0.  0.
        3    1    3    3  502    0  0.82697827676E+03 -0.43758966433E+03  0.62912507300E+03  0.11274644794E+04  0.10100000352E+00 0. -1.
       -3    1    3    3    0  502 -0.82697827676E+03  0.43758966433E+03 -0.12613776176E+04  0.15704939633E+04  0.10100000352E+00 0.  1.
</event>
<event>
 5   0  0.4955675E-05  0.2558800E+04  0.7818609E-02  0.8382332E-01
        2   -1    0    0  501    0  0.00000000000E+00  0.00000000000E+00  0.10842883946E+04  0.10842883946E+04  0.25500000920E-02 0.  1.
       -2   -1    0    0    0  501  0.00000000000E+00  0.00000000000E+00 -0.15096212548E+04  0.15096212548E+04  0.25500000920E-02 0. -1.
    10030    2    1    2    0    0  0.00000000000E+00  0.00000000000E+00 -0.42533286015E+03  0.25939096494E+04  0.25588003493E+04 0.  0.
        5    1    3    3  502    0  0.16760257145E+03 -0.20352794520E+03 -0.14817740589E+04  0.15050550481E+04  0.46999998093E+01 0. -1.
       -5    1    3    3    0  502 -0.16760257145E+03  0.20352794520E+03  0.10564411987E+04  0.10888546013E+04  0.46999998093E+01 0.  1.
</event>
<event>
 5   0  0.5170532E-05  0.2572320E+04  0.7818609E-02  0.8377665E-01
        2   -1    0    0  501    0  0.00000000000E+00  0.00000000000E+00  0.14022408837E+04  0.14022408837E+04  0.25500000920E-02 0. -1.
       -2   -1    0    0    0  501  0.00000000000E+00  0.00000000000E+00 -0.11796887504E+04  0.11796887504E+04  0.25500000920E-02 0.  1.
    10030    2    1    2    0    0  0.00000000000E+00  0.00000000000E+00  0.22255213325E+03  0.25819296341E+04  0.25723201946E+04 0.  0.
        1    1    3    3  502    0 -0.67875503792E+03 -0.99841697157E+03 -0.33384755756E+03  0.12525969193E+04  0.50400001928E-02 0.  1.
       -1    1    3    3    0  502  0.67875503792E+03  0.99841697157E+03  0.55639969081E+03  0.13293327148E+04  0.50400001928E-02 0. -1.
</event>
<event>
 5   0  0.2163800E-05  0.2528466E+04  0.7818609E-02  0.8392914E-01
       -1   -1    0    0    0  501  0.00000000000E+00  0.00000000000E+00  0.11475718354E+04  0.11475718354E+04  0.50400001928E-02 0. -1.
        1   -1    0    0  501    0  0.00000000000E+00  0.00000000000E+00 -0.13927534081E+04  0.13927534081E+04  0.50400001928E-02 0.  1.
    10030    2    1    2    0    0  0.00000000000E+00  0.00000000000E+00 -0.24518157271E+03  0.25403252435E+04  0.25284656097E+04 0.  0.
        1    1    3    3  502    0  0.44773676616E+03  0.52072924248E+03  0.94382905109E+03  0.11672362372E+04  0.50400001928E-02 0. -1.
       -1    1    3    3    0  502 -0.44773676616E+03 -0.52072924248E+03 -0.11890106238E+04  0.13730890063E+04  0.50400001928E-02 0.  1.
</event>
<event>
 5   0  0.5170532E-05  0.2608994E+04  0.7818609E-02  0.8365153E-01
       -2   -1    0    0    0  501  0.00000000000E+00  0.00000000000E+00  0.65413922297E+03  0.65413922298E+03  0.25500000920E-02 0. -1.
        2   -1    0    0  501    0  0.00000000000E+00  0.00000000000E+00 -0.26014524111E+04  0.26014524111E+04  0.25500000920E-02 0.  1.
    10030    2    1    2    0    0  0.00000000000E+00  0.00000000000E+00 -0.19473131881E+04  0.32555916340E+04  0.26089937208E+04 0.  0.
        1    1    3    3  502    0  0.10660191165E+04  0.34628694672E+03 -0.14087270570E+03  0.11296709811E+04  0.50400001928E-02 0. -1.
       -1    1    3    3    0  502 -0.10660191165E+04 -0.34628694672E+03 -0.18064404824E+04  0.21259206530E+04  0.50400001928E-02 0.  1.
</event>
<event>
 5   0  0.2163800E-05  0.2642622E+04  0.7818609E-02  0.8353866E-01
        1   -1    0    0  501    0  0.00000000000E+00  0.00000000000E+00  0.15141726523E+04  0.15141726523E+04  0.50400001928E-02 0.  1.
       -1   -1    0    0    0  501  0.00000000000E+00  0.00000000000E+00 -0.11530140495E+04  0.11530140495E+04  0.50400001928E-02 0. -1.
    10030    2    1    2    0    0  0.00000000000E+00  0.00000000000E+00  0.36115860278E+03  0.26671867019E+04  0.26426216843E+04 0.  0.
        1    1    3    3  502    0 -0.12349052719E+04  0.29028891227E+03  0.55361430704E+03  0.13841053010E+04  0.50400001928E-02 0.  1.
       -1    1    3    3    0  502  0.12349052719E+04 -0.29028891227E+03 -0.19245570426E+03  0.12830814009E+04  0.50400001928E-02 0. -1.
</event>
<event>
 5   0  0.5049803E-05  0.1919451E+04  0.7818609E-02  0.8645234E-01
       -2   -1    0    0    0  501  0.00000000000E+00  0.00000000000E+00  0.81799288895E+03  0.81799288896E+03  0.25500000920E-02 0.  1.
        2   -1    0    0  501    0  0.00000000000E+00  0.00000000000E+00 -0.11260163483E+04  0.11260163483E+04  0.25500000920E-02 0. -1.
    10030    2    1    2    0    0  0.00000000000E+00  0.00000000000E+00 -0.30802345936E+03  0.19440092373E+04  0.19194513443E+04 0.  0.
        4    1    3    3  502    0  0.58442485994E+03 -0.20083279011E+03  0.58967550905E+03  0.85416921355E+03  0.12699999809E+01 0.  1.
       -4    1    3    3    0  502 -0.58442485994E+03  0.20083279011E+03 -0.89769896842E+03  0.10898400237E+04  0.12699999809E+01 0. -1.
</event>
<event>
 5   0  0.2163800E-05  0.2594759E+04  0.7818609E-02  0.8369984E-01
       -1   -1    0    0    0  501  0.00000000000E+00  0.00000000000E+00  0.17401549415E+04  0.17401549415E+04  0.50400001928E-02 0. -1.
        1   -1    0    0  501    0  0.00000000000E+00  0.00000000000E+00 -0.96726661605E+03  0.96726661606E+03  0.50400001928E-02 0.  1.
    10030    2    1    2    0    0  0.00000000000E+00  0.00000000000E+00  0.77288832542E+03  0.27074215575E+04  0.25947591654E+04 0.  0.
        1    1    3    3  502    0 -0.41250193492E+03  0.71954456731E+03 -0.65451570549E+03  0.10565476986E+04  0.50400001928E-02 0.  1.
       -1    1    3    3    0  502  0.41250193492E+03 -0.71954456731E+03  0.14274040309E+04  0.16508738589E+04  0.50400001928E-02 0. -1.
</event>
<event>
 5   0  0.4955675E-05  0.1705832E+04  0.7818609E-02  0.8758045E-01
        2   -1    0    0  501    0  0.00000000000E+00  0.00000000000E+00  0.11386713130E+04  0.11386713130E+04  0.25500000920E-02 0.  1.
       -2   -1    0    0    0  501  0.00000000000E+00  0.00000000000E+00 -0.63887236615E+03  0.63887236616E+03  0.25500000920E-02 0. -1.
    10030    2    1    2    0    0  0.00000000000E+00  0.00000000000E+00  0.49979894688E+03  0.17775436792E+04  0.17058319214E+04 0.  0.
        5    1    3    3  502    0 -0.25013520203E+03 -0.52989169733E+03 -0.39590485130E+03  0.70718849784E+03  0.46999998093E+01 0. -1.
       -5    1    3    3    0  502  0.25013520203E+03  0.52989169733E+03  0.89570379818E+03  0.10703551814E+04  0.46999998093E+01 0.  1.
</event>
<event>
 5   0  0.4955675E-05  0.2583902E+04  0.7818609E-02  0.8373690E-01
        2   -1    0    0  501    0  0.00000000000E+00  0.00000000000E+00  0.14694610198E+04  0.14694610198E+04  0.25500000920E-02 0. -1.
       -2   -1    0    0    0  501  0.00000000000E+00  0.00000000000E+00 -0.11358839295E+04  0.11358839295E+04  0.25500000920E-02 0.  1.
    10030    2    1    2    0    0  0.00000000000E+00  0.00000000000E+00  0.33357709030E+03  0.26053449494E+04  0.25839018228E+04 0.  0.
        5    1    3    3  502    0 -0.96877574458E+03 -0.98095440288E+02  0.10229320943E+04  0.14122893890E+04  0.46999998093E+01 0.  1.
       -5    1    3    3    0  502  0.96877574458E+03  0.98095440288E+02 -0.68935500397E+03  0.11930555604E+04  0.46999998093E+01 0. -1.
</event>
<event>
 5   0  0.5036452E-05  0.2613667E+04  0.7818609E-02  0.8363574E-01
        2   -1    0    0  501    0  0.00000000000E+00  0.00000000000E+00  0.18647243833E+04  0.18647243833E+04  0.25500000920E-02 0. -1.
       -2   -1    0    0    0  501  0.00000000000E+00  0.00000000000E+00 -0.91585285966E+03  0.91585285966E+03  0.25500000920E-02 0.  1.
    10030    2    1    2    0    0  0.00000000000E+00  0.00000000000E+00  0.94887152368E+03  0.27805772430E+04  0.26136665120E+04 0.  0.
        2    1    3    3  502    0 -0.12241806587E+04  0.37246067130E+03  0.19202546722E+03  0.12939161552E+04  0.25500000920E-02 0.  1.
       -2    1    3    3    0  502  0.12241806587E+04 -0.37246067130E+03  0.75684605646E+03  0.14866610878E+04  0.25500000920E-02 0. -1.
</event>
<event>
 5   0  0.5036452E-05  0.2508922E+04  0.7818609E-02  0.8399814E-01
        2   -1    0    0  501    0  0.00000000000E+00  0.00000000000E+00  0.75664277070E+03  0.75664277070E+03  0.25500000920E-02 0. -1.
       -2   -1    0    0    0  501  0.00000000000E+00  0.00000000000E+00 -0.20798088779E+04  0.20798088779E+04  0.25500000920E-02 0.  1.
    10030    2    1    2    0    0  0.00000000000E+00  0.00000000000E+00 -0.13231661072E+04  0.28364516486E+04  0.25089219613E+04 0.  0.
        2    1    3    3  502    0  0.14068989917E+03  0.10494605296E+04 -0.14220895822E+04  0.17729917740E+04  0.25500000920E-02 0.  1.
       -2    1    3    3    0  502 -0.14068989917E+03 -0.10494605296E+04  0.98923474995E+02  0.10634598746E+04  0.25500000920E-02 0. -1.
</event>
<event>
 5   0  0.5170532E-05  0.2557543E+04  0.7818609E-02  0.8382768E-01
       -2   -1    0    0    0  501  0.00000000000E+00  0.00000000000E+00  0.11584876045E+04  0.11584876045E+04  0.25500000920E-02 0.  1.
        2   -1    0    0  501    0  0.00000000000E+00  0.00000000000E+00 -0.14115444402E+04  0.14115444402E+04  0.25500000920E-02 0. -1.
    10030    2    1    2    0    0  0.00000000000E+00  0.00000000000E+00 -0.25305683569E+03  0.25700320447E+04  0.25575431470E+04 0.  0.
        1    1    3    3  502    0 -0.12579375899E+03  0.10802966728E+04  0.54935674849E+03  0.12184653496E+04  0.50400001928E-02 0.  1.
       -1    1    3    3    0  502  0.12579375899E+03 -0.10802966728E+04 -0.80241358418E+03  0.13515666951E+04  0.50400001928E-02 0. -1.
</event>
<event>
 5   0  0.1993815E-05  0.2592621E+04  0.7818609E-02  0.8370712E-01
        1   -1    0    0  501    0  0.00000000000E+00  0.00000000000E+00  0.27099719253E+04  0.27099719253E+04  0.50400001928E-02 0. -1.
       -1   -1    0    0    0  501  0.00000000000E+00  0.00000000000E+00 -0.62008794753E+03  0.62008794755E+03  0.50400001928E-02 0.  1.
    10030    2    1    2    0    0  0.00000000000E+00  0.00000000000E+00  0.20898839778E+04  0.33300598729E+04  0.25926210129E+04 0.  0.
        5    1    3    3  502    0  0.34521276524E+03  0.22178962508E+03  0.26243492163E+04  0.26562366970E+04  0.46999998093E+01 0. -1.
       -5    1    3    3    0  502 -0.34521276524E+03 -0.22178962508E+03 -0.53446523859E+03  0.67382317587E+03  0.46999998093E+01 0.  1.
</event>
<event>
 5   0  0.2159405E-05  0.2532191E+04  0.7818609E-02  0.8391606E-01
       -1   -1    0    0    0  501  0.00000000000E+00  0.00000000000E+00  0.26959854266E+04  0.26959854266E+04  0.50400001928E-02 0. -1.
        1   -1    0    0  501    0  0.00000000000E+00  0.00000000000E+00 -0.59458683349E+03  0.59458683351E+03  0.50400001928E-02 0.  1.
    10030    2    1    2    0    0  0.00000000000E+00  0.00000000000E+00  0.21013985931E+04  0.32905722601E+04  0.25321907021E+04 0.  0.
        3    1    3    3  502    0  0.61750373787E+03 -0.10645470668E+04  0.14371243432E+04  0.18920617621E+04  0.10100000352E+00 0. -1.
       -3    1    3    3    0  502 -0.61750373787E+03  0.10645470668E+04  0.66427424994E+03  0.13985104980E+04  0.10100000352E+00 0.  1.
</event>
<event>
 5   0  0.5182179E-05  0.2596041E+04  0.7818609E-02  0.8369547E-01
        2   -1    0    0  501    0  0.00000000000E+00  0.00000000000E+00  0.13076840741E+04  0.13076840741E+04  0.25500000920E-02 0. -1.
       -2   -1    0    0    0  501  0.00000000000E+00  0.00000000000E+00 -0.12884284414E+04  0.12884284414E+04  0.25500000920E-02 0.  1.
    10030    2    1    2    0    0  0.00000000000E+00  0.00000000000E+00  0.19255632738E+02  0.25961125156E+04  0.25960411041E+04 0.  0.
        3    1    3    3  502    0  0.27869014261E+03  0.82021936963E+03  0.97631325764E+03  0.13052262628E+04  0.10100000352E+00 0. -1.
       -3    1    3    3    0  502 -0.27869014261E+03 -0.82021936963E+03 -0.95705762491E+03  0.12908862527E+04  0.10100000352E+00 0.  1.
</event>
<event>
 5   0  0.2163800E-05  0.2598302E+04  0.7818609E-02  0.8368778E-01
       -1   -1    0    0    0  501  0.00000000000E+00  0.00000000000E+00  0.16601270514E+04  0.16601270514E+04  0.50400001928E-02 0. -1.
        1   -1    0    0  501    0  0.00000000000E+00  0.00000000000E+00 -0.10166653725E+04  0.10166653725E+04  0.50400001928E-02 0.  1.
    10030    2    1    2    0    0  0.00000000000E+00  0.00000000000E+00  0.64346167893E+03  0.26767924239E+04  0.25983022819E+04 0.  0.
        1    1    3    3  502    0 -0.35674587267E+03  0.56456309941E+03  0.14697520156E+04  0.16143636821E+04  0.50400001928E-02 0. -1.
       -1    1    3    3    0  502  0.35674587267E+03 -0.56456309941E+03 -0.82629033662E+03  0.10624287418E+04  0.50400001928E-02 0.  1.
</event>
<event>
 5   0  0.5036452E-05  0.2625005E+04  0.7818609E-02  0.8359757E-01
        2   -1    0    0  501    0  0.00000000000E+00  0.00000000000E+00  0.19279221540E+04  0.19279221540E+04  0.25500000920E-02 0. -1.
       -2   -1    0    0    0  501  0.00000000000E+00  0.00000000000E+00 -0.89353329602E+03  0.89353329603E+03  0.25500000920E-02 0.  1.
    10030    2    1    2    0    0  0.00000000000E+00  0.00000000000E+00  0.10343888580E+04  0.28214554500E+04  0.26250048661E+04 0.  0.
        2    1    3    3  502    0 -0.78999566814E+03 -0.31519303091E+03  0.15916148631E+04  0.18046267412E+04  0.25500000920E-02 0. -1.
       -2    1    3    3    0  502  0.78999566814E+03  0.31519303091E+03 -0.55722600513E+03  0.10168287089E+04  0.25500000920E-02 0.  1.
</event>
<event>
 5   0  0.1954502E-05  0.1682733E+04  0.7818609E-02  0.8771274E-01
       -1   -1    0    0    0  501  0.00000000000E+00  0.00000000000E+00  0.89818161168E+03  0.89818161169E+03  0.50400001928E-02 0. -1.
        1   -1    0    0  501    0  0.00000000000E+00  0.00000000000E+00 -0.78814520775E+03  0.78814520777E+03  0.50400001928E-02 0.  1.
    10030    2    1    2    0    0  0.00000000000E+00  0.00000000000E+00  0.11003640393E+03  0.16863268195E+04  0.16827329354E+04 0.  0.
        4    1    3    3  502    0 -0.30639951561E+02  0.81864552419E+03 -0.13716368498E+03  0.83062313373E+03  0.12699999809E+01 0.  1.
       -4    1    3    3    0  502  0.30639951561E+02 -0.81864552419E+03  0.24720008891E+03  0.85570368573E+03  0.12699999809E+01 0. -1.
</event>
<event>
 5   0  0.2163800E-05  0.2627272E+04  0.7818609E-02  0.8358996E-01
       -1   -1    0    0    0  501  0.00000000000E+00  0.00000000000E+00  0.11754988614E+04  0.11754988614E+04  0.50400001928E-02 0.  1.
        1   -1    0    0  501    0  0.00000000000E+00  0.00000000000E+00 -0.14680059753E+04  0.14680059753E+04  0.50400001928E-02 0. -1.
    10030    2    1    2    0    0  0.00000000000E+00  0.00000000000E+00 -0.29250711386E+03  0.26435048367E+04  0.26272718569E+04 0.  0.
        1    1    3    3  502    0 -0.24003099191E+02  0.11348792994E+04 -0.81148313271E+03  0.13953609023E+04  0.50400001928E-02 0. -1.
       -1    1    3    3    0  502  0.24003099191E+02 -0.11348792994E+04  0.51897601885E+03  0.12481439344E+04  0.50400001928E-02 0.  1.
</event>
<event>
 5   0  0.2072710E-05  0.2636513E+04  0.7818609E-02  0.8355903E-01
       -1   -1    0    0    0  501  0.00000000000E+00  0.00000000000E+00  0.15467777465E+04  0.15467777465E+04  0.50400001928E-02 0. -1.
        1   -1    0    0  501    0  0.00000000000E+00  0.00000000000E+00 -0.11234973717E+04  0.11234973717E+04  0.50400001928E-02 0.  1.
    10030    2    1    2    0    0  0.00000000000E+00  0.00000000000E+00  0.42328037484E+03  0.26702751182E+04  0.26365134043E+04 0.  0.
        2    1    3    3  502    0 -0.77524390058E+03 -0.79375276448E+03  0.93262263781E+03  0.14494245552E+04  0.25500000920E-02 0. -1.
       -2    1    3    3    0  502  0.77524390058E+03  0.79375276448E+03 -0.50934226298E+03  0.12208505631E+04  0.25500000920E-02 0.  1.
</event>
<event>
 5   0  0.1993815E-05  0.2468994E+04  0.7818609E-02  0.8414115E-01
       -1   -1    0    0    0  501  0.00000000000E+00  0.00000000000E+00  0.83529904525E+03  0.83529904526E+03  0.50400001928E-02 0.  1.
        1   -1    0    0  501    0  0.00000000000E+00  0.00000000000E+00 -0.18244763880E+04  0.18244763881E+04  0.50400001928E-02 0. -1.
    10030    2    1    2    0    0  0.00000000000E+00  0.00000000000E+00 -0.98917734280E+03  0.26597754333E+04  0.24689944391E+04 0.  0.
        5    1    3    3  502    0 -0.43649240085E+03 -0.69012753979E+03  0.50277999465E+03  0.95896373769E+03  0.46999998093E+01 0.  1.
       -5    1    3    3    0  502  0.43649240085E+03  0.69012753979E+03 -0.14919573375E+04  0.17008116956E+04  0.46999998093E+01 0. -1.
</event>
<event>
 5   0  0.5049803E-05  0.2578664E+04  0.7818609E-02  0.8375485E-01
        2   -1    0    0  501    0  0.00000000000E+00  0.00000000000E+00  0.24730305444E+04  0.24730305444E+04  0.25500000920E-02 0. -1.
       -2   -1    0    0    0  501  0.00000000000E+00  0.00000000000E+00 -0.67220215852E+03  0.67220215853E+03  0.25500000920E-02 0.  1.
    10030    2    1    2    0    0  0.00000000000E+00  0.00000000000E+00  0.18008283859E+04  0.31452327030E+04  0.25786635842E+04 0.  0.
        4    1    3    3  502    0 -0.59751492158E+03  0.11190779906E+04  0.11812538323E+04  0.17334133552E+04  0.12699999809E+01 0. -1.
       -4    1    3    3    0  502  0.59751492158E+03 -0.11190779906E+04  0.61957455356E+03  0.14118193478E+04  0.12699999809E+01 0.  1.
</event>
<event>
 5   0  0.5049803E-05  0.2445195E+04  0.7818609E-02  0.8422774E-01
       -2   -1    0    0    0  501  0.00000000000E+00  0.00000000000E+00  0.94132140057E+03  0.94132140057E+03  0.25500000920E-02 0. -1.
        2   -1    0    0  501    0  0.00000000000E+00  0.00000000000E+00 -0.15879218029E+04  0.15879218029E+04  0.25500000920E-02 0.  1.
    10030    2    1    2    0    0  0.00000000000E+00  0.00000000000E+00 -0.64660040236E+03  0.25292432035E+04  0.24451951051E+04 0.  0.
        4    1    3    3  502    0  0.64736260236E+03  0.53450283774E+03  0.59605385531E+03  0.10295889635E+04  0.12699999809E+01 0. -1.
       -4    1    3    3    0  502 -0.64736260236E+03 -0.53450283774E+03 -0.12426542577E+04  0.14996542400E+04  0.12699999809E+01 0.  1.
</event>
<event>
 5   0  0.2072710E-05  0.2659679E+04  0.7818609E-02  0.8348208E-01
       -1   -1    0    0    0  501  0.00000000000E+00  0.00000000000E+00  0.76647762738E+03  0.76647762740E+03  0.50400001928E-02 0.  1.
        1   -1    0    0  501    0  0.00000000000E+00  0.00000000000E+00 -0.23072729876E+04  0.23072729876E+04  0.50400001928E-02 0. -1.
    10030    2    1    2    0    0  0.00000000000E+00  0.00000000000E+00 -0.15407953603E+04  0.30737506150E+04  0.26596790222E+04 0.  0.
        2    1    3    3  502    0 -0.15091345425E+03  0.87385018340E+03  0.37488776960E+03  0.96277196340E+03  0.25500000920E-02 0.  1.
       -2    1    3    3    0  502  0.15091345425E+03 -0.87385018340E+03 -0.19156831299E+04  0.21109786517E+04  0.25500000920E-02 0. -1.
</event>
<event>
 5   0  0.5049803E-05  0.2574719E+04  0.7818609E-02  0.8376839E-01
       -2   -1    0    0    0  501  0.00000000000E+00  0.00000000000E+00  0.88698408990E+03  0.88698408990E+03  0.25500000920E-02 0. -1.
        2   -1    0    0  501    0  0.00000000000E+00  0.00000000000E+00 -0.18684608854E+04  0.18684608854E+04  0.25500000920E-02 0.  1.
    10030    2    1    2    0    0  0.00000000000E+00  0.00000000000E+00 -0.98147679549E+03  0.27554449753E+04  0.25747194627E+04 0.  0.
        4    1    3    3  502    0  0.49355130085E+03 -0.62877010623E+02 -0.17614073712E+04  0.18303289172E+04  0.12699999809E+01 0.  1.
       -4    1    3    3    0  502 -0.49355130085E+03  0.62877010623E+02  0.77993057572E+03  0.92511605806E+03  0.12699999809E+01 0. -1.
</event>
<event>
 5   0  0.5170532E-05  0.2572683E+04  0.7818609E-02  0.8377540E-01
       -2   -1    0    0    0  501  0.00000000000E+00  0.00000000000E+00  0.13014365696E+04  0.13014365696E+04  0.25500000920E-02 0. -1.
        2   -1    0    0  501    0  0.00000000000E+00  0.00000000000E+00 -0.12714211505E+04  0.12714211505E+04  0.25500000920E-02 0.  1.
    10030    2    1    2    0    0  0.00000000000E+00  0.00000000000E+00  0.30015419039E+02  0.25728577201E+04  0.25726826315E+04 0.  0.
        1    1    3    3  502    0 -0.11141637200E+04  0.13468454771E+03  0.64367856826E+03  0.12937630469E+04  0.50400001928E-02 0. -1.
       -1    1    3    3    0  502  0.11141637200E+04 -0.13468454771E+03 -0.61366314922E+03  0.12790946732E+04  0.50400001928E-02 0.  1.
</event>
<event>
 5   0  0.5049803E-05  0.2581663E+04  0.7818609E-02  0.8374456E-01
        2   -1    0    0  501    0  0.00000000000E+00  0.00000000000E+00  0.18709888917E+04  0.18709888917E+04  0.25500000920E-02 0.  1.
       -2   -1    0    0    0  501  0.00000000000E+00  0.00000000000E+00 -0.89057001200E+03  0.89057001200E+03  0.25500000920E-02 0. -1.
    10030    2    1    2    0    0  0.00000000000E+00  0.00000000000E+00  0.98041887969E+03  0.27615589037E+04  0.25816634945E+04 0.  0.
        4    1    3    3  502    0  0.16825185701E+03  0.41539937057E+03 -0.80467125843E+03  0.92106610594E+03  0.12699999809E+01 0. -1.
       -4    1    3    3    0  502 -0.16825185701E+03 -0.41539937057E+03  0.17850901381E+04  0.18404927977E+04  0.12699999809E+01 0.  1.
</event>
<event>
 5   0  0.1993815E-05  0.2613299E+04  0.7818609E-02  0.8363698E-01
        1   -1    0    0  501    0  0.00000000000E+00  0.00000000000E+00  0.18823006521E+04  0.18823006522E+04  0.50400001928E-02 0. -1.
       -1   -1    0    0    0  501  0.00000000000E+00  0.00000000000E+00 -0.90704584761E+03  0.90704584763E+03  0.50400001928E-02 0.  1.
    10030    2    1    2    0    0  0.00000000000E+00  0.00000000000E+00  0.97525480453E+03  0.27893464998E+04  0.26132990571E+04 0.  0.
        5    1    3    3  502    0 -0.46319016895E+03  0.83355892432E+03 -0.46582696455E+03  0.10613116714E+04  0.46999998093E+01 0.  1.
       -5    1    3    3    0  502  0.46319016895E+03 -0.83355892432E+03  0.14410817691E+04  0.17280348284E+04  0.46999998093E+01 0. -1.
</event>
<event>
 5   0  0.4955675E-05  0.2629283E+04  0.7818609E-02  0.8358322E-01
       -2   -1    0    0    0  501  0.00000000000E+00  0.00000000000E+00  0.93180606567E+03  0.93180606567E+03  0.25500000920E-02 0.  1.
        2   -1    0    0  501    0  0.00000000000E+00  0.00000000000E+00 -0.18547665004E+04  0.18547665004E+04  0.25500000920E-02 0. -1.
    10030    2    1    2    0    0  0.00000000000E+00  0.00000000000E+00 -0.92296043477E+03  0.27865725661E+04  0.26292833058E+04 0.  0.
        5    1    3    3  502    0  0.95910185856E+03 -0.13223982368E+03 -0.14040052494E+04  0.17054666741E+04  0.46999998093E+01 0.  1.
       -5    1    3    3    0  502 -0.95910185856E+03  0.13223982368E+03  0.48104481464E+03  0.10811058920E+04  0.46999998093E+01 0. -1.
</event>
<event>
 5   0  0.1993815E-05  0.2320847E+04  0.7818609E-02  0.8469746E-01
       -1   -1    0    0    0  501  0.00000000000E+00  0.00000000000E+00  0.77301642248E+03  0.77301642250E+03  0.50400001928E-02 0. -1.
        1   -1    0    0  501    0  0.00000000000E+00  0.00000000000E+00 -0.17419846795E+04  0.17419846795E+04  0.50400001928E-02 0.  1.
    10030    2    1    2    0    0  0.00000000000E+00  0.00000000000E+00 -0.96896825699E+03  0.25150011020E+04  0.23208470565E+04 0.  0.
        5    1    3    3  502    0 -0.74133874120E+03 -0.54309446469E+03 -0.12522958552E+04  0.15533195826E+04  0.46999998093E+01 0.  1.
       -5    1    3    3    0  502  0.74133874120E+03  0.54309446469E+03  0.28332759821E+03  0.96168151936E+03  0.46999998093E+01 0. -1.
</event>
<event>
 5   0  0.2159405E-05  0.2519185E+04  0.7818609E-02  0.8396182E-01
       -1   -1    0    0    0  501  0.00000000000E+00  0.00000000000E+00  0.83843858126E+03  0.83843858128E+03  0.50400001928E-02 0.  1.
        1   -1    0    0  501    0  0.00000000000E+00  0.00000000000E+00 -0.18922952927E+04  0.18922952927E+04  0.50400001928E-02 0. -1.
    10030    2    1    2    0    0  0.00000000000E+00  0.00000000000E+00 -0.10538567114E+04  0.27307338739E+04  0.25191850909E+04 0.  0.
        3    1    3    3  502    0 -0.92287423382E+03 -0.46364244992E+03  0.25467119937E+03  0.10637286321E+04  0.10100000352E+00 0.  1.
       -3    1    3    3    0  502  0.92287423382E+03  0.46364244992E+03 -0.13085279108E+04  0.16670052418E+04  0.10100000352E+00 0. -1.
</event>
<event>
 5   0  0.4955675E-05  0.2574919E+04  0.7818609E-02  0.8376771E-01
       -2   -1    0    0    0  501  0.00000000000E+00  0.00000000000E+00  0.67147547078E+03  0.67147547079E+03  0.25500000920E-02 0. -1.
        2   -1    0    0  501    0  0.00000000000E+00  0.00000000000E+00 -0.24685228036E+04  0.24685228036E+04  0.25500000920E-02 0.  1.
    10030    2    1    2    0    0  0.00000000000E+00  0.00000000000E+00 -0.17970473329E+04  0.31399982744E+04  0.25749194253E+04 0.  0.
        5    1    3    3  502    0  0.93065193140E+03 -0.62936186112E+03 -0.13179670171E+03  0.11311948684E+04  0.46999998093E+01 0. -1.
       -5    1    3    3    0  502 -0.93065193140E+03  0.62936186112E+03 -0.16652506311E+04  0.20088034061E+04  0.46999998093E+01 0.  1.
</event>
<event>
 5   0  0.2163800E-05  0.2254360E+04  0.7818609E-02  0.8496137E-01
        1   -1    0    0  501    0  0.00000000000E+00  0.00000000000E+00  0.64382248486E+03  0.64382248488E+03  0.50400001928E-02 0.  1.
       -1   -1    0    0    0  501  0.00000000000E+00  0.00000000000E+00 -0.19734237673E+04  0.19734237673E+04  0.50400001928E-02 0. -1.
    10030    2    1    2    0    0  0.00000000000E+00  0.00000000000E+00 -0.13296012824E+04  0.26172462522E+04  0.22543598591E+04 0.  0.
        1    1    3    3  502    0  0.11198079527E+04 -0.12308983904E+03 -0.62115007629E+03  0.12864479689E+04  0.50400001928E-02 0.  1.
       -1    1    3    3    0  502 -0.11198079527E+04  0.12308983904E+03 -0.70845120616E+03  0.13307982833E+04  0.50400001928E-02 0. -1.
</event>
<event>
 5   0  0.1954502E-05  0.1363328E+04  0.7818609E-02  0.8980800E-01
       -1   -1    0    0    0  501  0.00000000000E+00  0.00000000000E+00  0.70530179125E+03  0.70530179127E+03  0.50400001928E-02 0.  1.
        1   -1    0    0  501    0  0.00000000000E+00  0.00000000000E+00 -0.65881870152E+03  0.65881870154E+03  0.50400001928E-02 0. -1.
    10030    2    1    2    0    0  0.00000000000E+00  0.00000000000E+00  0.46483089731E+02  0.13641204928E+04  0.13633282955E+04 0.  0.
        4    1    3    3  502    0 -0.35427045989E+03 -0.38786739634E+03 -0.41142511085E+03  0.66724876217E+03  0.12699999809E+01 0.  1.
       -4    1    3    3    0  502  0.35427045989E+03  0.38786739634E+03  0.45790820058E+03  0.69687173063E+03  0.12699999809E+01 0. -1.
</event>
<event>
 5   0  0.1993815E-05  0.2590575E+04  0.7818609E-02  0.8371410E-01
       -1   -1    0    0    0  501  0.00000000000E+00  0.00000000000E+00  0.78307802894E+03  0.78307802895E+03  0.50400001928E-02 0. -1.
        1   -1    0    0  501    0  0.00000000000E+00  0.00000000000E+00 -0.21425321435E+04  0.21425321435E+04  0.50400001928E-02 0.  1.
    10030    2    1    2    0    0  0.00000000000E+00  0.00000000000E+00 -0.13594541146E+04  0.29256101725E+04  0.25905751083E+04 0.  0.
        5    1    3    3  502    0 -0.81666522411E+03 -0.40828790137E+03  0.35784658890E+03  0.98067189715E+03  0.46999998093E+01 0. -1.
       -5    1    3    3    0  502  0.81666522411E+03  0.40828790137E+03 -0.17173007035E+04  0.19449382753E+04  0.46999998093E+01 0.  1.
</event>
<event>
 5   0  0.2163800E-05  0.2574044E+04  0.7818609E-02  0.8377072E-01
       -1   -1    0    0    0  501  0.00000000000E+00  0.00000000000E+00  0.87638358750E+03  0.87638358751E+03  0.50400001928E-02 0.  1.
        1   -1    0    0  501    0  0.00000000000E+00  0.00000000000E+00 -0.18900691316E+04  0.18900691316E+04  0.50400001928E-02 0. -1.
    10030    2    1    2    0    0  0.00000000000E+00  0.00000000000E+00 -0.10136855441E+04  0.27664527191E+04  0.25740439516E+04 0.  0.
        1    1    3    3  502    0 -0.46839409591E+03  0.11684786720E+04 -0.79460711448E+03  0.14886691716E+04  0.50400001928E-02 0. -1.
       -1    1    3    3    0  502  0.46839409591E+03 -0.11684786720E+04 -0.21907842959E+03  0.12777835475E+04  0.50400001928E-02 0.  1.
</event>
<event>
 5   0  0.2163800E-05  0.2263621E+04  0.7818609E-02  0.8492405E-01
       -1   -1    0    0    0  501  0.00000000000E+00  0.00000000000E+00  0.98461418677E+03  0.98461418679E+03  0.50400001928E-02 0. -1.
        1   -1    0    0  501    0  0.00000000000E+00  0.00000000000E+00 -0.13010117671E+04  0.13010117671E+04  0.50400001928E-02 0.  1.
    10030    2    1    2    0    0  0.00000000000E+00  0.00000000000E+00 -0.31639758029E+03  0.22856259539E+04  0.22636206776E+04 0.  0.
        1    1    3    3  502    0  0.35293323006E+03  0.64094288070E+03  0.71369129193E+03  0.10221178510E+04  0.50400001928E-02 0. -1.
       -1    1    3    3    0  502 -0.35293323006E+03 -0.64094288070E+03 -0.10300888722E+04  0.12635081028E+04  0.50400001928E-02 0.  1.
</event>
<event>
 5   0  0.5049803E-05  0.2611068E+04  0.7818609E-02  0.8364451E-01
        2   -1    0    0  501    0  0.00000000000E+00  0.00000000000E+00  0.13758819502E+04  0.13758819502E+04  0.25500000920E-02 0.  1.
       -2   -1    0    0    0  501  0.00000000000E+00  0.00000000000E+00 -0.12387826885E+04  0.12387826885E+04  0.25500000920E-02 0. -1.
    10030    2    1    2    0    0  0.00000000000E+00  0.00000000000E+00  0.13709926168E+03  0.26146646387E+04  0.26110677825E+04 0.  0.
        4    1    3    3  502    0 -0.37264116597E+03 -0.12060599160E+04  0.40213788792E+03  0.13248239330E+04  0.12699999809E+01 0. -1.
       -4    1    3    3    0  502  0.37264116597E+03  0.12060599160E+04 -0.26503862624E+03  0.12898407056E+04  0.12699999809E+01 0.  1.
</event>
<event>
 5   0  0.1954502E-05  0.2688504E+04  0.7818609E-02  0.8338745E-01
       -1   -1    0    0    0  501  0.00000000000E+00  0.00000000000E+00  0.97926650008E+03  0.97926650009E+03  0.50400001928E-02 0. -1.
        1   -1    0    0  501    0  0.00000000000E+00  0.00000000000E+00 -0.18452723572E+04  0.18452723572E+04  0.50400001928E-02 0.  1.
    10030    2    1    2    0    0  0.00000000000E+00  0.00000000000E+00 -0.86600585713E+03  0.28245388573E+04  0.26885039728E+04 0.  0.
        4    1    3    3  502    0  0.37224184281E+03  0.37095247979E+03  0.86687348621E+03  0.10137262874E+04  0.12699999809E+01 0. -1.
       -4    1    3    3    0  502 -0.37224184281E+03 -0.37095247979E+03 -0.17328793433E+04  0.18108125699E+04  0.12699999809E+01 0.  1.
</event>
<event>
 5   0  0.2163800E-05  0.1357488E+04  0.7818609E-02  0.8985179E-01
       -1   -1    0    0    0  501  0.00000000000E+00  0.00000000000E+00  0.31693311201E+03  0.31693311205E+03  0.50400001928E-02 0. -1.
        1   -1    0    0  501    0  0.00000000000E+00  0.00000000000E+00 -0.14535984194E+04  0.14535984194E+04  0.50400001928E-02 0.  1.
    10030    2    1    2    0    0  0.00000000000E+00  0.00000000000E+00 -0.11366653074E+04  0.17705315315E+04  0.13574880784E+04 0.  0.
        1    1    3    3  502    0 -0.14859406966E+02 -0.36991493506E+03  0.17365348428E+03  0.40891734346E+03  0.50400001928E-02 0. -1.
       -1    1    3    3    0  502  0.14859406966E+02  0.36991493506E+03 -0.13103187917E+04  0.13616141880E+04  0.50400001928E-02 0.  1.
</event>
<event>
 5   0  0.2159405E-05  0.2619741E+04  0.7818609E-02  0.8361526E-01
       -1   -1    0    0    0  501  0.00000000000E+00  0.00000000000E+00  0.77845700854E+03  0.77845700855E+03  0.50400001928E-02 0.  1.
        1   -1    0    0  501    0  0.00000000000E+00  0.00000000000E+00 -0.22040538389E+04  0.22040538389E+04  0.50400001928E-02 0. -1.
    10030    2    1    2    0    0  0.00000000000E+00  0.00000000000E+00 -0.14255968304E+04  0.29825108475E+04  0.26197413293E+04 0.  0.
        3    1    3    3  502    0  0.41872643554E+02  0.37393441520E+03  0.71560518858E+03  0.80849926486E+03  0.10100000352E+00 0.  1.
       -3    1    3    3    0  502 -0.41872643554E+02 -0.37393441520E+03 -0.21412020190E+04  0.21740115826E+04  0.10100000352E+00 0. -1.
</event>
<event>
 5   0  0.1993815E-05  0.2584348E+04  0.7818609E-02  0.8373537E-01
        1   -1    0    0  501    0  0.00000000000E+00  0.00000000000E+00  0.17815367493E+04  0.17815367493E+04  0.50400001928E-02 0. -1.
       -1   -1    0    0    0  501  0.00000000000E+00  0.00000000000E+00 -0.93723203255E+03  0.93723203256E+03  0.50400001928E-02 0.  1.
    10030    2    1    2    0    0  0.00000000000E+00  0.00000000000E+00  0.84430471675E+03  0.27187687819E+04  0.25843477387E+04 0.  0.
        5    1    3    3  502    0  0.92824700268E+03  0.55419792236E+03  0.11667174009E+04  0.15906066197E+04  0.46999998093E+01 0. -1.
       -5    1    3    3    0  502 -0.92824700268E+03 -0.55419792236E+03 -0.32241268419E+03  0.11281621621E+04  0.46999998093E+01 0.  1.
</event>
<event>
 5   0  0.5049803E-05  0.2666127E+04  0.7818609E-02  0.8346080E-01
        2   -1    0    0  501    0  0.00000000000E+00  0.00000000000E+00  0.17518640624E+04  0.17518640624E+04  0.25500000920E-02 0.  1.
       -2   -1    0    0    0  501  0.00000000000E+00  0.00000000000E+00 -0.10143816606E+04  0.10143816606E+04  0.25500000920E-02 0. -1.
    10030    2    1    2    0    0  0.00000000000E+00  0.00000000000E+00  0.73748240180E+03  0.27662457231E+04  0.26661273615E+04 0.  0.
        4    1    3    3  502    0 -0.71283226870E+03 -0.87146801656E+03  0.11093170064E+04  0.15805607172E+04  0.12699999809E+01 0.  1.
       -4    1    3    3    0  502  0.71283226870E+03  0.87146801656E+03 -0.37183460456E+03  0.11856850059E+04  0.12699999809E+01 0. -1.
</event>
<event>
 5   0  0.2072710E-05  0.3182765E+04  0.7818609E-02  0.8193384E-01
       -1   -1    0    0    0  501  0.00000000000E+00  0.00000000000E+00  0.12779727708E+04  0.12779727708E+04  0.50400001928E-02 0. -1.
        1   -1    0    0  501    0  0.00000000000E+00  0.00000000000E+00 -0.19816529240E+04  0.19816529240E+04  0.50400001928E-02 0.  1.
    10030    2    1    2    0    0  0.00000000000E+00  0.00000000000E+00 -0.70368015315E+03  0.32596256948E+04  0.31827651362E+04 0.  0.
        2    1    3    3  502    0  0.83357363649E+03  0.97403376625E+03 -0.13174293884E+04  0.18382619451E+04  0.25500000920E-02 0.  1.
       -2    1    3    3    0  502 -0.83357363649E+03 -0.97403376625E+03  0.61374923524E+03  0.14213637497E+04  0.25500000920E-02 0. -1.
</event>
<event>
 5   0  0.1954502E-05  0.2574589E+04  0.7818609E-02  0.8376884E-01
        1   -1    0    0  501    0  0.00000000000E+00  0.00000000000E+00  0.17605238146E+04  0.17605238146E+04  0.50400001928E-02 0. -1.
       -1   -1    0    0    0  501  0.00000000000E+00  0.00000000000E+00 -0.94126968915E+03  0.94126968917E+03  0.50400001928E-02 0.  1.
    10030    2    1    2    0    0  0.00000000000E+00  0.00000000000E+00  0.81925412545E+03  0.27017935038E+04  0.25745894459E+04 0.  0.
        4    1    3    3  502    0  0.78115309083E+03  0.29971364892E+03  0.14362767935E+04  0.16622036768E+04  0.12699999809E+01 0. -1.
       -4    1    3    3    0  502 -0.78115309083E+03 -0.29971364892E+03 -0.61702266804E+03  0.10395898270E+04  0.12699999809E+01 0.  1.
</event>
<event>
 5   0  0.5049803E-05  0.1958172E+04  0.7818609E-02  0.8626430E-01
        2   -1    0    0  501    0  0.00000000000E+00  0.00000000000E+00  0.14320071731E+04  0.14320071731E+04  0.25500000920E-02 0.  1.
       -2   -1    0    0    0  501  0.00000000000E+00  0.00000000000E+00 -0.66941690453E+03  0.66941690454E+03  0.25500000920E-02 0. -1.
    10030    2    1    2    0    0  0.00000000000E+00  0.00000000000E+00  0.76259026856E+03  0.21014240776E+04  0.19581724225E+04 0.  0.
        4    1    3    3  502    0 -0.83917768708E+02 -0.75379647069E+03 -0.28315808172E+03  0.80958719313E+03  0.12699999809E+01 0. -1.
       -4    1    3    3    0  502  0.83917768708E+02  0.75379647069E+03  0.10457483503E+04  0.12918368845E+04  0.12699999809E+01 0.  1.
</event>
<event>
 5   0  0.4955675E-05  0.2622554E+04  0.7818609E-02  0.8360580E-01
        2   -1    0    0  501    0  0.00000000000E+00  0.00000000000E+00  0.17317693925E+04  0.17317693925E+04  0.25500000920E-02 0. -1.
       -2   -1    0    0    0  501  0.00000000000E+00  0.00000000000E+00 -0.99288446646E+03  0.99288446647E+03  0.25500000920E-02 0.  1.
    10030    2    1    2    0    0  0.00000000000E+00  0.00000000000E+00  0.73888492604E+03  0.27246538590E+04  0.26225536634E+04 0.  0.
        5    1    3    3  502    0 -0.86647144694E+03  0.39729670892E+03  0.13049467982E+04  0.16160215591E+04  0.46999998093E+01 0. -1.
       -5    1    3    3    0  502  0.86647144694E+03 -0.39729670892E+03 -0.56606187216E+03  0.11086322999E+04  0.46999998093E+01 0.  1.
</event>
<event>
 5   0  0.1954502E-05  0.2462891E+04  0.7818609E-02  0.8416326E-01
        1   -1    0    0  501    0  0.00000000000E+00  0.00000000000E+00  0.15088986437E+04  0.15088986437E+04  0.50400001928E-02 0. -1.
       -1   -1    0    0    0  501  0.00000000000E+00  0.00000000000E+00 -0.10050100521E+04  0.10050100521E+04  0.50400001928E-02 0.  1.
    10030    2    1    2    0    0  0.00000000000E+00  0.00000000000E+00  0.50388859160E+03  0.25139086959E+04  0.24628912315E+04 0.  0.
        4    1    3    3  502    0  0.49312774257E+01 -0.88524040343E+03 -0.62181459026E+03  0.10818178622E+04  0.12699999809E+01 0.  1.
       -4    1    3    3    0  502 -0.49312774257E+01  0.88524040343E+03  0.11257031819E+04  0.14320908337E+04  0.12699999809E+01 0. -1.
</event>
<event>
 5   0  0.5049803E-05  0.2585567E+04  0.7818609E-02  0.8373120E-01
       -2   -1    0    0    0  501  0.00000000000E+00  0.00000000000E+00  0.10009252273E+04  0.10009252273E+04  0.25500000920E-02 0.  1.
        2   -1    0    0  501    0  0.00000000000E+00  0.00000000000E+00 -0.16697443601E+04  0.16697443601E+04  0.25500000920E-02 0. -1.
    10030    2    1    2    0    0  0.00000000000E+00  0.00000000000E+00 -0.66881913284E+03  0.26706695875E+04  0.25855670583E+04 0.  0.
        4    1    3    3  502    0  0.16582133249E+03 -0.22263440962E+03  0.96977525534E+03  0.10087261538E+04  0.12699999809E+01 0.  1.
       -4    1    3    3    0  502 -0.16582133249E+03  0.22263440962E+03 -0.16385943882E+04  0.16619434336E+04  0.12699999809E+01 0. -1.
</event>
<event>
 5   0  0.5182179E-05  0.2586299E+04  0.7818609E-02  0.8372870E-01
        2   -1    0    0  501    0  0.00000000000E+00  0.00000000000E+00  0.18167199707E+04  0.18167199707E+04  0.25500000920E-02 0.  1.
       -2   -1    0    0    0  501  0.00000000000E+00  0.00000000000E+00 -0.92046967033E+03  0.92046967034E+03  0.25500000920E-02 0. -1.
    10030    2    1    2    0    0  0.00000000000E+00  0.00000000000E+00  0.89625030035E+03  0.27371896410E+04  0.25862990024E+04 0.  0.
        3    1    3    3  502    0  0.93024807425E+02 -0.11803211061E+04 -0.10223736539E+03  0.11883871497E+04  0.10100000352E+00 0. -1.
       -3    1    3    3    0  502 -0.93024807425E+02  0.11803211061E+04  0.99848766574E+03  0.15488024914E+04  0.10100000352E+00 0.  1.
</event>
<event>
 5   0  0.1993815E-05  0.2757178E+04  0.7818609E-02  0.8316688E-01
       -1   -1    0    0    0  501  0.00000000000E+00  0.00000000000E+00  0.14423192560E+04  0.14423192560E+04  0.50400001928E-02 0.  1.
        1   -1    0    0  501    0  0.00000000000E+00  0.00000000000E+00 -0.13176747712E+04  0.13176747712E+04  0.50400001928E-02 0. -1.
    10030    2    1    2    0    0  0.00000000000E+00  0.00000000000E+00  0.12464448477E+03  0.27599940272E+04  0.27571780469E+04 0.  0.
        5    1    3    3  502    0  0.11750427547E+03  0.13228495737E+04 -0.30784910499E+03  0.13632796524E+04  0.46999998093E+01 0.  1.
       -5    1    3    3    0  502 -0.11750427547E+03 -0.13228495737E+04  0.43249358976E+03  0.13967143747E+04  0.46999998093E+01 0. -1.
</event>
<event>
 5   0  0.5036452E-05  0.2492164E+04  0.7818609E-02  0.8405782E-01
       -2   -1    0    0    0  501  0.00000000000E+00  0.00000000000E+00  0.21141918565E+04  0.21141918565E+04  0.25500000920E-02 0. -1.
        2   -1    0    0  501    0  0.00000000000E+00  0.00000000000E+00 -0.73442757252E+03  0.73442757252E+03  0.25500000920E-02 0.  1.
    10030    2    1    2    0    0  0.00000000000E+00  0.00000000000E+00  0.13797642840E+04  0.28486194290E+04  0.24921643549E+04 0.  0.
        2    1    3    3  502    0 -0.81590934011E+03 -0.93283673541E+03  0.54160345336E+03  0.13524890857E+04  0.25500000920E-02 0.  1.
       -2    1    3    3    0  502  0.81590934011E+03  0.93283673541E+03  0.83816083060E+03  0.14961303433E+04  0.25500000920E-02 0. -1.
</event>
<event>
 5   0  0.1698625E-05  0.1501985E+04  0.7818609E-02  0.8883134E-01
        3   -1    0    0  501    0  0.00000000000E+00  0.00000000000E+00  0.90917649664E+03  0.90917650225E+03  0.10100000352E+00 0.  1.
       -3   -1    0    0    0  501  0.00000000000E+00  0.00000000000E+00 -0.62033032168E+03  0.62033032990E+03  0.10100000352E+00 0. -1.
    10030    2    1    2    0    0  0.00000000000E+00  0.00000000000E+00  0.28884617496E+03  0.15295068321E+04  0.15019850321E+04 0.  0.
        1    1    3    3  502    0  0.54254237907E+03  0.39858455937E+03  0.48333959999E+03  0.82875753571E+03  0.50400001928E-02 0.  1.
       -1    1    3    3    0  502 -0.54254237907E+03 -0.39858455937E+03 -0.19449342503E+03  0.70074929644E+03  0.50400001928E-02 0. -1.
</event>
<event>
 5   0  0.5036452E-05  0.2479670E+04  0.7818609E-02  0.8410264E-01
       -2   -1    0    0    0  501  0.00000000000E+00  0.00000000000E+00  0.11479637092E+04  0.11479637092E+04  0.25500000920E-02 0.  1.
        2   -1    0    0  501    0  0.00000000000E+00  0.00000000000E+00 -0.13390592655E+04  0.13390592655E+04  0.25500000920E-02 0. -1.
    10030    2    1    2    0    0  0.00000000000E+00  0.00000000000E+00 -0.19109555621E+03  0.24870229747E+04  0.24796704953E+04 0.  0.
        2    1    3    3  502    0  0.52870904277E+03 -0.97784147132E+03  0.45515609956E+03  0.12011970154E+04  0.25500000920E-02 0. -1.
       -2    1    3    3    0  502 -0.52870904277E+03  0.97784147132E+03 -0.64625165578E+03  0.12858259593E+04  0.25500000920E-02 0.  1.
</event>
<event>
 5   0  0.2159405E-05  0.2569748E+04  0.7818609E-02  0.8378550E-01
        1   -1    0    0  501    0  0.00000000000E+00  0.00000000000E+00  0.16475520461E+04  0.16475520461E+04  0.50400001928E-02 0.  1.
       -1   -1    0    0    0  501  0.00000000000E+00  0.00000000000E+00 -0.10020329228E+04  0.10020329228E+04  0.50400001928E-02 0. -1.
    10030    2    1    2    0    0  0.00000000000E+00  0.00000000000E+00  0.64551912329E+03  0.26495849690E+04  0.25697481529E+04 0.  0.
        3    1    3    3  502    0 -0.41597116478E+03 -0.11307923590E+04 -0.13739950840E+03  0.12126838022E+04  0.10100000352E+00 0. -1.
       -3    1    3    3    0  502  0.41597116478E+03  0.11307923590E+04  0.78291863170E+03  0.14369011668E+04  0.10100000352E+00 0.  1.
</event>
<event>
 5   0  0.5182179E-05  0.2591475E+04  0.7818609E-02  0.8371103E-01
       -2   -1    0    0    0  501  0.00000000000E+00  0.00000000000E+00  0.85140541340E+03  0.85140541340E+03  0.25500000920E-02 0.  1.
        2   -1    0    0  501    0  0.00000000000E+00  0.00000000000E+00 -0.19719581264E+04  0.19719581264E+04  0.25500000920E-02 0. -1.
    10030    2    1    2    0    0  0.00000000000E+00  0.00000000000E+00 -0.11205527130E+04  0.28233635398E+04  0.25914751196E+04 0.  0.
        3    1    3    3  502    0  0.52123333600E+03 -0.34668367396E+03 -0.17962792900E+04  0.19022337024E+04  0.10100000352E+00 0. -1.
       -3    1    3    3    0  502 -0.52123333600E+03  0.34668367396E+03  0.67572657703E+03  0.92112983746E+03  0.10100000352E+00 0.  1.
</event>
<event>
 5   0  0.1954502E-05  0.2561958E+04  0.7818609E-02  0.8381239E-01
        1   -1    0    0  501    0  0.00000000000E+00  0.00000000000E+00  0.15619981389E+04  0.15619981389E+04  0.50400001928E-02 0. -1.
       -1   -1    0    0    0  501  0.00000000000E+00  0.00000000000E+00 -0.10505181818E+04  0.10505181818E+04  0.50400001928E-02 0.  1.
    10030    2    1    2    0    0  0.00000000000E+00  0.00000000000E+00  0.51147995702E+03  0.26125163207E+04  0.25619581924E+04 0.  0.
        4    1    3    3  502    0 -0.78223508240E+03 -0.55656543419E+03  0.11205617512E+04  0.14755734674E+04  0.12699999809E+01 0. -1.
       -4    1    3    3    0  502  0.78223508240E+03  0.55656543419E+03 -0.60908179418E+03  0.11369428533E+04  0.12699999809E+01 0.  1.
</event>
<event>
 5   0  0.2159405E-05  0.2653361E+04  0.7818609E-02  0.8350298E-01
       -1   -1    0    0    0  501  0.00000000000E+00  0.00000000000E+00  0.10879608881E+04  0.10879608882E+04  0.50400001928E-02 0. -1.
        1   -1    0    0  501    0  0.00000000000E+00  0.00000000000E+00 -0.16177796371E+04  0.16177796371E+04  0.50400001928E-02 0.  1.
    10030    2    1    2    0    0  0.00000000000E+00  0.00000000000E+00 -0.52981874894E+03  0.27057405253E+04  0.26533608656E+04 0.  0.
        3    1    3    3  502    0 -0.39683849065E+03  0.58688108132E+03 -0.14087344746E+04  0.15768459092E+04  0.10100000352E+00 0.  1.
       -3    1    3    3    0  502  0.39683849065E+03 -0.58688108132E+03  0.87891572561E+03  0.11288946161E+04  0.10100000352E+00 0. -1.
</event>
<event>
 5   0  0.5036452E-05  0.2612214E+04  0.7818609E-02  0.8364064E-01
        2   -1    0    0  501    0  0.00000000000E+00  0.00000000000E+00  0.12698911346E+04  0.12698911346E+04  0.25500000920E-02 0. -1.
       -2   -1    0    0    0  501  0.00000000000E+00  0.00000000000E+00 -0.13433561412E+04  0.13433561412E+04  0.25500000920E-02 0.  1.
    10030    2    1    2    0    0  0.00000000000E+00  0.00000000000E+00 -0.73465006624E+02  0.26132472757E+04  0.26122144278E+04 0.  0.
        2    1    3    3  502    0 -0.81007252718E+03  0.46334627368E+02  0.98717189041E+03  0.12778390893E+04  0.25500000920E-02 0. -1.
       -2    1    3    3    0  502  0.81007252718E+03 -0.46334627368E+02 -0.10606368970E+04  0.13354081864E+04  0.25500000920E-02 0.  1.
</event>
<event>
 5   0  0.1993815E-05  0.1775825E+04  0.7818609E-02  0.8719262E-01
        1   -1    0    0  501    0  0.00000000000E+00  0.00000000000E+00  0.22116889031E+04  0.22116889031E+04  0.50400001928E-02 0. -1.
       -1   -1    0    0    0  501  0.00000000000E+00  0.00000000000E+00 -0.35646439705E+03  0.35646439709E+03  0.50400001928E-02 0.  1.
    10030    2    1    2    0    0  0.00000000000E+00  0.00000000000E+00  0.18552245061E+04  0.25681533002E+04  0.17758247114E+04 0.  0.
        5    1    3    3  502    0  0.60985107847E+03 -0.35501200195E+03  0.14826694676E+03  0.72108046496E+03  0.46999998093E+01 0.  1.
       -5    1    3    3    0  502 -0.60985107847E+03  0.35501200195E+03  0.17069575593E+04  0.18470728353E+04  0.46999998093E+01 0. -1.
</event>
<event>
 5   0  0.5049803E-05  0.2551207E+04  0.7818609E-02  0.8384966E-01
        2   -1    0    0  501    0  0.00000000000E+00  0.00000000000E+00  0.10739953942E+04  0.10739953942E+04  0.25500000920E-02 0.  1.
       -2   -1    0    0    0  501  0.00000000000E+00  0.00000000000E+00 -0.15150575156E+04  0.15150575156E+04  0.25500000920E-02 0. -1.
    10030    2    1    2    0    0  0.00000000000E+00  0.00000000000E+00 -0.44106212140E+03  0.25890529098E+04  0.25512073955E+04 0.  0.
        4    1    3    3  502    0  0.36975350732E+02  0.98171860086E+02  0.10696097332E+04  0.10747425203E+04  0.12699999809E+01 0.  1.
       -4    1    3    3    0  502 -0.36975350732E+02 -0.98171860086E+02 -0.15106718546E+04  0.15143103895E+04  0.12699999809E+01 0. -1.
</event>
<event>
 5   0  0.5182179E-05  0.1769452E+04  0.7818609E-02  0.8722715E-01
        2   -1    0    0  501    0  0.00000000000E+00  0.00000000000E+00  0.22534439543E+04  0.22534439543E+04  0.25500000920E-02 0.  1.
       -2   -1    0    0    0  501  0.00000000000E+00  0.00000000000E+00 -0.34735275058E+03  0.34735275059E+03  0.25500000920E-02 0. -1.
    10030    2    1    2    0    0  0.00000000000E+00  0.00000000000E+00  0.19060912037E+04  0.26007967049E+04  0.17694518426E+04 0.  0.
        3    1    3    3  502    0  0.13873554495E+03  0.21167563814E+03  0.21991005567E+04  0.22136163615E+04  0.10100000352E+00 0.  1.
       -3    1    3    3    0  502 -0.13873554495E+03 -0.21167563814E+03 -0.29300935295E+03  0.38718034342E+03  0.10100000352E+00 0. -1.
</event>
<event>
 5   0  0.1698625E-05  0.2566522E+04  0.7818609E-02  0.8379663E-01
       -4   -1    0    0    0  501  0.00000000000E+00  0.00000000000E+00  0.12220724343E+04  0.12220730942E+04  0.12699999809E+01 0. -1.
        4   -1    0    0  501    0  0.00000000000E+00  0.00000000000E+00 -0.13475119341E+04  0.13475125326E+04  0.12699999809E+01 0.  1.
    10030    2    1    2    0    0  0.00000000000E+00  0.00000000000E+00 -0.12543949986E+03  0.25695856268E+04  0.25665220095E+04 0.  0.
        3    1    3    3  502    0 -0.15466959134E+03 -0.81258063449E+03  0.91954709601E+03  0.12368414781E+04  0.10100000352E+00 0. -1.
       -3    1    3    3    0  502  0.15466959134E+03  0.81258063449E+03 -0.10449865959E+04  0.13327441487E+04  0.10100000352E+00 0.  1.
</event>
<event>
 5   0  0.1954502E-05  0.2566690E+04  0.7818609E-02  0.8379605E-01
        1   -1    0    0  501    0  0.00000000000E+00  0.00000000000E+00  0.20283169241E+04  0.20283169242E+04  0.50400001928E-02 0.  1.
       -1   -1    0    0    0  501  0.00000000000E+00  0.00000000000E+00 -0.81199054961E+03  0.81199054963E+03  0.50400001928E-02 0. -1.
    10030    2    1    2    0    0  0.00000000000E+00  0.00000000000E+00  0.12163263745E+04  0.28403074738E+04  0.25666898325E+04 0.  0.
        4    1    3    3  502    0 -0.11705859779E+04 -0.28090716824E+03  0.11601426505E+03  0.12093970777E+04  0.12699999809E+01 0. -1.
       -4    1    3    3    0  502  0.11705859779E+04  0.28090716824E+03  0.11003121095E+04  0.16309103961E+04  0.12699999809E+01 0.  1.
</event>
<event>
 5   0  0.2159405E-05  0.2523905E+04  0.7818609E-02  0.8394519E-01
        1   -1    0    0  501    0  0.00000000000E+00  0.00000000000E+00  0.10506002286E+04  0.10506002286E+04  0.50400001928E-02 0.  1.
       -1   -1    0    0    0  501  0.00000000000E+00  0.00000000000E+00 -0.15158225853E+04  0.15158225853E+04  0.50400001928E-02 0. -1.
    10030    2    1    2    0    0  0.00000000000E+00  0.00000000000E+00 -0.46522235677E+03  0.25664228139E+04  0.25239045581E+04 0.  0.
        3    1    3    3  502    0 -0.10156194723E+04  0.61177356261E+03 -0.67206494065E+03  0.13628723708E+04  0.10100000352E+00 0. -1.
       -3    1    3    3    0  502  0.10156194723E+04 -0.61177356261E+03  0.20684258388E+03  0.12035504431E+04  0.10100000352E+00 0.  1.
</event>
<event>
 5   0  0.1993815E-05  0.2558111E+04  0.7818609E-02  0.8382571E-01
       -1   -1    0    0    0  501  0.00000000000E+00  0.00000000000E+00  0.63384023959E+03  0.63384023961E+03  0.50400001928E-02 0. -1.
        1   -1    0    0  501    0  0.00000000000E+00  0.00000000000E+00 -0.25810657182E+04  0.25810657182E+04  0.50400001928E-02 0.  1.
    10030    2    1    2    0    0  0.00000000000E+00  0.00000000000E+00 -0.19472254786E+04  0.32149059578E+04  0.25581112667E+04 0.  0.
        5    1    3    3  502    0 -0.10330558211E+04 -0.57527375121E+03 -0.36074001215E+03  0.12362441768E+04  0.46999998093E+01 0. -1.
       -5    1    3    3    0  502  0.10330558211E+04  0.57527375121E+03 -0.15864854665E+04  0.19786617810E+04  0.46999998093E+01 0.  1.
</event>
<event>
 5   0  0.5049803E-05  0.2780512E+04  0.7818609E-02  0.8309344E-01
       -2   -1    0    0    0  501  0.00000000000E+00  0.00000000000E+00  0.10620186599E+04  0.10620186599E+04  0.25500000920E-02 0. -1.
        2   -1    0    0  501    0  0.00000000000E+00  0.00000000000E+00 -0.18199410647E+04  0.18199410647E+04  0.25500000920E-02 0.  1.
    10030    2    1    2    0    0  0.00000000000E+00  0.00000000000E+00 -0.75792240475E+03  0.28819597246E+04  0.27805117303E+04 0.  0.
        4    1    3    3  502    0 -0.11184540030E+04 -0.26645701160E+03 -0.11890599332E+04  0.16540265516E+04  0.12699999809E+01 0.  1.
       -4    1    3    3    0  502  0.11184540030E+04  0.26645701160E+03  0.43113752848E+03  0.12279331729E+04  0.12699999809E+01 0. -1.
</event>
<event>
 5   0  0.5170532E-05  0.2566512E+04  0.7818609E-02  0.8379666E-01
        2   -1    0    0  501    0  0.00000000000E+00  0.00000000000E+00  0.91486281449E+03  0.91486281450E+03  0.25500000920E-02 0.  1.
       -2   -1    0    0    0  501  0.00000000000E+00  0.00000000000E+00 -0.17999926072E+04  0.17999926072E+04  0.25500000920E-02 0. -1.
    10030    2    1    2    0    0  0.00000000000E+00  0.00000000000E+00 -0.88512979271E+03  0.27148554217E+04  0.25665122659E+04 0.  0.
        1    1    3    3  502    0  0.10044270473E+04  0.56143081856E+03  0.15830623830E+03  0.11615244820E+04  0.50400001928E-02 0.  1.
       -1    1    3    3    0  502 -0.10044270473E+04 -0.56143081856E+03 -0.10434360310E+04  0.15533309397E+04  0.50400001928E-02 0. -1.
</event>
<event>
 5   0  0.4955675E-05  0.2602350E+04  0.7818609E-02  0.8367404E-01
        2   -1    0    0  501    0  0.00000000000E+00  0.00000000000E+00  0.25337658694E+04  0.25337658694E+04  0.25500000920E-02 0.  1.
       -2   -1    0    0    0  501  0.00000000000E+00  0.00000000000E+00 -0.66819742446E+03  0.66819742447E+03  0.25500000920E-02 0. -1.
    10030    2    1    2    0    0  0.00000000000E+00  0.00000000000E+00  0.18655684449E+04  0.32019632938E+04  0.26023495754E+04 0.  0.
        5    1    3    3  502    0 -0.12198416264E+04 -0.38580939267E+03  0.12243978298E+04  0.17708852636E+04  0.46999998093E+01 0. -1.
       -5    1    3    3    0  502  0.12198416264E+04  0.38580939267E+03  0.64117061514E+03  0.14310780303E+04  0.46999998093E+01 0.  1.
</event>
<event>
 5   0  0.5049803E-05  0.2601718E+04  0.7818609E-02  0.8367618E-01
       -2   -1    0    0    0  501  0.00000000000E+00  0.00000000000E+00  0.77925286246E+03  0.77925286247E+03  0.25500000920E-02 0.  1.
        2   -1    0    0  501    0  0.00000000000E+00  0.00000000000E+00 -0.21716114327E+04  0.21716114327E+04  0.25500000920E-02 0. -1.
    10030    2    1    2    0    0  0.00000000000E+00  0.00000000000E+00 -0.13923585702E+04  0.29508642951E+04  0.26017182208E+04 0.  0.
        4    1    3    3  502    0 -0.61445513786E+03 -0.11077745811E+04 -0.10317049106E+04  0.16337491467E+04  0.12699999809E+01 0. -1.
       -4    1    3    3    0  502  0.61445513786E+03  0.11077745811E+04 -0.36065365965E+03  0.13171151484E+04  0.12699999809E+01 0.  1.
</event>
<event>
 5   0  0.5036452E-05  0.2611137E+04  0.7818609E-02  0.8364428E-01
       -2   -1    0    0    0  501  0.00000000000E+00  0.00000000000E+00  0.84689236169E+03  0.84689236169E+03  0.25500000920E-02 0. -1.
        2   -1    0    0  501    0  0.00000000000E+00  0.00000000000E+00 -0.20126633542E+04  0.20126633542E+04  0.25500000920E-02 0.  1.
    10030    2    1    2    0    0  0.00000000000E+00  0.00000000000E+00 -0.11657709925E+04  0.28595557159E+04  0.26111370867E+04 0.  0.
        2    1    3    3  502    0  0.12490070647E+04  0.26753788816E+03 -0.87860128078E+03  0.15503339575E+04  0.25500000920E-02 0.  1.
       -2    1    3    3    0  502 -0.12490070647E+04 -0.26753788816E+03 -0.28716971175E+03  0.13092217584E+04  0.25500000920E-02 0. -1.
</event>
<event>
 5   0  0.4955675E-05  0.2624853E+04  0.7818609E-02  0.8359808E-01
       -2   -1    0    0    0  501  0.00000000000E+00  0.00000000000E+00  0.12276013866E+04  0.12276013866E+04  0.25500000920E-02 0.  1.
        2   -1    0    0  501    0  0.00000000000E+00  0.00000000000E+00 -0.14031130819E+04  0.14031130819E+04  0.25500000920E-02 0. -1.
    10030    2    1    2    0    0  0.00000000000E+00  0.00000000000E+00 -0.17551169530E+03  0.26307144684E+04  0.26248531881E+04 0.  0.
        5    1    3    3  502    0  0.41945954189E+03  0.86963127819E+03 -0.97869340684E+03  0.13747973458E+04  0.46999998093E+01 0. -1.
       -5    1    3    3    0  502 -0.41945954189E+03 -0.86963127819E+03  0.80318171154E+03  0.12559171227E+04  0.46999998093E+01 0.  1.
</event>
<event>
 5   0  0.4955675E-05  0.2614880E+04  0.7818609E-02  0.8363164E-01
        2   -1    0    0  501    0  0.00000000000E+00  0.00000000000E+00  0.13124101782E+04  0.13124101782E+04  0.25500000920E-02 0.  1.
       -2   -1    0    0    0  501  0.00000000000E+00  0.00000000000E+00 -0.13024886384E+04  0.13024886384E+04  0.25500000920E-02 0. -1.
    10030    2    1    2    0    0  0.00000000000E+00  0.00000000000E+00  0.99215397615E+01  0.26148988166E+04  0.26148799942E+04 0.  0.
        5    1    3    3  502    0 -0.62484174245E+03  0.39806463537E+03  0.10822310730E+04  0.13115368246E+04  0.46999998093E+01 0.  1.
       -5    1    3    3    0  502  0.62484174245E+03 -0.39806463537E+03 -0.10723095332E+04  0.13033619920E+04  0.46999998093E+01 0. -1.
</event>
<event>
 5   0  0.2072710E-05  0.1310141E+04  0.7818609E-02  0.9021562E-01
       -1   -1    0    0    0  501  0.00000000000E+00  0.00000000000E+00  0.66640303963E+03  0.66640303965E+03  0.50400001928E-02 0.  1.
        1   -1    0    0  501    0  0.00000000000E+00  0.00000000000E+00 -0.64393075685E+03  0.64393075687E+03  0.50400001928E-02 0. -1.
    10030    2    1    2    0    0  0.00000000000E+00  0.00000000000E+00  0.22472282785E+02  0.13103337965E+04  0.13101410820E+04 0.  0.
        2    1    3    3  502    0 -0.50969025811E+03 -0.24892807997E+03 -0.31648272334E+03  0.64954650518E+03  0.25500000920E-02 0. -1.
       -2    1    3    3    0  502  0.50969025811E+03  0.24892807997E+03  0.33895500613E+03  0.66078729134E+03  0.25500000920E-02 0.  1.
</event>
<event>
 5   0  0.2072710E-05  0.1796203E+04  0.7818609E-02  0.8708321E-01
        1   -1    0    0  501    0  0.00000000000E+00  0.00000000000E+00  0.68829943619E+03  0.68829943621E+03  0.50400001928E-02 0.  1.
       -1   -1    0    0    0  501  0.00000000000E+00  0.00000000000E+00 -0.11718541538E+04  0.11718541538E+04  0.50400001928E-02 0. -1.
    10030    2    1    2    0    0  0.00000000000E+00  0.00000000000E+00 -0.48355471764E+03  0.18601535900E+04  0.17962032774E+04 0.  0.
        2    1    3    3  502    0 -0.20708475087E+03 -0.50242563348E+02  0.66173994658E+03  0.69520368679E+03  0.25500000920E-02 0.  1.
       -2    1    3    3    0  502  0.20708475087E+03  0.50242563348E+02 -0.11452946642E+04  0.11649499033E+04  0.25500000920E-02 0. -1.
</event>
<event>
 5   0  0.2072710E-05  0.2567258E+04  0.7818609E-02  0.8379409E-01
        1   -1    0    0  501    0  0.00000000000E+00  0.00000000000E+00  0.14846208658E+04  0.14846208658E+04  0.50400001928E-02 0. -1.
       -1   -1    0    0    0  501  0.00000000000E+00  0.00000000000E+00 -0.11098478092E+04  0.11098478092E+04  0.50400001928E-02 0.  1.
    10030    2    1    2    0    0  0.00000000000E+00  0.00000000000E+00  0.37477305660E+03  0.25944686750E+04  0.25672578487E+04 0.  0.
        2    1    3    3  502    0  0.35149619823E+03 -0.12339832814E+04  0.14905164536E+03  0.12916968333E+04  0.25500000920E-02 0. -1.
       -2    1    3    3    0  502 -0.35149619823E+03  0.12339832814E+04  0.22572141124E+03  0.13027718417E+04  0.25500000920E-02 0.  1.
</event>
<event>
 5   0  0.1993815E-05  0.2683399E+04  0.7818609E-02  0.8340412E-01
       -1   -1    0    0    0  501  0.00000000000E+00  0.00000000000E+00  0.14772480012E+04  0.14772480012E+04  0.50400001928E-02 0. -1.
        1   -1    0    0  501    0  0.00000000000E+00  0.00000000000E+00 -0.12185885561E+04  0.12185885561E+04  0.50400001928E-02 0.  1.
    10030    2    1    2    0    0  0.00000000000E+00  0.00000000000E+00  0.25865944503E+03  0.26958365573E+04  0.26833989705E+04 0.  0.
        5    1    3    3  502    0  0.12585632623E+04  0.36905260424E+03 -0.15474245666E+03  0.13206621930E+04  0.46999998093E+01 0.  1.
       -5    1    3    3    0  502 -0.12585632623E+04 -0.36905260424E+03  0.41340190169E+03  0.13751743643E+04  0.46999998093E+01 0. -1.
</event>
<event>
 5   0  0.4955675E-05  0.2519948E+04  0.7818609E-02  0.8395913E-01
        2   -1    0    0  501    0  0.00000000000E+00  0.00000000000E+00  0.17715468237E+04  0.17715468237E+04  0.25500000920E-02 0.  1.
       -2   -1    0    0    0  501  0.00000000000E+00  0.00000000000E+00 -0.89612866621E+03  0.89612866621E+03  0.25500000920E-02 0. -1.
    10030    2    1    2    0    0  0.00000000000E+00  0.00000000000E+00  0.87541815749E+03  0.26676754899E+04  0.25199475330E+04 0.  0.
        5    1    3    3  502    0  0.54985588977E+03 -0.94173546003E+03  0.11058209296E+04  0.15530837693E+04  0.46999998093E+01 0.  1.
       -5    1    3    3    0  502 -0.54985588977E+03  0.94173546003E+03 -0.23040277212E+03  0.11145917206E+04  0.46999998093E+01 0. -1.
</event>
<event>
 5   0  0.2159405E-05  0.2472781E+04  0.7818609E-02  0.8412747E-01
       -1   -1    0    0    0  501  0.00000000000E+00  0.00000000000E+00  0.11573495077E+04  0.11573495077E+04  0.50400001928E-02 0.  1.
        1   -1    0    0  501    0  0.00000000000E+00  0.00000000000E+00 -0.13208297767E+04  0.13208297767E+04  0.50400001928E-02 0. -1.
    10030    2    1    2    0    0  0.00000000000E+00  0.00000000000E+00 -0.16348026897E+03  0.24781792844E+04  0.24727811806E+04 0.  0.
        3    1    3    3  502    0  0.14803897022E+03  0.71042426712E+03 -0.10849466043E+04  0.13052690605E+04  0.10100000352E+00 0. -1.
       -3    1    3    3    0  502 -0.14803897022E+03 -0.71042426712E+03  0.92146633530E+03  0.11729102239E+04  0.10100000352E+00 0.  1.
</event>
<event>
 5   0  0.2072710E-05  0.1497019E+04  0.7818609E-02  0.8886438E-01
        1   -1    0    0  501    0  0.00000000000E+00  0.00000000000E+00  0.37695399046E+03  0.37695399049E+03  0.50400001928E-02 0. -1.
       -1   -1    0    0    0  501  0.00000000000E+00  0.00000000000E+00 -0.14862995372E+04  0.14862995372E+04  0.50400001928E-02 0.  1.
    10030    2    1    2    0    0  0.00000000000E+00  0.00000000000E+00 -0.11093455468E+04  0.18632535277E+04  0.14970190936E+04 0.  0.
        2    1    3    3  502    0 -0.60750262940E+03 -0.29763485350E+03 -0.15595842195E+03  0.69423985778E+03  0.25500000920E-02 0. -1.
       -2    1    3    3    0  502  0.60750262940E+03  0.29763485350E+03 -0.95338712483E+03  0.11690136700E+04  0.25500000920E-02 0.  1.
</event>
<event>
 5   0  0.1993815E-05  0.2572063E+04  0.7818609E-02  0.8377753E-01
       -1   -1    0    0    0  501  0.00000000000E+00  0.00000000000E+00  0.12989467870E+04  0.12989467870E+04  0.50400001928E-02 0. -1.
        1   -1    0    0  501    0  0.00000000000E+00  0.00000000000E+00 -0.12732446725E+04  0.12732446725E+04  0.50400001928E-02 0.  1.
    10030    2    1    2    0    0  0.00000000000E+00  0.00000000000E+00  0.25702114422E+02  0.25721914595E+04  0.25720630447E+04 0.  0.
        5    1    3    3  502    0  0.11131990154E+04  0.22362566282E+03  0.61673093961E+03  0.12921298800E+04  0.46999998093E+01 0. -1.
       -5    1    3    3    0  502 -0.11131990154E+04 -0.22362566282E+03 -0.59102882519E+03  0.12800615795E+04  0.46999998093E+01 0.  1.
</event>
<event>
 5   0  0.5036452E-05  0.2577200E+04  0.7818609E-02  0.8375987E-01
        2   -1    0    0  501    0  0.00000000000E+00  0.00000000000E+00  0.21356374390E+04  0.21356374390E+04  0.25500000920E-02 0.  1.
       -2   -1    0    0    0  501  0.00000000000E+00  0.00000000000E+00 -0.77751517210E+03  0.77751517210E+03  0.25500000920E-02 0. -1.
    10030    2    1    2    0    0  0.00000000000E+00  0.00000000000E+00  0.13581222669E+04  0.29131526111E+04  0.25772004276E+04 0.  0.
        2    1    3    3  502    0  0.28229151531E+03  0.27060112788E+03  0.20669503432E+04  0.21036152669E+04  0.25500000920E-02 0.  1.
       -2    1    3    3    0  502 -0.28229151531E+03 -0.27060112788E+03 -0.70882807624E+03  0.80953734423E+03  0.25500000920E-02 0. -1.
</event>
<event>
 5   0  0.5049803E-05  0.2574690E+04  0.7818609E-02  0.8376850E-01
        2   -1    0    0  501    0  0.00000000000E+00  0.00000000000E+00  0.20366397571E+04  0.20366397571E+04  0.25500000920E-02 0.  1.
       -2   -1    0    0    0  501  0.00000000000E+00  0.00000000000E+00 -0.81372098615E+03  0.81372098615E+03  0.25500000920E-02 0. -1.
    10030    2    1    2    0    0  0.00000000000E+00  0.00000000000E+00  0.12229187710E+04  0.28503607433E+04  0.25746895049E+04 0.  0.
        4    1    3    3  502    0  0.80433534705E+03  0.78678666027E+03 -0.81026915956E+02  0.11280760494E+04  0.12699999809E+01 0. -1.
       -4    1    3    3    0  502 -0.80433534705E+03 -0.78678666027E+03  0.13039456869E+04  0.17222846938E+04  0.12699999809E+01 0.  1.
</event>
<event>
 5   0  0.2159405E-05  0.2626583E+04  0.7818609E-02  0.8359227E-01
        1   -1    0    0  501    0  0.00000000000E+00  0.00000000000E+00  0.13909494180E+04  0.13909494180E+04  0.50400001928E-02 0.  1.
       -1   -1    0    0    0  501  0.00000000000E+00  0.00000000000E+00 -0.12399690284E+04  0.12399690284E+04  0.50400001928E-02 0. -1.
    10030    2    1    2    0    0  0.00000000000E+00  0.00000000000E+00  0.15098038960E+03  0.26309184465E+04  0.26265827217E+04 0.  0.
        3    1    3    3  502    0 -0.55414275842E+03 -0.76358987857E+03 -0.83957706817E+03  0.12629463025E+04  0.10100000352E+00 0. -1.
       -3    1    3    3    0  502  0.55414275842E+03  0.76358987857E+03  0.99055745777E+03  0.13679721440E+04  0.10100000352E+00 0.  1.
</event>
<event>
 5   0  0.5036452E-05  0.2435580E+04  0.7818609E-02  0.8426302E-01
        2   -1    0    0  501    0  0.00000000000E+00  0.00000000000E+00  0.14738158022E+04  0.14738158022E+04  0.25500000920E-02 0.  1.
       -2   -1    0    0    0  501  0.00000000000E+00  0.00000000000E+00 -0.10062396691E+04  0.10062396691E+04  0.25500000920E-02 0. -1.
    10030    2    1    2    0    0  0.00000000000E+00  0.00000000000E+00  0.46757613314E+03  0.24800554713E+04  0.24355795410E+04 0.  0.
        2    1    3    3  502    0 -0.43300997622E+03  0.91539975417E+03 -0.45499419269E+03  0.11101684849E+04  0.25500000920E-02 0. -1.
       -2    1    3    3    0  502  0.43300997622E+03 -0.91539975417E+03  0.92257032583E+03  0.13698869864E+04  0.25500000920E-02 0.  1.
</event>
<event>
 5   0  0.1993815E-05  0.1691915E+04  0.7818609E-02  0.8765989E-01
        1   -1    0    0  501    0  0.00000000000E+00  0.00000000000E+00  0.10613829171E+04  0.10613829171E+04  0.50400001928E-02 0.  1.
       -1   -1    0    0    0  501  0.00000000000E+00  0.00000000000E+00 -0.67425652472E+03  0.67425652474E+03  0.50400001928E-02 0. -1.
    10030    2    1    2    0    0  0.00000000000E+00  0.00000000000E+00  0.38712639237E+03  0.17356394418E+04  0.16919153136E+04 0.  0.
        5    1    3    3  502    0  0.73767853953E+03  0.41025975782E+03  0.25104309721E+03  0.88064034840E+03  0.46999998093E+01 0.  1.
       -5    1    3    3    0  502 -0.73767853953E+03 -0.41025975782E+03  0.13608329516E+03  0.85499909344E+03  0.46999998093E+01 0. -1.
</event>
<event>
 5   0  0.1954502E-05  0.2601711E+04  0.7818609E-02  0.8367620E-01
       -1   -1    0    0    0  501  0.00000000000E+00  0.00000000000E+00  0.12682275723E+04  0.12682275723E+04  0.50400001928E-02 0. -1.
        1   -1    0    0  501    0  0.00000000000E+00  0.00000000000E+00 -0.13343227483E+04  0.13343227483E+04  0.50400001928E-02 0.  1.
    10030    2    1    2    0    0  0.00000000000E+00  0.00000000000E+00 -0.66095175976E+02  0.26025503207E+04  0.26017108985E+04 0.  0.
        4    1    3    3  502    0 -0.56647896747E+03  0.55938503785E+03  0.99607647348E+03  0.12751392062E+04  0.12699999809E+01 0. -1.
       -4    1    3    3    0  502  0.56647896747E+03 -0.55938503785E+03 -0.10621716495E+04  0.13274111145E+04  0.12699999809E+01 0.  1.
</event>
<event>
 5   0  0.1954502E-05  0.2606091E+04  0.7818609E-02  0.8366135E-01
        1   -1    0    0  501    0  0.00000000000E+00  0.00000000000E+00  0.16954646933E+04  0.16954646933E+04  0.50400001928E-02 0.  1.
       -1   -1    0    0    0  501  0.00000000000E+00  0.00000000000E+00 -0.10014525109E+04  0.10014525110E+04  0.50400001928E-02 0. -1.
    10030    2    1    2    0    0  0.00000000000E+00  0.00000000000E+00  0.69401218239E+03  0.26969172043E+04  0.26060908460E+04 0.  0.
        4    1    3    3  502    0 -0.10662576920E+04 -0.35828123129E+03 -0.33368309904E+03  0.11732931986E+04  0.12699999809E+01 0. -1.
       -4    1    3    3    0  502  0.10662576920E+04  0.35828123129E+03  0.10276952814E+04  0.15236240057E+04  0.12699999809E+01 0.  1.
</event>
<event>
 5   0  0.1993815E-05  0.2426141E+04  0.7818609E-02  0.8429781E-01
        1   -1    0    0  501    0  0.00000000000E+00  0.00000000000E+00  0.19822400844E+04  0.19822400844E+04  0.50400001928E-02 0.  1.
       -1   -1    0    0    0  501  0.00000000000E+00  0.00000000000E+00 -0.74236203609E+03  0.74236203611E+03  0.50400001928E-02 0. -1.
    10030    2    1    2    0    0  0.00000000000E+00  0.00000000000E+00  0.12398780483E+04  0.27246021206E+04  0.24261407916E+04 0.  0.
        5    1    3    3  502    0 -0.46270842830E+03  0.21232201388E+03  0.18564527562E+04  0.19249983515E+04  0.46999998093E+01 0.  1.
       -5    1    3    3    0  502  0.46270842830E+03 -0.21232201388E+03 -0.61657470783E+03  0.79960376909E+03  0.46999998093E+01 0. -1.
</event>
<event>
 5   0  0.2163800E-05  0.2573595E+04  0.7818609E-02  0.8377226E-01
       -1   -1    0    0    0  501  0.00000000000E+00  0.00000000000E+00  0.10610567340E+04  0.10610567340E+04  0.50400001928E-02 0.  1.
        1   -1    0    0  501    0  0.00000000000E+00  0.00000000000E+00 -0.15605647416E+04  0.15605647416E+04  0.50400001928E-02 0. -1.
    10030    2    1    2    0    0  0.00000000000E+00  0.00000000000E+00 -0.49950800758E+03  0.26216214757E+04  0.25735949394E+04 0.  0.
        1    1    3    3  502    0  0.12483072230E+04 -0.49801203818E+02  0.64378148682E+02  0.12509578845E+04  0.50400001928E-02 0.  1.
       -1    1    3    3    0  502 -0.12483072230E+04  0.49801203818E+02 -0.56388615626E+03  0.13706635911E+04  0.50400001928E-02 0. -1.
</event>
<event>
 5   0  0.5182179E-05  0.2625223E+04  0.7818609E-02  0.8359684E-01
       -2   -1    0    0    0  501  0.00000000000E+00  0.00000000000E+00  0.94216565904E+03  0.94216565904E+03  0.25500000920E-02 0. -1.
        2   -1    0    0  501    0  0.00000000000E+00  0.00000000000E+00 -0.18287110969E+04  0.18287110969E+04  0.25500000920E-02 0.  1.
    10030    2    1    2    0    0  0.00000000000E+00  0.00000000000E+00 -0.88654543790E+03  0.27708767560E+04  0.26252228826E+04 0.  0.
        3    1    3    3  502    0  0.51626400295E+03  0.11583572675E+04 -0.80062595779E+03  0.14997739878E+04  0.10100000352E+00 0. -1.
       -3    1    3    3    0  502 -0.51626400295E+03 -0.11583572675E+04 -0.85919480111E+02  0.12711027682E+04  0.10100000352E+00 0.  1.
</event>
<event>
 5   0  0.5182179E-05  0.2250178E+04  0.7818609E-02  0.8497828E-01
        2   -1    0    0  501    0  0.00000000000E+00  0.00000000000E+00  0.78732940125E+03  0.78732940125E+03  0.25500000920E-02 0.  1.
       -2   -1    0    0    0  501  0.00000000000E+00  0.00000000000E+00 -0.16077455488E+04  0.16077455488E+04  0.25500000920E-02 0. -1.
    10030    2    1    2    0    0  0.00000000000E+00  0.00000000000E+00 -0.82041614757E+03  0.23950749501E+04  0.22501780732E+04 0.  0.
        3    1    3    3  502    0 -0.71428265381E+03 -0.60773018871E+03  0.25133594863E+03  0.97093020402E+03  0.10100000352E+00 0.  1.
       -3    1    3    3    0  502  0.71428265381E+03  0.60773018871E+03 -0.10717520962E+04  0.14241447461E+04  0.10100000352E+00 0. -1.
</event>
<event>
 5   0  0.1993815E-05  0.2487689E+04  0.7818609E-02  0.8407384E-01
        1   -1    0    0  501    0  0.00000000000E+00  0.00000000000E+00  0.16271431155E+04  0.16271431155E+04  0.50400001928E-02 0.  1.
       -1   -1    0    0    0  501  0.00000000000E+00  0.00000000000E+00 -0.95083791322E+03  0.95083791323E+03  0.50400001928E-02 0. -1.
    10030    2    1    2    0    0  0.00000000000E+00  0.00000000000E+00  0.67630520225E+03  0.25779810287E+04  0.24876891803E+04 0.  0.
        5    1    3    3  502    0 -0.24149604081E+03 -0.10020941534E+04  0.10595618194E+04  0.14782443536E+04  0.46999998093E+01 0.  1.
       -5    1    3    3    0  502  0.24149604081E+03  0.10020941534E+04 -0.38325661713E+03  0.10997366751E+04  0.46999998093E+01 0. -1.
</event>
<event>
 5   0  0.2159405E-05  0.2612063E+04  0.7818609E-02  0.8364115E-01
        1   -1    0    0  501    0  0.00000000000E+00  0.00000000000E+00  0.20234307326E+04  0.20234307326E+04  0.50400001928E-02 0. -1.
       -1   -1    0    0    0  501  0.00000000000E+00  0.00000000000E+00 -0.84298317631E+03  0.84298317633E+03  0.50400001928E-02 0.  1.
    10030    2    1    2    0    0  0.00000000000E+00  0.00000000000E+00  0.11804475563E+04  0.28664139089E+04  0.26120628369E+04 0.  0.
        3    1    3    3  502    0 -0.78434403553E+03 -0.49110157879E+03 -0.42111465842E+03  0.10167172136E+04  0.10100000352E+00 0.  1.
       -3    1    3    3    0  502  0.78434403553E+03  0.49110157879E+03  0.16015622147E+04  0.18496966953E+04  0.10100000352E+00 0. -1.
</event>
<event>
 5   0  0.2159405E-05  0.2575897E+04  0.7818609E-02  0.8376435E-01
       -1   -1    0    0    0  501  0.00000000000E+00  0.00000000000E+00  0.13422233193E+04  0.13422233193E+04  0.50400001928E-02 0. -1.
        1   -1    0    0  501    0  0.00000000000E+00  0.00000000000E+00 -0.12358684467E+04  0.12358684467E+04  0.50400001928E-02 0.  1.
    10030    2    1    2    0    0  0.00000000000E+00  0.00000000000E+00  0.10635487267E+03  0.25780917660E+04  0.25758970855E+04 0.  0.
        3    1    3    3  502    0  0.88936596028E+03 -0.40167872362E+03  0.89442544821E+03  0.13237501656E+04  0.10100000352E+00 0. -1.
       -3    1    3    3    0  502 -0.88936596028E+03  0.40167872362E+03 -0.78807057554E+03  0.12543416004E+04  0.10100000352E+00 0.  1.
</event>
<event>
 5   0  0.5036452E-05  0.2610580E+04  0.7818609E-02  0.8364616E-01
        2   -1    0    0  501    0  0.00000000000E+00  0.00000000000E+00  0.13447792151E+04  0.13447792151E+04  0.25500000920E-02 0. -1.
       -2   -1    0    0    0  501  0.00000000000E+00  0.00000000000E+00 -0.12669605671E+04  0.12669605671E+04  0.25500000920E-02 0.  1.
    10030    2    1    2    0    0  0.00000000000E+00  0.00000000000E+00  0.77818648027E+02  0.26117397822E+04  0.26105801938E+04 0.  0.
        2    1    3    3  502    0 -0.10380432664E+04 -0.77079155931E+03 -0.14041533960E+03  0.13005267850E+04  0.25500000920E-02 0.  1.
       -2    1    3    3    0  502  0.10380432664E+04  0.77079155931E+03  0.21823398763E+03  0.13112129973E+04  0.25500000920E-02 0. -1.
</event>
<event>
 5   0  0.5036452E-05  0.2591869E+04  0.7818609E-02  0.8370968E-01
       -2   -1    0    0    0  501  0.00000000000E+00  0.00000000000E+00  0.11615454071E+04  0.11615454071E+04  0.25500000920E-02 0.  1.
        2   -1    0    0  501    0  0.00000000000E+00  0.00000000000E+00 -0.14458718938E+04  0.14458718938E+04  0.25500000920E-02 0. -1.
    10030    2    1    2    0    0  0.00000000000E+00  0.00000000000E+00 -0.28432648668E+03  0.26074173009E+04  0.25918687139E+04 0.  0.
        2    1    3    3  502    0  0.58617422313E+03  0.22969223916E+03  0.99736636776E+03  0.11794483525E+04  0.25500000920E-02 0.  1.
       -2    1    3    3    0  502 -0.58617422313E+03 -0.22969223916E+03 -0.12816928544E+04  0.14279689484E+04  0.25500000920E-02 0. -1.
</event>
<event>
 5   0  0.1954502E-05  0.2391830E+04  0.7818609E-02  0.8442569E-01
        1   -1    0    0  501    0  0.00000000000E+00  0.00000000000E+00  0.81703883975E+03  0.81703883976E+03  0.50400001928E-02 0.  1.
       -1   -1    0    0    0  501  0.00000000000E+00  0.00000000000E+00 -0.17504825369E+04  0.17504825369E+04  0.50400001928E-02 0. -1.
    10030    2    1    2    0    0  0.00000000000E+00  0.00000000000E+00 -0.93344369717E+03  0.25675213767E+04  0.23918296101E+04 0.  0.
        4    1    3    3  502    0 -0.35243094346E+03  0.10450409168E+04 -0.96317883765E+03  0.14642517454E+04  0.12699999809E+01 0. -1.
       -4    1    3    3    0  502  0.35243094346E+03 -0.10450409168E+04  0.29735140486E+02  0.11032696313E+04  0.12699999809E+01 0.  1.
</event>
<event>
 5   0  0.5170532E-05  0.2841449E+04  0.7818609E-02  0.8290514E-01
       -2   -1    0    0    0  501  0.00000000000E+00  0.00000000000E+00  0.11126666927E+04  0.11126666927E+04  0.25500000920E-02 0.  1.
        2   -1    0    0  501    0  0.00000000000E+00  0.00000000000E+00 -0.18140729017E+04  0.18140729017E+04  0.25500000920E-02 0. -1.
    10030    2    1    2    0    0  0.00000000000E+00  0.00000000000E+00 -0.70140620908E+03  0.29267395944E+04  0.28414492752E+04 0.  0.
        1    1    3    3  502    0 -0.73655777314E+03 -0.10714090157E+04  0.23922202331E+03  0.13219916068E+04  0.50400001928E-02 0.  1.
       -1    1    3    3    0  502  0.73655777314E+03  0.10714090157E+04 -0.94062823239E+03  0.16047479876E+04  0.50400001928E-02 0. -1.
</event>
<event>
 5   0  0.1698625E-05  0.2307557E+04  0.7818609E-02  0.8474947E-01
        4   -1    0    0  501    0  0.00000000000E+00  0.00000000000E+00  0.88400277632E+03  0.88400368859E+03  0.12699999809E+01 0. -1.
       -4   -1    0    0    0  501  0.00000000000E+00  0.00000000000E+00 -0.15058817671E+04  0.15058823026E+04  0.12699999809E+01 0.  1.
    10030    2    1    2    0    0  0.00000000000E+00  0.00000000000E+00 -0.62187899078E+03  0.23898859912E+04  0.23075574905E+04 0.  0.
        3    1    3    3  502    0  0.62699394386E+03 -0.93904973525E+02 -0.13093166586E+04  0.14547335400E+04  0.10100000352E+00 0.  1.
       -3    1    3    3    0  502 -0.62699394386E+03  0.93904973525E+02  0.68743766783E+03  0.93515245123E+03  0.10100000352E+00 0. -1.
</event>
<event>
 5   0  0.1698625E-05  0.1384598E+04  0.7818609E-02  0.8965044E-01
        4   -1    0    0  501    0  0.00000000000E+00  0.00000000000E+00  0.45507730644E+03  0.45507907855E+03  0.12699999809E+01 0. -1.
       -4   -1    0    0    0  501  0.00000000000E+00  0.00000000000E+00 -0.10531742593E+04  0.10531750250E+04  0.12699999809E+01 0.  1.
    10030    2    1    2    0    0  0.00000000000E+00  0.00000000000E+00 -0.59809695286E+03  0.15082541036E+04  0.13845975863E+04 0.  0.
        3    1    3    3  502    0 -0.35814094041E+03  0.45018696532E+03  0.12050418692E+03  0.58775378026E+03  0.10100000352E+00 0. -1.
       -3    1    3    3    0  502  0.35814094041E+03 -0.45018696532E+03 -0.71860113978E+03  0.92050032332E+03  0.10100000352E+00 0.  1.
</event>
<event>
 5   0  0.5036452E-05  0.2642571E+04  0.7818609E-02  0.8353883E-01
        2   -1    0    0  501    0  0.00000000000E+00  0.00000000000E+00  0.13317492153E+04  0.13317492153E+04  0.25500000920E-02 0.  1.
       -2   -1    0    0    0  501  0.00000000000E+00  0.00000000000E+00 -0.13109036829E+04  0.13109036829E+04  0.25500000920E-02 0. -1.
    10030    2    1    2    0    0  0.00000000000E+00  0.00000000000E+00  0.20845532406E+02  0.26426528981E+04  0.26425706809E+04 0.  0.
        2    1    3    3  502    0  0.10878078970E+04  0.74988314461E+03 -0.15859231861E+01  0.13212317232E+04  0.25500000920E-02 0.  1.
       -2    1    3    3    0  502 -0.10878078970E+04 -0.74988314461E+03  0.22431455592E+02  0.13214211749E+04  0.25500000920E-02 0. -1.
</event>
<event>
 5   0  0.1698625E-05  0.2629188E+04  0.7818609E-02  0.8358354E-01
        3   -1    0    0  501    0  0.00000000000E+00  0.00000000000E+00  0.19244015810E+04  0.19244015837E+04  0.10100000352E+00 0. -1.
       -3   -1    0    0    0  501  0.00000000000E+00  0.00000000000E+00 -0.89802343167E+03  0.89802343735E+03  0.10100000352E+00 0.  1.
    10030    2    1    2    0    0  0.00000000000E+00  0.00000000000E+00  0.10263781494E+04  0.28224250210E+04  0.26291882576E+04 0.  0.
        2    1    3    3  502    0 -0.11658194727E+04 -0.58279596751E+03  0.32921183692E+03  0.13443089735E+04  0.25500000920E-02 0. -1.
       -2    1    3    3    0  502  0.11658194727E+04  0.58279596751E+03  0.69716631243E+03  0.14781160475E+04  0.25500000920E-02 0.  1.
</event>
<event>
 5   0  0.4955675E-05  0.2605074E+04  0.7818609E-02  0.8366480E-01
        2   -1    0    0  501    0  0.00000000000E+00  0.00000000000E+00  0.18767620597E+04  0.18767620597E+04  0.25500000920E-02 0. -1.
       -2   -1    0    0    0  501  0.00000000000E+00  0.00000000000E+00 -0.90400492611E+03  0.90400492611E+03  0.25500000920E-02 0.  1.
    10030    2    1    2    0    0  0.00000000000E+00  0.00000000000E+00  0.97275713357E+03  0.27807669858E+04  0.26050736244E+04 0.  0.
        5    1    3    3  502    0  0.80409472701E+03 -0.29447317206E+03  0.15340491829E+04  0.17568755689E+04  0.46999998093E+01 0. -1.
       -5    1    3    3    0  502 -0.80409472701E+03  0.29447317206E+03 -0.56129204928E+03  0.10238914169E+04  0.46999998093E+01 0.  1.
</event>
<event>
 5   0  0.2159405E-05  0.2248542E+04  0.7818609E-02  0.8498491E-01
       -1   -1    0    0    0  501  0.00000000000E+00  0.00000000000E+00  0.11327141531E+04  0.11327141531E+04  0.50400001928E-02 0.  1.
        1   -1    0    0  501    0  0.00000000000E+00  0.00000000000E+00 -0.11158911542E+04  0.11158911542E+04  0.50400001928E-02 0. -1.
    10030    2    1    2    0    0  0.00000000000E+00  0.00000000000E+00  0.16822998949E+02  0.22486053073E+04  0.22485423756E+04 0.  0.
        3    1    3    3  502    0  0.10794445695E+04 -0.28731178063E+03  0.13583977088E+03  0.11252560116E+04  0.10100000352E+00 0.  1.
       -3    1    3    3    0  502 -0.10794445695E+04  0.28731178063E+03 -0.11901677193E+03  0.11233492957E+04  0.10100000352E+00 0. -1.
</event>
<event>
 5   0  0.5049803E-05  0.2522804E+04  0.7818609E-02  0.8394906E-01
        2   -1    0    0  501    0  0.00000000000E+00  0.00000000000E+00  0.99865669674E+03  0.99865669674E+03  0.25500000920E-02 0.  1.
       -2   -1    0    0    0  501  0.00000000000E+00  0.00000000000E+00 -0.15932754133E+04  0.15932754133E+04  0.25500000920E-02 0. -1.
    10030    2    1    2    0    0  0.00000000000E+00  0.00000000000E+00 -0.59461871659E+03  0.25919321101E+04  0.25228041234E+04 0.  0.
        4    1    3    3  502    0  0.13602661797E+03  0.11998793585E+04  0.77262359443E+02  0.12100350412E+04  0.12699999809E+01 0.  1.
       -4    1    3    3    0  502 -0.13602661797E+03 -0.11998793585E+04 -0.67188107603E+03  0.13818970689E+04  0.12699999809E+01 0. -1.
</event>
<event>
 5   0  0.1954502E-05  0.2573176E+04  0.7818609E-02  0.8377370E-01
        1   -1    0    0  501    0  0.00000000000E+00  0.00000000000E+00  0.24868793240E+04  0.24868793240E+04  0.50400001928E-02 0. -1.
       -1   -1    0    0    0  501  0.00000000000E+00  0.00000000000E+00 -0.66561686292E+03  0.66561686294E+03  0.50400001928E-02 0.  1.
    10030    2    1    2    0    0  0.00000000000E+00  0.00000000000E+00  0.18212624610E+04  0.31524961869E+04  0.25731761029E+04 0.  0.
        4    1    3    3  502    0 -0.36509529752E+03 -0.70549183035E+03  0.21505617624E+04  0.22925816901E+04  0.12699999809E+01 0. -1.
       -4    1    3    3    0  502  0.36509529752E+03  0.70549183035E+03 -0.32929930139E+03  0.85991449678E+03  0.12699999809E+01 0.  1.
</event>
<event>
 5   0  0.2163800E-05  0.2585020E+04  0.7818609E-02  0.8373308E-01
        1   -1    0    0  501    0  0.00000000000E+00  0.00000000000E+00  0.20274634647E+04  0.20274634647E+04  0.50400001928E-02 0.  1.
       -1   -1    0    0    0  501  0.00000000000E+00  0.00000000000E+00 -0.82397624098E+03  0.82397624100E+03  0.50400001928E-02 0. -1.
    10030    2    1    2    0    0  0.00000000000E+00  0.00000000000E+00  0.12034872238E+04  0.28514397057E+04  0.25850197094E+04 0.  0.
        1    1    3    3  502    0  0.70005260197E+03 -0.12981159377E+03 -0.58816287650E+03  0.92350433931E+03  0.50400001928E-02 0. -1.
       -1    1    3    3    0  502 -0.70005260197E+03  0.12981159377E+03  0.17916501003E+04  0.19279353664E+04  0.50400001928E-02 0.  1.
</event>
<event>
 5   0  0.4955675E-05  0.2344503E+04  0.7818609E-02  0.8460578E-01
       -2   -1    0    0    0  501  0.00000000000E+00  0.00000000000E+00  0.78724838609E+03  0.78724838610E+03  0.25500000920E-02 0.  1.
        2   -1    0    0  501    0  0.00000000000E+00  0.00000000000E+00 -0.17455394173E+04  0.17455394173E+04  0.25500000920E-02 0. -1.
    10030    2    1    2    0    0  0.00000000000E+00  0.00000000000E+00 -0.95829103117E+03  0.25327878034E+04  0.23445025819E+04 0.  0.
        5    1    3    3  502    0  0.63638120836E+03 -0.28929545454E+03  0.53742381310E+03  0.88177057518E+03  0.46999998093E+01 0.  1.
       -5    1    3    3    0  502 -0.63638120836E+03  0.28929545454E+03 -0.14957148443E+04  0.16510172282E+04  0.46999998093E+01 0. -1.
</event>
<event>
 5   0  0.1993815E-05  0.2541689E+04  0.7818609E-02  0.8388282E-01
        1   -1    0    0  501    0  0.00000000000E+00  0.00000000000E+00  0.13466362423E+04  0.13466362423E+04  0.50400001928E-02 0.  1.
       -1   -1    0    0    0  501  0.00000000000E+00  0.00000000000E+00 -0.11993183585E+04  0.11993183585E+04  0.50400001928E-02 0. -1.
    10030    2    1    2    0    0  0.00000000000E+00  0.00000000000E+00  0.14731788373E+03  0.25459546008E+04  0.25416888618E+04 0.  0.
        5    1    3    3  502    0 -0.93561008972E+03  0.69450679381E+03 -0.43445717913E+03  0.12435759153E+04  0.46999998093E+01 0. -1.
       -5    1    3    3    0  502  0.93561008972E+03 -0.69450679381E+03  0.58177506286E+03  0.13023786855E+04  0.46999998093E+01 0.  1.
</event>
<event>
 5   0  0.5182179E-05  0.2611700E+04  0.7818609E-02  0.8364238E-01
       -2   -1    0    0    0  501  0.00000000000E+00  0.00000000000E+00  0.11951907076E+04  0.11951907076E+04  0.25500000920E-02 0.  1.
        2   -1    0    0  501    0  0.00000000000E+00  0.00000000000E+00 -0.14267553123E+04  0.14267553123E+04  0.25500000920E-02 0. -1.
    10030    2    1    2    0    0  0.00000000000E+00  0.00000000000E+00 -0.23156460474E+03  0.26219460199E+04  0.26117003590E+04 0.  0.
        3    1    3    3  502    0  0.90492775268E+02  0.11526038168E+04 -0.72525548814E+03  0.13648003642E+04  0.10100000352E+00 0. -1.
       -3    1    3    3    0  502 -0.90492775268E+02 -0.11526038168E+04  0.49369088340E+03  0.12571456557E+04  0.10100000352E+00 0.  1.
</event>
<event>
 5   0  0.5170532E-05  0.2480735E+04  0.7818609E-02  0.8409881E-01
        2   -1    0    0  501    0  0.00000000000E+00  0.00000000000E+00  0.15890938203E+04  0.15890938203E+04  0.25500000920E-02 0. -1.
       -2   -1    0    0    0  501  0.00000000000E+00  0.00000000000E+00 -0.96816895628E+03  0.96816895628E+03  0.25500000920E-02 0.  1.
    10030    2    1    2    0    0  0.00000000000E+00  0.00000000000E+00  0.62092486402E+03  0.25572627766E+04  0.24807348149E+04 0.  0.
        1    1    3    3  502    0 -0.54770488359E+03 -0.45685126981E+03  0.13565671646E+04  0.15326343968E+04  0.50400001928E-02 0. -1.
       -1    1    3    3    0  502  0.54770488359E+03  0.45685126981E+03 -0.73564230056E+03  0.10246283798E+04  0.50400001928E-02 0.  1.
</event>
<event>
 5   0  0.2072710E-05  0.2590902E+04  0.7818609E-02  0.8371298E-01
        1   -1    0    0  501    0  0.00000000000E+00  0.00000000000E+00  0.12872425880E+04  0.12872425881E+04  0.50400001928E-02 0.  1.
       -1   -1    0    0    0  501  0.00000000000E+00  0.00000000000E+00 -0.13037119970E+04  0.13037119970E+04  0.50400001928E-02 0. -1.
    10030    2    1    2    0    0  0.00000000000E+00  0.00000000000E+00 -0.16469408977E+02  0.25909545851E+04  0.25909022406E+04 0.  0.
        2    1    3    3  502    0  0.18284623890E+03 -0.72980691686E+03  0.10463683774E+04  0.12887737055E+04  0.25500000920E-02 0.  1.
       -2    1    3    3    0  502 -0.18284623890E+03  0.72980691686E+03 -0.10628377863E+04  0.13021808795E+04  0.25500000920E-02 0. -1.
</event>
<event>
 5   0  0.2072710E-05  0.2541839E+04  0.7818609E-02  0.8388230E-01
        1   -1    0    0  501    0  0.00000000000E+00  0.00000000000E+00  0.17041143545E+04  0.17041143545E+04  0.50400001928E-02 0. -1.
       -1   -1    0    0    0  501  0.00000000000E+00  0.00000000000E+00 -0.94784540753E+03  0.94784540754E+03  0.50400001928E-02 0.  1.
    10030    2    1    2    0    0  0.00000000000E+00  0.00000000000E+00  0.75626894700E+03  0.26519597621E+04  0.25418394637E+04 0.  0.
        2    1    3    3  502    0  0.10508613519E+04 -0.70096413241E+03  0.23215620417E+03  0.12843507305E+04  0.25500000920E-02 0.  1.
       -2    1    3    3    0  502 -0.10508613519E+04  0.70096413241E+03  0.52411274282E+03  0.13676090315E+04  0.25500000920E-02 0. -1.
</event>
<event>
 5   0  0.5182179E-05  0.2615184E+04  0.7818609E-02  0.8363062E-01
       -2   -1    0    0    0  501  0.00000000000E+00  0.00000000000E+00  0.88265536558E+03  0.88265536558E+03  0.25500000920E-02 0. -1.
        2   -1    0    0  501    0  0.00000000000E+00  0.00000000000E+00 -0.19371060350E+04  0.19371060350E+04  0.25500000920E-02 0.  1.
    10030    2    1    2    0    0  0.00000000000E+00  0.00000000000E+00 -0.10544506694E+04  0.28197614006E+04  0.26151841507E+04 0.  0.
        3    1    3    3  502    0  0.56484267610E+03 -0.26906638072E+03 -0.17652404620E+04  0.18728368495E+04  0.10100000352E+00 0.  1.
       -3    1    3    3    0  502 -0.56484267610E+03  0.26906638072E+03  0.71078979259E+03  0.94692455107E+03  0.10100000352E+00 0. -1.
</event>
<event>
 5   0  0.4955675E-05  0.2888165E+04  0.7818609E-02  0.8276407E-01
        2   -1    0    0  501    0  0.00000000000E+00  0.00000000000E+00  0.21161382935E+04  0.21161382935E+04  0.25500000920E-02 0. -1.
       -2   -1    0    0    0  501  0.00000000000E+00  0.00000000000E+00 -0.98546248073E+03  0.98546248073E+03  0.25500000920E-02 0.  1.
    10030    2    1    2    0    0  0.00000000000E+00  0.00000000000E+00  0.11306758128E+04  0.31016007743E+04  0.28881654332E+04 0.  0.
        5    1    3    3  502    0  0.11989790415E+04 -0.69808882341E+03  0.99553378364E+03  0.17076265258E+04  0.46999998093E+01 0. -1.
       -5    1    3    3    0  502 -0.11989790415E+04  0.69808882341E+03  0.13514202916E+03  0.13939742484E+04  0.46999998093E+01 0.  1.
</event>
<event>
 5   0  0.1954502E-05  0.2343113E+04  0.7818609E-02  0.8461114E-01
       -1   -1    0    0    0  501  0.00000000000E+00  0.00000000000E+00  0.74867377316E+03  0.74867377318E+03  0.50400001928E-02 0. -1.
        1   -1    0    0  501    0  0.00000000000E+00  0.00000000000E+00 -0.18333015019E+04  0.18333015019E+04  0.50400001928E-02 0.  1.
    10030    2    1    2    0    0  0.00000000000E+00  0.00000000000E+00 -0.10846277288E+04  0.25819752751E+04  0.23431131025E+04 0.  0.
        4    1    3    3  502    0 -0.85706070053E+02 -0.92580479858E+03  0.24314997243E+03  0.96103255798E+03  0.12699999809E+01 0. -1.
       -4    1    3    3    0  502  0.85706070053E+02  0.92580479858E+03 -0.13277777012E+04  0.16209427171E+04  0.12699999809E+01 0.  1.
</event>
<event>
 5   0  0.1954502E-05  0.2555652E+04  0.7818609E-02  0.8383423E-01
        1   -1    0    0  501    0  0.00000000000E+00  0.00000000000E+00  0.11686669978E+04  0.11686669978E+04  0.50400001928E-02 0.  1.
       -1   -1    0    0    0  501  0.00000000000E+00  0.00000000000E+00 -0.13971812838E+04  0.13971812838E+04  0.50400001928E-02 0. -1.
    10030    2    1    2    0    0  0.00000000000E+00  0.00000000000E+00 -0.22851428599E+03  0.25658482816E+04  0.25556522896E+04 0.  0.
        4    1    3    3  502    0 -0.10755789514E+04  0.45548254295E+02  0.57688838262E+03  0.12213707639E+04  0.12699999809E+01 0.  1.
       -4    1    3    3    0  502  0.10755789514E+04 -0.45548254295E+02 -0.80540266861E+03  0.13444775177E+04  0.12699999809E+01 0. -1.
</event>
<event>
 5   0  0.2163800E-05  0.2630600E+04  0.7818609E-02  0.8357881E-01
       -1   -1    0    0    0  501  0.00000000000E+00  0.00000000000E+00  0.10475136319E+04  0.10475136320E+04  0.50400001928E-02 0. -1.
        1   -1    0    0  501    0  0.00000000000E+00  0.00000000000E+00 -0.16515431260E+04  0.16515431260E+04  0.50400001928E-02 0.  1.
    10030    2    1    2    0    0  0.00000000000E+00  0.00000000000E+00 -0.60402949402E+03  0.26990567579E+04  0.26305998846E+04 0.  0.
        1    1    3    3  502    0  0.53645358062E+02  0.71210084296E+03  0.83128754957E+03  0.10959034743E+04  0.50400001928E-02 0. -1.
       -1    1    3    3    0  502 -0.53645358062E+02 -0.71210084296E+03 -0.14353170436E+04  0.16031532836E+04  0.50400001928E-02 0.  1.
</event>
<event>
 5   0  0.2163800E-05  0.2579548E+04  0.7818609E-02  0.8375182E-01
        1   -1    0    0  501    0  0.00000000000E+00  0.00000000000E+00  0.12620537942E+04  0.12620537942E+04  0.50400001928E-02 0.  1.
       -1   -1    0    0    0  501  0.00000000000E+00  0.00000000000E+00 -0.13181032835E+04  0.13181032835E+04  0.50400001928E-02 0. -1.
    10030    2    1    2    0    0  0.00000000000E+00  0.00000000000E+00 -0.56049489289E+02  0.25801570777E+04  0.25795482164E+04 0.  0.
        1    1    3    3  502    0  0.98221036394E+03  0.12554417813E+03  0.79861978592E+03  0.12721211036E+04  0.50400001928E-02 0.  1.
       -1    1    3    3    0  502 -0.98221036394E+03 -0.12554417813E+03 -0.85466927520E+03  0.13080359742E+04  0.50400001928E-02 0. -1.
</event>
<event>
 5   0  0.2072710E-05  0.2497738E+04  0.7818609E-02  0.8403792E-01
        1   -1    0    0  501    0  0.00000000000E+00  0.00000000000E+00  0.19573437278E+04  0.19573437278E+04  0.50400001928E-02 0.  1.
       -1   -1    0    0    0  501  0.00000000000E+00  0.00000000000E+00 -0.79683191898E+03  0.79683191900E+03  0.50400001928E-02 0. -1.
    10030    2    1    2    0    0  0.00000000000E+00  0.00000000000E+00  0.11605118088E+04  0.27541756468E+04  0.24977381438E+04 0.  0.
        2    1    3    3  502    0 -0.48462142596E+03 -0.24017663334E+03 -0.66098341020E+03  0.85407365623E+03  0.25500000920E-02 0. -1.
       -2    1    3    3    0  502  0.48462142596E+03  0.24017663334E+03  0.18214952190E+04  0.19001019906E+04  0.25500000920E-02 0.  1.
</event>
<event>
 5   0  0.1993815E-05  0.2584382E+04  0.7818609E-02  0.8373526E-01
        1   -1    0    0  501    0  0.00000000000E+00  0.00000000000E+00  0.16867128569E+04  0.16867128569E+04  0.50400001928E-02 0.  1.
       -1   -1    0    0    0  501  0.00000000000E+00  0.00000000000E+00 -0.98994747548E+03  0.98994747549E+03  0.50400001928E-02 0. -1.
    10030    2    1    2    0    0  0.00000000000E+00  0.00000000000E+00  0.69676538137E+03  0.26766603324E+04  0.25843816549E+04 0.  0.
        5    1    3    3  502    0 -0.29619453726E+03 -0.11020950614E+04  0.97615255771E+03  0.15017458620E+04  0.46999998093E+01 0.  1.
       -5    1    3    3    0  502  0.29619453726E+03  0.11020950614E+04 -0.27938717633E+03  0.11749144703E+04  0.46999998093E+01 0. -1.
</event>
<event>
 5   0  0.2072710E-05  0.2544836E+04  0.7818609E-02  0.8387184E-01
       -1   -1    0    0    0  501  0.00000000000E+00  0.00000000000E+00  0.87755939459E+03  0.87755939461E+03  0.50400001928E-02 0.  1.
        1   -1    0    0  501    0  0.00000000000E+00  0.00000000000E+00 -0.18449431300E+04  0.18449431300E+04  0.50400001928E-02 0. -1.
    10030    2    1    2    0    0  0.00000000000E+00  0.00000000000E+00 -0.96738373536E+03  0.27225025246E+04  0.25448356931E+04 0.  0.
        2    1    3    3  502    0 -0.84235184907E+03 -0.60048527219E+03 -0.12762996179E+04  0.16428876755E+04  0.25500000920E-02 0. -1.
       -2    1    3    3    0  502  0.84235184907E+03  0.60048527219E+03  0.30891588255E+03  0.10796148490E+04  0.25500000920E-02 0.  1.
</event>
<event>
 5   0  0.5170532E-05  0.2593126E+04  0.7818609E-02  0.8370540E-01
       -2   -1    0    0    0  501  0.00000000000E+00  0.00000000000E+00  0.10766480864E+04  0.10766480864E+04  0.25500000920E-02 0. -1.
        2   -1    0    0  501    0  0.00000000000E+00  0.00000000000E+00 -0.15613977497E+04  0.15613977497E+04  0.25500000920E-02 0.  1.
    10030    2    1    2    0    0  0.00000000000E+00  0.00000000000E+00 -0.48474966325E+03  0.26380458361E+04  0.25931262209E+04 0.  0.
        1    1    3    3  502    0  0.94089134107E+03 -0.58301300007E+03  0.44452150850E+03  0.11928034396E+04  0.50400001928E-02 0. -1.
       -1    1    3    3    0  502 -0.94089134107E+03  0.58301300007E+03 -0.92927117175E+03  0.14452423965E+04  0.50400001928E-02 0.  1.
</event>
<event>
 5   0  0.5170532E-05  0.2596751E+04  0.7818609E-02  0.8369306E-01
       -2   -1    0    0    0  501  0.00000000000E+00  0.00000000000E+00  0.97504997930E+03  0.97504997931E+03  0.25500000920E-02 0. -1.
        2   -1    0    0  501    0  0.00000000000E+00  0.00000000000E+00 -0.17289156931E+04  0.17289156931E+04  0.25500000920E-02 0.  1.
    10030    2    1    2    0    0  0.00000000000E+00  0.00000000000E+00 -0.75386571377E+03  0.27039656724E+04  0.25967512093E+04 0.  0.
        1    1    3    3  502    0  0.20738021881E+03 -0.75654780137E+03 -0.14542548369E+04  0.16523402378E+04  0.50400001928E-02 0.  1.
       -1    1    3    3    0  502 -0.20738021881E+03  0.75654780137E+03  0.70038912308E+03  0.10516254346E+04  0.50400001928E-02 0. -1.
</event>
<event>
 5   0  0.5036452E-05  0.2585208E+04  0.7818609E-02  0.8373243E-01
        2   -1    0    0  501    0  0.00000000000E+00  0.00000000000E+00  0.11212429830E+04  0.11212429830E+04  0.25500000920E-02 0.  1.
       -2   -1    0    0    0  501  0.00000000000E+00  0.00000000000E+00 -0.14901539774E+04  0.14901539774E+04  0.25500000920E-02 0. -1.
    10030    2    1    2    0    0  0.00000000000E+00  0.00000000000E+00 -0.36891099442E+03  0.26113969604E+04  0.25852076828E+04 0.  0.
        2    1    3    3  502    0  0.68415136437E+03 -0.95719856439E+03 -0.72516550554E+03  0.13820843648E+04  0.25500000920E-02 0. -1.
       -2    1    3    3    0  502 -0.68415136437E+03  0.95719856439E+03  0.35625451112E+03  0.12293125956E+04  0.25500000920E-02 0.  1.
</event>
<event>
 5   0  0.1954502E-05  0.2603089E+04  0.7818609E-02  0.8367153E-01
        1   -1    0    0  501    0  0.00000000000E+00  0.00000000000E+00  0.27049596181E+04  0.27049596181E+04  0.50400001928E-02 0. -1.
       -1   -1    0    0    0  501  0.00000000000E+00  0.00000000000E+00 -0.62626370978E+03  0.62626370980E+03  0.50400001928E-02 0.  1.
    10030    2    1    2    0    0  0.00000000000E+00  0.00000000000E+00  0.20786959083E+04  0.33312233279E+04  0.26030889691E+04 0.  0.
        4    1    3    3  502    0  0.86760537409E+03 -0.25540087948E+03 -0.15843636613E+03  0.91818973497E+03  0.12699999809E+01 0. -1.
       -4    1    3    3    0  502 -0.86760537409E+03  0.25540087948E+03  0.22371322744E+04  0.24130335929E+04  0.12699999809E+01 0.  1.
</event>
<event>
 5   0  0.1954502E-05  0.2538909E+04  0.7818609E-02  0.8389254E-01
        1   -1    0    0  501    0  0.00000000000E+00  0.00000000000E+00  0.18275632875E+04  0.18275632875E+04  0.50400001928E-02 0.  1.
       -1   -1    0    0    0  501  0.00000000000E+00  0.00000000000E+00 -0.88178318853E+03  0.88178318854E+03  0.50400001928E-02 0. -1.
    10030    2    1    2    0    0  0.00000000000E+00  0.00000000000E+00  0.94578009898E+03  0.27093464761E+04  0.25389088861E+04 0.  0.
        4    1    3    3  502    0 -0.86068837112E+03  0.52569654675E+03  0.12955994703E+04  0.16418650772E+04  0.12699999809E+01 0.  1.
       -4    1    3    3    0  502  0.86068837112E+03 -0.52569654675E+03 -0.34981937132E+03  0.10674813988E+04  0.12699999809E+01 0. -1.
</event>
<event>
 5   0  0.2163800E-05  0.2135627E+04  0.7818609E-02  0.8545710E-01
       -1   -1    0    0    0  501  0.00000000000E+00  0.00000000000E+00  0.60688801877E+03  0.60688801879E+03  0.50400001928E-02 0. -1.
        1   -1    0    0  501    0  0.00000000000E+00  0.00000000000E+00 -0.18788078227E+04  0.18788078227E+04  0.50400001928E-02 0.  1.
    10030    2    1    2    0    0  0.00000000000E+00  0.00000000000E+00 -0.12719198039E+04  0.24856958415E+04  0.21356272682E+04 0.  0.
        1    1    3    3  502    0 -0.47654701361E+03 -0.95344043590E+03 -0.56161260566E+03  0.12048047310E+04  0.50400001928E-02 0. -1.
       -1    1    3    3    0  502  0.47654701361E+03  0.95344043590E+03 -0.71030719824E+03  0.12808911105E+04  0.50400001928E-02 0.  1.
</event>
<event>
 5   0  0.2072710E-05  0.2584223E+04  0.7818609E-02  0.8373580E-01
        1   -1    0    0  501    0  0.00000000000E+00  0.00000000000E+00  0.81333747943E+03  0.81333747945E+03  0.50400001928E-02 0. -1.
       -1   -1    0    0    0  501  0.00000000000E+00  0.00000000000E+00 -0.20527176601E+04  0.20527176601E+04  0.50400001928E-02 0.  1.
    10030    2    1    2    0    0  0.00000000000E+00  0.00000000000E+00 -0.12393801806E+04  0.28660551395E+04  0.25842230613E+04 0.  0.
        2    1    3    3  502    0  0.10097220792E+03  0.12964961015E+03 -0.20410810603E+04  0.20476855967E+04  0.25500000920E-02 0.  1.
       -2    1    3    3    0  502 -0.10097220792E+03 -0.12964961015E+03  0.80170087966E+03  0.81836954283E+03  0.25500000920E-02 0. -1.
</event>
<event>
 5   0  0.2072710E-05  0.2023947E+04  0.7818609E-02  0.8595506E-01
       -1   -1    0    0    0  501  0.00000000000E+00  0.00000000000E+00  0.70865255756E+03  0.70865255758E+03  0.50400001928E-02 0. -1.
        1   -1    0    0  501    0  0.00000000000E+00  0.00000000000E+00 -0.14451236172E+04  0.14451236172E+04  0.50400001928E-02 0.  1.
    10030    2    1    2    0    0  0.00000000000E+00  0.00000000000E+00 -0.73647105964E+03  0.21537761748E+04  0.20239471805E+04 0.  0.
        2    1    3    3  502    0  0.21761530167E+03  0.94798834410E+03 -0.70936121891E+02  0.97522830838E+03  0.25500000920E-02 0. -1.
       -2    1    3    3    0  502 -0.21761530167E+03 -0.94798834410E+03 -0.66553493775E+03  0.11785478664E+04  0.25500000920E-02 0.  1.
</event>
<event>
 5   0  0.5182179E-05  0.2607307E+04  0.7818609E-02  0.8365723E-01
       -2   -1    0    0    0  501  0.00000000000E+00  0.00000000000E+00  0.18627558156E+04  0.18627558156E+04  0.25500000920E-02 0.  1.
        2   -1    0    0  501    0  0.00000000000E+00  0.00000000000E+00 -0.91236447011E+03  0.91236447011E+03  0.25500000920E-02 0. -1.
    10030    2    1    2    0    0  0.00000000000E+00  0.00000000000E+00  0.95039134551E+03  0.27751202857E+04  0.26073068271E+04 0.  0.
        3    1    3    3  502    0 -0.31378877236E+03  0.86213039791E+03 -0.51057893517E+03  0.10499633688E+04  0.10100000352E+00 0. -1.
       -3    1    3    3    0  502  0.31378877236E+03 -0.86213039791E+03  0.14609702807E+04  0.17251569169E+04  0.10100000352E+00 0.  1.
</event>
<event>
 5   0  0.5170532E-05  0.1924091E+04  0.7818609E-02  0.8642957E-01
        2   -1    0    0  501    0  0.00000000000E+00  0.00000000000E+00  0.22160670272E+04  0.22160670272E+04  0.25500000920E-02 0. -1.
       -2   -1    0    0    0  501  0.00000000000E+00  0.00000000000E+00 -0.41764581884E+03  0.41764581885E+03  0.25500000920E-02 0.  1.
    10030    2    1    2    0    0  0.00000000000E+00  0.00000000000E+00  0.17984212084E+04  0.26337128461E+04  0.19240905677E+04 0.  0.
        1    1    3    3  502    0  0.39905070909E+02  0.26016633525E+03  0.21658230743E+04  0.21817581273E+04  0.50400001928E-02 0. -1.
       -1    1    3    3    0  502 -0.39905070909E+02 -0.26016633525E+03 -0.36740186596E+03  0.45195471877E+03  0.50400001928E-02 0.  1.
</event>
<event>
 5   0  0.5182179E-05  0.2582877E+04  0.7818609E-02  0.8374041E-01
        2   -1    0    0  501    0  0.00000000000E+00  0.00000000000E+00  0.92667237007E+03  0.92667237007E+03  0.25500000920E-02 0. -1.
       -2   -1    0    0    0  501  0.00000000000E+00  0.00000000000E+00 -0.17997870871E+04  0.17997870871E+04  0.25500000920E-02 0.  1.
    10030    2    1    2    0    0  0.00000000000E+00  0.00000000000E+00 -0.87311471701E+03  0.27264594572E+04  0.25828766642E+04 0.  0.
        3    1    3    3  502    0 -0.54500472600E+03 -0.74505499342E+03 -0.13899113309E+04  0.16685294761E+04  0.10100000352E+00 0.  1.
       -3    1    3    3    0  502  0.54500472600E+03  0.74505499342E+03  0.51679661388E+03  0.10579299811E+04  0.10100000352E+00 0. -1.
</event>
<event>
 5   0  0.2163800E-05  0.1473765E+04  0.7818609E-02  0.8902088E-01
        1   -1    0    0  501    0  0.00000000000E+00  0.00000000000E+00  0.46909998335E+03  0.46909998337E+03  0.50400001928E-02 0.  1.
       -1   -1    0    0    0  501  0.00000000000E+00  0.00000000000E+00 -0.11575274968E+04  0.11575274969E+04  0.50400001928E-02 0. -1.
    10030    2    1    2    0    0  0.00000000000E+00  0.00000000000E+00 -0.68842751350E+03  0.16266274802E+04  0.14737654217E+04 0.  0.
        1    1    3    3  502    0  0.54378991638E+03  0.46142847011E+03 -0.54884164305E+03  0.89991713805E+03  0.50400001928E-02 0.  1.
       -1    1    3    3    0  502 -0.54378991638E+03 -0.46142847011E+03 -0.13958587046E+03  0.72671034219E+03  0.50400001928E-02 0. -1.
</event>
<event>
 5   0  0.5036452E-05  0.1692968E+04  0.7818609E-02  0.8765385E-01
        2   -1    0    0  501    0  0.00000000000E+00  0.00000000000E+00  0.38572952347E+03  0.38572952348E+03  0.25500000920E-02 0. -1.
       -2   -1    0    0    0  501  0.00000000000E+00  0.00000000000E+00 -0.18576112761E+04  0.18576112761E+04  0.25500000920E-02 0.  1.
    10030    2    1    2    0    0  0.00000000000E+00  0.00000000000E+00 -0.14718817526E+04  0.22433407995E+04  0.16929684136E+04 0.  0.
        2    1    3    3  502    0  0.35282653005E+03 -0.67783150423E+03 -0.12184520328E+04  0.14382515304E+04  0.25500000920E-02 0.  1.
       -2    1    3    3    0  502 -0.35282653005E+03  0.67783150423E+03 -0.25342971981E+03  0.80508926916E+03  0.25500000920E-02 0. -1.
</event>
<event>
 5   0  0.5036452E-05  0.2614893E+04  0.7818609E-02  0.8363160E-01
        2   -1    0    0  501    0  0.00000000000E+00  0.00000000000E+00  0.12982507172E+04  0.12982507172E+04  0.25500000920E-02 0. -1.
       -2   -1    0    0    0  501  0.00000000000E+00  0.00000000000E+00 -0.13167072061E+04  0.13167072061E+04  0.25500000920E-02 0.  1.
    10030    2    1    2    0    0  0.00000000000E+00  0.00000000000E+00 -0.18456488936E+02  0.26149579233E+04  0.26148927891E+04 0.  0.
        2    1    3    3  502    0  0.79337694127E+03  0.55088186724E+03  0.87198509859E+03  0.13012593188E+04  0.25500000920E-02 0. -1.
       -2    1    3    3    0  502 -0.79337694127E+03 -0.55088186724E+03 -0.89044158753E+03  0.13136986045E+04  0.25500000920E-02 0.  1.
</event>
<event>
 5   0  0.2163800E-05  0.2549859E+04  0.7818609E-02  0.8385435E-01
       -1   -1    0    0    0  501  0.00000000000E+00  0.00000000000E+00  0.12840362776E+04  0.12840362776E+04  0.50400001928E-02 0. -1.
        1   -1    0    0  501    0  0.00000000000E+00  0.00000000000E+00 -0.12658872145E+04  0.12658872145E+04  0.50400001928E-02 0.  1.
    10030    2    1    2    0    0  0.00000000000E+00  0.00000000000E+00  0.18149063144E+02  0.25499234921E+04  0.25498589034E+04 0.  0.
        1    1    3    3  502    0  0.87671206157E+03  0.21922311854E+03 -0.89026036993E+03  0.12685607360E+04  0.50400001928E-02 0.  1.
       -1    1    3    3    0  502 -0.87671206157E+03 -0.21922311854E+03  0.90840943308E+03  0.12813627561E+04  0.50400001928E-02 0. -1.
</event>
<event>
 5   0  0.1954502E-05  0.2619215E+04  0.7818609E-02  0.8361703E-01
       -1   -1    0    0    0  501  0.00000000000E+00  0.00000000000E+00  0.11586953180E+04  0.11586953180E+04  0.50400001928E-02 0.  1.
        1   -1    0    0  501    0  0.00000000000E+00  0.00000000000E+00 -0.14801750625E+04  0.14801750625E+04  0.50400001928E-02 0. -1.
    10030    2    1    2    0    0  0.00000000000E+00  0.00000000000E+00 -0.32147974447E+03  0.26388703805E+04  0.26192150845E+04 0.  0.
        4    1    3    3  502    0  0.65415807090E+03 -0.10634792777E+04  0.23739561187E+03  0.12709324314E+04  0.12699999809E+01 0. -1.
       -4    1    3    3    0  502 -0.65415807090E+03  0.10634792777E+04 -0.55887535633E+03  0.13679379491E+04  0.12699999809E+01 0.  1.
</event>
<event>
 5   0  0.1993815E-05  0.2486513E+04  0.7818609E-02  0.8407806E-01
        1   -1    0    0  501    0  0.00000000000E+00  0.00000000000E+00  0.12158693279E+04  0.12158693279E+04  0.50400001928E-02 0. -1.
       -1   -1    0    0    0  501  0.00000000000E+00  0.00000000000E+00 -0.12712603413E+04  0.12712603413E+04  0.50400001928E-02 0.  1.
    10030    2    1    2    0    0  0.00000000000E+00  0.00000000000E+00 -0.55391013404E+02  0.24871296692E+04  0.24865127844E+04 0.  0.
        5    1    3    3  502    0  0.79684850921E+03 -0.30578951142E+03  0.87651416041E+03  0.12234271271E+04  0.46999998093E+01 0. -1.
       -5    1    3    3    0  502 -0.79684850921E+03  0.30578951142E+03 -0.93190517381E+03  0.12637025421E+04  0.46999998093E+01 0.  1.
</event>
<event>
 5   0  0.5049803E-05  0.2454923E+04  0.7818609E-02  0.8419223E-01
       -2   -1    0    0    0  501  0.00000000000E+00  0.00000000000E+00  0.86283058011E+03  0.86283058011E+03  0.25500000920E-02 0.  1.
        2   -1    0    0  501    0  0.00000000000E+00  0.00000000000E+00 -0.17461846036E+04  0.17461846036E+04  0.25500000920E-02 0. -1.
    10030    2    1    2    0    0  0.00000000000E+00  0.00000000000E+00 -0.88335402354E+03  0.26090151838E+04  0.24549227886E+04 0.  0.
        4    1    3    3  502    0 -0.33328438557E+03  0.11611037068E+04 -0.21024813995E+03  0.12261509666E+04  0.12699999809E+01 0. -1.
       -4    1    3    3    0  502  0.33328438557E+03 -0.11611037068E+04 -0.67310588359E+03  0.13828642172E+04  0.12699999809E+01 0.  1.
</event>
<event>
 5   0  0.1993815E-05  0.2577564E+04  0.7818609E-02  0.8375862E-01
        1   -1    0    0  501    0  0.00000000000E+00  0.00000000000E+00  0.10593940321E+04  0.10593940321E+04  0.50400001928E-02 0. -1.
       -1   -1    0    0    0  501  0.00000000000E+00  0.00000000000E+00 -0.15678392685E+04  0.15678392686E+04  0.50400001928E-02 0.  1.
    10030    2    1    2    0    0  0.00000000000E+00  0.00000000000E+00 -0.50844523642E+03  0.26272333007E+04  0.25775644042E+04 0.  0.
        5    1    3    3  502    0 -0.10157623314E+04  0.18187554488E+03 -0.10411659268E+04  0.14659128231E+04  0.46999998093E+01 0.  1.
       -5    1    3    3    0  502  0.10157623314E+04 -0.18187554488E+03  0.53272069034E+03  0.11613204776E+04  0.46999998093E+01 0. -1.
</event>
<event>
 5   0  0.5182179E-05  0.2559471E+04  0.7818609E-02  0.8382100E-01
        2   -1    0    0  501    0  0.00000000000E+00  0.00000000000E+00  0.60953175937E+03  0.60953175938E+03  0.25500000920E-02 0.  1.
       -2   -1    0    0    0  501  0.00000000000E+00  0.00000000000E+00 -0.26868541016E+04  0.26868541016E+04  0.25500000920E-02 0. -1.
    10030    2    1    2    0    0  0.00000000000E+00  0.00000000000E+00 -0.20773223423E+04  0.32963858610E+04  0.25594709670E+04 0.  0.
        3    1    3    3  502    0  0.10681466278E+03  0.10534705438E+04 -0.19642723814E+04  0.22314962598E+04  0.10100000352E+00 0.  1.
       -3    1    3    3    0  502 -0.10681466278E+03 -0.10534705438E+04 -0.11304996085E+03  0.10648896012E+04  0.10100000352E+00 0. -1.
</event>
<event>
 5   0  0.1993815E-05  0.2409610E+04  0.7818609E-02  0.8435914E-01
       -1   -1    0    0    0  501  0.00000000000E+00  0.00000000000E+00  0.73112338124E+03  0.73112338125E+03  0.50400001928E-02 0.  1.
        1   -1    0    0  501    0  0.00000000000E+00  0.00000000000E+00 -0.19853771011E+04  0.19853771011E+04  0.50400001928E-02 0. -1.
    10030    2    1    2    0    0  0.00000000000E+00  0.00000000000E+00 -0.12542537199E+04  0.27165004824E+04  0.24096104409E+04 0.  0.
        5    1    3    3  502    0  0.52589614447E+03  0.99303066657E+03 -0.11170515693E+04  0.15844566760E+04  0.46999998093E+01 0. -1.
       -5    1    3    3    0  502 -0.52589614447E+03 -0.99303066657E+03 -0.13720215058E+03  0.11320438064E+04  0.46999998093E+01 0.  1.
</event>
<event>
 5   0  0.2159405E-05  0.2536607E+04  0.7818609E-02  0.8390059E-01
       -1   -1    0    0    0  501  0.00000000000E+00  0.00000000000E+00  0.12415666630E+04  0.12415666630E+04  0.50400001928E-02 0. -1.
        1   -1    0    0  501    0  0.00000000000E+00  0.00000000000E+00 -0.12956157827E+04  0.12956157827E+04  0.50400001928E-02 0.  1.
    10030    2    1    2    0    0  0.00000000000E+00  0.00000000000E+00 -0.54049119706E+02  0.25371824457E+04  0.25366066812E+04 0.  0.
        3    1    3    3  502    0  0.76710739746E+03 -0.10027874725E+04  0.93654719540E+02  0.12660204149E+04  0.10100000352E+00 0. -1.
       -3    1    3    3    0  502 -0.76710739746E+03  0.10027874725E+04 -0.14770383925E+03  0.12711620308E+04  0.10100000352E+00 0.  1.
</event>
<event>
 5   0  0.2159405E-05  0.2588629E+04  0.7818609E-02  0.8372074E-01
        1   -1    0    0  501    0  0.00000000000E+00  0.00000000000E+00  0.18046811847E+04  0.18046811847E+04  0.50400001928E-02 0.  1.
       -1   -1    0    0    0  501  0.00000000000E+00  0.00000000000E+00 -0.92828048388E+03  0.92828048389E+03  0.50400001928E-02 0. -1.
    10030    2    1    2    0    0  0.00000000000E+00  0.00000000000E+00  0.87640070085E+03  0.27329616686E+04  0.25886292306E+04 0.  0.
        3    1    3    3  502    0  0.85945818124E+03  0.68596086674E+03 -0.28253382777E+03  0.11353572345E+04  0.10100000352E+00 0. -1.
       -3    1    3    3    0  502 -0.85945818124E+03 -0.68596086674E+03  0.11589345286E+04  0.15976044341E+04  0.10100000352E+00 0.  1.
</event>
<event>
 5   0  0.1993815E-05  0.2346502E+04  0.7818609E-02  0.8459808E-01
        1   -1    0    0  501    0  0.00000000000E+00  0.00000000000E+00  0.22355782684E+04  0.22355782684E+04  0.50400001928E-02 0. -1.
       -1   -1    0    0    0  501  0.00000000000E+00  0.00000000000E+00 -0.61573251443E+03  0.61573251445E+03  0.50400001928E-02 0.  1.
    10030    2    1    2    0    0  0.00000000000E+00  0.00000000000E+00  0.16198457540E+04  0.28513107829E+04  0.23465022723E+04 0.  0.
        5    1    3    3  502    0 -0.86693635928E+03  0.50929368880E+03  0.75257620211E+02  0.10082879112E+04  0.46999998093E+01 0.  1.
       -5    1    3    3    0  502  0.86693635928E+03 -0.50929368880E+03  0.15445881338E+04  0.18430228717E+04  0.46999998093E+01 0. -1.
</event>
<event>
 5   0  0.5049803E-05  0.2578184E+04  0.7818609E-02  0.8375650E-01
        2   -1    0    0  501    0  0.00000000000E+00  0.00000000000E+00  0.16434569003E+04  0.16434569003E+04  0.25500000920E-02 0.  1.
       -2   -1    0    0    0  501  0.00000000000E+00  0.00000000000E+00 -0.10111357999E+04  0.10111357999E+04  0.25500000920E-02 0. -1.
    10030    2    1    2    0    0  0.00000000000E+00  0.00000000000E+00  0.63232110046E+03  0.26545927002E+04  0.25781839402E+04 0.  0.
        4    1    3    3  502    0  0.76100863990E+03  0.46803137368E+03  0.12729855486E+04  0.15552110264E+04  0.12699999809E+01 0.  1.
       -4    1    3    3    0  502 -0.76100863990E+03 -0.46803137368E+03 -0.64066444811E+03  0.10993816738E+04  0.12699999809E+01 0. -1.
</event>
<event>
 5   0  0.5182179E-05  0.2589671E+04  0.7818609E-02  0.8371718E-01
        2   -1    0    0  501    0  0.00000000000E+00  0.00000000000E+00  0.16026666770E+04  0.16026666770E+04  0.25500000920E-02 0. -1.
       -2   -1    0    0    0  501  0.00000000000E+00  0.00000000000E+00 -0.10461311747E+04  0.10461311747E+04  0.25500000920E-02 0.  1.
    10030    2    1    2    0    0  0.00000000000E+00  0.00000000000E+00  0.55653550236E+03  0.26487978517E+04  0.25896714645E+04 0.  0.
        3    1    3    3  502    0  0.31863626167E+03 -0.20241191706E+03 -0.98859908285E+03  0.10582191683E+04  0.10100000352E+00 0.  1.
       -3    1    3    3    0  502 -0.31863626167E+03  0.20241191706E+03  0.15451345852E+04  0.15905786834E+04  0.10100000352E+00 0. -1.
</event>
<event>
 5   0  0.5036452E-05  0.2374529E+04  0.7818609E-02  0.8449101E-01
       -2   -1    0    0    0  501  0.00000000000E+00  0.00000000000E+00  0.12031281059E+04  0.12031281059E+04  0.25500000920E-02 0.  1.
        2   -1    0    0  501    0  0.00000000000E+00  0.00000000000E+00 -0.11716101765E+04  0.11716101765E+04  0.25500000920E-02 0. -1.
    10030    2    1    2    0    0  0.00000000000E+00  0.00000000000E+00  0.31517929394E+02  0.23747382824E+04  0.23745291176E+04 0.  0.
        2    1    3    3  502    0  0.10774129849E+04  0.41659832805E+03  0.29005347547E+03  0.11910096245E+04  0.25500000920E-02 0.  1.
       -2    1    3    3    0  502 -0.10774129849E+04 -0.41659832805E+03 -0.25853554608E+03  0.11837286579E+04  0.25500000920E-02 0. -1.
</event>
<event>
 5   0  0.5170532E-05  0.2619302E+04  0.7818609E-02  0.8361674E-01
        2   -1    0    0  501    0  0.00000000000E+00  0.00000000000E+00  0.86827881057E+03  0.86827881057E+03  0.25500000920E-02 0.  1.
       -2   -1    0    0    0  501  0.00000000000E+00  0.00000000000E+00 -0.19753860629E+04  0.19753860629E+04  0.25500000920E-02 0. -1.
    10030    2    1    2    0    0  0.00000000000E+00  0.00000000000E+00 -0.11071072523E+04  0.28436648735E+04  0.26193020911E+04 0.  0.
        1    1    3    3  502    0  0.10411429978E+04  0.32893478173E+03 -0.13386941922E+04  0.17275065768E+04  0.50400001928E-02 0. -1.
       -1    1    3    3    0  502 -0.10411429978E+04 -0.32893478173E+03  0.23158693986E+03  0.11161582967E+04  0.50400001928E-02 0.  1.
</event>
<event>
 5   0  0.4955675E-05  0.2682516E+04  0.7818609E-02  0.8340700E-01
       -2   -1    0    0    0  501  0.00000000000E+00  0.00000000000E+00  0.15030825398E+04  0.15030825398E+04  0.25500000920E-02 0. -1.
        2   -1    0    0  501    0  0.00000000000E+00  0.00000000000E+00 -0.11968561847E+04  0.11968561847E+04  0.25500000920E-02 0.  1.
    10030    2    1    2    0    0  0.00000000000E+00  0.00000000000E+00  0.30622635508E+03  0.26999387245E+04  0.26825164558E+04 0.  0.
        5    1    3    3  502    0 -0.54825962157E+02 -0.97085933159E+03 -0.77667107749E+03  0.12445134714E+04  0.46999998093E+01 0.  1.
       -5    1    3    3    0  502  0.54825962157E+02  0.97085933159E+03  0.10828974326E+04  0.14554252531E+04  0.46999998093E+01 0. -1.
</event>
<event>
 5   0  0.5182179E-05  0.2572493E+04  0.7818609E-02  0.8377605E-01
       -2   -1    0    0    0  501  0.00000000000E+00  0.00000000000E+00  0.80069474871E+03  0.80069474872E+03  0.25500000920E-02 0.  1.
        2   -1    0    0  501    0  0.00000000000E+00  0.00000000000E+00 -0.20662427672E+04  0.20662427672E+04  0.25500000920E-02 0. -1.
    10030    2    1    2    0    0  0.00000000000E+00  0.00000000000E+00 -0.12655480185E+04  0.28669375159E+04  0.25724927469E+04 0.  0.
        3    1    3    3  502    0  0.17904796429E+03 -0.35598169850E+03 -0.19957206395E+04  0.20351122879E+04  0.10100000352E+00 0. -1.
       -3    1    3    3    0  502 -0.17904796429E+03  0.35598169850E+03  0.73017262105E+03  0.83182522799E+03  0.10100000352E+00 0.  1.
</event>
<event>
 5   0  0.2159405E-05  0.2449708E+04  0.7818609E-02  0.8421125E-01
       -1   -1    0    0    0  501  0.00000000000E+00  0.00000000000E+00  0.86326661199E+03  0.86326661201E+03  0.50400001928E-02 0. -1.
        1   -1    0    0  501    0  0.00000000000E+00  0.00000000000E+00 -0.17378950596E+04  0.17378950596E+04  0.50400001928E-02 0.  1.
    10030    2    1    2    0    0  0.00000000000E+00  0.00000000000E+00 -0.87462844764E+03  0.26011616716E+04  0.24497075582E+04 0.  0.
        3    1    3    3  502    0  0.19428578368E+03 -0.10731444520E+04 -0.10293528563E+04  0.14996510573E+04  0.10100000352E+00 0.  1.
       -3    1    3    3    0  502 -0.19428578368E+03  0.10731444520E+04  0.15472440866E+03  0.11015106143E+04  0.10100000352E+00 0. -1.
</event>
<event>
 5   0  0.2159405E-05  0.2426750E+04  0.7818609E-02  0.8429556E-01
        1   -1    0    0  501    0  0.00000000000E+00  0.00000000000E+00  0.16748761905E+04  0.16748761905E+04  0.50400001928E-02 0.  1.
       -1   -1    0    0    0  501  0.00000000000E+00  0.00000000000E+00 -0.87903734126E+03  0.87903734128E+03  0.50400001928E-02 0. -1.
    10030    2    1    2    0    0  0.00000000000E+00  0.00000000000E+00  0.79583884921E+03  0.25539135318E+04  0.24267498540E+04 0.  0.
        3    1    3    3  502    0 -0.46185231410E+03  0.84878073676E+03  0.11702284843E+04  0.15176201813E+04  0.10100000352E+00 0.  1.
       -3    1    3    3    0  502  0.46185231410E+03 -0.84878073676E+03 -0.37438963505E+03  0.10362933504E+04  0.10100000352E+00 0. -1.
</event>
<event>
 5   0  0.1993815E-05  0.2708337E+04  0.7818609E-02  0.8332305E-01
       -1   -1    0    0    0  501  0.00000000000E+00  0.00000000000E+00  0.15336970983E+04  0.15336970983E+04  0.50400001928E-02 0. -1.
        1   -1    0    0  501    0  0.00000000000E+00  0.00000000000E+00 -0.11956544149E+04  0.11956544149E+04  0.50400001928E-02 0.  1.
    10030    2    1    2    0    0  0.00000000000E+00  0.00000000000E+00  0.33804268340E+03  0.27293515131E+04  0.27083365423E+04 0.  0.
        5    1    3    3  502    0 -0.81585180124E+02  0.39621097247E+03  0.14713764715E+04  0.15259784033E+04  0.46999998093E+01 0. -1.
       -5    1    3    3    0  502  0.81585180124E+02 -0.39621097247E+03 -0.11333337881E+04  0.12033731099E+04  0.46999998093E+01 0.  1.
</event>
<event>
 5   0  0.2159405E-05  0.2610573E+04  0.7818609E-02  0.8364619E-01
       -1   -1    0    0    0  501  0.00000000000E+00  0.00000000000E+00  0.98885598697E+03  0.98885598698E+03  0.50400001928E-02 0.  1.
        1   -1    0    0  501    0  0.00000000000E+00  0.00000000000E+00 -0.17229740790E+04  0.17229740790E+04  0.50400001928E-02 0. -1.
    10030    2    1    2    0    0  0.00000000000E+00  0.00000000000E+00 -0.73411809203E+03  0.27118300660E+04  0.26105732960E+04 0.  0.
        3    1    3    3  502    0  0.65248785091E+03 -0.66261121252E+03  0.58442646516E+03  0.10983388903E+04  0.10100000352E+00 0.  1.
       -3    1    3    3    0  502 -0.65248785091E+03  0.66261121252E+03 -0.13185445572E+04  0.16134911757E+04  0.10100000352E+00 0. -1.
</event>
<event>
 5   0  0.5036452E-05  0.2624469E+04  0.7818609E-02  0.8359937E-01
       -2   -1    0    0    0  501  0.00000000000E+00  0.00000000000E+00  0.11000168985E+04  0.11000168985E+04  0.25500000920E-02 0. -1.
        2   -1    0    0  501    0  0.00000000000E+00  0.00000000000E+00 -0.15653931759E+04  0.15653931759E+04  0.25500000920E-02 0.  1.
    10030    2    1    2    0    0  0.00000000000E+00  0.00000000000E+00 -0.46537627742E+03  0.26654100743E+04  0.26244686671E+04 0.  0.
        2    1    3    3  502    0 -0.17563178763E+03 -0.25527827050E+03 -0.15277056022E+04  0.15588129866E+04  0.25500000920E-02 0.  1.
       -2    1    3    3    0  502  0.17563178763E+03  0.25527827050E+03  0.10623293248E+04  0.11065970877E+04  0.25500000920E-02 0. -1.
</event>
<event>
 5   0  0.5182179E-05  0.2624855E+04  0.7818609E-02  0.8359807E-01
        2   -1    0    0  501    0  0.00000000000E+00  0.00000000000E+00  0.14496664654E+04  0.14496664654E+04  0.25500000920E-02 0.  1.
       -2   -1    0    0    0  501  0.00000000000E+00  0.00000000000E+00 -0.11881810257E+04  0.11881810257E+04  0.25500000920E-02 0. -1.
    10030    2    1    2    0    0  0.00000000000E+00  0.00000000000E+00  0.26148543969E+03  0.26378474911E+04  0.26248551867E+04 0.  0.
        3    1    3    3  502    0 -0.74416592631E+03 -0.10321390544E+04 -0.19236420400E+03  0.12868946929E+04  0.10100000352E+00 0. -1.
       -3    1    3    3    0  502  0.74416592631E+03  0.10321390544E+04  0.45384964368E+03  0.13509527981E+04  0.10100000352E+00 0.  1.
</event>
<event>
 5   0  0.2159405E-05  0.2609327E+04  0.7818609E-02  0.8365040E-01
       -1   -1    0    0    0  501  0.00000000000E+00  0.00000000000E+00  0.11476807181E+04  0.11476807181E+04  0.50400001928E-02 0. -1.
        1   -1    0    0  501    0  0.00000000000E+00  0.00000000000E+00 -0.14831189456E+04  0.14831189456E+04  0.50400001928E-02 0.  1.
    10030    2    1    2    0    0  0.00000000000E+00  0.00000000000E+00 -0.33543822757E+03  0.26307996637E+04  0.26093271290E+04 0.  0.
        3    1    3    3  502    0  0.91804187608E+03 -0.41787532347E+03  0.66657227976E+03  0.12090241050E+04  0.10100000352E+00 0. -1.
       -3    1    3    3    0  502 -0.91804187608E+03  0.41787532347E+03 -0.10020105073E+04  0.14217755587E+04  0.10100000352E+00 0.  1.
</event>
<event>
 5   0  0.2072710E-05  0.2679993E+04  0.7818609E-02  0.8341526E-01
       -1   -1    0    0    0  501  0.00000000000E+00  0.00000000000E+00  0.18135001928E+04  0.18135001928E+04  0.50400001928E-02 0. -1.
        1   -1    0    0  501    0  0.00000000000E+00  0.00000000000E+00 -0.99012422477E+03  0.99012422478E+03  0.50400001928E-02 0.  1.
    10030    2    1    2    0    0  0.00000000000E+00  0.00000000000E+00  0.82337596804E+03  0.28036244176E+04  0.26799928900E+04 0.  0.
        2    1    3    3  502    0  0.74262626833E+03 -0.12626275464E+03  0.15710329451E+04  0.17422917586E+04  0.25500000920E-02 0. -1.
       -2    1    3    3    0  502 -0.74262626833E+03  0.12626275464E+03 -0.74765697706E+03  0.10613326590E+04  0.25500000920E-02 0.  1.
</event>
<event>
 5   0  0.5036452E-05  0.2523836E+04  0.7818609E-02  0.8394543E-01
       -2   -1    0    0    0  501  0.00000000000E+00  0.00000000000E+00  0.65791608195E+03  0.65791608195E+03  0.25500000920E-02 0.  1.
        2   -1    0    0  501    0  0.00000000000E+00  0.00000000000E+00 -0.24204250540E+04  0.24204250540E+04  0.25500000920E-02 0. -1.
    10030    2    1    2    0    0  0.00000000000E+00  0.00000000000E+00 -0.17625089721E+04  0.30783411360E+04  0.25238356271E+04 0.  0.
        2    1    3    3  502    0 -0.12244150924E+03 -0.87566533485E+03 -0.19794348556E+04  0.21679354348E+04  0.25500000920E-02 0. -1.
       -2    1    3    3    0  502  0.12244150924E+03  0.87566533485E+03  0.21692588351E+03  0.91040570120E+03  0.25500000920E-02 0.  1.
</event>
<event>
 5   0  0.1954502E-05  0.2568307E+04  0.7818609E-02  0.8379047E-01
        1   -1    0    0  501    0  0.00000000000E+00  0.00000000000E+00  0.17376379378E+04  0.17376379378E+04  0.50400001928E-02 0. -1.
       -1   -1    0    0    0  501  0.00000000000E+00  0.00000000000E+00 -0.94901795769E+03  0.94901795770E+03  0.50400001928E-02 0.  1.
    10030    2    1    2    0    0  0.00000000000E+00  0.00000000000E+00  0.78861998014E+03  0.26866558955E+04  0.25683065292E+04 0.  0.
        4    1    3    3  502    0 -0.76528131541E+03 -0.46741362990E+03 -0.56724076784E+03  0.10610818511E+04  0.12699999809E+01 0.  1.
       -4    1    3    3    0  502  0.76528131541E+03  0.46741362990E+03  0.13558607480E+04  0.16255740444E+04  0.12699999809E+01 0. -1.
</event>
<event>
 5   0  0.5170532E-05  0.2587406E+04  0.7818609E-02  0.8372492E-01
        2   -1    0    0  501    0  0.00000000000E+00  0.00000000000E+00  0.15064104744E+04  0.15064104744E+04  0.25500000920E-02 0. -1.
       -2   -1    0    0    0  501  0.00000000000E+00  0.00000000000E+00 -0.11110300946E+04  0.11110300946E+04  0.25500000920E-02 0.  1.
    10030    2    1    2    0    0  0.00000000000E+00  0.00000000000E+00  0.39538037988E+03  0.26174405690E+04  0.25874059379E+04 0.  0.
        1    1    3    3  502    0 -0.12670017196E+04  0.94972260159E+02 -0.48765185171E+02  0.12714916952E+04  0.50400001928E-02 0. -1.
       -1    1    3    3    0  502  0.12670017196E+04 -0.94972260159E+02  0.44414556505E+03  0.13459488737E+04  0.50400001928E-02 0.  1.
</event>
<event>
 5   0  0.1954502E-05  0.2415826E+04  0.7818609E-02  0.8433602E-01
        1   -1    0    0  501    0  0.00000000000E+00  0.00000000000E+00  0.11673573880E+04  0.11673573881E+04  0.50400001928E-02 0. -1.
       -1   -1    0    0    0  501  0.00000000000E+00  0.00000000000E+00 -0.12498775045E+04  0.12498775045E+04  0.50400001928E-02 0.  1.
    10030    2    1    2    0    0  0.00000000000E+00  0.00000000000E+00 -0.82520116443E+02  0.24172348925E+04  0.24158259366E+04 0.  0.
        4    1    3    3  502    0  0.11242293806E+04  0.30715916861E+03  0.27643680724E+03  0.11977718382E+04  0.12699999809E+01 0. -1.
       -4    1    3    3    0  502 -0.11242293806E+04 -0.30715916861E+03 -0.35895692368E+03  0.12194630544E+04  0.12699999809E+01 0.  1.
</event>
<event>
 5   0  0.2159405E-05  0.2630911E+04  0.7818609E-02  0.8357777E-01
       -1   -1    0    0    0  501  0.00000000000E+00  0.00000000000E+00  0.81821685739E+03  0.81821685741E+03  0.50400001928E-02 0.  1.
        1   -1    0    0  501    0  0.00000000000E+00  0.00000000000E+00 -0.21148705188E+04  0.21148705188E+04  0.50400001928E-02 0. -1.
    10030    2    1    2    0    0  0.00000000000E+00  0.00000000000E+00 -0.12966536614E+04  0.29330873762E+04  0.26309106482E+04 0.  0.
        3    1    3    3  502    0 -0.31385816381E+03 -0.25506551626E+03 -0.20438390049E+04  0.20834690429E+04  0.10100000352E+00 0. -1.
       -3    1    3    3    0  502  0.31385816381E+03  0.25506551626E+03  0.74718534349E+03  0.84961833331E+03  0.10100000352E+00 0.  1.
</event>
<event>
 5   0  0.2072710E-05  0.2608872E+04  0.7818609E-02  0.8365194E-01
       -1   -1    0    0    0  501  0.00000000000E+00  0.00000000000E+00  0.19741495622E+04  0.19741495622E+04  0.50400001928E-02 0.  1.
        1   -1    0    0  501    0  0.00000000000E+00  0.00000000000E+00 -0.86191735882E+03  0.86191735884E+03  0.50400001928E-02 0. -1.
    10030    2    1    2    0    0  0.00000000000E+00  0.00000000000E+00  0.11122322034E+04  0.28360669211E+04  0.26088723822E+04 0.  0.
        2    1    3    3  502    0 -0.28267581932E+03 -0.10994038423E+04 -0.14246573648E+03  0.11440677049E+04  0.25500000920E-02 0.  1.
       -2    1    3    3    0  502  0.28267581932E+03  0.10994038423E+04  0.12546979399E+04  0.16919992162E+04  0.25500000920E-02 0. -1.
</event>
<event>
 5   0  0.5170532E-05  0.2593555E+04  0.7818609E-02  0.8370394E-01
        2   -1    0    0  501    0  0.00000000000E+00  0.00000000000E+00  0.23137341858E+04  0.23137341858E+04  0.25500000920E-02 0. -1.
       -2   -1    0    0    0  501  0.00000000000E+00  0.00000000000E+00 -0.72680423896E+03  0.72680423897E+03  0.25500000920E-02 0.  1.
    10030    2    1    2    0    0  0.00000000000E+00  0.00000000000E+00  0.15869299469E+04  0.30405384248E+04  0.25935549457E+04 0.  0.
        1    1    3    3  502    0 -0.75021861506E+03  0.10525205188E+04  0.67048390838E+03  0.14560824442E+04  0.50400001928E-02 0. -1.
       -1    1    3    3    0  502  0.75021861506E+03 -0.10525205188E+04  0.91644603848E+03  0.15844559806E+04  0.50400001928E-02 0.  1.
</event>
<event>
 5   0  0.4955675E-05  0.2570871E+04  0.7818609E-02  0.8378164E-01
        2   -1    0    0  501    0  0.00000000000E+00  0.00000000000E+00  0.22316510931E+04  0.22316510931E+04  0.25500000920E-02 0. -1.
       -2   -1    0    0    0  501  0.00000000000E+00  0.00000000000E+00 -0.74041324955E+03  0.74041324956E+03  0.25500000920E-02 0.  1.
    10030    2    1    2    0    0  0.00000000000E+00  0.00000000000E+00  0.14912378436E+04  0.29720643427E+04  0.25708706990E+04 0.  0.
        5    1    3    3  502    0 -0.11276282436E+04 -0.30550976050E+03  0.13654192260E+04  0.17970179248E+04  0.46999998093E+01 0. -1.
       -5    1    3    3    0  502  0.11276282436E+04  0.30550976050E+03  0.12581861759E+03  0.11750464178E+04  0.46999998093E+01 0.  1.
</event>
<event>
 5   0  0.1993815E-05  0.2521282E+04  0.7818609E-02  0.8395443E-01
        1   -1    0    0  501    0  0.00000000000E+00  0.00000000000E+00  0.90265637499E+03  0.90265637500E+03  0.50400001928E-02 0. -1.
       -1   -1    0    0    0  501  0.00000000000E+00  0.00000000000E+00 -0.17605990516E+04  0.17605990516E+04  0.50400001928E-02 0.  1.
    10030    2    1    2    0    0  0.00000000000E+00  0.00000000000E+00 -0.85794267659E+03  0.26632554266E+04  0.25212821799E+04 0.  0.
        5    1    3    3  502    0  0.17700789473E+03 -0.67509323879E+03  0.67995850845E+03  0.97439639730E+03  0.46999998093E+01 0. -1.
       -5    1    3    3    0  502 -0.17700789473E+03  0.67509323879E+03 -0.15379011850E+04  0.16888590293E+04  0.46999998093E+01 0.  1.
</event>
<event>
 5   0  0.5049803E-05  0.2517510E+04  0.7818609E-02  0.8396774E-01
        2   -1    0    0  501    0  0.00000000000E+00  0.00000000000E+00  0.13202560583E+04  0.13202560583E+04  0.25500000920E-02 0.  1.
       -2   -1    0    0    0  501  0.00000000000E+00  0.00000000000E+00 -0.12001190700E+04  0.12001190700E+04  0.25500000920E-02 0. -1.
    10030    2    1    2    0    0  0.00000000000E+00  0.00000000000E+00  0.12013698833E+03  0.25203751283E+04  0.25175102565E+04 0.  0.
        4    1    3    3  502    0 -0.13363571194E+03  0.50517175046E+03  0.12065379704E+04  0.13148355364E+04  0.12699999809E+01 0.  1.
       -4    1    3    3    0  502  0.13363571194E+03 -0.50517175046E+03 -0.10864009820E+04  0.12055395919E+04  0.12699999809E+01 0. -1.
</event>
<event>
 5   0  0.2163800E-05  0.1320642E+04  0.7818609E-02  0.9013354E-01
        1   -1    0    0  501    0  0.00000000000E+00  0.00000000000E+00  0.59957355625E+03  0.59957355627E+03  0.50400001928E-02 0. -1.
       -1   -1    0    0    0  501  0.00000000000E+00  0.00000000000E+00 -0.72722279934E+03  0.72722279936E+03  0.50400001928E-02 0.  1.
    10030    2    1    2    0    0  0.00000000000E+00  0.00000000000E+00 -0.12764924309E+03  0.13267963556E+04  0.13206416017E+04 0.  0.
        1    1    3    3  502    0 -0.15720513564E+03  0.63435081661E+03  0.31003544892E+02  0.65427489102E+03  0.50400001928E-02 0. -1.
       -1    1    3    3    0  502  0.15720513564E+03 -0.63435081661E+03 -0.15865278799E+03  0.67252146461E+03  0.50400001928E-02 0.  1.
</event>
<event>
 5   0  0.1993815E-05  0.2663042E+04  0.7818609E-02  0.8347097E-01
       -1   -1    0    0    0  501  0.00000000000E+00  0.00000000000E+00  0.12668422360E+04  0.12668422360E+04  0.50400001928E-02 0.  1.
        1   -1    0    0  501    0  0.00000000000E+00  0.00000000000E+00 -0.13995014578E+04  0.13995014579E+04  0.50400001928E-02 0. -1.
    10030    2    1    2    0    0  0.00000000000E+00  0.00000000000E+00 -0.13265922188E+03  0.26663436938E+04  0.26630415364E+04 0.  0.
        5    1    3    3  502    0  0.11498325394E+04 -0.57209167622E+03 -0.41822197204E+03  0.13506796299E+04  0.46999998093E+01 0. -1.
       -5    1    3    3    0  502 -0.11498325394E+04  0.57209167622E+03  0.28556275017E+03  0.13156640639E+04  0.46999998093E+01 0.  1.
</event>
<event>
 5   0  0.2072710E-05  0.2601705E+04  0.7818609E-02  0.8367622E-01
        1   -1    0    0  501    0  0.00000000000E+00  0.00000000000E+00  0.23571658850E+04  0.23571658850E+04  0.50400001928E-02 0.  1.
       -1   -1    0    0    0  501  0.00000000000E+00  0.00000000000E+00 -0.71790342660E+03  0.71790342662E+03  0.50400001928E-02 0. -1.
    10030    2    1    2    0    0  0.00000000000E+00  0.00000000000E+00  0.16392624584E+04  0.30750693116E+04  0.26017051838E+04 0.  0.
        2    1    3    3  502    0 -0.11471476668E+04  0.60972071025E+03  0.74025288318E+03  0.14952195307E+04  0.25500000920E-02 0. -1.
       -2    1    3    3    0  502  0.11471476668E+04 -0.60972071025E+03  0.89900957517E+03  0.15798497809E+04  0.25500000920E-02 0.  1.
</event>
<event>
 5   0  0.2072710E-05  0.2627549E+04  0.7818609E-02  0.8358903E-01
       -1   -1    0    0    0  501  0.00000000000E+00  0.00000000000E+00  0.15056073158E+04  0.15056073158E+04  0.50400001928E-02 0. -1.
        1   -1    0    0  501    0  0.00000000000E+00  0.00000000000E+00 -0.11463832410E+04  0.11463832410E+04  0.50400001928E-02 0.  1.
    10030    2    1    2    0    0  0.00000000000E+00  0.00000000000E+00  0.35922407473E+03  0.26519905568E+04  0.26275486632E+04 0.  0.
        2    1    3    3  502    0  0.10956197859E+04  0.92083855296E+02  0.90542651149E+03  0.14243101205E+04  0.25500000920E-02 0. -1.
       -2    1    3    3    0  502 -0.10956197859E+04 -0.92083855296E+02 -0.54620243676E+03  0.12276804363E+04  0.25500000920E-02 0.  1.
</event>
<event>
 5   0  0.1698625E-05  0.2607448E+04  0.7818609E-02  0.8365676E-01
       -3   -1    0    0    0  501  0.00000000000E+00  0.00000000000E+00  0.12531004301E+04  0.12531004342E+04  0.10100000352E+00 0. -1.
        3   -1    0    0  501    0  0.00000000000E+00  0.00000000000E+00 -0.13563928831E+04  0.13563928869E+04  0.10100000352E+00 0.  1.
    10030    2    1    2    0    0  0.00000000000E+00  0.00000000000E+00 -0.10329245295E+03  0.26094933211E+04  0.26074481897E+04 0.  0.
        2    1    3    3  502    0  0.20412014270E+03  0.56929344960E+03  0.11042213251E+04  0.12589935660E+04  0.25500000920E-02 0. -1.
       -2    1    3    3    0  502 -0.20412014270E+03 -0.56929344960E+03 -0.12075137780E+04  0.13504997551E+04  0.25500000920E-02 0.  1.
</event>
<event>
 5   0  0.1993815E-05  0.2638699E+04  0.7818609E-02  0.8355174E-01
       -1   -1    0    0    0  501  0.00000000000E+00  0.00000000000E+00  0.16058275341E+04  0.16058275341E+04  0.50400001928E-02 0.  1.
        1   -1    0    0  501    0  0.00000000000E+00  0.00000000000E+00 -0.10839791181E+04  0.10839791181E+04  0.50400001928E-02 0. -1.
    10030    2    1    2    0    0  0.00000000000E+00  0.00000000000E+00  0.52184841600E+03  0.26898066522E+04  0.26386993115E+04 0.  0.
        5    1    3    3  502    0 -0.59719694758E+03 -0.82874015554E+03  0.11120858117E+04  0.15100368810E+04  0.46999998093E+01 0.  1.
       -5    1    3    3    0  502  0.59719694758E+03  0.82874015554E+03 -0.59023739566E+03  0.11797697711E+04  0.46999998093E+01 0. -1.
</event>
<event>
 5   0  0.1954502E-05  0.2483364E+04  0.7818609E-02  0.8408936E-01
       -1   -1    0    0    0  501  0.00000000000E+00  0.00000000000E+00  0.93288045294E+03  0.93288045295E+03  0.50400001928E-02 0. -1.
        1   -1    0    0  501    0  0.00000000000E+00  0.00000000000E+00 -0.16527028057E+04  0.16527028057E+04  0.50400001928E-02 0.  1.
    10030    2    1    2    0    0  0.00000000000E+00  0.00000000000E+00 -0.71982235275E+03  0.25855832586E+04  0.24833639620E+04 0.  0.
        4    1    3    3  502    0 -0.28604481381E+03  0.60784208210E+03 -0.14471545898E+04  0.15954785025E+04  0.12699999809E+01 0.  1.
       -4    1    3    3    0  502  0.28604481381E+03 -0.60784208210E+03  0.72733223702E+03  0.99010475617E+03  0.12699999809E+01 0. -1.
</event>
<event>
 5   0  0.2072710E-05  0.2506812E+04  0.7818609E-02  0.8400563E-01
       -1   -1    0    0    0  501  0.00000000000E+00  0.00000000000E+00  0.11400865218E+04  0.11400865218E+04  0.50400001928E-02 0.  1.
        1   -1    0    0  501    0  0.00000000000E+00  0.00000000000E+00 -0.13779890650E+04  0.13779890650E+04  0.50400001928E-02 0. -1.
    10030    2    1    2    0    0  0.00000000000E+00  0.00000000000E+00 -0.23790254322E+03  0.25180755868E+04  0.25068121272E+04 0.  0.
        2    1    3    3  502    0  0.24339959803E+03  0.11033065278E+02 -0.13539720821E+04  0.13757199904E+04  0.25500000920E-02 0. -1.
       -2    1    3    3    0  502 -0.24339959803E+03 -0.11033065278E+02  0.11160695389E+04  0.11423555964E+04  0.25500000920E-02 0.  1.
</event>
<event>
 5   0  0.2072710E-05  0.2587692E+04  0.7818609E-02  0.8372394E-01
        1   -1    0    0  501    0  0.00000000000E+00  0.00000000000E+00  0.20685701221E+04  0.20685701221E+04  0.50400001928E-02 0.  1.
       -1   -1    0    0    0  501  0.00000000000E+00  0.00000000000E+00 -0.80927251182E+03  0.80927251184E+03  0.50400001928E-02 0. -1.
    10030    2    1    2    0    0  0.00000000000E+00  0.00000000000E+00  0.12592976103E+04  0.28778426339E+04  0.25876915880E+04 0.  0.
        2    1    3    3  502    0 -0.68173815960E+03 -0.59602369937E+03  0.16574047936E+04  0.18886507931E+04  0.25500000920E-02 0.  1.
       -2    1    3    3    0  502  0.68173815960E+03  0.59602369937E+03 -0.39810718336E+03  0.98919184081E+03  0.25500000920E-02 0. -1.
</event>
<event>
 5   0  0.5170532E-05  0.1748039E+04  0.7818609E-02  0.8734431E-01
       -2   -1    0    0    0  501  0.00000000000E+00  0.00000000000E+00  0.45567168487E+03  0.45567168487E+03  0.25500000920E-02 0. -1.
        2   -1    0    0  501    0  0.00000000000E+00  0.00000000000E+00 -0.16764480782E+04  0.16764480782E+04  0.25500000920E-02 0.  1.
    10030    2    1    2    0    0  0.00000000000E+00  0.00000000000E+00 -0.12207763933E+04  0.21321197630E+04  0.17480388101E+04 0.  0.
        1    1    3    3  502    0 -0.31918385895E+03  0.80478818102E+03 -0.75648801448E+03  0.11497114717E+04  0.50400001928E-02 0.  1.
       -1    1    3    3    0  502  0.31918385895E+03 -0.80478818102E+03 -0.46428837882E+03  0.98240829132E+03  0.50400001928E-02 0. -1.
</event>
<event>
 5   0  0.1993815E-05  0.2518917E+04  0.7818609E-02  0.8396277E-01
       -1   -1    0    0    0  501  0.00000000000E+00  0.00000000000E+00  0.82651464155E+03  0.82651464157E+03  0.50400001928E-02 0. -1.
        1   -1    0    0  501    0  0.00000000000E+00  0.00000000000E+00 -0.19191864854E+04  0.19191864855E+04  0.50400001928E-02 0.  1.
    10030    2    1    2    0    0  0.00000000000E+00  0.00000000000E+00 -0.10926718439E+04  0.27457011270E+04  0.25189170134E+04 0.  0.
        5    1    3    3  502    0 -0.24088744523E+03 -0.10199821945E+04  0.21499001984E+03  0.10698753371E+04  0.46999998093E+01 0. -1.
       -5    1    3    3    0  502  0.24088744523E+03  0.10199821945E+04 -0.13076618637E+04  0.16758257899E+04  0.46999998093E+01 0.  1.
</event>
<event>
 5   0  0.2072710E-05  0.2594457E+04  0.7818609E-02  0.8370086E-01
        1   -1    0    0  501    0  0.00000000000E+00  0.00000000000E+00  0.16204463226E+04  0.16204463226E+04  0.50400001928E-02 0. -1.
       -1   -1    0    0    0  501  0.00000000000E+00  0.00000000000E+00 -0.10384806455E+04  0.10384806455E+04  0.50400001928E-02 0.  1.
    10030    2    1    2    0    0  0.00000000000E+00  0.00000000000E+00  0.58196567716E+03  0.26589269681E+04  0.25944572789E+04 0.  0.
        2    1    3    3  502    0  0.20718151549E+03  0.71163063896E+03  0.13820787922E+04  0.15682742536E+04  0.25500000920E-02 0. -1.
       -2    1    3    3    0  502 -0.20718151549E+03 -0.71163063896E+03 -0.80011311506E+03  0.10906527145E+04  0.25500000920E-02 0.  1.
</event>
<event>
 5   0  0.2163800E-05  0.2565712E+04  0.7818609E-02  0.8379942E-01
        1   -1    0    0  501    0  0.00000000000E+00  0.00000000000E+00  0.13050056671E+04  0.13050056671E+04  0.50400001928E-02 0. -1.
       -1   -1    0    0    0  501  0.00000000000E+00  0.00000000000E+00 -0.12610826631E+04  0.12610826631E+04  0.50400001928E-02 0.  1.
    10030    2    1    2    0    0  0.00000000000E+00  0.00000000000E+00  0.43923004007E+02  0.25660883302E+04  0.25657123939E+04 0.  0.
        1    1    3    3  502    0 -0.50677899588E+03 -0.11251124016E+04  0.37275090831E+03  0.12890485276E+04  0.50400001928E-02 0. -1.
       -1    1    3    3    0  502  0.50677899588E+03  0.11251124016E+04 -0.32882790430E+03  0.12770398026E+04  0.50400001928E-02 0.  1.
</event>
<event>
 5   0  0.4955675E-05  0.2602172E+04  0.7818609E-02  0.8367464E-01
        2   -1    0    0  501    0  0.00000000000E+00  0.00000000000E+00  0.13658615436E+04  0.13658615436E+04  0.25500000920E-02 0. -1.
       -2   -1    0    0    0  501  0.00000000000E+00  0.00000000000E+00 -0.12393827150E+04  0.12393827150E+04  0.25500000920E-02 0.  1.
    10030    2    1    2    0    0  0.00000000000E+00  0.00000000000E+00  0.12647882857E+03  0.26052442586E+04  0.26021723143E+04 0.  0.
        5    1    3    3  502    0  0.14945478861E+03  0.11470166237E+04 -0.53313083471E+03  0.12736696769E+04  0.46999998093E+01 0. -1.
       -5    1    3    3    0  502 -0.14945478861E+03 -0.11470166237E+04  0.65960966327E+03  0.13315745818E+04  0.46999998093E+01 0.  1.
</event>
<event>
 5   0  0.4955675E-05  0.2233906E+04  0.7818609E-02  0.8504447E-01
       -2   -1    0    0    0  501  0.00000000000E+00  0.00000000000E+00  0.70386206268E+03  0.70386206269E+03  0.25500000920E-02 0. -1.
        2   -1    0    0  501    0  0.00000000000E+00  0.00000000000E+00 -0.17724842982E+04  0.17724842982E+04  0.25500000920E-02 0.  1.
    10030    2    1    2    0    0  0.00000000000E+00  0.00000000000E+00 -0.10686222355E+04  0.24763463609E+04  0.22339064029E+04 0.  0.
        5    1    3    3  502    0  0.58421728662E+03 -0.35554349063E+03 -0.15132364019E+04  0.16606105834E+04  0.46999998093E+01 0.  1.
       -5    1    3    3    0  502 -0.58421728662E+03  0.35554349063E+03  0.44461416638E+03  0.81573577747E+03  0.46999998093E+01 0. -1.
</event>
<event>
 5   0  0.5049803E-05  0.2651722E+04  0.7818609E-02  0.8350842E-01
        2   -1    0    0  501    0  0.00000000000E+00  0.00000000000E+00  0.18619116953E+04  0.18619116953E+04  0.25500000920E-02 0. -1.
       -2   -1    0    0    0  501  0.00000000000E+00  0.00000000000E+00 -0.94414139367E+03  0.94414139368E+03  0.25500000920E-02 0.  1.
    10030    2    1    2    0    0  0.00000000000E+00  0.00000000000E+00  0.91777030163E+03  0.28060530890E+04  0.26517223859E+04 0.  0.
        4    1    3    3  502    0 -0.73978207244E+03  0.71958713892E+03  0.13396886188E+04  0.16911092139E+04  0.12699999809E+01 0. -1.
       -4    1    3    3    0  502  0.73978207244E+03 -0.71958713892E+03 -0.42191831719E+03  0.11149438750E+04  0.12699999809E+01 0.  1.
</event>
<event>
 5   0  0.1993815E-05  0.2595797E+04  0.7818609E-02  0.8369630E-01
        1   -1    0    0  501    0  0.00000000000E+00  0.00000000000E+00  0.14908473425E+04  0.14908473425E+04  0.50400001928E-02 0. -1.
       -1   -1    0    0    0  501  0.00000000000E+00  0.00000000000E+00 -0.11299214909E+04  0.11299214909E+04  0.50400001928E-02 0.  1.
    10030    2    1    2    0    0  0.00000000000E+00  0.00000000000E+00  0.36092585152E+03  0.26207688334E+04  0.25957969504E+04 0.  0.
        5    1    3    3  502    0  0.11508382249E+04  0.13390497078E+03 -0.41010806326E+03  0.12290524295E+04  0.46999998093E+01 0. -1.
       -5    1    3    3    0  502 -0.11508382249E+04 -0.13390497078E+03  0.77103391479E+03  0.13917164039E+04  0.46999998093E+01 0.  1.
</event>
<event>
 5   0  0.5036452E-05  0.2607875E+04  0.7818609E-02  0.8365531E-01
        2   -1    0    0  501    0  0.00000000000E+00  0.00000000000E+00  0.12715816745E+04  0.12715816745E+04  0.25500000920E-02 0.  1.
       -2   -1    0    0    0  501  0.00000000000E+00  0.00000000000E+00 -0.13371161945E+04  0.13371161945E+04  0.25500000920E-02 0. -1.
    10030    2    1    2    0    0  0.00000000000E+00  0.00000000000E+00 -0.65534519991E+02  0.26086978689E+04  0.26078745748E+04 0.  0.
        2    1    3    3  502    0 -0.15000200587E+03  0.79825140729E+03 -0.10531611221E+04  0.13299828044E+04  0.25500000920E-02 0. -1.
       -2    1    3    3    0  502  0.15000200587E+03 -0.79825140729E+03  0.98762660209E+03  0.12787150645E+04  0.25500000920E-02 0.  1.
</event>
<event>
 5   0  0.2072710E-05  0.1860972E+04  0.7818609E-02  0.8674531E-01
       -1   -1    0    0    0  501  0.00000000000E+00  0.00000000000E+00  0.71130542475E+03  0.71130542477E+03  0.50400001928E-02 0. -1.
        1   -1    0    0  501    0  0.00000000000E+00  0.00000000000E+00 -0.12172039627E+04  0.12172039627E+04  0.50400001928E-02 0.  1.
    10030    2    1    2    0    0  0.00000000000E+00  0.00000000000E+00 -0.50589853791E+03  0.19285093874E+04  0.18609715545E+04 0.  0.
        2    1    3    3  502    0 -0.77434804511E+03 -0.44776624669E+03 -0.51856010242E+03  0.10339313742E+04  0.25500000920E-02 0.  1.
       -2    1    3    3    0  502  0.77434804511E+03  0.44776624669E+03  0.12661564506E+02  0.89457801329E+03  0.25500000920E-02 0. -1.
</event>
<event>
 5   0  0.5036452E-05  0.2628283E+04  0.7818609E-02  0.8358657E-01
        2   -1    0    0  501    0  0.00000000000E+00  0.00000000000E+00  0.18705115524E+04  0.18705115524E+04  0.25500000920E-02 0.  1.
       -2   -1    0    0    0  501  0.00000000000E+00  0.00000000000E+00 -0.92325983528E+03  0.92325983529E+03  0.25500000920E-02 0. -1.
    10030    2    1    2    0    0  0.00000000000E+00  0.00000000000E+00  0.94725171714E+03  0.27937713877E+04  0.26282832327E+04 0.  0.
        2    1    3    3  502    0 -0.10676530408E+04  0.14806945426E+03 -0.32548060416E+03  0.11259419179E+04  0.25500000920E-02 0. -1.
       -2    1    3    3    0  502  0.10676530408E+04 -0.14806945426E+03  0.12727323213E+04  0.16678294698E+04  0.25500000920E-02 0.  1.
</event>
<event>
 5   0  0.1993815E-05  0.1440392E+04  0.7818609E-02  0.8925088E-01
       -1   -1    0    0    0  501  0.00000000000E+00  0.00000000000E+00  0.43608876793E+03  0.43608876796E+03  0.50400001928E-02 0.  1.
        1   -1    0    0  501    0  0.00000000000E+00  0.00000000000E+00 -0.11893968094E+04  0.11893968095E+04  0.50400001928E-02 0. -1.
    10030    2    1    2    0    0  0.00000000000E+00  0.00000000000E+00 -0.75330804151E+03  0.16254855774E+04  0.14403924316E+04 0.  0.
        5    1    3    3  502    0  0.70858015594E+03 -0.75571343316E+02 -0.49427637048E+03  0.86725318433E+03  0.46999998093E+01 0.  1.
       -5    1    3    3    0  502 -0.70858015594E+03  0.75571343316E+02 -0.25903167103E+03  0.75823239308E+03  0.46999998093E+01 0. -1.
</event>
<event>
 5   0  0.5049803E-05  0.2619455E+04  0.7818609E-02  0.8361623E-01
       -2   -1    0    0    0  501  0.00000000000E+00  0.00000000000E+00  0.98289918818E+03  0.98289918819E+03  0.25500000920E-02 0. -1.
        2   -1    0    0  501    0  0.00000000000E+00  0.00000000000E+00 -0.17452312932E+04  0.17452312932E+04  0.25500000920E-02 0.  1.
    10030    2    1    2    0    0  0.00000000000E+00  0.00000000000E+00 -0.76233210500E+03  0.27281304814E+04  0.26194552268E+04 0.  0.
        4    1    3    3  502    0  0.66010237177E+03 -0.27242747078E+03 -0.15246384508E+04  0.16835901778E+04  0.12699999809E+01 0.  1.
       -4    1    3    3    0  502 -0.66010237177E+03  0.27242747078E+03  0.76230634583E+03  0.10445403036E+04  0.12699999809E+01 0. -1.
</event>
<event>
 5   0  0.2163800E-05  0.2634162E+04  0.7818609E-02  0.8356689E-01
       -1   -1    0    0    0  501  0.00000000000E+00  0.00000000000E+00  0.13239965546E+04  0.13239965546E+04  0.50400001928E-02 0.  1.
        1   -1    0    0  501    0  0.00000000000E+00  0.00000000000E+00 -0.13102012673E+04  0.13102012673E+04  0.50400001928E-02 0. -1.
    10030    2    1    2    0    0  0.00000000000E+00  0.00000000000E+00  0.13795287255E+02  0.26341978219E+04  0.26341616987E+04 0.  0.
        1    1    3    3  502    0  0.10864624464E+04  0.18177379875E+03  0.72889064837E+03  0.13208799865E+04  0.50400001928E-02 0.  1.
       -1    1    3    3    0  502 -0.10864624464E+04 -0.18177379875E+03 -0.71509536111E+03  0.13133178354E+04  0.50400001928E-02 0. -1.
</event>
<event>
 5   0  0.1993815E-05  0.2606673E+04  0.7818609E-02  0.8365938E-01
       -1   -1    0    0    0  501  0.00000000000E+00  0.00000000000E+00  0.16570092836E+04  0.16570092836E+04  0.50400001928E-02 0.  1.
        1   -1    0    0  501    0  0.00000000000E+00  0.00000000000E+00 -0.10251515167E+04  0.10251515167E+04  0.50400001928E-02 0. -1.
    10030    2    1    2    0    0  0.00000000000E+00  0.00000000000E+00  0.63185776693E+03  0.26821608004E+04  0.26066726533E+04 0.  0.
        5    1    3    3  502    0 -0.80663714173E+03 -0.77467539653E+03  0.10045466139E+04  0.15033035083E+04  0.46999998093E+01 0.  1.
       -5    1    3    3    0  502  0.80663714173E+03  0.77467539653E+03 -0.37268884701E+03  0.11788572921E+04  0.46999998093E+01 0. -1.
</event>
<event>
 5   0  0.2163800E-05  0.2616670E+04  0.7818609E-02  0.8362561E-01
       -1   -1    0    0    0  501  0.00000000000E+00  0.00000000000E+00  0.12843320306E+04  0.12843320306E+04  0.50400001928E-02 0. -1.
        1   -1    0    0  501    0  0.00000000000E+00  0.00000000000E+00 -0.13327865655E+04  0.13327865655E+04  0.50400001928E-02 0.  1.
    10030    2    1    2    0    0  0.00000000000E+00  0.00000000000E+00 -0.48454534883E+02  0.26171185961E+04  0.26166700029E+04 0.  0.
        1    1    3    3  502    0 -0.56807266455E+03  0.44040733598E+03  0.10691551436E+04  0.12883159143E+04  0.50400001928E-02 0. -1.
       -1    1    3    3    0  502  0.56807266455E+03 -0.44040733598E+03 -0.11176096785E+04  0.13288026819E+04  0.50400001928E-02 0.  1.
</event>
<event>
 5   0  0.5036452E-05  0.2292759E+04  0.7818609E-02  0.8480781E-01
        2   -1    0    0  501    0  0.00000000000E+00  0.00000000000E+00  0.11400583749E+04  0.11400583749E+04  0.25500000920E-02 0. -1.
       -2   -1    0    0    0  501  0.00000000000E+00  0.00000000000E+00 -0.11527360110E+04  0.11527360110E+04  0.25500000920E-02 0.  1.
    10030    2    1    2    0    0  0.00000000000E+00  0.00000000000E+00 -0.12677636044E+02  0.22927943859E+04  0.22927593362E+04 0.  0.
        2    1    3    3  502    0  0.28867748592E+03 -0.63929780293E+03  0.90039990317E+03  0.11413835277E+04  0.25500000920E-02 0. -1.
       -2    1    3    3    0  502 -0.28867748592E+03  0.63929780293E+03 -0.91307753921E+03  0.11514108582E+04  0.25500000920E-02 0.  1.
</event>
<event>
 5   0  0.5182179E-05  0.2637796E+04  0.7818609E-02  0.8355475E-01
        2   -1    0    0  501    0  0.00000000000E+00  0.00000000000E+00  0.23355434440E+04  0.23355434440E+04  0.25500000920E-02 0.  1.
       -2   -1    0    0    0  501  0.00000000000E+00  0.00000000000E+00 -0.74479115843E+03  0.74479115843E+03  0.25500000920E-02 0. -1.
    10030    2    1    2    0    0  0.00000000000E+00  0.00000000000E+00  0.15907522856E+04  0.30803346024E+04  0.26377961310E+04 0.  0.
        3    1    3    3  502    0 -0.74359805746E+03  0.89047820305E+03  0.15280077389E+04  0.19185143110E+04  0.10100000352E+00 0.  1.
       -3    1    3    3    0  502  0.74359805746E+03 -0.89047820305E+03  0.62744546637E+02  0.11618202914E+04  0.10100000352E+00 0. -1.
</event>
<event>
 5   0  0.1993815E-05  0.1550749E+04  0.7818609E-02  0.8851390E-01
       -1   -1    0    0    0  501  0.00000000000E+00  0.00000000000E+00  0.58949110587E+03  0.58949110589E+03  0.50400001928E-02 0. -1.
        1   -1    0    0  501    0  0.00000000000E+00  0.00000000000E+00 -0.10198721055E+04  0.10198721055E+04  0.50400001928E-02 0.  1.
    10030    2    1    2    0    0  0.00000000000E+00  0.00000000000E+00 -0.43038099963E+03  0.16093632114E+04  0.15507488969E+04 0.  0.
        5    1    3    3  502    0 -0.19121235750E+02  0.72417445261E+03  0.71642113220E+02  0.72797592121E+03  0.46999998093E+01 0. -1.
       -5    1    3    3    0  502  0.19121235750E+02 -0.72417445261E+03 -0.50202311285E+03  0.88138729019E+03  0.46999998093E+01 0.  1.
</event>
<event>
 5   0  0.1698625E-05  0.2376152E+04  0.7818609E-02  0.8448486E-01
       -4   -1    0    0    0  501  0.00000000000E+00  0.00000000000E+00  0.13143676950E+04  0.13143683086E+04  0.12699999809E+01 0. -1.
        4   -1    0    0  501    0  0.00000000000E+00  0.00000000000E+00 -0.10739179779E+04  0.10739187289E+04  0.12699999809E+01 0.  1.
    10030    2    1    2    0    0  0.00000000000E+00  0.00000000000E+00  0.24044971708E+03  0.23882870374E+04  0.23761521220E+04 0.  0.
        4    1    3    3  502    0 -0.24456082778E+03  0.28073371669E+03  0.12542161337E+04  0.13083123255E+04  0.12699999809E+01 0. -1.
       -4    1    3    3    0  502  0.24456082778E+03 -0.28073371669E+03 -0.10137664166E+04  0.10799747120E+04  0.12699999809E+01 0.  1.
</event>
<event>
 5   0  0.4955675E-05  0.2654239E+04  0.7818609E-02  0.8350007E-01
       -2   -1    0    0    0  501  0.00000000000E+00  0.00000000000E+00  0.10652405157E+04  0.10652405157E+04  0.25500000920E-02 0. -1.
        2   -1    0    0  501    0  0.00000000000E+00  0.00000000000E+00 -0.16533786536E+04  0.16533786536E+04  0.25500000920E-02 0.  1.
    10030    2    1    2    0    0  0.00000000000E+00  0.00000000000E+00 -0.58813813787E+03  0.27186191693E+04  0.26542388209E+04 0.  0.
        5    1    3    3  502    0 -0.10552742735E+04 -0.28618227864E+03  0.47631811377E+03  0.11926462696E+04  0.46999998093E+01 0. -1.
       -5    1    3    3    0  502  0.10552742735E+04  0.28618227864E+03 -0.10644562516E+04  0.15259728997E+04  0.46999998093E+01 0.  1.
</event>
<event>
 5   0  0.4955675E-05  0.2652844E+04  0.7818609E-02  0.8350470E-01
       -2   -1    0    0    0  501  0.00000000000E+00  0.00000000000E+00  0.93968786858E+03  0.93968786858E+03  0.25500000920E-02 0. -1.
        2   -1    0    0  501    0  0.00000000000E+00  0.00000000000E+00 -0.18723185512E+04  0.18723185512E+04  0.25500000920E-02 0.  1.
    10030    2    1    2    0    0  0.00000000000E+00  0.00000000000E+00 -0.93263068258E+03  0.28120064198E+04  0.26528437788E+04 0.  0.
        5    1    3    3  502    0 -0.12548276444E+04  0.27377556336E+03 -0.81760074638E+03  0.15225106065E+04  0.46999998093E+01 0.  1.
       -5    1    3    3    0  502  0.12548276444E+04 -0.27377556336E+03 -0.11502993620E+03  0.12894958133E+04  0.46999998093E+01 0. -1.
</event>
<event>
 5   0  0.2163800E-05  0.1383496E+04  0.7818609E-02  0.8965852E-01
        1   -1    0    0  501    0  0.00000000000E+00  0.00000000000E+00  0.77797270079E+03  0.77797270081E+03  0.50400001928E-02 0.  1.
       -1   -1    0    0    0  501  0.00000000000E+00  0.00000000000E+00 -0.61507987706E+03  0.61507987708E+03  0.50400001928E-02 0. -1.
    10030    2    1    2    0    0  0.00000000000E+00  0.00000000000E+00  0.16289282373E+03  0.13930525779E+04  0.13834960834E+04 0.  0.
        1    1    3    3  502    0  0.33473962173E+03 -0.60420442297E+03  0.11914503487E+03  0.70093447515E+03  0.50400001928E-02 0.  1.
       -1    1    3    3    0  502 -0.33473962173E+03  0.60420442297E+03  0.43747788860E+02  0.69211810274E+03  0.50400001928E-02 0. -1.
</event>
<event>
 5   0  0.5049803E-05  0.1628515E+04  0.7818609E-02  0.8803219E-01
        2   -1    0    0  501    0  0.00000000000E+00  0.00000000000E+00  0.12837281184E+04  0.12837281184E+04  0.25500000920E-02 0.  1.
       -2   -1    0    0    0  501  0.00000000000E+00  0.00000000000E+00 -0.51647640598E+03  0.51647640599E+03  0.25500000920E-02 0. -1.
    10030    2    1    2    0    0  0.00000000000E+00  0.00000000000E+00  0.76725171238E+03  0.18002045244E+04  0.16285150105E+04 0.  0.
        4    1    3    3  502    0 -0.55326936934E+03 -0.59740301072E+03  0.38809151679E+03  0.90200553800E+03  0.12699999809E+01 0. -1.
       -4    1    3    3    0  502  0.55326936934E+03  0.59740301072E+03  0.37916019559E+03  0.89819898636E+03  0.12699999809E+01 0.  1.
</event>
<event>
 5   0  0.2163800E-05  0.2722713E+04  0.7818609E-02  0.8327673E-01
       -1   -1    0    0    0  501  0.00000000000E+00  0.00000000000E+00  0.15881279475E+04  0.15881279475E+04  0.50400001928E-02 0. -1.
        1   -1    0    0  501    0  0.00000000000E+00  0.00000000000E+00 -0.11669661202E+04  0.11669661202E+04  0.50400001928E-02 0.  1.
    10030    2    1    2    0    0  0.00000000000E+00  0.00000000000E+00  0.42116182729E+03  0.27550940677E+04  0.27227129921E+04 0.  0.
        1    1    3    3  502    0 -0.41093597671E+03  0.45727742459E+02 -0.11018922574E+04  0.11769137395E+04  0.50400001928E-02 0.  1.
       -1    1    3    3    0  502  0.41093597671E+03 -0.45727742459E+02  0.15230540847E+04  0.15781803282E+04  0.50400001928E-02 0. -1.
</event>
<event>
 5   0  0.2159405E-05  0.2547477E+04  0.7818609E-02  0.8386264E-01
        1   -1    0    0  501    0  0.00000000000E+00  0.00000000000E+00  0.15439001509E+04  0.15439001509E+04  0.50400001928E-02 0. -1.
       -1   -1    0    0    0  501  0.00000000000E+00  0.00000000000E+00 -0.10508511262E+04  0.10508511262E+04  0.50400001928E-02 0.  1.
    10030    2    1    2    0    0  0.00000000000E+00  0.00000000000E+00  0.49304902472E+03  0.25947512771E+04  0.25474765650E+04 0.  0.
        3    1    3    3  502    0  0.61022362226E+03  0.68495042467E+03 -0.65354795650E+03  0.11263458150E+04  0.10100000352E+00 0. -1.
       -3    1    3    3    0  502 -0.61022362226E+03 -0.68495042467E+03  0.11465969812E+04  0.14684054621E+04  0.10100000352E+00 0.  1.
</event>
<event>
 5   0  0.1954502E-05  0.2627063E+04  0.7818609E-02  0.8359066E-01
       -1   -1    0    0    0  501  0.00000000000E+00  0.00000000000E+00  0.19978877243E+04  0.19978877243E+04  0.50400001928E-02 0. -1.
        1   -1    0    0  501    0  0.00000000000E+00  0.00000000000E+00 -0.86359469527E+03  0.86359469529E+03  0.50400001928E-02 0.  1.
    10030    2    1    2    0    0  0.00000000000E+00  0.00000000000E+00  0.11342930291E+04  0.28614824196E+04  0.26270631820E+04 0.  0.
        4    1    3    3  502    0  0.43379813961E+03  0.97752639437E+03  0.13978424361E+04  0.17600294790E+04  0.12699999809E+01 0. -1.
       -4    1    3    3    0  502 -0.43379813961E+03 -0.97752639437E+03 -0.26354940708E+03  0.11014529407E+04  0.12699999809E+01 0.  1.
</event>
<event>
 5   0  0.5049803E-05  0.2591174E+04  0.7818609E-02  0.8371206E-01
       -2   -1    0    0    0  501  0.00000000000E+00  0.00000000000E+00  0.78349158216E+03  0.78349158216E+03  0.25500000920E-02 0. -1.
        2   -1    0    0  501    0  0.00000000000E+00  0.00000000000E+00 -0.21423906803E+04  0.21423906803E+04  0.25500000920E-02 0.  1.
    10030    2    1    2    0    0  0.00000000000E+00  0.00000000000E+00 -0.13588990981E+04  0.29258822624E+04  0.25911735285E+04 0.  0.
        4    1    3    3  502    0 -0.62287966827E+03  0.32155532484E+03 -0.19097641332E+04  0.20343494207E+04  0.12699999809E+01 0.  1.
       -4    1    3    3    0  502  0.62287966827E+03 -0.32155532484E+03  0.55086503511E+03  0.89153284173E+03  0.12699999809E+01 0. -1.
</event>
<event>
 5   0  0.1954502E-05  0.2479532E+04  0.7818609E-02  0.8410314E-01
       -1   -1    0    0    0  501  0.00000000000E+00  0.00000000000E+00  0.10937016684E+04  0.10937016684E+04  0.50400001928E-02 0. -1.
        1   -1    0    0  501    0  0.00000000000E+00  0.00000000000E+00 -0.14053372702E+04  0.14053372702E+04  0.50400001928E-02 0.  1.
    10030    2    1    2    0    0  0.00000000000E+00  0.00000000000E+00 -0.31163560185E+03  0.24990389386E+04  0.24795319858E+04 0.  0.
        4    1    3    3  502    0 -0.73416737121E+03  0.45330306212E+03  0.74142897352E+03  0.11376308412E+04  0.12699999809E+01 0. -1.
       -4    1    3    3    0  502  0.73416737121E+03 -0.45330306212E+03 -0.10530645754E+04  0.13614080975E+04  0.12699999809E+01 0.  1.
</event>
<event>
 5   0  0.2159405E-05  0.2641718E+04  0.7818609E-02  0.8354167E-01
       -1   -1    0    0    0  501  0.00000000000E+00  0.00000000000E+00  0.90663312630E+03  0.90663312631E+03  0.50400001928E-02 0.  1.
        1   -1    0    0  501    0  0.00000000000E+00  0.00000000000E+00 -0.19243375996E+04  0.19243375996E+04  0.50400001928E-02 0. -1.
    10030    2    1    2    0    0  0.00000000000E+00  0.00000000000E+00 -0.10177044733E+04  0.28309707259E+04  0.26417177851E+04 0.  0.
        3    1    3    3  502    0 -0.17915271151E+03 -0.61317334071E+02 -0.19097169286E+04  0.19190816208E+04  0.10100000352E+00 0. -1.
       -3    1    3    3    0  502  0.17915271151E+03  0.61317334071E+02  0.89201245530E+03  0.91188910516E+03  0.10100000352E+00 0.  1.
</event>
<event>
 5   0  0.5170532E-05  0.2622382E+04  0.7818609E-02  0.8360638E-01
        2   -1    0    0  501    0  0.00000000000E+00  0.00000000000E+00  0.13831720954E+04  0.13831720954E+04  0.25500000920E-02 0.  1.
       -2   -1    0    0    0  501  0.00000000000E+00  0.00000000000E+00 -0.12429562492E+04  0.12429562492E+04  0.25500000920E-02 0. -1.
    10030    2    1    2    0    0  0.00000000000E+00  0.00000000000E+00  0.14021584616E+03  0.26261283447E+04  0.26223824281E+04 0.  0.
        1    1    3    3  502    0  0.46394658178E+03 -0.10698663653E+04  0.67043226598E+03  0.13451170558E+04  0.50400001928E-02 0.  1.
       -1    1    3    3    0  502 -0.46394658178E+03  0.10698663653E+04 -0.53021641982E+03  0.12810112889E+04  0.50400001928E-02 0. -1.
</event>
<event>
 5   0  0.4955675E-05  0.2473602E+04  0.7818609E-02  0.8412451E-01
       -2   -1    0    0    0  501  0.00000000000E+00  0.00000000000E+00  0.11991507633E+04  0.11991507633E+04  0.25500000920E-02 0.  1.
        2   -1    0    0  501    0  0.00000000000E+00  0.00000000000E+00 -0.12756328589E+04  0.12756328589E+04  0.25500000920E-02 0. -1.
    10030    2    1    2    0    0  0.00000000000E+00  0.00000000000E+00 -0.76482095577E+02  0.24747836222E+04  0.24736015172E+04 0.  0.
        5    1    3    3  502    0 -0.55355326364E+02  0.10788086321E+04  0.56434384385E+03  0.12187691910E+04  0.46999998093E+01 0.  1.
       -5    1    3    3    0  502  0.55355326364E+02 -0.10788086321E+04 -0.64082593942E+03  0.12560144312E+04  0.46999998093E+01 0. -1.
</event>
<event>
 5   0  0.1954502E-05  0.2611364E+04  0.7818609E-02  0.8364351E-01
        1   -1    0    0  501    0  0.00000000000E+00  0.00000000000E+00  0.23685067521E+04  0.23685067521E+04  0.50400001928E-02 0.  1.
       -1   -1    0    0    0  501  0.00000000000E+00  0.00000000000E+00 -0.71978049313E+03  0.71978049315E+03  0.50400001928E-02 0. -1.
    10030    2    1    2    0    0  0.00000000000E+00  0.00000000000E+00  0.16487262590E+04  0.30882872453E+04  0.26113635963E+04 0.  0.
        4    1    3    3  502    0 -0.89280696672E+02 -0.75491673051E+03 -0.43108680031E+03  0.87390374476E+03  0.12699999809E+01 0. -1.
       -4    1    3    3    0  502  0.89280696672E+02  0.75491673051E+03  0.20798130593E+04  0.22143835005E+04  0.12699999809E+01 0.  1.
</event>
<event>
 5   0  0.5049803E-05  0.2580220E+04  0.7818609E-02  0.8374951E-01
        2   -1    0    0  501    0  0.00000000000E+00  0.00000000000E+00  0.19910424804E+04  0.19910424804E+04  0.25500000920E-02 0. -1.
       -2   -1    0    0    0  501  0.00000000000E+00  0.00000000000E+00 -0.83593560412E+03  0.83593560412E+03  0.25500000920E-02 0.  1.
    10030    2    1    2    0    0  0.00000000000E+00  0.00000000000E+00  0.11551068762E+04  0.28269780845E+04  0.25802196020E+04 0.  0.
        4    1    3    3  502    0 -0.75032565472E+03  0.72976984513E+03  0.14038894184E+04  0.17511309851E+04  0.12699999809E+01 0. -1.
       -4    1    3    3    0  502  0.75032565472E+03 -0.72976984513E+03 -0.24878254218E+03  0.10758470994E+04  0.12699999809E+01 0.  1.
</event>
<event>
 5   0  0.5036452E-05  0.2356506E+04  0.7818609E-02  0.8455969E-01
       -2   -1    0    0    0  501  0.00000000000E+00  0.00000000000E+00  0.94919988392E+03  0.94919988392E+03  0.25500000920E-02 0.  1.
        2   -1    0    0  501    0  0.00000000000E+00  0.00000000000E+00 -0.14625795077E+04  0.14625795077E+04  0.25500000920E-02 0. -1.
    10030    2    1    2    0    0  0.00000000000E+00  0.00000000000E+00 -0.51337962376E+03  0.24117793916E+04  0.23565061417E+04 0.  0.
        2    1    3    3  502    0  0.67155951277E+03 -0.80421542323E+03  0.29495718929E+03  0.10884642253E+04  0.25500000920E-02 0.  1.
       -2    1    3    3    0  502 -0.67155951277E+03  0.80421542323E+03 -0.80833681305E+03  0.13233151663E+04  0.25500000920E-02 0. -1.
</event>
<event>
 5   0  0.2163800E-05  0.2602228E+04  0.7818609E-02  0.8367445E-01
       -1   -1    0    0    0  501  0.00000000000E+00  0.00000000000E+00  0.12605051249E+04  0.12605051249E+04  0.50400001928E-02 0.  1.
        1   -1    0    0  501    0  0.00000000000E+00  0.00000000000E+00 -0.13430314370E+04  0.13430314370E+04  0.50400001928E-02 0. -1.
    10030    2    1    2    0    0  0.00000000000E+00  0.00000000000E+00 -0.82526312036E+02  0.26035365619E+04  0.26022282830E+04 0.  0.
        1    1    3    3  502    0  0.21460123824E+03  0.72472960471E+03 -0.11008571296E+04  0.13353550506E+04  0.50400001928E-02 0. -1.
       -1    1    3    3    0  502 -0.21460123824E+03 -0.72472960471E+03  0.10183308176E+04  0.12681815112E+04  0.50400001928E-02 0.  1.
</event>
<event>
 5   0  0.5036452E-05  0.2631383E+04  0.7818609E-02  0.8357619E-01
       -2   -1    0    0    0  501  0.00000000000E+00  0.00000000000E+00  0.10738630516E+04  0.10738630516E+04  0.25500000920E-02 0. -1.
        2   -1    0    0  501    0  0.00000000000E+00  0.00000000000E+00 -0.16119780304E+04  0.16119780305E+04  0.25500000920E-02 0.  1.
    10030    2    1    2    0    0  0.00000000000E+00  0.00000000000E+00 -0.53811497890E+03  0.26858410820E+04  0.26313826379E+04 0.  0.
        2    1    3    3  502    0  0.43805684798E+03  0.82487769209E+02 -0.15325558193E+04  0.15960655918E+04  0.25500000920E-02 0.  1.
       -2    1    3    3    0  502 -0.43805684798E+03 -0.82487769209E+02  0.99444084035E+03  0.10897754902E+04  0.25500000920E-02 0. -1.
</event>
<event>
 5   0  0.1954502E-05  0.2582542E+04  0.7818609E-02  0.8374156E-01
       -1   -1    0    0    0  501  0.00000000000E+00  0.00000000000E+00  0.81532740454E+03  0.81532740455E+03  0.50400001928E-02 0. -1.
        1   -1    0    0  501    0  0.00000000000E+00  0.00000000000E+00 -0.20450446440E+04  0.20450446440E+04  0.50400001928E-02 0.  1.
    10030    2    1    2    0    0  0.00000000000E+00  0.00000000000E+00 -0.12297172395E+04  0.28603720486E+04  0.25825421134E+04 0.  0.
        4    1    3    3  502    0  0.12905673182E+04 -0.28178714907E+02 -0.57946305443E+03  0.14149689350E+04  0.12699999809E+01 0.  1.
       -4    1    3    3    0  502 -0.12905673182E+04  0.28178714907E+02 -0.65025418506E+03  0.14454031136E+04  0.12699999809E+01 0. -1.
</event>
<event>
 5   0  0.2163800E-05  0.1402565E+04  0.7818609E-02  0.8951964E-01
        1   -1    0    0  501    0  0.00000000000E+00  0.00000000000E+00  0.51687390828E+03  0.51687390831E+03  0.50400001928E-02 0.  1.
       -1   -1    0    0    0  501  0.00000000000E+00  0.00000000000E+00 -0.95148408026E+03  0.95148408027E+03  0.50400001928E-02 0. -1.
    10030    2    1    2    0    0  0.00000000000E+00  0.00000000000E+00 -0.43461017198E+03  0.14683579886E+04  0.14025652145E+04 0.  0.
        1    1    3    3  502    0 -0.37556005711E+03 -0.53965866851E+02 -0.83475027800E+03  0.91693276631E+03  0.50400001928E-02 0. -1.
       -1    1    3    3    0  502  0.37556005711E+03  0.53965866851E+02  0.40014010602E+03  0.55142522227E+03  0.50400001928E-02 0.  1.
</event>
<event>
 5   0  0.5170532E-05  0.2820661E+04  0.7818609E-02  0.8296883E-01
       -2   -1    0    0    0  501  0.00000000000E+00  0.00000000000E+00  0.95557532144E+03  0.95557532144E+03  0.25500000920E-02 0.  1.
        2   -1    0    0  501    0  0.00000000000E+00  0.00000000000E+00 -0.20815015996E+04  0.20815015996E+04  0.25500000920E-02 0. -1.
    10030    2    1    2    0    0  0.00000000000E+00  0.00000000000E+00 -0.11259262782E+04  0.30370769210E+04  0.28206606036E+04 0.  0.
        1    1    3    3  502    0  0.10938026637E+04  0.88705856948E+03 -0.48128525035E+03  0.14882582656E+04  0.50400001928E-02 0.  1.
       -1    1    3    3    0  502 -0.10938026637E+04 -0.88705856948E+03 -0.64464102780E+03  0.15488186555E+04  0.50400001928E-02 0. -1.
</event>
<event>
 5   0  0.5036452E-05  0.2601555E+04  0.7818609E-02  0.8367673E-01
        2   -1    0    0  501    0  0.00000000000E+00  0.00000000000E+00  0.92978913298E+03  0.92978913298E+03  0.25500000920E-02 0. -1.
       -2   -1    0    0    0  501  0.00000000000E+00  0.00000000000E+00 -0.18197913394E+04  0.18197913394E+04  0.25500000920E-02 0.  1.
    10030    2    1    2    0    0  0.00000000000E+00  0.00000000000E+00 -0.89000220644E+03  0.27495804724E+04  0.26015550824E+04 0.  0.
        2    1    3    3  502    0 -0.12307378083E+04  0.96014059602E+01 -0.80004045386E-01  0.12307752623E+04  0.25500000920E-02 0. -1.
       -2    1    3    3    0  502  0.12307378083E+04 -0.96014059602E+01 -0.88992220239E+03  0.15188052101E+04  0.25500000920E-02 0.  1.
</event>
<event>
 5   0  0.2163800E-05  0.2657964E+04  0.7818609E-02  0.8348775E-01
       -1   -1    0    0    0  501  0.00000000000E+00  0.00000000000E+00  0.75453322636E+03  0.75453322638E+03  0.50400001928E-02 0.  1.
        1   -1    0    0  501    0  0.00000000000E+00  0.00000000000E+00 -0.23407752749E+04  0.23407752749E+04  0.50400001928E-02 0. -1.
    10030    2    1    2    0    0  0.00000000000E+00  0.00000000000E+00 -0.15862420485E+04  0.30953085013E+04  0.26579636720E+04 0.  0.
        1    1    3    3  502    0  0.43847798716E+03 -0.97584229853E+03 -0.17113096632E+04  0.20181952087E+04  0.50400001928E-02 0. -1.
       -1    1    3    3    0  502 -0.43847798716E+03  0.97584229853E+03  0.12506761471E+03  0.10771132926E+04  0.50400001928E-02 0.  1.
</event>
<event>
 5   0  0.2072710E-05  0.2591947E+04  0.7818609E-02  0.8370942E-01
        1   -1    0    0  501    0  0.00000000000E+00  0.00000000000E+00  0.12332222406E+04  0.12332222406E+04  0.50400001928E-02 0. -1.
       -1   -1    0    0    0  501  0.00000000000E+00  0.00000000000E+00 -0.13619179031E+04  0.13619179031E+04  0.50400001928E-02 0.  1.
    10030    2    1    2    0    0  0.00000000000E+00  0.00000000000E+00 -0.12869566255E+03  0.25951401437E+04  0.25919471044E+04 0.  0.
        2    1    3    3  502    0  0.81261039490E+03 -0.10060834859E+04 -0.14816364220E+03  0.13017265839E+04  0.25500000920E-02 0.  1.
       -2    1    3    3    0  502 -0.81261039490E+03  0.10060834859E+04  0.19467979646E+02  0.12934135598E+04  0.25500000920E-02 0. -1.
</event>
<event>
 5   0  0.5170532E-05  0.2574667E+04  0.7818609E-02  0.8376857E-01
        2   -1    0    0  501    0  0.00000000000E+00  0.00000000000E+00  0.12208981382E+04  0.12208981382E+04  0.25500000920E-02 0. -1.
       -2   -1    0    0    0  501  0.00000000000E+00  0.00000000000E+00 -0.13573842697E+04  0.13573842697E+04  0.25500000920E-02 0.  1.
    10030    2    1    2    0    0  0.00000000000E+00  0.00000000000E+00 -0.13648613152E+03  0.25782824080E+04  0.25746673011E+04 0.  0.
        1    1    3    3  502    0 -0.33233194832E+03 -0.11248092699E+03  0.11720966608E+04  0.12234815344E+04  0.50400001928E-02 0. -1.
       -1    1    3    3    0  502  0.33233194832E+03  0.11248092699E+03 -0.13085827923E+04  0.13548008736E+04  0.50400001928E-02 0.  1.
</event>
<event>
 5   0  0.2072710E-05  0.2609215E+04  0.7818609E-02  0.8365078E-01
       -1   -1    0    0    0  501  0.00000000000E+00  0.00000000000E+00  0.10289752746E+04  0.10289752746E+04  0.50400001928E-02 0.  1.
        1   -1    0    0  501    0  0.00000000000E+00  0.00000000000E+00 -0.16540739591E+04  0.16540739591E+04  0.50400001928E-02 0. -1.
    10030    2    1    2    0    0  0.00000000000E+00  0.00000000000E+00 -0.62509868445E+03  0.26830492337E+04  0.26092153658E+04 0.  0.
        2    1    3    3  502    0 -0.22304276356E+03  0.86365340568E+03 -0.12915164587E+04  0.15696050594E+04  0.25500000920E-02 0. -1.
       -2    1    3    3    0  502  0.22304276356E+03 -0.86365340568E+03  0.66641777421E+03  0.11134441743E+04  0.25500000920E-02 0.  1.
</event>
<event>
 5   0  0.2159405E-05  0.2586004E+04  0.7818609E-02  0.8372971E-01
       -1   -1    0    0    0  501  0.00000000000E+00  0.00000000000E+00  0.10363238293E+04  0.10363238294E+04  0.50400001928E-02 0.  1.
        1   -1    0    0  501    0  0.00000000000E+00  0.00000000000E+00 -0.16132543362E+04  0.16132543362E+04  0.50400001928E-02 0. -1.
    10030    2    1    2    0    0  0.00000000000E+00  0.00000000000E+00 -0.57693050688E+03  0.26495781656E+04  0.25860037985E+04 0.  0.
        3    1    3    3  502    0 -0.49624191573E+03 -0.87610536489E+03  0.54267213197E+03  0.11438136659E+04  0.10100000352E+00 0.  1.
       -3    1    3    3    0  502  0.49624191573E+03  0.87610536489E+03 -0.11196026389E+04  0.15057644997E+04  0.10100000352E+00 0. -1.
</event>
<event>
 5   0  0.5049803E-05  0.2650041E+04  0.7818609E-02  0.8351399E-01
       -2   -1    0    0    0  501  0.00000000000E+00  0.00000000000E+00  0.15237827582E+04  0.15237827582E+04  0.25500000920E-02 0. -1.
        2   -1    0    0  501    0  0.00000000000E+00  0.00000000000E+00 -0.11521847720E+04  0.11521847720E+04  0.25500000920E-02 0.  1.
    10030    2    1    2    0    0  0.00000000000E+00  0.00000000000E+00  0.37159798626E+03  0.26759675302E+04  0.26500409731E+04 0.  0.
        4    1    3    3  502    0  0.43291294983E+03 -0.94596746645E+03  0.10144428302E+04  0.14530533157E+04  0.12699999809E+01 0. -1.
       -4    1    3    3    0  502 -0.43291294983E+03  0.94596746645E+03 -0.64284484392E+03  0.12229142145E+04  0.12699999809E+01 0.  1.
</event>
<event>
 5   0  0.5049803E-05  0.2558635E+04  0.7818609E-02  0.8382389E-01
       -2   -1    0    0    0  501  0.00000000000E+00  0.00000000000E+00  0.14286726042E+04  0.14286726042E+04  0.25500000920E-02 0. -1.
        2   -1    0    0  501    0  0.00000000000E+00  0.00000000000E+00 -0.11455762389E+04  0.11455762389E+04  0.25500000920E-02 0.  1.
    10030    2    1    2    0    0  0.00000000000E+00  0.00000000000E+00  0.28309636533E+03  0.25742488431E+04  0.25586350959E+04 0.  0.
        4    1    3    3  502    0 -0.12663360154E+04 -0.18144748149E+03  0.15264650636E+03  0.12883449310E+04  0.12699999809E+01 0. -1.
       -4    1    3    3    0  502  0.12663360154E+04  0.18144748149E+03  0.13044985897E+03  0.12859039121E+04  0.12699999809E+01 0.  1.
</event>
<event>
 5   0  0.5049803E-05  0.2658349E+04  0.7818609E-02  0.8348647E-01
        2   -1    0    0  501    0  0.00000000000E+00  0.00000000000E+00  0.21719149552E+04  0.21719149552E+04  0.25500000920E-02 0. -1.
       -2   -1    0    0    0  501  0.00000000000E+00  0.00000000000E+00 -0.81343189708E+03  0.81343189709E+03  0.25500000920E-02 0.  1.
    10030    2    1    2    0    0  0.00000000000E+00  0.00000000000E+00  0.13584830582E+04  0.29853468523E+04  0.26583490383E+04 0.  0.
        4    1    3    3  502    0  0.11485383640E+03  0.71346793252E+02  0.21641711341E+04  0.21683911269E+04  0.12699999809E+01 0. -1.
       -4    1    3    3    0  502 -0.11485383640E+03 -0.71346793252E+02 -0.80568807596E+03  0.81695572541E+03  0.12699999809E+01 0.  1.
</event>
<event>
 5   0  0.5182179E-05  0.1625476E+04  0.7818609E-02  0.8805048E-01
        2   -1    0    0  501    0  0.00000000000E+00  0.00000000000E+00  0.10876843576E+04  0.10876843576E+04  0.25500000920E-02 0. -1.
       -2   -1    0    0    0  501  0.00000000000E+00  0.00000000000E+00 -0.60729324676E+03  0.60729324676E+03  0.25500000920E-02 0.  1.
    10030    2    1    2    0    0  0.00000000000E+00  0.00000000000E+00  0.48039111087E+03  0.16949776044E+04  0.16254763794E+04 0.  0.
        3    1    3    3  502    0 -0.15916191171E+02 -0.81256932955E+03  0.23540405091E+03  0.84613079240E+03  0.10100000352E+00 0.  1.
       -3    1    3    3    0  502  0.15916191171E+02  0.81256932955E+03  0.24498705996E+03  0.84884681198E+03  0.10100000352E+00 0. -1.
</event>
<event>
 5   0  0.2163800E-05  0.2663962E+04  0.7818609E-02  0.8346793E-01
        1   -1    0    0  501    0  0.00000000000E+00  0.00000000000E+00  0.12188898683E+04  0.12188898684E+04  0.50400001928E-02 0.  1.
       -1   -1    0    0    0  501  0.00000000000E+00  0.00000000000E+00 -0.14555654759E+04  0.14555654759E+04  0.50400001928E-02 0. -1.
    10030    2    1    2    0    0  0.00000000000E+00  0.00000000000E+00 -0.23667560757E+03  0.26744553443E+04  0.26639624707E+04 0.  0.
        1    1    3    3  502    0  0.12768414495E+03  0.77092850605E+03  0.96458602278E+03  0.12413944569E+04  0.50400001928E-02 0.  1.
       -1    1    3    3    0  502 -0.12768414495E+03 -0.77092850605E+03 -0.12012616304E+04  0.14330608874E+04  0.50400001928E-02 0. -1.
</event>
<event>
 5   0  0.5036452E-05  0.2227945E+04  0.7818609E-02  0.8506886E-01
       -2   -1    0    0    0  501  0.00000000000E+00  0.00000000000E+00  0.74611016422E+03  0.74611016422E+03  0.25500000920E-02 0. -1.
        2   -1    0    0  501    0  0.00000000000E+00  0.00000000000E+00 -0.16632059230E+04  0.16632059230E+04  0.25500000920E-02 0.  1.
    10030    2    1    2    0    0  0.00000000000E+00  0.00000000000E+00 -0.91709575877E+03  0.24093160872E+04  0.22279451020E+04 0.  0.
        2    1    3    3  502    0 -0.68278716674E+03 -0.83475812374E+03 -0.15669108278E+03  0.10897575582E+04  0.25500000920E-02 0. -1.
       -2    1    3    3    0  502  0.68278716674E+03  0.83475812374E+03 -0.76040467599E+03  0.13195585290E+04  0.25500000920E-02 0.  1.
</event>
<event>
 5   0  0.5170532E-05  0.2550518E+04  0.7818609E-02  0.8385206E-01
       -2   -1    0    0    0  501  0.00000000000E+00  0.00000000000E+00  0.14922731627E+04  0.14922731627E+04  0.25500000920E-02 0.  1.
        2   -1    0    0  501    0  0.00000000000E+00  0.00000000000E+00 -0.10898038558E+04  0.10898038558E+04  0.25500000920E-02 0. -1.
    10030    2    1    2    0    0  0.00000000000E+00  0.00000000000E+00  0.40246930690E+03  0.25820770186E+04  0.25505176311E+04 0.  0.
        1    1    3    3  502    0  0.10538599169E+04 -0.16480809641E+03 -0.50634332494E+03  0.11807480662E+04  0.50400001928E-02 0. -1.
       -1    1    3    3    0  502 -0.10538599169E+04  0.16480809641E+03  0.90881263184E+03  0.14013289524E+04  0.50400001928E-02 0.  1.
</event>
<event>
 5   0  0.2072710E-05  0.2573955E+04  0.7818609E-02  0.8377102E-01
       -1   -1    0    0    0  501  0.00000000000E+00  0.00000000000E+00  0.76537759460E+03  0.76537759462E+03  0.50400001928E-02 0.  1.
        1   -1    0    0  501    0  0.00000000000E+00  0.00000000000E+00 -0.21640450490E+04  0.21640450490E+04  0.50400001928E-02 0. -1.
    10030    2    1    2    0    0  0.00000000000E+00  0.00000000000E+00 -0.13986674544E+04  0.29294226436E+04  0.25739553953E+04 0.  0.
        2    1    3    3  502    0  0.39155382467E+03 -0.93308780714E+03  0.20568556197E+03  0.10326053476E+04  0.25500000920E-02 0.  1.
       -2    1    3    3    0  502 -0.39155382467E+03  0.93308780714E+03 -0.16043530164E+04  0.18968172960E+04  0.25500000920E-02 0. -1.
</event>
<event>
 5   0  0.2072710E-05  0.2630656E+04  0.7818609E-02  0.8357862E-01
        1   -1    0    0  501    0  0.00000000000E+00  0.00000000000E+00  0.15650208078E+04  0.15650208078E+04  0.50400001928E-02 0. -1.
       -1   -1    0    0    0  501  0.00000000000E+00  0.00000000000E+00 -0.11054730402E+04  0.11054730402E+04  0.50400001928E-02 0.  1.
    10030    2    1    2    0    0  0.00000000000E+00  0.00000000000E+00  0.45954776762E+03  0.26704938480E+04  0.26306564279E+04 0.  0.
        2    1    3    3  502    0  0.10309873699E+04  0.21046010983E+03  0.10309401131E+04  0.14731143647E+04  0.25500000920E-02 0. -1.
       -2    1    3    3    0  502 -0.10309873699E+04 -0.21046010983E+03 -0.57139234547E+03  0.11973794833E+04  0.25500000920E-02 0.  1.
</event>
<event>
 5   0  0.5170532E-05  0.2643901E+04  0.7818609E-02  0.8353440E-01
       -2   -1    0    0    0  501  0.00000000000E+00  0.00000000000E+00  0.62863384301E+03  0.62863384301E+03  0.25500000920E-02 0. -1.
        2   -1    0    0  501    0  0.00000000000E+00  0.00000000000E+00 -0.27799219321E+04  0.27799219321E+04  0.25500000920E-02 0.  1.
    10030    2    1    2    0    0  0.00000000000E+00  0.00000000000E+00 -0.21512880891E+04  0.34085557752E+04  0.26439009115E+04 0.  0.
        1    1    3    3  502    0 -0.11810740814E+04 -0.58889846370E+03 -0.97732825233E+03  0.16422265067E+04  0.50400001928E-02 0. -1.
       -1    1    3    3    0  502  0.11810740814E+04  0.58889846370E+03 -0.11739598368E+04  0.17663292685E+04  0.50400001928E-02 0.  1.
</event>
<event>
 5   0  0.5049803E-05  0.2618484E+04  0.7818609E-02  0.8361950E-01
        2   -1    0    0  501    0  0.00000000000E+00  0.00000000000E+00  0.20870601484E+04  0.20870601484E+04  0.25500000920E-02 0.  1.
       -2   -1    0    0    0  501  0.00000000000E+00  0.00000000000E+00 -0.82130561592E+03  0.82130561592E+03  0.25500000920E-02 0. -1.
    10030    2    1    2    0    0  0.00000000000E+00  0.00000000000E+00  0.12657545325E+04  0.29083657643E+04  0.26184836991E+04 0.  0.
        4    1    3    3  502    0  0.11174466169E+04  0.41925760130E+02 -0.12343764497E+03  0.11250258557E+04  0.12699999809E+01 0. -1.
       -4    1    3    3    0  502 -0.11174466169E+04 -0.41925760130E+02  0.13891921775E+04  0.17833399086E+04  0.12699999809E+01 0.  1.
</event>
<event>
 5   0  0.5049803E-05  0.2490784E+04  0.7818609E-02  0.8406276E-01
       -2   -1    0    0    0  501  0.00000000000E+00  0.00000000000E+00  0.92729657532E+03  0.92729657532E+03  0.25500000920E-02 0.  1.
        2   -1    0    0  501    0  0.00000000000E+00  0.00000000000E+00 -0.16726056039E+04  0.16726056039E+04  0.25500000920E-02 0. -1.
    10030    2    1    2    0    0  0.00000000000E+00  0.00000000000E+00 -0.74530902861E+03  0.25999021792E+04  0.24907841724E+04 0.  0.
        4    1    3    3  502    0 -0.72463085936E+03  0.94063355932E+03 -0.76476894469E+03  0.14123577900E+04  0.12699999809E+01 0.  1.
       -4    1    3    3    0  502  0.72463085936E+03 -0.94063355932E+03  0.19459916084E+02  0.11875443893E+04  0.12699999809E+01 0. -1.
</event>
<event>
 5   0  0.2159405E-05  0.2629363E+04  0.7818609E-02  0.8358295E-01
       -1   -1    0    0    0  501  0.00000000000E+00  0.00000000000E+00  0.13982086039E+04  0.13982086039E+04  0.50400001928E-02 0. -1.
        1   -1    0    0  501    0  0.00000000000E+00  0.00000000000E+00 -0.12361440262E+04  0.12361440262E+04  0.50400001928E-02 0.  1.
    10030    2    1    2    0    0  0.00000000000E+00  0.00000000000E+00  0.16206457763E+03  0.26343526301E+04  0.26293628225E+04 0.  0.
        3    1    3    3  502    0  0.42805329164E+03 -0.52578412334E+03 -0.10474749231E+04  0.12477508924E+04  0.10100000352E+00 0.  1.
       -3    1    3    3    0  502 -0.42805329164E+03  0.52578412334E+03  0.12095395007E+04  0.13866017377E+04  0.10100000352E+00 0. -1.
</event>
<event>
 5   0  0.1993815E-05  0.2777760E+04  0.7818609E-02  0.8310206E-01
       -1   -1    0    0    0  501  0.00000000000E+00  0.00000000000E+00  0.14462172000E+04  0.14462172000E+04  0.50400001928E-02 0. -1.
        1   -1    0    0  501    0  0.00000000000E+00  0.00000000000E+00 -0.13338164339E+04  0.13338164339E+04  0.50400001928E-02 0.  1.
    10030    2    1    2    0    0  0.00000000000E+00  0.00000000000E+00  0.11240076615E+03  0.27800336339E+04  0.27777604421E+04 0.  0.
        5    1    3    3  502    0 -0.12728655713E+04 -0.15050108225E+03  0.59154825226E+03  0.14116617028E+04  0.46999998093E+01 0.  1.
       -5    1    3    3    0  502  0.12728655713E+04  0.15050108225E+03 -0.47914748610E+03  0.13683719311E+04  0.46999998093E+01 0. -1.
</event>
<event>
 5   0  0.5036452E-05  0.2501140E+04  0.7818609E-02  0.8402580E-01
        2   -1    0    0  501    0  0.00000000000E+00  0.00000000000E+00  0.12510624554E+04  0.12510624554E+04  0.25500000920E-02 0.  1.
       -2   -1    0    0    0  501  0.00000000000E+00  0.00000000000E+00 -0.12500774221E+04  0.12500774221E+04  0.25500000920E-02 0. -1.
    10030    2    1    2    0    0  0.00000000000E+00  0.00000000000E+00  0.98503330244E+00  0.25011398775E+04  0.25011396836E+04 0.  0.
        2    1    3    3  502    0  0.42177080101E+03 -0.10761378902E+04 -0.47696072415E+03  0.12503819016E+04  0.25500000920E-02 0.  1.
       -2    1    3    3    0  502 -0.42177080101E+03  0.10761378902E+04  0.47794575745E+03  0.12507579760E+04  0.25500000920E-02 0. -1.
</event>
<event>
 5   0  0.2072710E-05  0.2573890E+04  0.7818609E-02  0.8377125E-01
       -1   -1    0    0    0  501  0.00000000000E+00  0.00000000000E+00  0.10340920398E+04  0.10340920398E+04  0.50400001928E-02 0. -1.
        1   -1    0    0  501    0  0.00000000000E+00  0.00000000000E+00 -0.16016247344E+04  0.16016247344E+04  0.50400001928E-02 0.  1.
    10030    2    1    2    0    0  0.00000000000E+00  0.00000000000E+00 -0.56753269463E+03  0.26357167742E+04  0.25738899655E+04 0.  0.
        2    1    3    3  502    0  0.30035507258E+03 -0.77781935390E+03 -0.12876260120E+04  0.15340133193E+04  0.25500000920E-02 0.  1.
       -2    1    3    3    0  502 -0.30035507258E+03  0.77781935390E+03  0.72009331736E+03  0.11017034549E+04  0.25500000920E-02 0. -1.
</event>
<event>
 5   0  0.2072710E-05  0.2567612E+04  0.7818609E-02  0.8379287E-01
        1   -1    0    0  501    0  0.00000000000E+00  0.00000000000E+00  0.22335641251E+04  0.22335641251E+04  0.50400001928E-02 0.  1.
       -1   -1    0    0    0  501  0.00000000000E+00  0.00000000000E+00 -0.73790479428E+03  0.73790479430E+03  0.50400001928E-02 0. -1.
    10030    2    1    2    0    0  0.00000000000E+00  0.00000000000E+00  0.14956593308E+04  0.29714689194E+04  0.25676118681E+04 0.  0.
        2    1    3    3  502    0  0.61288884630E+03 -0.10513219267E+04  0.12211129580E+04  0.17239568985E+04  0.25500000920E-02 0.  1.
       -2    1    3    3    0  502 -0.61288884630E+03  0.10513219267E+04  0.27454637278E+03  0.12475120209E+04  0.25500000920E-02 0. -1.
</event>
<event>
 5   0  0.2163800E-05  0.2460536E+04  0.7818609E-02  0.8417181E-01
       -1   -1    0    0    0  501  0.00000000000E+00  0.00000000000E+00  0.17128657722E+04  0.17128657722E+04  0.50400001928E-02 0. -1.
        1   -1    0    0  501    0  0.00000000000E+00  0.00000000000E+00 -0.88364119591E+03  0.88364119593E+03  0.50400001928E-02 0.  1.
    10030    2    1    2    0    0  0.00000000000E+00  0.00000000000E+00  0.82922457628E+03  0.25965069681E+04  0.24605355185E+04 0.  0.
        1    1    3    3  502    0  0.12229343973E+04  0.10117012939E+03  0.32168445044E+03  0.12685759027E+04  0.50400001928E-02 0. -1.
       -1    1    3    3    0  502 -0.12229343973E+04 -0.10117012939E+03  0.50754012584E+03  0.13279310654E+04  0.50400001928E-02 0.  1.
</event>
<event>
 5   0  0.5036452E-05  0.1518402E+04  0.7818609E-02  0.8872307E-01
        2   -1    0    0  501    0  0.00000000000E+00  0.00000000000E+00  0.11489154137E+04  0.11489154137E+04  0.25500000920E-02 0.  1.
       -2   -1    0    0    0  501  0.00000000000E+00  0.00000000000E+00 -0.50167828617E+03  0.50167828618E+03  0.25500000920E-02 0. -1.
    10030    2    1    2    0    0  0.00000000000E+00  0.00000000000E+00  0.64723712748E+03  0.16505936998E+04  0.15184016803E+04 0.  0.
        2    1    3    3  502    0 -0.45502162054E+03  0.48694811239E+03 -0.71663076902E+02  0.67029749807E+03  0.25500000920E-02 0.  1.
       -2    1    3    3    0  502  0.45502162054E+03 -0.48694811239E+03  0.71890020439E+03  0.98029620177E+03  0.25500000920E-02 0. -1.
</event>
<event>
 5   0  0.5049803E-05  0.2595124E+04  0.7818609E-02  0.8369859E-01
        2   -1    0    0  501    0  0.00000000000E+00  0.00000000000E+00  0.12057666576E+04  0.12057666576E+04  0.25500000920E-02 0.  1.
       -2   -1    0    0    0  501  0.00000000000E+00  0.00000000000E+00 -0.13963457298E+04  0.13963457298E+04  0.25500000920E-02 0. -1.
    10030    2    1    2    0    0  0.00000000000E+00  0.00000000000E+00 -0.19057907223E+03  0.26021123874E+04  0.25951239843E+04 0.  0.
        4    1    3    3  502    0  0.23864934730E+03  0.11550797409E+04  0.44700215023E+03  0.12613386753E+04  0.12699999809E+01 0.  1.
       -4    1    3    3    0  502 -0.23864934730E+03 -0.11550797409E+04 -0.63758122246E+03  0.13407737120E+04  0.12699999809E+01 0. -1.
</event>
<event>
 5   0  0.2159405E-05  0.2588822E+04  0.7818609E-02  0.8372008E-01
        1   -1    0    0  501    0  0.00000000000E+00  0.00000000000E+00  0.28363411830E+04  0.28363411830E+04  0.50400001928E-02 0.  1.
       -1   -1    0    0    0  501  0.00000000000E+00  0.00000000000E+00 -0.59072571519E+03  0.59072571521E+03  0.50400001928E-02 0. -1.
    10030    2    1    2    0    0  0.00000000000E+00  0.00000000000E+00  0.22456154678E+04  0.34270668982E+04  0.25888218741E+04 0.  0.
        3    1    3    3  502    0  0.52437116096E+03  0.11330355809E+04  0.15751598320E+04  0.20099411057E+04  0.10100000352E+00 0.  1.
       -3    1    3    3    0  502 -0.52437116096E+03 -0.11330355809E+04  0.67045563582E+03  0.14171257925E+04  0.10100000352E+00 0. -1.
</event>
<event>
 5   0  0.5170532E-05  0.2618092E+04  0.7818609E-02  0.8362082E-01
       -2   -1    0    0    0  501  0.00000000000E+00  0.00000000000E+00  0.86022131219E+03  0.86022131219E+03  0.25500000920E-02 0.  1.
        2   -1    0    0  501    0  0.00000000000E+00  0.00000000000E+00 -0.19920470999E+04  0.19920471000E+04  0.25500000920E-02 0. -1.
    10030    2    1    2    0    0  0.00000000000E+00  0.00000000000E+00 -0.11318257878E+04  0.28522684121E+04  0.26180919543E+04 0.  0.
        1    1    3    3  502    0  0.10008841880E+04  0.84337409252E+03 -0.59151723882E+03  0.14362944202E+04  0.50400001928E-02 0. -1.
       -1    1    3    3    0  502 -0.10008841880E+04 -0.84337409252E+03 -0.54030854894E+03  0.14159739919E+04  0.50400001928E-02 0.  1.
</event>
<event>
 5   0  0.2072710E-05  0.2645610E+04  0.7818609E-02  0.8352871E-01
        1   -1    0    0  501    0  0.00000000000E+00  0.00000000000E+00  0.16352071406E+04  0.16352071406E+04  0.50400001928E-02 0.  1.
       -1   -1    0    0    0  501  0.00000000000E+00  0.00000000000E+00 -0.10700867954E+04  0.10700867954E+04  0.50400001928E-02 0. -1.
    10030    2    1    2    0    0  0.00000000000E+00  0.00000000000E+00  0.56512034525E+03  0.27052939360E+04  0.26456103786E+04 0.  0.
        2    1    3    3  502    0 -0.11046304872E+02  0.91367152945E+03 -0.69551989924E+03  0.11483316659E+04  0.25500000920E-02 0. -1.
       -2    1    3    3    0  502  0.11046304872E+02 -0.91367152945E+03  0.12606402445E+04  0.15569622701E+04  0.25500000920E-02 0.  1.
</event>
<event>
 5   0  0.2163800E-05  0.2321632E+04  0.7818609E-02  0.8469440E-01
       -1   -1    0    0    0  501  0.00000000000E+00  0.00000000000E+00  0.66604048968E+03  0.66604048970E+03  0.50400001928E-02 0. -1.
        1   -1    0    0  501    0  0.00000000000E+00  0.00000000000E+00 -0.20231411846E+04  0.20231411846E+04  0.50400001928E-02 0.  1.
    10030    2    1    2    0    0  0.00000000000E+00  0.00000000000E+00 -0.13571006949E+04  0.26891816743E+04  0.23216321374E+04 0.  0.
        1    1    3    3  502    0  0.84322167297E+03 -0.32322381689E+03 -0.15234041049E+04  0.17709479079E+04  0.50400001928E-02 0.  1.
       -1    1    3    3    0  502 -0.84322167297E+03  0.32322381689E+03  0.16630341001E+03  0.91823376641E+03  0.50400001928E-02 0. -1.
</event>
<event>
 5   0  0.2159405E-05  0.2580984E+04  0.7818609E-02  0.8374689E-01
        1   -1    0    0  501    0  0.00000000000E+00  0.00000000000E+00  0.12399372518E+04  0.12399372518E+04  0.50400001928E-02 0.  1.
       -1   -1    0    0    0  501  0.00000000000E+00  0.00000000000E+00 -0.13431079760E+04  0.13431079760E+04  0.50400001928E-02 0. -1.
    10030    2    1    2    0    0  0.00000000000E+00  0.00000000000E+00 -0.10317072418E+03  0.25830452278E+04  0.25809840082E+04 0.  0.
        3    1    3    3  502    0  0.40877881407E+03  0.27232220396E+03 -0.12458992439E+04  0.13392253125E+04  0.10100000352E+00 0. -1.
       -3    1    3    3    0  502 -0.40877881407E+03 -0.27232220396E+03  0.11427285197E+04  0.12438199153E+04  0.10100000352E+00 0.  1.
</event>
<event>
 5   0  0.2163800E-05  0.1327393E+04  0.7818609E-02  0.9008120E-01
       -1   -1    0    0    0  501  0.00000000000E+00  0.00000000000E+00  0.43741314100E+03  0.43741314103E+03  0.50400001928E-02 0. -1.
        1   -1    0    0  501    0  0.00000000000E+00  0.00000000000E+00 -0.10070409251E+04  0.10070409251E+04  0.50400001928E-02 0.  1.
    10030    2    1    2    0    0  0.00000000000E+00  0.00000000000E+00 -0.56962778410E+03  0.14444540661E+04  0.13273928344E+04 0.  0.
        1    1    3    3  502    0  0.65811992729E+03  0.14274377850E+02 -0.19268768353E+03  0.68589659568E+03  0.50400001928E-02 0. -1.
       -1    1    3    3    0  502 -0.65811992729E+03 -0.14274377850E+02 -0.37694010057E+03  0.75855747046E+03  0.50400001928E-02 0.  1.
</event>
<event>
 5   0  0.2163800E-05  0.2296275E+04  0.7818609E-02  0.8479391E-01
        1   -1    0    0  501    0  0.00000000000E+00  0.00000000000E+00  0.89718040652E+03  0.89718040653E+03  0.50400001928E-02 0. -1.
       -1   -1    0    0    0  501  0.00000000000E+00  0.00000000000E+00 -0.14692919711E+04  0.14692919711E+04  0.50400001928E-02 0.  1.
    10030    2    1    2    0    0  0.00000000000E+00  0.00000000000E+00 -0.57211156459E+03  0.23664723777E+04  0.22962752169E+04 0.  0.
        1    1    3    3  502    0  0.17375610449E+03  0.97552996444E+03  0.31164823581E+03  0.10387369822E+04  0.50400001928E-02 0. -1.
       -1    1    3    3    0  502 -0.17375610449E+03 -0.97552996444E+03 -0.88375980040E+03  0.13277353954E+04  0.50400001928E-02 0.  1.
</event>
<event>
 5   0  0.2072710E-05  0.2583143E+04  0.7818609E-02  0.8373950E-01
       -1   -1    0    0    0  501  0.00000000000E+00  0.00000000000E+00  0.80844897893E+03  0.80844897894E+03  0.50400001928E-02 0.  1.
        1   -1    0    0  501    0  0.00000000000E+00  0.00000000000E+00 -0.20634048102E+04  0.20634048103E+04  0.50400001928E-02 0. -1.
    10030    2    1    2    0    0  0.00000000000E+00  0.00000000000E+00 -0.12549558313E+04  0.28718537892E+04  0.25831434432E+04 0.  0.
        2    1    3    3  502    0  0.10532558734E+04 -0.73591563907E+03 -0.48151111725E+03  0.13721416540E+04  0.25500000920E-02 0. -1.
       -2    1    3    3    0  502 -0.10532558734E+04  0.73591563907E+03 -0.77344471407E+03  0.14997121352E+04  0.25500000920E-02 0.  1.
</event>
<event>
 5   0  0.2163800E-05  0.2690581E+04  0.7818609E-02  0.8338068E-01
       -1   -1    0    0    0  501  0.00000000000E+00  0.00000000000E+00  0.15188823100E+04  0.15188823100E+04  0.50400001928E-02 0. -1.
        1   -1    0    0  501    0  0.00000000000E+00  0.00000000000E+00 -0.11915380458E+04  0.11915380458E+04  0.50400001928E-02 0.  1.
    10030    2    1    2    0    0  0.00000000000E+00  0.00000000000E+00  0.32734426421E+03  0.27104203559E+04  0.26905806508E+04 0.  0.
        1    1    3    3  502    0  0.72190008772E+03  0.11340971303E+04  0.11340406153E+03  0.13491391770E+04  0.50400001928E-02 0.  1.
       -1    1    3    3    0  502 -0.72190008772E+03 -0.11340971303E+04  0.21394020268E+03  0.13612811789E+04  0.50400001928E-02 0. -1.
</event>
<event>
 5   0  0.5036452E-05  0.2384955E+04  0.7818609E-02  0.8445158E-01
        2   -1    0    0  501    0  0.00000000000E+00  0.00000000000E+00  0.22474261654E+04  0.22474261654E+04  0.25500000920E-02 0. -1.
       -2   -1    0    0    0  501  0.00000000000E+00  0.00000000000E+00 -0.63272489065E+03  0.63272489066E+03  0.25500000920E-02 0.  1.
    10030    2    1    2    0    0  0.00000000000E+00  0.00000000000E+00  0.16147012747E+04  0.28801510560E+04  0.23849549050E+04 0.  0.
        2    1    3    3  502    0  0.87495294733E+02 -0.63098508258E+03  0.20247294273E+04  0.21225755239E+04  0.25500000920E-02 0. -1.
       -2    1    3    3    0  502 -0.87495294733E+02  0.63098508258E+03 -0.41002815252E+03  0.75757553215E+03  0.25500000920E-02 0.  1.
</event>
<event>
 5   0  0.2072710E-05  0.2576706E+04  0.7818609E-02  0.8376157E-01
        1   -1    0    0  501    0  0.00000000000E+00  0.00000000000E+00  0.19200763643E+04  0.19200763643E+04  0.50400001928E-02 0.  1.
       -1   -1    0    0    0  501  0.00000000000E+00  0.00000000000E+00 -0.86447248586E+03  0.86447248588E+03  0.50400001928E-02 0. -1.
    10030    2    1    2    0    0  0.00000000000E+00  0.00000000000E+00  0.10556038784E+04  0.27845488501E+04  0.25767057944E+04 0.  0.
        2    1    3    3  502    0  0.10517456381E+04  0.66322460346E+03  0.16322064139E+03  0.12540640892E+04  0.25500000920E-02 0.  1.
       -2    1    3    3    0  502 -0.10517456381E+04 -0.66322460346E+03  0.89238323700E+03  0.15304847610E+04  0.25500000920E-02 0. -1.
</event>
<event>
 5   0  0.1993815E-05  0.2257706E+04  0.7818609E-02  0.8494786E-01
        1   -1    0    0  501    0  0.00000000000E+00  0.00000000000E+00  0.10378985703E+04  0.10378985703E+04  0.50400001928E-02 0. -1.
       -1   -1    0    0    0  501  0.00000000000E+00  0.00000000000E+00 -0.12277775261E+04  0.12277775262E+04  0.50400001928E-02 0.  1.
    10030    2    1    2    0    0  0.00000000000E+00  0.00000000000E+00 -0.18987895583E+03  0.22656760965E+04  0.22577055070E+04 0.  0.
        5    1    3    3  502    0 -0.11203212201E+04 -0.10612350416E+03 -0.57176983292E+01  0.11253606606E+04  0.46999998093E+01 0. -1.
       -5    1    3    3    0  502  0.11203212201E+04  0.10612350416E+03 -0.18416125750E+03  0.11403154358E+04  0.46999998093E+01 0.  1.
</event>
<event>
 5   0  0.5170532E-05  0.2583143E+04  0.7818609E-02  0.8373950E-01
       -2   -1    0    0    0  501  0.00000000000E+00  0.00000000000E+00  0.19523336820E+04  0.19523336820E+04  0.25500000920E-02 0. -1.
        2   -1    0    0  501    0  0.00000000000E+00  0.00000000000E+00 -0.85444259717E+03  0.85444259718E+03  0.25500000920E-02 0.  1.
    10030    2    1    2    0    0  0.00000000000E+00  0.00000000000E+00  0.10978910848E+04  0.28067762792E+04  0.25831430946E+04 0.  0.
        1    1    3    3  502    0  0.59814487318E+03  0.11283549267E+04  0.33938900362E+03  0.13214185657E+04  0.50400001928E-02 0. -1.
       -1    1    3    3    0  502 -0.59814487318E+03 -0.11283549267E+04  0.75850208119E+03  0.14853577135E+04  0.50400001928E-02 0.  1.
</event>
<event>
 5   0  0.5170532E-05  0.2583295E+04  0.7818609E-02  0.8373898E-01
       -2   -1    0    0    0  501  0.00000000000E+00  0.00000000000E+00  0.79625217738E+03  0.79625217738E+03  0.25500000920E-02 0.  1.
        2   -1    0    0  501    0  0.00000000000E+00  0.00000000000E+00 -0.20952571027E+04  0.20952571027E+04  0.25500000920E-02 0. -1.
    10030    2    1    2    0    0  0.00000000000E+00  0.00000000000E+00 -0.12990049254E+04  0.28915092801E+04  0.25832948188E+04 0.  0.
        1    1    3    3  502    0 -0.16275780904E+03  0.52935172756E+03 -0.19556231579E+04  0.20325268244E+04  0.50400001928E-02 0. -1.
       -1    1    3    3    0  502  0.16275780904E+03 -0.52935172756E+03  0.65661823259E+03  0.85898245574E+03  0.50400001928E-02 0.  1.
</event>
<event>
 5   0  0.5036452E-05  0.2630411E+04  0.7818609E-02  0.8357944E-01
       -2   -1    0    0    0  501  0.00000000000E+00  0.00000000000E+00  0.81528898123E+03  0.81528898123E+03  0.25500000920E-02 0.  1.
        2   -1    0    0  501    0  0.00000000000E+00  0.00000000000E+00 -0.21216601621E+04  0.21216601621E+04  0.25500000920E-02 0. -1.
    10030    2    1    2    0    0  0.00000000000E+00  0.00000000000E+00 -0.13063711809E+04  0.29369491433E+04  0.26304114903E+04 0.  0.
        2    1    3    3  502    0 -0.19797393431E+03 -0.34604469557E+01  0.79855189814E+03  0.82273372812E+03  0.25500000920E-02 0.  1.
       -2    1    3    3    0  502  0.19797393431E+03  0.34604469557E+01 -0.21049230790E+04  0.21142154152E+04  0.25500000920E-02 0. -1.
</event>
<event>
 5   0  0.4955675E-05  0.2656651E+04  0.7818609E-02  0.8349209E-01
        2   -1    0    0  501    0  0.00000000000E+00  0.00000000000E+00  0.24400067851E+04  0.24400067851E+04  0.25500000920E-02 0. -1.
       -2   -1    0    0    0  501  0.00000000000E+00  0.00000000000E+00 -0.72313250412E+03  0.72313250413E+03  0.25500000920E-02 0.  1.
    10030    2    1    2    0    0  0.00000000000E+00  0.00000000000E+00  0.17168742810E+04  0.31631392892E+04  0.26566506858E+04 0.  0.
        5    1    3    3  502    0  0.41083642445E+03  0.43642734869E+03  0.22698316038E+04  0.23476398783E+04  0.46999998093E+01 0. -1.
       -5    1    3    3    0  502 -0.41083642445E+03 -0.43642734869E+03 -0.55295732286E+03  0.81549941094E+03  0.46999998093E+01 0.  1.
</event>
<event>
 5   0  0.1954502E-05  0.1901330E+04  0.7818609E-02  0.8654195E-01
       -1   -1    0    0    0  501  0.00000000000E+00  0.00000000000E+00  0.94477033239E+03  0.94477033240E+03  0.50400001928E-02 0. -1.
        1   -1    0    0  501    0  0.00000000000E+00  0.00000000000E+00 -0.95659646387E+03  0.95659646388E+03  0.50400001928E-02 0.  1.
    10030    2    1    2    0    0  0.00000000000E+00  0.00000000000E+00 -0.11826131484E+02  0.19013667963E+04  0.19013300178E+04 0.  0.
        4    1    3    3  502    0 -0.21535720477E+03  0.19354604215E+03 -0.91142688173E+03  0.95631551787E+03  0.12699999809E+01 0.  1.
       -4    1    3    3    0  502  0.21535720477E+03 -0.19354604215E+03  0.89960075025E+03  0.94505127841E+03  0.12699999809E+01 0. -1.
</event>
<event>
 5   0  0.5170532E-05  0.2549788E+04  0.7818609E-02  0.8385460E-01
       -2   -1    0    0    0  501  0.00000000000E+00  0.00000000000E+00  0.12508460026E+04  0.12508460026E+04  0.25500000920E-02 0.  1.
        2   -1    0    0  501    0  0.00000000000E+00  0.00000000000E+00 -0.12994039854E+04  0.12994039854E+04  0.25500000920E-02 0. -1.
    10030    2    1    2    0    0  0.00000000000E+00  0.00000000000E+00 -0.48557982819E+02  0.25502499880E+04  0.25497876624E+04 0.  0.
        1    1    3    3  502    0  0.10840408748E+04  0.12498263826E+03  0.63507418831E+03  0.12625705932E+04  0.50400001928E-02 0.  1.
       -1    1    3    3    0  502 -0.10840408748E+04 -0.12498263826E+03 -0.68363217113E+03  0.12876793947E+04  0.50400001928E-02 0. -1.
</event>
<event>
 5   0  0.2163800E-05  0.2093000E+04  0.7818609E-02  0.8564333E-01
        1   -1    0    0  501    0  0.00000000000E+00  0.00000000000E+00  0.15490490736E+04  0.15490490736E+04  0.50400001928E-02 0.  1.
       -1   -1    0    0    0  501  0.00000000000E+00  0.00000000000E+00 -0.70699018982E+03  0.70699018984E+03  0.50400001928E-02 0. -1.
    10030    2    1    2    0    0  0.00000000000E+00  0.00000000000E+00  0.84205888373E+03  0.22560392634E+04  0.20930002375E+04 0.  0.
        1    1    3    3  502    0  0.41339552393E+03 -0.40599875642E+03 -0.51830819169E+03  0.77741509570E+03  0.50400001928E-02 0. -1.
       -1    1    3    3    0  502 -0.41339552393E+03  0.40599875642E+03  0.13603670754E+04  0.14786241677E+04  0.50400001928E-02 0.  1.
</event>
<event>
 5   0  0.2072710E-05  0.2627941E+04  0.7818609E-02  0.8358772E-01
       -1   -1    0    0    0  501  0.00000000000E+00  0.00000000000E+00  0.90593380863E+03  0.90593380865E+03  0.50400001928E-02 0. -1.
        1   -1    0    0  501    0  0.00000000000E+00  0.00000000000E+00 -0.19057891328E+04  0.19057891328E+04  0.50400001928E-02 0.  1.
    10030    2    1    2    0    0  0.00000000000E+00  0.00000000000E+00 -0.99985532413E+03  0.28117229414E+04  0.26279412532E+04 0.  0.
        2    1    3    3  502    0  0.41224168168E+03 -0.11571675111E+04 -0.99895620950E+03  0.15833172017E+04  0.25500000920E-02 0.  1.
       -2    1    3    3    0  502 -0.41224168168E+03  0.11571675111E+04 -0.89911463237E+00  0.12284057397E+04  0.25500000920E-02 0. -1.
</event>
<event>
 5   0  0.2159405E-05  0.1900294E+04  0.7818609E-02  0.8654710E-01
       -1   -1    0    0    0  501  0.00000000000E+00  0.00000000000E+00  0.75807390774E+03  0.75807390775E+03  0.50400001928E-02 0.  1.
        1   -1    0    0  501    0  0.00000000000E+00  0.00000000000E+00 -0.11908854863E+04  0.11908854863E+04  0.50400001928E-02 0. -1.
    10030    2    1    2    0    0  0.00000000000E+00  0.00000000000E+00 -0.43281157857E+03  0.19489593941E+04  0.19002938871E+04 0.  0.
        3    1    3    3  502    0 -0.67330951908E+03  0.61933967624E+03 -0.47959376641E+03  0.10329266838E+04  0.10100000352E+00 0. -1.
       -3    1    3    3    0  502  0.67330951908E+03 -0.61933967624E+03  0.46782187844E+02  0.91603271030E+03  0.10100000352E+00 0.  1.
</event>
<event>
 5   0  0.1993815E-05  0.2595948E+04  0.7818609E-02  0.8369579E-01
       -1   -1    0    0    0  501  0.00000000000E+00  0.00000000000E+00  0.84490937806E+03  0.84490937808E+03  0.50400001928E-02 0.  1.
        1   -1    0    0  501    0  0.00000000000E+00  0.00000000000E+00 -0.19939846152E+04  0.19939846152E+04  0.50400001928E-02 0. -1.
    10030    2    1    2    0    0  0.00000000000E+00  0.00000000000E+00 -0.11490752371E+04  0.28388939933E+04  0.25959478432E+04 0.  0.
        5    1    3    3  502    0  0.54209941235E+03 -0.48123818917E+03  0.60291160028E+03  0.94286078258E+03  0.46999998093E+01 0.  1.
       -5    1    3    3    0  502 -0.54209941235E+03  0.48123818917E+03 -0.17519868374E+04  0.18960332107E+04  0.46999998093E+01 0. -1.
</event>
<event>
 5   0  0.2072710E-05  0.1993894E+04  0.7818609E-02  0.8609481E-01
        1   -1    0    0  501    0  0.00000000000E+00  0.00000000000E+00  0.13123863567E+04  0.13123863567E+04  0.50400001928E-02 0. -1.
       -1   -1    0    0    0  501  0.00000000000E+00  0.00000000000E+00 -0.75732507273E+03  0.75732507274E+03  0.50400001928E-02 0.  1.
    10030    2    1    2    0    0  0.00000000000E+00  0.00000000000E+00  0.55506128399E+03  0.20697114295E+04  0.19938937716E+04 0.  0.
        2    1    3    3  502    0  0.21586328774E+03  0.87008963131E+03 -0.17523170779E+03  0.91343257930E+03  0.25500000920E-02 0.  1.
       -2    1    3    3    0  502 -0.21586328774E+03 -0.87008963131E+03  0.73029299178E+03  0.11562788502E+04  0.25500000920E-02 0. -1.
</event>
<event>
 5   0  0.5170532E-05  0.2613483E+04  0.7818609E-02  0.8363636E-01
       -2   -1    0    0    0  501  0.00000000000E+00  0.00000000000E+00  0.10984715298E+04  0.10984715298E+04  0.25500000920E-02 0. -1.
        2   -1    0    0  501    0  0.00000000000E+00  0.00000000000E+00 -0.15544990645E+04  0.15544990645E+04  0.25500000920E-02 0.  1.
    10030    2    1    2    0    0  0.00000000000E+00  0.00000000000E+00 -0.45602753466E+03  0.26529705943E+04  0.26134827074E+04 0.  0.
        1    1    3    3  502    0  0.10026629449E+04  0.61058666623E+03  0.35461290498E+03  0.12263357495E+04  0.50400001928E-02 0. -1.
       -1    1    3    3    0  502 -0.10026629449E+04 -0.61058666623E+03 -0.81064043964E+03  0.14266348448E+04  0.50400001928E-02 0.  1.
</event>
<event>
 5   0  0.5182179E-05  0.1883821E+04  0.7818609E-02  0.8662952E-01
        2   -1    0    0  501    0  0.00000000000E+00  0.00000000000E+00  0.22081363370E+04  0.22081363370E+04  0.25500000920E-02 0. -1.
       -2   -1    0    0    0  501  0.00000000000E+00  0.00000000000E+00 -0.40178462272E+03  0.40178462272E+03  0.25500000920E-02 0.  1.
    10030    2    1    2    0    0  0.00000000000E+00  0.00000000000E+00  0.18063517143E+04  0.26099209597E+04  0.18838208249E+04 0.  0.
        3    1    3    3  502    0  0.71958835063E+03 -0.50650423811E+03  0.43778080870E+03  0.98285603435E+03  0.10100000352E+00 0.  1.
       -3    1    3    3    0  502 -0.71958835063E+03  0.50650423811E+03  0.13685709056E+04  0.16270649254E+04  0.10100000352E+00 0. -1.
</event>
<event>
 5   0  0.2163800E-05  0.2560628E+04  0.7818609E-02  0.8381699E-01
       -1   -1    0    0    0  501  0.00000000000E+00  0.00000000000E+00  0.11782765020E+04  0.11782765020E+04  0.50400001928E-02 0.  1.
        1   -1    0    0  501    0  0.00000000000E+00  0.00000000000E+00 -0.13911873772E+04  0.13911873772E+04  0.50400001928E-02 0. -1.
    10030    2    1    2    0    0  0.00000000000E+00  0.00000000000E+00 -0.21291087522E+03  0.25694638792E+04  0.25606275765E+04 0.  0.
        1    1    3    3  502    0  0.42721206328E+03 -0.62354914805E+03 -0.11434041243E+04  0.13706555652E+04  0.50400001928E-02 0. -1.
       -1    1    3    3    0  502 -0.42721206328E+03  0.62354914805E+03  0.93049324904E+03  0.11988083139E+04  0.50400001928E-02 0.  1.
</event>
<event>
 5   0  0.2072710E-05  0.2120124E+04  0.7818609E-02  0.8552430E-01
        1   -1    0    0  501    0  0.00000000000E+00  0.00000000000E+00  0.17077405970E+04  0.17077405970E+04  0.50400001928E-02 0.  1.
       -1   -1    0    0    0  501  0.00000000000E+00  0.00000000000E+00 -0.65802233597E+03  0.65802233599E+03  0.50400001928E-02 0. -1.
    10030    2    1    2    0    0  0.00000000000E+00  0.00000000000E+00  0.10497182610E+04  0.23657629330E+04  0.21201240123E+04 0.  0.
        2    1    3    3  502    0  0.98762036293E+03  0.35361118274E+03  0.35454279862E+03  0.11073100044E+04  0.25500000920E-02 0. -1.
       -2    1    3    3    0  502 -0.98762036293E+03 -0.35361118274E+03  0.69517546237E+03  0.12584529285E+04  0.25500000920E-02 0.  1.
</event>
<event>
 5   0  0.2163800E-05  0.2698282E+04  0.7818609E-02  0.8335563E-01
       -1   -1    0    0    0  501  0.00000000000E+00  0.00000000000E+00  0.15962847458E+04  0.15962847458E+04  0.50400001928E-02 0.  1.
        1   -1    0    0  501    0  0.00000000000E+00  0.00000000000E+00 -0.11402607113E+04  0.11402607113E+04  0.50400001928E-02 0. -1.
    10030    2    1    2    0    0  0.00000000000E+00  0.00000000000E+00  0.45602403449E+03  0.27365454571E+04  0.26982815121E+04 0.  0.
        1    1    3    3  502    0  0.53527817445E+03  0.19393824717E+03 -0.10124626063E+04  0.11615572723E+04  0.50400001928E-02 0. -1.
       -1    1    3    3    0  502 -0.53527817445E+03 -0.19393824717E+03  0.14684866408E+04  0.15749881847E+04  0.50400001928E-02 0.  1.
</event>
<event>
 5   0  0.1954502E-05  0.2592323E+04  0.7818609E-02  0.8370813E-01
       -1   -1    0    0    0  501  0.00000000000E+00  0.00000000000E+00  0.11743340566E+04  0.11743340566E+04  0.50400001928E-02 0. -1.
        1   -1    0    0  501    0  0.00000000000E+00  0.00000000000E+00 -0.14306280391E+04  0.14306280392E+04  0.50400001928E-02 0.  1.
    10030    2    1    2    0    0  0.00000000000E+00  0.00000000000E+00 -0.25629398255E+03  0.26049620958E+04  0.25923234588E+04 0.  0.
        4    1    3    3  502    0  0.12712721746E+04 -0.17766459337E+02  0.12524311140E+03  0.12775507970E+04  0.12699999809E+01 0. -1.
       -4    1    3    3    0  502 -0.12712721746E+04  0.17766459337E+02 -0.38153709395E+03  0.13274112988E+04  0.12699999809E+01 0.  1.
</event>
<event>
 5   0  0.1993815E-05  0.2610519E+04  0.7818609E-02  0.8364637E-01
       -1   -1    0    0    0  501  0.00000000000E+00  0.00000000000E+00  0.11248627674E+04  0.11248627675E+04  0.50400001928E-02 0.  1.
        1   -1    0    0  501    0  0.00000000000E+00  0.00000000000E+00 -0.15145866090E+04  0.15145866090E+04  0.50400001928E-02 0. -1.
    10030    2    1    2    0    0  0.00000000000E+00  0.00000000000E+00 -0.38972384155E+03  0.26394493765E+04  0.26105187872E+04 0.  0.
        5    1    3    3  502    0 -0.70972065415E+03  0.99921073680E+03  0.25906166965E+03  0.12527012981E+04  0.46999998093E+01 0. -1.
       -5    1    3    3    0  502  0.70972065415E+03 -0.99921073680E+03 -0.64878551120E+03  0.13867480784E+04  0.46999998093E+01 0.  1.
</event>
<event>
 5   0  0.5170532E-05  0.1296488E+04  0.7818609E-02  0.9032355E-01
        2   -1    0    0  501    0  0.00000000000E+00  0.00000000000E+00  0.57950549346E+03  0.57950549347E+03  0.25500000920E-02 0. -1.
       -2   -1    0    0    0  501  0.00000000000E+00  0.00000000000E+00 -0.72513633485E+03  0.72513633485E+03  0.25500000920E-02 0.  1.
    10030    2    1    2    0    0  0.00000000000E+00  0.00000000000E+00 -0.14563084139E+03  0.13046418283E+04  0.12964883178E+04 0.  0.
        1    1    3    3  502    0  0.78342505867E+02  0.58404004236E+03  0.19903194355E+03  0.62197591101E+03  0.50400001928E-02 0. -1.
       -1    1    3    3    0  502 -0.78342505867E+02 -0.58404004236E+03 -0.34466278494E+03  0.68266591730E+03  0.50400001928E-02 0.  1.
</event>
<event>
 5   0  0.1993815E-05  0.2517916E+04  0.7818609E-02  0.8396630E-01
       -1   -1    0    0    0  501  0.00000000000E+00  0.00000000000E+00  0.10454165775E+04  0.10454165775E+04  0.50400001928E-02 0.  1.
        1   -1    0    0  501    0  0.00000000000E+00  0.00000000000E+00 -0.15161189045E+04  0.15161189045E+04  0.50400001928E-02 0. -1.
    10030    2    1    2    0    0  0.00000000000E+00  0.00000000000E+00 -0.47070232702E+03  0.25615354820E+04  0.25179164690E+04 0.  0.
        5    1    3    3  502    0  0.76271174172E+03  0.30507085901E+03 -0.12058992356E+04  0.14591135962E+04  0.46999998093E+01 0. -1.
       -5    1    3    3    0  502 -0.76271174172E+03 -0.30507085901E+03  0.73519690862E+03  0.11024218859E+04  0.46999998093E+01 0.  1.
</event>
<event>
 5   0  0.5036452E-05  0.1473999E+04  0.7818609E-02  0.8901930E-01
        2   -1    0    0  501    0  0.00000000000E+00  0.00000000000E+00  0.15707181821E+04  0.15707181821E+04  0.25500000920E-02 0. -1.
       -2   -1    0    0    0  501  0.00000000000E+00  0.00000000000E+00 -0.34580885237E+03  0.34580885238E+03  0.25500000920E-02 0.  1.
    10030    2    1    2    0    0  0.00000000000E+00  0.00000000000E+00  0.12249093297E+04  0.19165270345E+04  0.14739989850E+04 0.  0.
        2    1    3    3  502    0 -0.29596431285E+03  0.34173425926E+03 -0.14434990321E+03  0.47456724813E+03  0.25500000920E-02 0.  1.
       -2    1    3    3    0  502  0.29596431285E+03 -0.34173425926E+03  0.13692592329E+04  0.14419597863E+04  0.25500000920E-02 0. -1.
</event>
<event>
 5   0  0.1954502E-05  0.2619407E+04  0.7818609E-02  0.8361639E-01
        1   -1    0    0  501    0  0.00000000000E+00  0.00000000000E+00  0.99986790738E+03  0.99986790739E+03  0.50400001928E-02 0.  1.
       -1   -1    0    0    0  501  0.00000000000E+00  0.00000000000E+00 -0.17155496723E+04  0.17155496723E+04  0.50400001928E-02 0. -1.
    10030    2    1    2    0    0  0.00000000000E+00  0.00000000000E+00 -0.71568176487E+03  0.27154175796E+04  0.26194068495E+04 0.  0.
        4    1    3    3  502    0  0.14157958811E+03  0.54002698339E+03  0.87034103413E+03  0.10340063110E+04  0.12699999809E+01 0.  1.
       -4    1    3    3    0  502 -0.14157958811E+03 -0.54002698339E+03 -0.15860227990E+04  0.16814112687E+04  0.12699999809E+01 0. -1.
</event>
<event>
 5   0  0.5182179E-05  0.2388096E+04  0.7818609E-02  0.8443974E-01
       -2   -1    0    0    0  501  0.00000000000E+00  0.00000000000E+00  0.81757056417E+03  0.81757056418E+03  0.25500000920E-02 0.  1.
        2   -1    0    0  501    0  0.00000000000E+00  0.00000000000E+00 -0.17438865292E+04  0.17438865292E+04  0.25500000920E-02 0. -1.
    10030    2    1    2    0    0  0.00000000000E+00  0.00000000000E+00 -0.92631596499E+03  0.25614570933E+04  0.23880957213E+04 0.  0.
        3    1    3    3  502    0 -0.28327139369E+03 -0.77650170611E+03 -0.13874282787E+04  0.16149782726E+04  0.10100000352E+00 0. -1.
       -3    1    3    3    0  502  0.28327139369E+03  0.77650170611E+03  0.46111231374E+03  0.94647882077E+03  0.10100000352E+00 0.  1.
</event>
<event>
 5   0  0.2163800E-05  0.2562590E+04  0.7818609E-02  0.8381021E-01
        1   -1    0    0  501    0  0.00000000000E+00  0.00000000000E+00  0.18375306833E+04  0.18375306833E+04  0.50400001928E-02 0.  1.
       -1   -1    0    0    0  501  0.00000000000E+00  0.00000000000E+00 -0.89343622055E+03  0.89343622056E+03  0.50400001928E-02 0. -1.
    10030    2    1    2    0    0  0.00000000000E+00  0.00000000000E+00  0.94409446277E+03  0.27309669039E+04  0.25625896815E+04 0.  0.
        1    1    3    3  502    0 -0.99402557343E+03  0.78645976507E+03  0.67173749877E+03  0.14345163192E+04  0.50400001928E-02 0. -1.
       -1    1    3    3    0  502  0.99402557343E+03 -0.78645976507E+03  0.27235696399E+03  0.12964505847E+04  0.50400001928E-02 0.  1.
</event>
<event>
 5   0  0.5182179E-05  0.2593973E+04  0.7818609E-02  0.8370251E-01
       -2   -1    0    0    0  501  0.00000000000E+00  0.00000000000E+00  0.83510744538E+03  0.83510744539E+03  0.25500000920E-02 0.  1.
        2   -1    0    0  501    0  0.00000000000E+00  0.00000000000E+00 -0.20143207895E+04  0.20143207895E+04  0.25500000920E-02 0. -1.
    10030    2    1    2    0    0  0.00000000000E+00  0.00000000000E+00 -0.11792133442E+04  0.28494282349E+04  0.25939732371E+04 0.  0.
        3    1    3    3  502    0 -0.12909385277E+03 -0.53196482664E+03 -0.18812075546E+04  0.19592329298E+04  0.10100000352E+00 0. -1.
       -3    1    3    3    0  502  0.12909385277E+03  0.53196482664E+03  0.70199421042E+03  0.89019530513E+03  0.10100000352E+00 0.  1.
</event>
<event>
 5   0  0.1993815E-05  0.2571369E+04  0.7818609E-02  0.8377992E-01
       -1   -1    0    0    0  501  0.00000000000E+00  0.00000000000E+00  0.12320051380E+04  0.12320051380E+04  0.50400001928E-02 0. -1.
        1   -1    0    0  501    0  0.00000000000E+00  0.00000000000E+00 -0.13417026680E+04  0.13417026680E+04  0.50400001928E-02 0.  1.
    10030    2    1    2    0    0  0.00000000000E+00  0.00000000000E+00 -0.10969752998E+03  0.25737078060E+04  0.25713689588E+04 0.  0.
        5    1    3    3  502    0  0.12347127330E+04  0.32649869043E+03  0.93088116854E+02  0.12805484823E+04  0.46999998093E+01 0.  1.
       -5    1    3    3    0  502 -0.12347127330E+04 -0.32649869043E+03 -0.20278564684E+03  0.12931593237E+04  0.46999998093E+01 0. -1.
</event>
<event>
 5   0  0.1993815E-05  0.2639259E+04  0.7818609E-02  0.8354987E-01
        1   -1    0    0  501    0  0.00000000000E+00  0.00000000000E+00  0.13548906269E+04  0.13548906269E+04  0.50400001928E-02 0. -1.
       -1   -1    0    0    0  501  0.00000000000E+00  0.00000000000E+00 -0.12852862638E+04  0.12852862638E+04  0.50400001928E-02 0.  1.
    10030    2    1    2    0    0  0.00000000000E+00  0.00000000000E+00  0.69604363108E+02  0.26401768907E+04  0.26392592231E+04 0.  0.
        5    1    3    3  502    0  0.13145709459E+04  0.50428858467E+02  0.13857050136E+03  0.13228241438E+04  0.46999998093E+01 0. -1.
       -5    1    3    3    0  502 -0.13145709459E+04 -0.50428858467E+02 -0.68966138255E+02  0.13173527469E+04  0.46999998093E+01 0.  1.
</event>
<event>
 5   0  0.2159405E-05  0.2601924E+04  0.7818609E-02  0.8367548E-01
       -1   -1    0    0    0  501  0.00000000000E+00  0.00000000000E+00  0.14761672599E+04  0.14761672599E+04  0.50400001928E-02 0.  1.
        1   -1    0    0  501    0  0.00000000000E+00  0.00000000000E+00 -0.11465517866E+04  0.11465517866E+04  0.50400001928E-02 0. -1.
    10030    2    1    2    0    0  0.00000000000E+00  0.00000000000E+00  0.32961547328E+03  0.26227190465E+04  0.26019240643E+04 0.  0.
        3    1    3    3  502    0  0.11736640590E+04  0.11312604336E+03 -0.38932890209E+03  0.12417172904E+04  0.10100000352E+00 0. -1.
       -3    1    3    3    0  502 -0.11736640590E+04 -0.11312604336E+03  0.71894437537E+03  0.13810017561E+04  0.10100000352E+00 0.  1.
</event>
<event>
 5   0  0.4955675E-05  0.2525311E+04  0.7818609E-02  0.8394023E-01
       -2   -1    0    0    0  501  0.00000000000E+00  0.00000000000E+00  0.89875429293E+03  0.89875429293E+03  0.25500000920E-02 0. -1.
        2   -1    0    0  501    0  0.00000000000E+00  0.00000000000E+00 -0.17738990304E+04  0.17738990304E+04  0.25500000920E-02 0.  1.
    10030    2    1    2    0    0  0.00000000000E+00  0.00000000000E+00 -0.87514473750E+03  0.26726533234E+04  0.25253113621E+04 0.  0.
        5    1    3    3  502    0 -0.64642884225E+03 -0.79980392459E+03 -0.12129296580E+04  0.15902128823E+04  0.46999998093E+01 0.  1.
       -5    1    3    3    0  502  0.64642884225E+03  0.79980392459E+03  0.33778492049E+03  0.10824404410E+04  0.46999998093E+01 0. -1.
</event>
<event>
 5   0  0.5170532E-05  0.2594923E+04  0.7818609E-02  0.8369928E-01
        2   -1    0    0  501    0  0.00000000000E+00  0.00000000000E+00  0.21422507548E+04  0.21422507548E+04  0.25500000920E-02 0. -1.
       -2   -1    0    0    0  501  0.00000000000E+00  0.00000000000E+00 -0.78581210058E+03  0.78581210059E+03  0.25500000920E-02 0.  1.
    10030    2    1    2    0    0  0.00000000000E+00  0.00000000000E+00  0.13564386542E+04  0.29280628554E+04  0.25949231708E+04 0.  0.
        1    1    3    3  502    0 -0.33224383915E+03  0.78778090001E+03  0.17794303920E+04  0.19741725444E+04  0.50400001928E-02 0. -1.
       -1    1    3    3    0  502  0.33224383915E+03 -0.78778090001E+03 -0.42299173781E+03  0.95389031096E+03  0.50400001928E-02 0.  1.
</event>
<event>
 5   0  0.5170532E-05  0.1337083E+04  0.7818609E-02  0.9000664E-01
       -2   -1    0    0    0  501  0.00000000000E+00  0.00000000000E+00  0.83085801420E+03  0.83085801421E+03  0.25500000920E-02 0.  1.
        2   -1    0    0  501    0  0.00000000000E+00  0.00000000000E+00 -0.53793494118E+03  0.53793494118E+03  0.25500000920E-02 0. -1.
    10030    2    1    2    0    0  0.00000000000E+00  0.00000000000E+00  0.29292307303E+03  0.13687929554E+04  0.13370827304E+04 0.  0.
        1    1    3    3  502    0 -0.80270452574E+02 -0.61781768230E+03 -0.10178805340E+03  0.63127081507E+03  0.50400001928E-02 0. -1.
       -1    1    3    3    0  502  0.80270452574E+02  0.61781768230E+03  0.39471112643E+03  0.73752214032E+03  0.50400001928E-02 0.  1.
</event>
<event>
 5   0  0.2072710E-05  0.2394001E+04  0.7818609E-02  0.8441753E-01
        1   -1    0    0  501    0  0.00000000000E+00  0.00000000000E+00  0.11804524805E+04  0.11804524805E+04  0.50400001928E-02 0. -1.
       -1   -1    0    0    0  501  0.00000000000E+00  0.00000000000E+00 -0.12137806467E+04  0.12137806467E+04  0.50400001928E-02 0.  1.
    10030    2    1    2    0    0  0.00000000000E+00  0.00000000000E+00 -0.33328166180E+02  0.23942331272E+04  0.23940011488E+04 0.  0.
        2    1    3    3  502    0  0.91766720389E+02 -0.61741944332E+03 -0.10381261007E+04  0.12113355030E+04  0.25500000920E-02 0.  1.
       -2    1    3    3    0  502 -0.91766720389E+02  0.61741944332E+03  0.10047979345E+04  0.11828976241E+04  0.25500000920E-02 0. -1.
</event>
<event>
 5   0  0.2072710E-05  0.2586453E+04  0.7818609E-02  0.8372817E-01
        1   -1    0    0  501    0  0.00000000000E+00  0.00000000000E+00  0.19669227328E+04  0.19669227328E+04  0.50400001928E-02 0. -1.
       -1   -1    0    0    0  501  0.00000000000E+00  0.00000000000E+00 -0.85027985663E+03  0.85027985665E+03  0.50400001928E-02 0.  1.
    10030    2    1    2    0    0  0.00000000000E+00  0.00000000000E+00  0.11166428761E+04  0.28172025894E+04  0.25864529992E+04 0.  0.
        2    1    3    3  502    0 -0.12799324079E+04 -0.17601559839E+03  0.49645327985E+03  0.13840788701E+04  0.25500000920E-02 0. -1.
       -2    1    3    3    0  502  0.12799324079E+04  0.17601559839E+03  0.62018959629E+03  0.14331237193E+04  0.25500000920E-02 0.  1.
</event>
<event>
 5   0  0.5036452E-05  0.2608994E+04  0.7818609E-02  0.8365153E-01
        2   -1    0    0  501    0  0.00000000000E+00  0.00000000000E+00  0.18358003774E+04  0.18358003774E+04  0.25500000920E-02 0. -1.
       -2   -1    0    0    0  501  0.00000000000E+00  0.00000000000E+00 -0.92695906204E+03  0.92695906204E+03  0.25500000920E-02 0.  1.
    10030    2    1    2    0    0  0.00000000000E+00  0.00000000000E+00  0.90884131539E+03  0.27627594395E+04  0.26089935193E+04 0.  0.
        2    1    3    3  502    0  0.55757181863E+03  0.36887225960E+03 -0.73175820889E+03  0.99117261520E+03  0.25500000920E-02 0.  1.
       -2    1    3    3    0  502 -0.55757181863E+03 -0.36887225960E+03  0.16405995243E+04  0.17715868243E+04  0.25500000920E-02 0. -1.
</event>
<event>
 5   0  0.1993815E-05  0.2500573E+04  0.7818609E-02  0.8402781E-01
       -1   -1    0    0    0  501  0.00000000000E+00  0.00000000000E+00  0.93895869773E+03  0.93895869774E+03  0.50400001928E-02 0. -1.
        1   -1    0    0  501    0  0.00000000000E+00  0.00000000000E+00 -0.16648403805E+04  0.16648403805E+04  0.50400001928E-02 0.  1.
    10030    2    1    2    0    0  0.00000000000E+00  0.00000000000E+00 -0.72588168272E+03  0.26037990782E+04  0.25005730188E+04 0.  0.
        5    1    3    3  502    0 -0.43664446245E+03 -0.11441734327E+04 -0.10074671941E+03  0.12288056080E+04  0.46999998093E+01 0. -1.
       -5    1    3    3    0  502  0.43664446245E+03  0.11441734327E+04 -0.62513496331E+03  0.13749934702E+04  0.46999998093E+01 0.  1.
</event>
<event>
 5   0  0.1954502E-05  0.2191191E+04  0.7818609E-02  0.8522103E-01
        1   -1    0    0  501    0  0.00000000000E+00  0.00000000000E+00  0.14721735936E+04  0.14721735936E+04  0.50400001928E-02 0.  1.
       -1   -1    0    0    0  501  0.00000000000E+00  0.00000000000E+00 -0.81534536275E+03  0.81534536277E+03  0.50400001928E-02 0. -1.
    10030    2    1    2    0    0  0.00000000000E+00  0.00000000000E+00  0.65682823083E+03  0.22875189564E+04  0.21911913770E+04 0.  0.
        4    1    3    3  502    0 -0.19136767651E+03 -0.22215314956E+02  0.14543510117E+04  0.14670560950E+04  0.12699999809E+01 0.  1.
       -4    1    3    3    0  502  0.19136767651E+03  0.22215314956E+02 -0.79752278089E+03  0.82046286130E+03  0.12699999809E+01 0. -1.
</event>
<event>
 5   0  0.2159405E-05  0.2952216E+04  0.7818609E-02  0.8257509E-01
        1   -1    0    0  501    0  0.00000000000E+00  0.00000000000E+00  0.15080797477E+04  0.15080797477E+04  0.50400001928E-02 0.  1.
       -1   -1    0    0    0  501  0.00000000000E+00  0.00000000000E+00 -0.14448137225E+04  0.14448137225E+04  0.50400001928E-02 0. -1.
    10030    2    1    2    0    0  0.00000000000E+00  0.00000000000E+00  0.63266025238E+02  0.29528934702E+04  0.29522156521E+04 0.  0.
        3    1    3    3  502    0 -0.68097833006E+03 -0.77975800010E+03  0.10840819322E+04  0.14989955539E+04  0.10100000352E+00 0.  1.
       -3    1    3    3    0  502  0.68097833006E+03  0.77975800010E+03 -0.10208159070E+04  0.14538979163E+04  0.10100000352E+00 0. -1.
</event>
<event>
 5   0  0.1993815E-05  0.2641176E+04  0.7818609E-02  0.8354348E-01
       -1   -1    0    0    0  501  0.00000000000E+00  0.00000000000E+00  0.18008448375E+04  0.18008448375E+04  0.50400001928E-02 0. -1.
        1   -1    0    0  501    0  0.00000000000E+00  0.00000000000E+00 -0.96840774227E+03  0.96840774229E+03  0.50400001928E-02 0.  1.
    10030    2    1    2    0    0  0.00000000000E+00  0.00000000000E+00  0.83243709524E+03  0.27692525798E+04  0.26411755590E+04 0.  0.
        5    1    3    3  502    0 -0.11901827201E+04  0.28282714960E+03 -0.10529856160E+03  0.12278582902E+04  0.46999998093E+01 0.  1.
       -5    1    3    3    0  502  0.11901827201E+04 -0.28282714960E+03  0.93773565684E+03  0.15413942896E+04  0.46999998093E+01 0. -1.
</event>
<event>
 5   0  0.5036452E-05  0.2606866E+04  0.7818609E-02  0.8365873E-01
        2   -1    0    0  501    0  0.00000000000E+00  0.00000000000E+00  0.13269136591E+04  0.13269136591E+04  0.25500000920E-02 0.  1.
       -2   -1    0    0    0  501  0.00000000000E+00  0.00000000000E+00 -0.12803676216E+04  0.12803676216E+04  0.25500000920E-02 0. -1.
    10030    2    1    2    0    0  0.00000000000E+00  0.00000000000E+00  0.46546037510E+02  0.26072812807E+04  0.26068657701E+04 0.  0.
        2    1    3    3  502    0 -0.68434104195E+03  0.79269435992E+03 -0.75289853288E+03  0.12897841722E+04  0.25500000920E-02 0. -1.
       -2    1    3    3    0  502  0.68434104195E+03 -0.79269435992E+03  0.79944457039E+03  0.13174971086E+04  0.25500000920E-02 0.  1.
</event>
<event>
 5   0  0.5036452E-05  0.2591143E+04  0.7818609E-02  0.8371216E-01
        2   -1    0    0  501    0  0.00000000000E+00  0.00000000000E+00  0.14363412718E+04  0.14363412718E+04  0.25500000920E-02 0. -1.
       -2   -1    0    0    0  501  0.00000000000E+00  0.00000000000E+00 -0.11685977799E+04  0.11685977799E+04  0.25500000920E-02 0.  1.
    10030    2    1    2    0    0  0.00000000000E+00  0.00000000000E+00  0.26774349189E+03  0.26049390517E+04  0.25911427760E+04 0.  0.
        2    1    3    3  502    0  0.19977737427E+03 -0.29992798354E+03 -0.11171967789E+04  0.11738809298E+04  0.25500000920E-02 0.  1.
       -2    1    3    3    0  502 -0.19977737427E+03  0.29992798354E+03  0.13849402708E+04  0.14310581219E+04  0.25500000920E-02 0. -1.
</event>
<event>
 5   0  0.1954502E-05  0.1377360E+04  0.7818609E-02  0.8970372E-01
        1   -1    0    0  501    0  0.00000000000E+00  0.00000000000E+00  0.14009960069E+04  0.14009960069E+04  0.50400001928E-02 0. -1.
       -1   -1    0    0    0  501  0.00000000000E+00  0.00000000000E+00 -0.33853054522E+03  0.33853054526E+03  0.50400001928E-02 0.  1.
    10030    2    1    2    0    0  0.00000000000E+00  0.00000000000E+00  0.10624654617E+04  0.17395265522E+04  0.13773597092E+04 0.  0.
        4    1    3    3  502    0 -0.41072163662E+03 -0.47927976755E+03  0.87912011506E+03  0.10822454195E+04  0.12699999809E+01 0. -1.
       -4    1    3    3    0  502  0.41072163662E+03  0.47927976755E+03  0.18334534661E+03  0.65728113269E+03  0.12699999809E+01 0.  1.
</event>
<event>
 5   0  0.2163800E-05  0.2582259E+04  0.7818609E-02  0.8374252E-01
       -1   -1    0    0    0  501  0.00000000000E+00  0.00000000000E+00  0.12288463598E+04  0.12288463598E+04  0.50400001928E-02 0. -1.
        1   -1    0    0  501    0  0.00000000000E+00  0.00000000000E+00 -0.13565693497E+04  0.13565693497E+04  0.50400001928E-02 0.  1.
    10030    2    1    2    0    0  0.00000000000E+00  0.00000000000E+00 -0.12772298993E+03  0.25854157095E+04  0.25822589392E+04 0.  0.
        1    1    3    3  502    0  0.11373551011E+04  0.59399499081E+02  0.54508460502E+03  0.12626251039E+04  0.50400001928E-02 0. -1.
       -1    1    3    3    0  502 -0.11373551011E+04 -0.59399499081E+02 -0.67280759494E+03  0.13227906056E+04  0.50400001928E-02 0.  1.
</event>
<event>
 5   0  0.2163800E-05  0.2590918E+04  0.7818609E-02  0.8371293E-01
        1   -1    0    0  501    0  0.00000000000E+00  0.00000000000E+00  0.19879051090E+04  0.19879051090E+04  0.50400001928E-02 0.  1.
       -1   -1    0    0    0  501  0.00000000000E+00  0.00000000000E+00 -0.84421201642E+03  0.84421201644E+03  0.50400001928E-02 0. -1.
    10030    2    1    2    0    0  0.00000000000E+00  0.00000000000E+00  0.11436930926E+04  0.28321171254E+04  0.25909175059E+04 0.  0.
        1    1    3    3  502    0  0.98159974405E+03  0.32282171951E+03 -0.28221024491E+03  0.10711650398E+04  0.50400001928E-02 0. -1.
       -1    1    3    3    0  502 -0.98159974405E+03 -0.32282171951E+03  0.14259033375E+04  0.17609520856E+04  0.50400001928E-02 0.  1.
</event>
<event>
 5   0  0.1993815E-05  0.1560126E+04  0.7818609E-02  0.8845426E-01
        1   -1    0    0  501    0  0.00000000000E+00  0.00000000000E+00  0.98378226161E+03  0.98378226162E+03  0.50400001928E-02 0. -1.
       -1   -1    0    0    0  501  0.00000000000E+00  0.00000000000E+00 -0.61852925733E+03  0.61852925735E+03  0.50400001928E-02 0.  1.
    10030    2    1    2    0    0  0.00000000000E+00  0.00000000000E+00  0.36525300428E+03  0.16023115190E+04  0.15601257791E+04 0.  0.
        5    1    3    3  502    0 -0.31462734347E+03 -0.53403194499E+03  0.66903108584E+03  0.91203353412E+03  0.46999998093E+01 0. -1.
       -5    1    3    3    0  502  0.31462734347E+03  0.53403194499E+03 -0.30377808156E+03  0.69027798485E+03  0.46999998093E+01 0.  1.
</event>
<event>
 5   0  0.5170532E-05  0.2562313E+04  0.7818609E-02  0.8381116E-01
       -2   -1    0    0    0  501  0.00000000000E+00  0.00000000000E+00  0.84910118973E+03  0.84910118973E+03  0.25500000920E-02 0. -1.
        2   -1    0    0  501    0  0.00000000000E+00  0.00000000000E+00 -0.19330588032E+04  0.19330588032E+04  0.25500000920E-02 0.  1.
    10030    2    1    2    0    0  0.00000000000E+00  0.00000000000E+00 -0.10839576135E+04  0.27821599930E+04  0.25623134310E+04 0.  0.
        1    1    3    3  502    0  0.12415478796E+04 -0.14697195294E+03 -0.84584889681E+03  0.15094708505E+04  0.50400001928E-02 0. -1.
       -1    1    3    3    0  502 -0.12415478796E+04  0.14697195294E+03 -0.23810871668E+03  0.12726891424E+04  0.50400001928E-02 0.  1.
</event>
<event>
 5   0  0.5182179E-05  0.2437991E+04  0.7818609E-02  0.8425416E-01
       -2   -1    0    0    0  501  0.00000000000E+00  0.00000000000E+00  0.15561012054E+04  0.15561012054E+04  0.25500000920E-02 0.  1.
        2   -1    0    0  501    0  0.00000000000E+00  0.00000000000E+00 -0.95491839479E+03  0.95491839479E+03  0.25500000920E-02 0. -1.
    10030    2    1    2    0    0  0.00000000000E+00  0.00000000000E+00  0.60118281064E+03  0.25110196002E+04  0.24379907016E+04 0.  0.
        3    1    3    3  502    0  0.10873787160E+04 -0.10385427217E+03 -0.25670011739E+03  0.11220842849E+04  0.10100000352E+00 0. -1.
       -3    1    3    3    0  502 -0.10873787160E+04  0.10385427217E+03  0.85788292803E+03  0.13889353154E+04  0.10100000352E+00 0.  1.
</event>
<event>
 5   0  0.5170532E-05  0.2041591E+04  0.7818609E-02  0.8587419E-01
        2   -1    0    0  501    0  0.00000000000E+00  0.00000000000E+00  0.23540066040E+04  0.23540066040E+04  0.25500000920E-02 0. -1.
       -2   -1    0    0    0  501  0.00000000000E+00  0.00000000000E+00 -0.44265962789E+03  0.44265962789E+03  0.25500000920E-02 0.  1.
    10030    2    1    2    0    0  0.00000000000E+00  0.00000000000E+00  0.19113469761E+04  0.27966662319E+04  0.20415912298E+04 0.  0.
        1    1    3    3  502    0 -0.80018408258E+03 -0.37603092834E+03  0.16546037448E+04  0.18760083628E+04  0.50400001928E-02 0.  1.
       -1    1    3    3    0  502  0.80018408258E+03  0.37603092834E+03  0.25674323137E+03  0.92065786912E+03  0.50400001928E-02 0. -1.
</event>
<event>
 5   0  0.5182179E-05  0.2472271E+04  0.7818609E-02  0.8412931E-01
        2   -1    0    0  501    0  0.00000000000E+00  0.00000000000E+00  0.14951541140E+04  0.14951541140E+04  0.25500000920E-02 0.  1.
       -2   -1    0    0    0  501  0.00000000000E+00  0.00000000000E+00 -0.10219891361E+04  0.10219891361E+04  0.25500000920E-02 0. -1.
    10030    2    1    2    0    0  0.00000000000E+00  0.00000000000E+00  0.47316497793E+03  0.25171432502E+04  0.24722712322E+04 0.  0.
        3    1    3    3  502    0  0.10296810975E+04  0.64435598553E+03  0.30874503970E+01  0.12146799337E+04  0.10100000352E+00 0. -1.
       -3    1    3    3    0  502 -0.10296810975E+04 -0.64435598553E+03  0.47007752753E+03  0.13024633165E+04  0.10100000352E+00 0.  1.
</event>
<event>
 5   0  0.4955675E-05  0.2542600E+04  0.7818609E-02  0.8387964E-01
       -2   -1    0    0    0  501  0.00000000000E+00  0.00000000000E+00  0.11758436855E+04  0.11758436855E+04  0.25500000920E-02 0. -1.
        2   -1    0    0  501    0  0.00000000000E+00  0.00000000000E+00 -0.13745053777E+04  0.13745053777E+04  0.25500000920E-02 0.  1.
    10030    2    1    2    0    0  0.00000000000E+00  0.00000000000E+00 -0.19866169216E+03  0.25503490632E+04  0.25425998262E+04 0.  0.
        5    1    3    3  502    0 -0.96903839974E+03 -0.37767939215E+03 -0.83265702387E+03  0.13322976217E+04  0.46999998093E+01 0.  1.
       -5    1    3    3    0  502  0.96903839974E+03  0.37767939215E+03  0.63399533171E+03  0.12180514415E+04  0.46999998093E+01 0. -1.
</event>
<event>
 5   0  0.2072710E-05  0.1758146E+04  0.7818609E-02  0.8728879E-01
        1   -1    0    0  501    0  0.00000000000E+00  0.00000000000E+00  0.89046001218E+03  0.89046001220E+03  0.50400001928E-02 0.  1.
       -1   -1    0    0    0  501  0.00000000000E+00  0.00000000000E+00 -0.86783197166E+03  0.86783197167E+03  0.50400001928E-02 0. -1.
    10030    2    1    2    0    0  0.00000000000E+00  0.00000000000E+00  0.22628040529E+02  0.17582919839E+04  0.17581463740E+04 0.  0.
        2    1    3    3  502    0 -0.70054366828E+03  0.29644467727E+03  0.45195099908E+03  0.88481669481E+03  0.25500000920E-02 0.  1.
       -2    1    3    3    0  502  0.70054366828E+03 -0.29644467727E+03 -0.42932295856E+03  0.87347528906E+03  0.25500000920E-02 0. -1.
</event>
<event>
 5   0  0.2159405E-05  0.2513709E+04  0.7818609E-02  0.8398118E-01
        1   -1    0    0  501    0  0.00000000000E+00  0.00000000000E+00  0.15567591685E+04  0.15567591685E+04  0.50400001928E-02 0. -1.
       -1   -1    0    0    0  501  0.00000000000E+00  0.00000000000E+00 -0.10147256188E+04  0.10147256188E+04  0.50400001928E-02 0.  1.
    10030    2    1    2    0    0  0.00000000000E+00  0.00000000000E+00  0.54203354967E+03  0.25714847873E+04  0.25137091404E+04 0.  0.
        3    1    3    3  502    0 -0.58713869182E+03  0.79199568755E+03  0.10684816215E+04  0.14538369917E+04  0.10100000352E+00 0. -1.
       -3    1    3    3    0  502  0.58713869182E+03 -0.79199568755E+03 -0.52644807187E+03  0.11176477956E+04  0.10100000352E+00 0.  1.
</event>
<event>
 5   0  0.5170532E-05  0.2556682E+04  0.7818609E-02  0.8383066E-01
        2   -1    0    0  501    0  0.00000000000E+00  0.00000000000E+00  0.10835790438E+04  0.10835790438E+04  0.25500000920E-02 0.  1.
       -2   -1    0    0    0  501  0.00000000000E+00  0.00000000000E+00 -0.15081088916E+04  0.15081088916E+04  0.25500000920E-02 0. -1.
    10030    2    1    2    0    0  0.00000000000E+00  0.00000000000E+00 -0.42452984781E+03  0.25916879353E+04  0.25566815919E+04 0.  0.
        1    1    3    3  502    0  0.91714995283E+02  0.86697379945E+03  0.73546941810E+03  0.11406009268E+04  0.50400001928E-02 0.  1.
       -1    1    3    3    0  502 -0.91714995283E+02 -0.86697379945E+03 -0.11599992659E+04  0.14510870085E+04  0.50400001928E-02 0. -1.
</event>
<event>
 5   0  0.2159405E-05  0.2603704E+04  0.7818609E-02  0.8366944E-01
        1   -1    0    0  501    0  0.00000000000E+00  0.00000000000E+00  0.23163577730E+04  0.23163577730E+04  0.50400001928E-02 0.  1.
       -1   -1    0    0    0  501  0.00000000000E+00  0.00000000000E+00 -0.73167390936E+03  0.73167390938E+03  0.50400001928E-02 0. -1.
    10030    2    1    2    0    0  0.00000000000E+00  0.00000000000E+00  0.15846838637E+04  0.30480316824E+04  0.26037039365E+04 0.  0.
        3    1    3    3  502    0 -0.11208402280E+04 -0.21904257348E+03  0.60748877018E+02  0.11436576857E+04  0.10100000352E+00 0. -1.
       -3    1    3    3    0  502  0.11208402280E+04  0.21904257348E+03  0.15239349866E+04  0.19043739967E+04  0.10100000352E+00 0.  1.
</event>
<event>
 5   0  0.2072710E-05  0.2322472E+04  0.7818609E-02  0.8469113E-01
        1   -1    0    0  501    0  0.00000000000E+00  0.00000000000E+00  0.22737767334E+04  0.22737767334E+04  0.50400001928E-02 0. -1.
       -1   -1    0    0    0  501  0.00000000000E+00  0.00000000000E+00 -0.59305277117E+03  0.59305277119E+03  0.50400001928E-02 0.  1.
    10030    2    1    2    0    0  0.00000000000E+00  0.00000000000E+00  0.16807239622E+04  0.28668295046E+04  0.23224724694E+04 0.  0.
        2    1    3    3  502    0 -0.10192195797E+03  0.47484435892E+03  0.21423940055E+04  0.21967515393E+04  0.25500000920E-02 0. -1.
       -2    1    3    3    0  502  0.10192195797E+03 -0.47484435892E+03 -0.46167004325E+03  0.67007796528E+03  0.25500000920E-02 0.  1.
</event>
<event>
 5   0  0.1954502E-05  0.2533855E+04  0.7818609E-02  0.8391023E-01
        1   -1    0    0  501    0  0.00000000000E+00  0.00000000000E+00  0.14184677574E+04  0.14184677574E+04  0.50400001928E-02 0.  1.
       -1   -1    0    0    0  501  0.00000000000E+00  0.00000000000E+00 -0.11315766429E+04  0.11315766429E+04  0.50400001928E-02 0. -1.
    10030    2    1    2    0    0  0.00000000000E+00  0.00000000000E+00  0.28689111448E+03  0.25500444003E+04  0.25338547574E+04 0.  0.
        4    1    3    3  502    0  0.75173200545E+03 -0.30352380452E+03 -0.83636409012E+03  0.11647893424E+04  0.12699999809E+01 0. -1.
       -4    1    3    3    0  502 -0.75173200545E+03  0.30352380452E+03  0.11232552046E+04  0.13852550579E+04  0.12699999809E+01 0.  1.
</event>
<event>
 5   0  0.5049803E-05  0.2617593E+04  0.7818609E-02  0.8362250E-01
        2   -1    0    0  501    0  0.00000000000E+00  0.00000000000E+00  0.11112594760E+04  0.11112594760E+04  0.25500000920E-02 0.  1.
       -2   -1    0    0    0  501  0.00000000000E+00  0.00000000000E+00 -0.15414481385E+04  0.15414481385E+04  0.25500000920E-02 0. -1.
    10030    2    1    2    0    0  0.00000000000E+00  0.00000000000E+00 -0.43018866250E+03  0.26527076145E+04  0.26175934373E+04 0.  0.
        4    1    3    3  502    0 -0.78559740438E+03  0.86807570413E+03  0.37775631208E+03  0.12302114266E+04  0.12699999809E+01 0.  1.
       -4    1    3    3    0  502  0.78559740438E+03 -0.86807570413E+03 -0.80794497458E+03  0.14224961879E+04  0.12699999809E+01 0. -1.
</event>
<event>
 5   0  0.1698625E-05  0.2586736E+04  0.7818609E-02  0.8372721E-01
        3   -1    0    0  501    0  0.00000000000E+00  0.00000000000E+00  0.12264321920E+04  0.12264321962E+04  0.10100000352E+00 0.  1.
       -3   -1    0    0    0  501  0.00000000000E+00  0.00000000000E+00 -0.13639573878E+04  0.13639573916E+04  0.10100000352E+00 0. -1.
    10030    2    1    2    0    0  0.00000000000E+00  0.00000000000E+00 -0.13752519579E+03  0.25903895877E+04  0.25867363679E+04 0.  0.
        2    1    3    3  502    0 -0.45798956552E+03 -0.98047973582E+03  0.64055003714E+03  0.12575369993E+04  0.25500000920E-02 0.  1.
       -2    1    3    3    0  502  0.45798956552E+03  0.98047973582E+03 -0.77807523293E+03  0.13328525885E+04  0.25500000920E-02 0. -1.
</event>
<event>
 5   0  0.1993815E-05  0.2610855E+04  0.7818609E-02  0.8364523E-01
       -1   -1    0    0    0  501  0.00000000000E+00  0.00000000000E+00  0.17006152018E+04  0.17006152018E+04  0.50400001928E-02 0.  1.
        1   -1    0    0  501    0  0.00000000000E+00  0.00000000000E+00 -0.10020735057E+04  0.10020735057E+04  0.50400001928E-02 0. -1.
    10030    2    1    2    0    0  0.00000000000E+00  0.00000000000E+00  0.69854169611E+03  0.27026887074E+04  0.26108553671E+04 0.  0.
        5    1    3    3  502    0 -0.68123542520E+03 -0.10837731719E+04  0.61414861629E+03  0.14198051295E+04  0.46999998093E+01 0.  1.
       -5    1    3    3    0  502  0.68123542520E+03  0.10837731719E+04  0.84393079823E+02  0.12828835780E+04  0.46999998093E+01 0. -1.
</event>
<event>
 5   0  0.1993815E-05  0.2661003E+04  0.7818609E-02  0.8347770E-01
       -1   -1    0    0    0  501  0.00000000000E+00  0.00000000000E+00  0.16714547990E+04  0.16714547990E+04  0.50400001928E-02 0. -1.
        1   -1    0    0  501    0  0.00000000000E+00  0.00000000000E+00 -0.10590974964E+04  0.10590974964E+04  0.50400001928E-02 0.  1.
    10030    2    1    2    0    0  0.00000000000E+00  0.00000000000E+00  0.61235730255E+03  0.27305522954E+04  0.26610025126E+04 0.  0.
        5    1    3    3  502    0 -0.12152376954E+04 -0.42126875691E+03  0.65558004746E+03  0.14436333712E+04  0.46999998093E+01 0.  1.
       -5    1    3    3    0  502  0.12152376954E+04  0.42126875691E+03 -0.43222744910E+02  0.12869189242E+04  0.46999998093E+01 0. -1.
</event>
<event>
 5   0  0.4955675E-05  0.2802641E+04  0.7818609E-02  0.8302449E-01
       -2   -1    0    0    0  501  0.00000000000E+00  0.00000000000E+00  0.96495472890E+03  0.96495472890E+03  0.25500000920E-02 0. -1.
        2   -1    0    0  501    0  0.00000000000E+00  0.00000000000E+00 -0.20350165395E+04  0.20350165395E+04  0.25500000920E-02 0.  1.
    10030    2    1    2    0    0  0.00000000000E+00  0.00000000000E+00 -0.10700618106E+04  0.29999712684E+04  0.28026407784E+04 0.  0.
        5    1    3    3  502    0 -0.13422562709E+04  0.37666925477E+03 -0.38310404035E+03  0.14457947365E+04  0.46999998093E+01 0.  1.
       -5    1    3    3    0  502  0.13422562709E+04 -0.37666925477E+03 -0.68695777023E+03  0.15541765319E+04  0.46999998093E+01 0. -1.
</event>
<event>
 5   0  0.5170532E-05  0.1339906E+04  0.7818609E-02  0.8998505E-01
       -2   -1    0    0    0  501  0.00000000000E+00  0.00000000000E+00  0.38495382685E+03  0.38495382686E+03  0.25500000920E-02 0. -1.
        2   -1    0    0  501    0  0.00000000000E+00  0.00000000000E+00 -0.11659497816E+04  0.11659497816E+04  0.25500000920E-02 0.  1.
    10030    2    1    2    0    0  0.00000000000E+00  0.00000000000E+00 -0.78099595477E+03  0.15509036085E+04  0.13399057136E+04 0.  0.
        1    1    3    3  502    0 -0.26421543520E+03  0.24933106292E+03 -0.10420438522E+04  0.11035538796E+04  0.50400001928E-02 0.  1.
       -1    1    3    3    0  502  0.26421543520E+03 -0.24933106292E+03  0.26104789747E+03  0.44734972889E+03  0.50400001928E-02 0. -1.
</event>
<event>
 5   0  0.2072710E-05  0.2498216E+04  0.7818609E-02  0.8403621E-01
       -1   -1    0    0    0  501  0.00000000000E+00  0.00000000000E+00  0.17419110351E+04  0.17419110351E+04  0.50400001928E-02 0.  1.
        1   -1    0    0  501    0  0.00000000000E+00  0.00000000000E+00 -0.89572392720E+03  0.89572392721E+03  0.50400001928E-02 0. -1.
    10030    2    1    2    0    0  0.00000000000E+00  0.00000000000E+00  0.84618710793E+03  0.26376349623E+04  0.24982164784E+04 0.  0.
        2    1    3    3  502    0  0.31147855005E+03 -0.81225464811E+03  0.13694967156E+04  0.16224357474E+04  0.25500000920E-02 0.  1.
       -2    1    3    3    0  502 -0.31147855005E+03  0.81225464811E+03 -0.52330960765E+03  0.10151992149E+04  0.25500000920E-02 0. -1.
</event>
<event>
 5   0  0.2072710E-05  0.1890436E+04  0.7818609E-02  0.8659632E-01
        1   -1    0    0  501    0  0.00000000000E+00  0.00000000000E+00  0.13803277061E+04  0.13803277061E+04  0.50400001928E-02 0. -1.
       -1   -1    0    0    0  501  0.00000000000E+00  0.00000000000E+00 -0.64726459385E+03  0.64726459387E+03  0.50400001928E-02 0.  1.
    10030    2    1    2    0    0  0.00000000000E+00  0.00000000000E+00  0.73306311228E+03  0.20275923000E+04  0.18904361953E+04 0.  0.
        2    1    3    3  502    0 -0.35845595384E+03  0.69761041508E+03 -0.19927049154E+03  0.80923401490E+03  0.25500000920E-02 0.  1.
       -2    1    3    3    0  502  0.35845595384E+03 -0.69761041508E+03  0.93233360382E+03  0.12183582851E+04  0.25500000920E-02 0. -1.
</event>
<event>
 5   0  0.5170532E-05  0.2556291E+04  0.7818609E-02  0.8383202E-01
        2   -1    0    0  501    0  0.00000000000E+00  0.00000000000E+00  0.13285254827E+04  0.13285254827E+04  0.25500000920E-02 0. -1.
       -2   -1    0    0    0  501  0.00000000000E+00  0.00000000000E+00 -0.12296759718E+04  0.12296759718E+04  0.25500000920E-02 0.  1.
    10030    2    1    2    0    0  0.00000000000E+00  0.00000000000E+00  0.98849510910E+02  0.25582014545E+04  0.25562909568E+04 0.  0.
        1    1    3    3  502    0  0.25516409190E+03  0.49915737310E+03 -0.11000803338E+04  0.12346835780E+04  0.50400001928E-02 0.  1.
       -1    1    3    3    0  502 -0.25516409190E+03 -0.49915737310E+03  0.11989298447E+04  0.13235178765E+04  0.50400001928E-02 0. -1.
</event>
<event>
 5   0  0.5170532E-05  0.2545463E+04  0.7818609E-02  0.8386966E-01
       -2   -1    0    0    0  501  0.00000000000E+00  0.00000000000E+00  0.12123652621E+04  0.12123652621E+04  0.25500000920E-02 0.  1.
        2   -1    0    0  501    0  0.00000000000E+00  0.00000000000E+00 -0.13361037425E+04  0.13361037425E+04  0.25500000920E-02 0. -1.
    10030    2    1    2    0    0  0.00000000000E+00  0.00000000000E+00 -0.12373848035E+03  0.25484690046E+04  0.25454632301E+04 0.  0.
        1    1    3    3  502    0 -0.51308552636E+03  0.78769683889E+03 -0.92085829906E+03  0.13159418963E+04  0.50400001928E-02 0. -1.
       -1    1    3    3    0  502  0.51308552636E+03 -0.78769683889E+03  0.79711981871E+03  0.12325271083E+04  0.50400001928E-02 0.  1.
</event>
<event>
 5   0  0.5182179E-05  0.2762536E+04  0.7818609E-02  0.8314995E-01
       -2   -1    0    0    0  501  0.00000000000E+00  0.00000000000E+00  0.99839783812E+03  0.99839783812E+03  0.25500000920E-02 0.  1.
        2   -1    0    0  501    0  0.00000000000E+00  0.00000000000E+00 -0.19109636323E+04  0.19109636323E+04  0.25500000920E-02 0. -1.
    10030    2    1    2    0    0  0.00000000000E+00  0.00000000000E+00 -0.91256579416E+03  0.29093614704E+04  0.27625364861E+04 0.  0.
        3    1    3    3  502    0  0.10798465097E+04  0.13451763254E+03  0.43966032779E+03  0.11736544176E+04  0.10100000352E+00 0.  1.
       -3    1    3    3    0  502 -0.10798465097E+04 -0.13451763254E+03 -0.13522261220E+04  0.17357070528E+04  0.10100000352E+00 0. -1.
</event>
<event>
 5   0  0.1954502E-05  0.2707179E+04  0.7818609E-02  0.8332679E-01
        1   -1    0    0  501    0  0.00000000000E+00  0.00000000000E+00  0.16596071649E+04  0.16596071649E+04  0.50400001928E-02 0. -1.
       -1   -1    0    0    0  501  0.00000000000E+00  0.00000000000E+00 -0.11039989541E+04  0.11039989541E+04  0.50400001928E-02 0.  1.
    10030    2    1    2    0    0  0.00000000000E+00  0.00000000000E+00  0.55560821076E+03  0.27636061190E+04  0.27071790294E+04 0.  0.
        4    1    3    3  502    0  0.14918555050E+03 -0.12297366384E+03  0.16454388199E+04  0.16567586950E+04  0.12699999809E+01 0. -1.
       -4    1    3    3    0  502 -0.14918555050E+03  0.12297366384E+03 -0.10898306092E+04  0.11068474240E+04  0.12699999809E+01 0.  1.
</event>
<event>
 5   0  0.1954502E-05  0.1509353E+04  0.7818609E-02  0.8878257E-01
        1   -1    0    0  501    0  0.00000000000E+00  0.00000000000E+00  0.56057956345E+03  0.56057956347E+03  0.50400001928E-02 0.  1.
       -1   -1    0    0    0  501  0.00000000000E+00  0.00000000000E+00 -0.10159787395E+04  0.10159787395E+04  0.50400001928E-02 0. -1.
    10030    2    1    2    0    0  0.00000000000E+00  0.00000000000E+00 -0.45539917600E+03  0.15765583029E+04  0.15093533957E+04 0.  0.
        4    1    3    3  502    0  0.21958869239E+03 -0.14054988941E+03 -0.96744340429E+03  0.10019589905E+04  0.12699999809E+01 0. -1.
       -4    1    3    3    0  502 -0.21958869239E+03  0.14054988941E+03  0.51204422828E+03  0.57459931244E+03  0.12699999809E+01 0.  1.
</event>
<event>
 5   0  0.2163800E-05  0.2532090E+04  0.7818609E-02  0.8391642E-01
        1   -1    0    0  501    0  0.00000000000E+00  0.00000000000E+00  0.17034059056E+04  0.17034059056E+04  0.50400001928E-02 0. -1.
       -1   -1    0    0    0  501  0.00000000000E+00  0.00000000000E+00 -0.94097969955E+03  0.94097969956E+03  0.50400001928E-02 0.  1.
    10030    2    1    2    0    0  0.00000000000E+00  0.00000000000E+00  0.76242620605E+03  0.26443856052E+04  0.25320903438E+04 0.  0.
        1    1    3    3  502    0 -0.45799686110E+03  0.11784691076E+04  0.44985324157E+03  0.13419830481E+04  0.50400001928E-02 0. -1.
       -1    1    3    3    0  502  0.45799686110E+03 -0.11784691076E+04  0.31257296447E+03  0.13024025570E+04  0.50400001928E-02 0.  1.
</event>
<event>
 5   0  0.4955675E-05  0.2564309E+04  0.7818609E-02  0.8380427E-01
       -2   -1    0    0    0  501  0.00000000000E+00  0.00000000000E+00  0.64937684897E+03  0.64937684897E+03  0.25500000920E-02 0. -1.
        2   -1    0    0  501    0  0.00000000000E+00  0.00000000000E+00 -0.25315356262E+04  0.25315356262E+04  0.25500000920E-02 0.  1.
    10030    2    1    2    0    0  0.00000000000E+00  0.00000000000E+00 -0.18821587772E+04  0.31809124751E+04  0.25643093635E+04 0.  0.
        5    1    3    3  502    0 -0.95856535167E+03 -0.15495744826E+02  0.11499291990E+03  0.96557398119E+03  0.46999998093E+01 0. -1.
       -5    1    3    3    0  502  0.95856535167E+03  0.15495744826E+02 -0.19971516971E+04  0.22153384939E+04  0.46999998093E+01 0.  1.
</event>
<event>
 5   0  0.2159405E-05  0.2552047E+04  0.7818609E-02  0.8384675E-01
       -1   -1    0    0    0  501  0.00000000000E+00  0.00000000000E+00  0.12304742359E+04  0.12304742359E+04  0.50400001928E-02 0. -1.
        1   -1    0    0  501    0  0.00000000000E+00  0.00000000000E+00 -0.13232585395E+04  0.13232585395E+04  0.50400001928E-02 0.  1.
    10030    2    1    2    0    0  0.00000000000E+00  0.00000000000E+00 -0.92784303544E+02  0.25537327754E+04  0.25520466612E+04 0.  0.
        3    1    3    3  502    0  0.49808061452E+02 -0.48074193301E+03 -0.12281219620E+04  0.13198019597E+04  0.10100000352E+00 0.  1.
       -3    1    3    3    0  502 -0.49808061452E+02  0.48074193301E+03  0.11353376584E+04  0.12339308157E+04  0.10100000352E+00 0. -1.
</event>
<event>
 5   0  0.1698625E-05  0.2597230E+04  0.7818609E-02  0.8369143E-01
        4   -1    0    0  501    0  0.00000000000E+00  0.00000000000E+00  0.13641548322E+04  0.13641554234E+04  0.12699999809E+01 0.  1.
       -4   -1    0    0    0  501  0.00000000000E+00  0.00000000000E+00 -0.12362227899E+04  0.12362234422E+04  0.12699999809E+01 0. -1.
    10030    2    1    2    0    0  0.00000000000E+00  0.00000000000E+00  0.12793204238E+03  0.26003788656E+04  0.25972299932E+04 0.  0.
        1    1    3    3  502    0  0.11546297238E+04  0.40235918550E+03  0.50191856762E+03  0.13217355869E+04  0.50400001928E-02 0.  1.
       -1    1    3    3    0  502 -0.11546297238E+04 -0.40235918550E+03 -0.37398652524E+03  0.12786432787E+04  0.50400001928E-02 0. -1.
</event>
<event>
 5   0  0.5170532E-05  0.2594139E+04  0.7818609E-02  0.8370195E-01
        2   -1    0    0  501    0  0.00000000000E+00  0.00000000000E+00  0.16312854778E+04  0.16312854778E+04  0.25500000920E-02 0.  1.
       -2   -1    0    0    0  501  0.00000000000E+00  0.00000000000E+00 -0.10313277144E+04  0.10313277144E+04  0.25500000920E-02 0. -1.
    10030    2    1    2    0    0  0.00000000000E+00  0.00000000000E+00  0.59995776341E+03  0.26626131923E+04  0.25941394900E+04 0.  0.
        1    1    3    3  502    0  0.87152144354E+03 -0.55627856256E+03 -0.50388900266E+03  0.11501737228E+04  0.50400001928E-02 0. -1.
       -1    1    3    3    0  502 -0.87152144354E+03  0.55627856256E+03  0.11038467661E+04  0.15124394694E+04  0.50400001928E-02 0.  1.
</event>
<event>
 5   0  0.5049803E-05  0.2588895E+04  0.7818609E-02  0.8371983E-01
       -2   -1    0    0    0  501  0.00000000000E+00  0.00000000000E+00  0.87807660005E+03  0.87807660005E+03  0.25500000920E-02 0. -1.
        2   -1    0    0  501    0  0.00000000000E+00  0.00000000000E+00 -0.19082558740E+04  0.19082558740E+04  0.25500000920E-02 0.  1.
    10030    2    1    2    0    0  0.00000000000E+00  0.00000000000E+00 -0.10301792739E+04  0.27863324740E+04  0.25888953859E+04 0.  0.
        4    1    3    3  502    0 -0.13023797150E+03 -0.12625874019E+04 -0.78843575065E+03  0.14942293741E+04  0.12699999809E+01 0.  1.
       -4    1    3    3    0  502  0.13023797150E+03  0.12625874019E+04 -0.24174352326E+03  0.12921030999E+04  0.12699999809E+01 0. -1.
</event>
<event>
 5   0  0.4955675E-05  0.2555012E+04  0.7818609E-02  0.8383645E-01
        2   -1    0    0  501    0  0.00000000000E+00  0.00000000000E+00  0.19503940292E+04  0.19503940292E+04  0.25500000920E-02 0. -1.
       -2   -1    0    0    0  501  0.00000000000E+00  0.00000000000E+00 -0.83676529586E+03  0.83676529587E+03  0.25500000920E-02 0.  1.
    10030    2    1    2    0    0  0.00000000000E+00  0.00000000000E+00  0.11136287333E+04  0.27871593250E+04  0.25550123576E+04 0.  0.
        5    1    3    3  502    0 -0.12601667447E+04  0.11838434629E+02  0.78521744498E+03  0.14848396879E+04  0.46999998093E+01 0. -1.
       -5    1    3    3    0  502  0.12601667447E+04 -0.11838434629E+02  0.32841128834E+03  0.13023196371E+04  0.46999998093E+01 0.  1.
</event>
<event>
 5   0  0.1954502E-05  0.2667378E+04  0.7818609E-02  0.8345668E-01
       -1   -1    0    0    0  501  0.00000000000E+00  0.00000000000E+00  0.88227530429E+03  0.88227530430E+03  0.50400001928E-02 0.  1.
        1   -1    0    0  501    0  0.00000000000E+00  0.00000000000E+00 -0.20160677378E+04  0.20160677378E+04  0.50400001928E-02 0. -1.
    10030    2    1    2    0    0  0.00000000000E+00  0.00000000000E+00 -0.11337924335E+04  0.28983430421E+04  0.26673783210E+04 0.  0.
        4    1    3    3  502    0 -0.26932724765E+03 -0.87168167857E+03  0.49014796191E+03  0.10356701949E+04  0.12699999809E+01 0.  1.
       -4    1    3    3    0  502  0.26932724765E+03  0.87168167857E+03 -0.16239403954E+04  0.18626728473E+04  0.12699999809E+01 0. -1.
</event>
<event>
 5   0  0.5170532E-05  0.2561699E+04  0.7818609E-02  0.8381329E-01
        2   -1    0    0  501    0  0.00000000000E+00  0.00000000000E+00  0.22755278504E+04  0.22755278504E+04  0.25500000920E-02 0.  1.
       -2   -1    0    0    0  501  0.00000000000E+00  0.00000000000E+00 -0.72096480833E+03  0.72096480833E+03  0.25500000920E-02 0. -1.
    10030    2    1    2    0    0  0.00000000000E+00  0.00000000000E+00  0.15545630420E+04  0.29964926587E+04  0.25616990459E+04 0.  0.
        1    1    3    3  502    0  0.43118205013E+03 -0.12019700628E+04  0.89381789135E+03  0.15587047235E+04  0.50400001928E-02 0.  1.
       -1    1    3    3    0  502 -0.43118205013E+03  0.12019700628E+04  0.66074515068E+03  0.14377879351E+04  0.50400001928E-02 0. -1.
</event>
<event>
 5   0  0.1954502E-05  0.2666818E+04  0.7818609E-02  0.8345852E-01
       -1   -1    0    0    0  501  0.00000000000E+00  0.00000000000E+00  0.15071506944E+04  0.15071506944E+04  0.50400001928E-02 0. -1.
        1   -1    0    0  501    0  0.00000000000E+00  0.00000000000E+00 -0.11796963708E+04  0.11796963708E+04  0.50400001928E-02 0.  1.
    10030    2    1    2    0    0  0.00000000000E+00  0.00000000000E+00  0.32745432357E+03  0.26868470652E+04  0.26668184823E+04 0.  0.
        4    1    3    3  502    0  0.13169487134E+03  0.10187759718E+04 -0.69279322372E+03  0.12390367563E+04  0.12699999809E+01 0.  1.
       -4    1    3    3    0  502 -0.13169487134E+03 -0.10187759718E+04  0.10202475473E+04  0.14478103089E+04  0.12699999809E+01 0. -1.
</event>
<event>
 5   0  0.2072710E-05  0.2586935E+04  0.7818609E-02  0.8372653E-01
        1   -1    0    0  501    0  0.00000000000E+00  0.00000000000E+00  0.98682598745E+03  0.98682598747E+03  0.50400001928E-02 0.  1.
       -1   -1    0    0    0  501  0.00000000000E+00  0.00000000000E+00 -0.16953927727E+04  0.16953927727E+04  0.50400001928E-02 0. -1.
    10030    2    1    2    0    0  0.00000000000E+00  0.00000000000E+00 -0.70856678527E+03  0.26822187602E+04  0.25869345930E+04 0.  0.
        2    1    3    3  502    0 -0.43419600992E+03  0.53086790871E+03 -0.14913589950E+04  0.16414927851E+04  0.25500000920E-02 0. -1.
       -2    1    3    3    0  502  0.43419600992E+03 -0.53086790871E+03  0.78279220976E+03  0.10407259751E+04  0.25500000920E-02 0.  1.
</event>
<event>
 5   0  0.2072710E-05  0.2654166E+04  0.7818609E-02  0.8350032E-01
        1   -1    0    0  501    0  0.00000000000E+00  0.00000000000E+00  0.14004701235E+04  0.14004701235E+04  0.50400001928E-02 0.  1.
       -1   -1    0    0    0  501  0.00000000000E+00  0.00000000000E+00 -0.12575413106E+04  0.12575413106E+04  0.50400001928E-02 0. -1.
    10030    2    1    2    0    0  0.00000000000E+00  0.00000000000E+00  0.14292881296E+03  0.26580114341E+04  0.26541658083E+04 0.  0.
        2    1    3    3  502    0  0.69269692634E+03  0.16249741466E+03 -0.10503884019E+04  0.12686805100E+04  0.25500000920E-02 0. -1.
       -2    1    3    3    0  502 -0.69269692634E+03 -0.16249741466E+03  0.11933172148E+04  0.13893309241E+04  0.25500000920E-02 0.  1.
</event>
<event>
 5   0  0.2163800E-05  0.2403394E+04  0.7818609E-02  0.8438234E-01
        1   -1    0    0  501    0  0.00000000000E+00  0.00000000000E+00  0.13637128393E+04  0.13637128393E+04  0.50400001928E-02 0.  1.
       -1   -1    0    0    0  501  0.00000000000E+00  0.00000000000E+00 -0.10589292021E+04  0.10589292021E+04  0.50400001928E-02 0. -1.
    10030    2    1    2    0    0  0.00000000000E+00  0.00000000000E+00  0.30478363723E+03  0.24226420415E+04  0.24033937246E+04 0.  0.
        1    1    3    3  502    0 -0.92206668245E+03  0.32030218668E+03  0.85891531700E+03  0.13002061296E+04  0.50400001928E-02 0.  1.
       -1    1    3    3    0  502  0.92206668245E+03 -0.32030218668E+03 -0.55413167976E+03  0.11224359119E+04  0.50400001928E-02 0. -1.
</event>
<event>
 5   0  0.1954502E-05  0.2572421E+04  0.7818609E-02  0.8377630E-01
       -1   -1    0    0    0  501  0.00000000000E+00  0.00000000000E+00  0.12155283024E+04  0.12155283024E+04  0.50400001928E-02 0.  1.
        1   -1    0    0  501    0  0.00000000000E+00  0.00000000000E+00 -0.13610032315E+04  0.13610032315E+04  0.50400001928E-02 0. -1.
    10030    2    1    2    0    0  0.00000000000E+00  0.00000000000E+00 -0.14547492905E+03  0.25765315339E+04  0.25724213866E+04 0.  0.
        4    1    3    3  502    0  0.54230707579E+03  0.52230876586E+03 -0.11172041432E+04  0.13472379604E+04  0.12699999809E+01 0. -1.
       -4    1    3    3    0  502 -0.54230707579E+03 -0.52230876586E+03  0.97172921417E+03  0.12292935735E+04  0.12699999809E+01 0.  1.
</event>
<event>
 5   0  0.5049803E-05  0.2197871E+04  0.7818609E-02  0.8519315E-01
       -2   -1    0    0    0  501  0.00000000000E+00  0.00000000000E+00  0.71953740047E+03  0.71953740047E+03  0.25500000920E-02 0.  1.
        2   -1    0    0  501    0  0.00000000000E+00  0.00000000000E+00 -0.16783833219E+04  0.16783833219E+04  0.25500000920E-02 0. -1.
    10030    2    1    2    0    0  0.00000000000E+00  0.00000000000E+00 -0.95884592139E+03  0.23979207223E+04  0.21978713087E+04 0.  0.
        4    1    3    3  502    0  0.50877225283E+03 -0.80551255847E+03 -0.10769574574E+04  0.14378938295E+04  0.12699999809E+01 0. -1.
       -4    1    3    3    0  502 -0.50877225283E+03  0.80551255847E+03  0.11811153597E+03  0.96002689282E+03  0.12699999809E+01 0.  1.
</event>
<event>
 5   0  0.5049803E-05  0.2462860E+04  0.7818609E-02  0.8416338E-01
       -2   -1    0    0    0  501  0.00000000000E+00  0.00000000000E+00  0.10165359479E+04  0.10165359479E+04  0.25500000920E-02 0. -1.
        2   -1    0    0  501    0  0.00000000000E+00  0.00000000000E+00 -0.14917522449E+04  0.14917522449E+04  0.25500000920E-02 0.  1.
    10030    2    1    2    0    0  0.00000000000E+00  0.00000000000E+00 -0.47521629708E+03  0.25082881928E+04  0.24628599492E+04 0.  0.
        4    1    3    3  502    0 -0.62848395479E+03 -0.28374893977E+03 -0.12766782679E+04  0.14510046709E+04  0.12699999809E+01 0.  1.
       -4    1    3    3    0  502  0.62848395479E+03  0.28374893977E+03  0.80146197081E+03  0.10572835220E+04  0.12699999809E+01 0. -1.
</event>
<event>
 5   0  0.1993815E-05  0.2626950E+04  0.7818609E-02  0.8359104E-01
       -1   -1    0    0    0  501  0.00000000000E+00  0.00000000000E+00  0.11038834097E+04  0.11038834097E+04  0.50400001928E-02 0.  1.
        1   -1    0    0  501    0  0.00000000000E+00  0.00000000000E+00 -0.15628612363E+04  0.15628612363E+04  0.50400001928E-02 0. -1.
    10030    2    1    2    0    0  0.00000000000E+00  0.00000000000E+00 -0.45897782655E+03  0.26667446461E+04  0.26269500113E+04 0.  0.
        5    1    3    3  502    0  0.67559389161E+02 -0.38376592529E+03  0.10438465651E+04  0.11142164503E+04  0.46999998093E+01 0.  1.
       -5    1    3    3    0  502 -0.67559389161E+02  0.38376592529E+03 -0.15028243917E+04  0.15525281958E+04  0.46999998093E+01 0. -1.
</event>
<event>
 5   0  0.5036452E-05  0.2375410E+04  0.7818609E-02  0.8448768E-01
       -2   -1    0    0    0  501  0.00000000000E+00  0.00000000000E+00  0.16537222944E+04  0.16537222944E+04  0.25500000920E-02 0. -1.
        2   -1    0    0  501    0  0.00000000000E+00  0.00000000000E+00 -0.85301068737E+03  0.85301068737E+03  0.25500000920E-02 0.  1.
    10030    2    1    2    0    0  0.00000000000E+00  0.00000000000E+00  0.80071160702E+03  0.25067329818E+04  0.23754096835E+04 0.  0.
        2    1    3    3  502    0  0.38332534047E+03 -0.15208764984E+03  0.15757427380E+04  0.16288137236E+04  0.25500000920E-02 0. -1.
       -2    1    3    3    0  502 -0.38332534047E+03  0.15208764984E+03 -0.77503113096E+03  0.87791925816E+03  0.25500000920E-02 0.  1.
</event>
<event>
 5   0  0.1993815E-05  0.2584676E+04  0.7818609E-02  0.8373425E-01
       -1   -1    0    0    0  501  0.00000000000E+00  0.00000000000E+00  0.11828000254E+04  0.11828000254E+04  0.50400001928E-02 0.  1.
        1   -1    0    0  501    0  0.00000000000E+00  0.00000000000E+00 -0.14120202587E+04  0.14120202587E+04  0.50400001928E-02 0. -1.
    10030    2    1    2    0    0  0.00000000000E+00  0.00000000000E+00 -0.22922023328E+03  0.25948202842E+04  0.25846760710E+04 0.  0.
        5    1    3    3  502    0 -0.53991437747E+02 -0.12338906807E+04 -0.49651636786E+03  0.13311468292E+04  0.46999998093E+01 0.  1.
       -5    1    3    3    0  502  0.53991437747E+02  0.12338906807E+04  0.26729613458E+03  0.12636734550E+04  0.46999998093E+01 0. -1.
</event>
<event>
 5   0  0.5170532E-05  0.2449292E+04  0.7818609E-02  0.8421276E-01
        2   -1    0    0  501    0  0.00000000000E+00  0.00000000000E+00  0.13186608668E+04  0.13186608668E+04  0.25500000920E-02 0. -1.
       -2   -1    0    0    0  501  0.00000000000E+00  0.00000000000E+00 -0.11373342856E+04  0.11373342856E+04  0.25500000920E-02 0.  1.
    10030    2    1    2    0    0  0.00000000000E+00  0.00000000000E+00  0.18132658119E+03  0.24559951524E+04  0.24492923181E+04 0.  0.
        1    1    3    3  502    0 -0.40258201164E+03  0.94593797400E+03  0.75798229392E+03  0.12772658630E+04  0.50400001928E-02 0. -1.
       -1    1    3    3    0  502  0.40258201164E+03 -0.94593797400E+03 -0.57665571273E+03  0.11787292894E+04  0.50400001928E-02 0.  1.
</event>
<event>
 5   0  0.5049803E-05  0.2762512E+04  0.7818609E-02  0.8315002E-01
       -2   -1    0    0    0  501  0.00000000000E+00  0.00000000000E+00  0.13131011699E+04  0.13131011699E+04  0.25500000920E-02 0. -1.
        2   -1    0    0  501    0  0.00000000000E+00  0.00000000000E+00 -0.14529483936E+04  0.14529483936E+04  0.25500000920E-02 0.  1.
    10030    2    1    2    0    0  0.00000000000E+00  0.00000000000E+00 -0.13984722376E+03  0.27660495635E+04  0.27625120709E+04 0.  0.
        4    1    3    3  502    0  0.69559544150E+03  0.65230325685E+03 -0.10704599513E+04  0.14336103646E+04  0.12699999809E+01 0.  1.
       -4    1    3    3    0  502 -0.69559544150E+03 -0.65230325685E+03  0.93061272757E+03  0.13324391989E+04  0.12699999809E+01 0. -1.
</event>
<event>
 5   0  0.1993815E-05  0.2450161E+04  0.7818609E-02  0.8420959E-01
        1   -1    0    0  501    0  0.00000000000E+00  0.00000000000E+00  0.17079085364E+04  0.17079085364E+04  0.50400001928E-02 0. -1.
       -1   -1    0    0    0  501  0.00000000000E+00  0.00000000000E+00 -0.87874892248E+03  0.87874892250E+03  0.50400001928E-02 0.  1.
    10030    2    1    2    0    0  0.00000000000E+00  0.00000000000E+00  0.82915961390E+03  0.25866574589E+04  0.24501614527E+04 0.  0.
        5    1    3    3  502    0 -0.25316357404E+03  0.19690276892E+03  0.16627913771E+04  0.16934461165E+04  0.46999998093E+01 0. -1.
       -5    1    3    3    0  502  0.25316357404E+03 -0.19690276892E+03 -0.83363176319E+03  0.89321134242E+03  0.46999998093E+01 0.  1.
</event>
<event>
 5   0  0.5049803E-05  0.2617082E+04  0.7818609E-02  0.8362422E-01
        2   -1    0    0  501    0  0.00000000000E+00  0.00000000000E+00  0.21412159326E+04  0.21412159326E+04  0.25500000920E-02 0. -1.
       -2   -1    0    0    0  501  0.00000000000E+00  0.00000000000E+00 -0.79967618022E+03  0.79967618022E+03  0.25500000920E-02 0.  1.
    10030    2    1    2    0    0  0.00000000000E+00  0.00000000000E+00  0.13415397524E+04  0.29408921128E+04  0.26170818696E+04 0.  0.
        4    1    3    3  502    0  0.48542777265E+03  0.43195827318E+02 -0.69388927141E+03  0.84793274252E+03  0.12699999809E+01 0.  1.
       -4    1    3    3    0  502 -0.48542777265E+03 -0.43195827318E+02  0.20354290238E+04  0.20929593703E+04  0.12699999809E+01 0. -1.
</event>
<event>
 5   0  0.4955675E-05  0.2595898E+04  0.7818609E-02  0.8369596E-01
        2   -1    0    0  501    0  0.00000000000E+00  0.00000000000E+00  0.87462027732E+03  0.87462027733E+03  0.25500000920E-02 0. -1.
       -2   -1    0    0    0  501  0.00000000000E+00  0.00000000000E+00 -0.19261753933E+04  0.19261753933E+04  0.25500000920E-02 0.  1.
    10030    2    1    2    0    0  0.00000000000E+00  0.00000000000E+00 -0.10515551160E+04  0.28007956706E+04  0.25958983467E+04 0.  0.
        5    1    3    3  502    0  0.71072116374E+02 -0.10740997677E+04 -0.13082135189E+04  0.16941624059E+04  0.46999998093E+01 0.  1.
       -5    1    3    3    0  502 -0.71072116374E+02  0.10740997677E+04  0.25665840290E+03  0.11066332647E+04  0.46999998093E+01 0. -1.
</event>
<event>
 5   0  0.5170532E-05  0.2437209E+04  0.7818609E-02  0.8425703E-01
        2   -1    0    0  501    0  0.00000000000E+00  0.00000000000E+00  0.20209362085E+04  0.20209362085E+04  0.25500000920E-02 0. -1.
       -2   -1    0    0    0  501  0.00000000000E+00  0.00000000000E+00 -0.73480649735E+03  0.73480649735E+03  0.25500000920E-02 0.  1.
    10030    2    1    2    0    0  0.00000000000E+00  0.00000000000E+00  0.12861297111E+04  0.27557427058E+04  0.24372091061E+04 0.  0.
        1    1    3    3  502    0 -0.10639130914E+04 -0.69709383262E+02  0.13102968164E+04  0.16892744629E+04  0.50400001928E-02 0. -1.
       -1    1    3    3    0  502  0.10639130914E+04  0.69709383262E+02 -0.24167105206E+02  0.10664682429E+04  0.50400001928E-02 0.  1.
</event>
<event>
 5   0  0.1954502E-05  0.2593913E+04  0.7818609E-02  0.8370272E-01
       -1   -1    0    0    0  501  0.00000000000E+00  0.00000000000E+00  0.27604869723E+04  0.27604869723E+04  0.50400001928E-02 0. -1.
        1   -1    0    0  501    0  0.00000000000E+00  0.00000000000E+00 -0.60934760221E+03  0.60934760224E+03  0.50400001928E-02 0.  1.
    10030    2    1    2    0    0  0.00000000000E+00  0.00000000000E+00  0.21511393701E+04  0.33698345746E+04  0.25939129651E+04 0.  0.
        4    1    3    3  502    0  0.68421846423E+03 -0.10990696098E+04  0.97506028277E+03  0.16207569472E+04  0.12699999809E+01 0.  1.
       -4    1    3    3    0  502 -0.68421846423E+03  0.10990696098E+04  0.11760790873E+04  0.17490776274E+04  0.12699999809E+01 0. -1.
</event>
<event>
 5   0  0.5170532E-05  0.2584030E+04  0.7818609E-02  0.8373646E-01
        2   -1    0    0  501    0  0.00000000000E+00  0.00000000000E+00  0.13810817939E+04  0.13810817939E+04  0.25500000920E-02 0. -1.
       -2   -1    0    0    0  501  0.00000000000E+00  0.00000000000E+00 -0.12086922729E+04  0.12086922729E+04  0.25500000920E-02 0.  1.
    10030    2    1    2    0    0  0.00000000000E+00  0.00000000000E+00  0.17238952100E+03  0.25897740668E+04  0.25840301024E+04 0.  0.
        1    1    3    3  502    0  0.70923147159E+03 -0.33344217228E+03  0.11156635016E+04  0.13634141012E+04  0.50400001928E-02 0. -1.
       -1    1    3    3    0  502 -0.70923147159E+03  0.33344217228E+03 -0.94327398064E+03  0.12263599656E+04  0.50400001928E-02 0.  1.
</event>
<event>
 5   0  0.1954502E-05  0.2556571E+04  0.7818609E-02  0.8383104E-01
        1   -1    0    0  501    0  0.00000000000E+00  0.00000000000E+00  0.21076434518E+04  0.21076434518E+04  0.50400001928E-02 0. -1.
       -1   -1    0    0    0  501  0.00000000000E+00  0.00000000000E+00 -0.77527998500E+03  0.77527998502E+03  0.50400001928E-02 0.  1.
    10030    2    1    2    0    0  0.00000000000E+00  0.00000000000E+00  0.13323634668E+04  0.28829234368E+04  0.25565709720E+04 0.  0.
        4    1    3    3  502    0 -0.42599733619E+03  0.10689587772E+02 -0.69282619204E+03  0.81338658890E+03  0.12699999809E+01 0.  1.
       -4    1    3    3    0  502  0.42599733619E+03 -0.10689587772E+02  0.20251896588E+04  0.20695368479E+04  0.12699999809E+01 0. -1.
</event>
<event>
 5   0  0.5182179E-05  0.1524620E+04  0.7818609E-02  0.8868244E-01
       -2   -1    0    0    0  501  0.00000000000E+00  0.00000000000E+00  0.76900040033E+03  0.76900040034E+03  0.25500000920E-02 0.  1.
        2   -1    0    0  501    0  0.00000000000E+00  0.00000000000E+00 -0.75567814139E+03  0.75567814139E+03  0.25500000920E-02 0. -1.
    10030    2    1    2    0    0  0.00000000000E+00  0.00000000000E+00  0.13322258946E+02  0.15246785417E+04  0.15246203373E+04 0.  0.
        3    1    3    3  502    0  0.29048905140E+03  0.69707660402E+03 -0.97348139984E+02  0.76143046394E+03  0.10100000352E+00 0.  1.
       -3    1    3    3    0  502 -0.29048905140E+03 -0.69707660402E+03  0.11067039893E+03  0.76324807779E+03  0.10100000352E+00 0. -1.
</event>
<event>
 5   0  0.1954502E-05  0.2342889E+04  0.7818609E-02  0.8461200E-01
        1   -1    0    0  501    0  0.00000000000E+00  0.00000000000E+00  0.14121167832E+04  0.14121167832E+04  0.50400001928E-02 0.  1.
       -1   -1    0    0    0  501  0.00000000000E+00  0.00000000000E+00 -0.97179122035E+03  0.97179122036E+03  0.50400001928E-02 0. -1.
    10030    2    1    2    0    0  0.00000000000E+00  0.00000000000E+00  0.44032556284E+03  0.23839080036E+04  0.23428894059E+04 0.  0.
        4    1    3    3  502    0 -0.11036769346E+04  0.24022621293E+03 -0.95870702688E+02  0.11335802635E+04  0.12699999809E+01 0. -1.
       -4    1    3    3    0  502  0.11036769346E+04 -0.24022621293E+03  0.53619626553E+03  0.12503277400E+04  0.12699999809E+01 0.  1.
</event>
<event>
 5   0  0.2163800E-05  0.2614794E+04  0.7818609E-02  0.8363193E-01
       -1   -1    0    0    0  501  0.00000000000E+00  0.00000000000E+00  0.96307928731E+03  0.96307928733E+03  0.50400001928E-02 0.  1.
        1   -1    0    0  501    0  0.00000000000E+00  0.00000000000E+00 -0.17748139692E+04  0.17748139692E+04  0.50400001928E-02 0. -1.
    10030    2    1    2    0    0  0.00000000000E+00  0.00000000000E+00 -0.81173468191E+03  0.27378932566E+04  0.26147937377E+04 0.  0.
        1    1    3    3  502    0 -0.84314715056E+02  0.32391684579E+03 -0.17291915851E+04  0.17612877766E+04  0.50400001928E-02 0. -1.
       -1    1    3    3    0  502  0.84314715056E+02 -0.32391684579E+03  0.91745690319E+03  0.97660547991E+03  0.50400001928E-02 0.  1.
</event>
<event>
 5   0  0.5182179E-05  0.2104759E+04  0.7818609E-02  0.8559150E-01
       -2   -1    0    0    0  501  0.00000000000E+00  0.00000000000E+00  0.14891344960E+04  0.14891344960E+04  0.25500000920E-02 0.  1.
        2   -1    0    0  501    0  0.00000000000E+00  0.00000000000E+00 -0.74372224841E+03  0.74372224842E+03  0.25500000920E-02 0. -1.
    10030    2    1    2    0    0  0.00000000000E+00  0.00000000000E+00  0.74541224762E+03  0.22328567445E+04  0.21047588514E+04 0.  0.
        3    1    3    3  502    0 -0.65746533612E+03  0.39892570657E+03  0.11348298283E+04  0.13708541633E+04  0.10100000352E+00 0.  1.
       -3    1    3    3    0  502  0.65746533612E+03 -0.39892570657E+03 -0.38941758071E+03  0.86200258116E+03  0.10100000352E+00 0. -1.
</event>
<event>
 5   0  0.5049803E-05  0.2657932E+04  0.7818609E-02  0.8348785E-01
        2   -1    0    0  501    0  0.00000000000E+00  0.00000000000E+00  0.26442452161E+04  0.26442452161E+04  0.25500000920E-02 0. -1.
       -2   -1    0    0    0  501  0.00000000000E+00  0.00000000000E+00 -0.66792224458E+03  0.66792224458E+03  0.25500000920E-02 0.  1.
    10030    2    1    2    0    0  0.00000000000E+00  0.00000000000E+00  0.19763229715E+04  0.33121674606E+04  0.26579316770E+04 0.  0.
        4    1    3    3  502    0 -0.39447342364E+03 -0.25428518313E+03 -0.56121203960E+03  0.73159469832E+03  0.12699999809E+01 0.  1.
       -4    1    3    3    0  502  0.39447342364E+03  0.25428518313E+03  0.25375350111E+04  0.25805727623E+04  0.12699999809E+01 0. -1.
</event>
<event>
 5   0  0.1698625E-05  0.2612053E+04  0.7818609E-02  0.8364119E-01
        3   -1    0    0  501    0  0.00000000000E+00  0.00000000000E+00  0.12399229213E+04  0.12399229254E+04  0.10100000352E+00 0. -1.
       -3   -1    0    0    0  501  0.00000000000E+00  0.00000000000E+00 -0.13756544626E+04  0.13756544663E+04  0.10100000352E+00 0.  1.
    10030    2    1    2    0    0  0.00000000000E+00  0.00000000000E+00 -0.13573154137E+03  0.26155773917E+04  0.26120532232E+04 0.  0.
        2    1    3    3  502    0 -0.59097435177E+03  0.11614388195E+04 -0.15467006591E+03  0.13122932771E+04  0.25500000920E-02 0.  1.
       -2    1    3    3    0  502  0.59097435177E+03 -0.11614388195E+04  0.18938524545E+02  0.13032841146E+04  0.25500000920E-02 0. -1.
</event>
<event>
 5   0  0.5170532E-05  0.1421624E+04  0.7818609E-02  0.8938313E-01
       -2   -1    0    0    0  501  0.00000000000E+00  0.00000000000E+00  0.20254518177E+03  0.20254518179E+03  0.25500000920E-02 0. -1.
        2   -1    0    0  501    0  0.00000000000E+00  0.00000000000E+00 -0.24945229110E+04  0.24945229110E+04  0.25500000920E-02 0.  1.
    10030    2    1    2    0    0  0.00000000000E+00  0.00000000000E+00 -0.22919777293E+04  0.26970680928E+04  0.14216238553E+04 0.  0.
        1    1    3    3  502    0  0.59606561509E+03 -0.33215244199E+03 -0.76829328960E+03  0.10275670494E+04  0.50400001928E-02 0.  1.
       -1    1    3    3    0  502 -0.59606561509E+03  0.33215244199E+03 -0.15236844397E+04  0.16695010434E+04  0.50400001928E-02 0. -1.
</event>
<event>
 5   0  0.5182179E-05  0.2577031E+04  0.7818609E-02  0.8376045E-01
        2   -1    0    0  501    0  0.00000000000E+00  0.00000000000E+00  0.12687192627E+04  0.12687192627E+04  0.25500000920E-02 0. -1.
       -2   -1    0    0    0  501  0.00000000000E+00  0.00000000000E+00 -0.13086203156E+04  0.13086203156E+04  0.25500000920E-02 0.  1.
    10030    2    1    2    0    0  0.00000000000E+00  0.00000000000E+00 -0.39901052948E+02  0.25773395783E+04  0.25770306959E+04 0.  0.
        3    1    3    3  502    0  0.79493665156E+03 -0.33184642118E+03  0.93840514566E+03  0.12738330169E+04  0.10100000352E+00 0. -1.
       -3    1    3    3    0  502 -0.79493665156E+03  0.33184642118E+03 -0.97830619861E+03  0.13035065614E+04  0.10100000352E+00 0.  1.
</event>
<event>
 5   0  0.2163800E-05  0.2590187E+04  0.7818609E-02  0.8371542E-01
        1   -1    0    0  501    0  0.00000000000E+00  0.00000000000E+00  0.16142306553E+04  0.16142306553E+04  0.50400001928E-02 0. -1.
       -1   -1    0    0    0  501  0.00000000000E+00  0.00000000000E+00 -0.10390501878E+04  0.10390501878E+04  0.50400001928E-02 0.  1.
    10030    2    1    2    0    0  0.00000000000E+00  0.00000000000E+00  0.57518046754E+03  0.26532808431E+04  0.25901866076E+04 0.  0.
        1    1    3    3  502    0 -0.78390985709E+03  0.83877421984E+03 -0.32635023570E+03  0.11935498868E+04  0.50400001928E-02 0. -1.
       -1    1    3    3    0  502  0.78390985709E+03 -0.83877421984E+03  0.90153070324E+03  0.14597309563E+04  0.50400001928E-02 0.  1.
</event>
<event>
 5   0  0.2163800E-05  0.2592441E+04  0.7818609E-02  0.8370773E-01
       -1   -1    0    0    0  501  0.00000000000E+00  0.00000000000E+00  0.13462470558E+04  0.13462470558E+04  0.50400001928E-02 0.  1.
        1   -1    0    0  501    0  0.00000000000E+00  0.00000000000E+00 -0.12480530462E+04  0.12480530462E+04  0.50400001928E-02 0. -1.
    10030    2    1    2    0    0  0.00000000000E+00  0.00000000000E+00  0.98194009599E+02  0.25943001020E+04  0.25924411191E+04 0.  0.
        1    1    3    3  502    0 -0.11547812328E+04  0.56580106531E+03  0.21211623649E+03  0.13033203133E+04  0.50400001928E-02 0.  1.
       -1    1    3    3    0  502  0.11547812328E+04 -0.56580106531E+03 -0.11392222689E+03  0.12909797888E+04  0.50400001928E-02 0. -1.
</event>
<event>
 5   0  0.2159405E-05  0.2592970E+04  0.7818609E-02  0.8370593E-01
       -1   -1    0    0    0  501  0.00000000000E+00  0.00000000000E+00  0.96388096789E+03  0.96388096790E+03  0.50400001928E-02 0.  1.
        1   -1    0    0  501    0  0.00000000000E+00  0.00000000000E+00 -0.17438596227E+04  0.17438596227E+04  0.50400001928E-02 0. -1.
    10030    2    1    2    0    0  0.00000000000E+00  0.00000000000E+00 -0.77997865483E+03  0.27077405906E+04  0.25929698039E+04 0.  0.
        3    1    3    3  502    0 -0.93128620479E+02 -0.83655374027E+03  0.63974966015E+03  0.10572486643E+04  0.10100000352E+00 0.  1.
       -3    1    3    3    0  502  0.93128620479E+02  0.83655374027E+03 -0.14197283150E+04  0.16504919263E+04  0.10100000352E+00 0. -1.
</event>
<event>
 5   0  0.1993815E-05  0.2558956E+04  0.7818609E-02  0.8382278E-01
       -1   -1    0    0    0  501  0.00000000000E+00  0.00000000000E+00  0.70058828670E+03  0.70058828672E+03  0.50400001928E-02 0. -1.
        1   -1    0    0  501    0  0.00000000000E+00  0.00000000000E+00 -0.23366983474E+04  0.23366983474E+04  0.50400001928E-02 0.  1.
    10030    2    1    2    0    0  0.00000000000E+00  0.00000000000E+00 -0.16361100607E+04  0.30372866341E+04  0.25589556399E+04 0.  0.
        5    1    3    3  502    0  0.12080816679E+04  0.17118893334E+03 -0.36101297933E+03  0.12724462379E+04  0.46999998093E+01 0. -1.
       -5    1    3    3    0  502 -0.12080816679E+04 -0.17118893334E+03 -0.12750970813E+04  0.17648403962E+04  0.46999998093E+01 0.  1.
</event>
<event>
 5   0  0.1993815E-05  0.2725540E+04  0.7818609E-02  0.8326765E-01
        1   -1    0    0  501    0  0.00000000000E+00  0.00000000000E+00  0.22915443780E+04  0.22915443781E+04  0.50400001928E-02 0. -1.
       -1   -1    0    0    0  501  0.00000000000E+00  0.00000000000E+00 -0.81043266165E+03  0.81043266167E+03  0.50400001928E-02 0.  1.
    10030    2    1    2    0    0  0.00000000000E+00  0.00000000000E+00  0.14811117164E+04  0.31019770397E+04  0.27255402471E+04 0.  0.
        5    1    3    3  502    0  0.10475729785E+04 -0.22033090059E+03 -0.21922328889E+03  0.10927194477E+04  0.46999998093E+01 0.  1.
       -5    1    3    3    0  502 -0.10475729785E+04  0.22033090059E+03  0.17003350053E+04  0.20092575920E+04  0.46999998093E+01 0. -1.
</event>
<event>
 5   0  0.5049803E-05  0.1523829E+04  0.7818609E-02  0.8868760E-01
        2   -1    0    0  501    0  0.00000000000E+00  0.00000000000E+00  0.29610952382E+03  0.29610952383E+03  0.25500000920E-02 0.  1.
       -2   -1    0    0    0  501  0.00000000000E+00  0.00000000000E+00 -0.19604696371E+04  0.19604696371E+04  0.25500000920E-02 0. -1.
    10030    2    1    2    0    0  0.00000000000E+00  0.00000000000E+00 -0.16643601133E+04  0.22565791610E+04  0.15238290334E+04 0.  0.
        4    1    3    3  502    0 -0.25812144584E+03 -0.14720448106E+03  0.20676436423E+03  0.36200684422E+03  0.12699999809E+01 0.  1.
       -4    1    3    3    0  502  0.25812144584E+03  0.14720448106E+03 -0.18711244776E+04  0.18945723168E+04  0.12699999809E+01 0. -1.
</event>
<event>
 5   0  0.5170532E-05  0.2554079E+04  0.7818609E-02  0.8383969E-01
       -2   -1    0    0    0  501  0.00000000000E+00  0.00000000000E+00  0.92728841650E+03  0.92728841651E+03  0.25500000920E-02 0. -1.
        2   -1    0    0  501    0  0.00000000000E+00  0.00000000000E+00 -0.17587077561E+04  0.17587077561E+04  0.25500000920E-02 0.  1.
    10030    2    1    2    0    0  0.00000000000E+00  0.00000000000E+00 -0.83141933959E+03  0.26859961726E+04  0.25540785659E+04 0.  0.
        1    1    3    3  502    0 -0.88490637545E+03 -0.41565605914E+03 -0.12797281834E+04  0.16104451174E+04  0.50400001928E-02 0.  1.
       -1    1    3    3    0  502  0.88490637545E+03  0.41565605914E+03  0.44830884383E+03  0.10755510552E+04  0.50400001928E-02 0. -1.
</event>
<event>
 5   0  0.1954502E-05  0.2533615E+04  0.7818609E-02  0.8391107E-01
       -1   -1    0    0    0  501  0.00000000000E+00  0.00000000000E+00  0.97209909638E+03  0.97209909640E+03  0.50400001928E-02 0. -1.
        1   -1    0    0  501    0  0.00000000000E+00  0.00000000000E+00 -0.16508613068E+04  0.16508613068E+04  0.50400001928E-02 0.  1.
    10030    2    1    2    0    0  0.00000000000E+00  0.00000000000E+00 -0.67876221038E+03  0.26229604032E+04  0.25336146389E+04 0.  0.
        4    1    3    3  502    0  0.81040066214E+03  0.81821587818E+03  0.20703119027E+03  0.11700811866E+04  0.12699999809E+01 0. -1.
       -4    1    3    3    0  502 -0.81040066214E+03 -0.81821587818E+03 -0.88579340064E+03  0.14528792166E+04  0.12699999809E+01 0.  1.
</event>
<event>
 5   0  0.4955675E-05  0.2617039E+04  0.7818609E-02  0.8362436E-01
        2   -1    0    0  501    0  0.00000000000E+00  0.00000000000E+00  0.15660810372E+04  0.15660810372E+04  0.25500000920E-02 0.  1.
       -2   -1    0    0    0  501  0.00000000000E+00  0.00000000000E+00 -0.10933169826E+04  0.10933169826E+04  0.25500000920E-02 0. -1.
    10030    2    1    2    0    0  0.00000000000E+00  0.00000000000E+00  0.47276405458E+03  0.26593980199E+04  0.26170387801E+04 0.  0.
        5    1    3    3  502    0  0.18496569712E+03  0.37294894203E+02 -0.10794111012E+04  0.10957890462E+04  0.46999998093E+01 0. -1.
       -5    1    3    3    0  502 -0.18496569712E+03 -0.37294894203E+02  0.15521751558E+04  0.15636089737E+04  0.46999998093E+01 0.  1.
</event>
<event>
 5   0  0.2072710E-05  0.2576243E+04  0.7818609E-02  0.8376316E-01
       -1   -1    0    0    0  501  0.00000000000E+00  0.00000000000E+00  0.11340795921E+04  0.11340795921E+04  0.50400001928E-02 0.  1.
        1   -1    0    0  501    0  0.00000000000E+00  0.00000000000E+00 -0.14630867803E+04  0.14630867803E+04  0.50400001928E-02 0. -1.
    10030    2    1    2    0    0  0.00000000000E+00  0.00000000000E+00 -0.32900718819E+03  0.25971663724E+04  0.25762428915E+04 0.  0.
        2    1    3    3  502    0 -0.24096179590E+03 -0.93270283452E+03 -0.10265860023E+04  0.14077911723E+04  0.25500000920E-02 0. -1.
       -2    1    3    3    0  502  0.24096179590E+03  0.93270283452E+03  0.69757881413E+03  0.11893752001E+04  0.25500000920E-02 0.  1.
</event>
<event>
 5   0  0.5036452E-05  0.1656046E+04  0.7818609E-02  0.8786838E-01
       -2   -1    0    0    0  501  0.00000000000E+00  0.00000000000E+00  0.98534092331E+03  0.98534092332E+03  0.25500000920E-02 0.  1.
        2   -1    0    0  501    0  0.00000000000E+00  0.00000000000E+00 -0.69582242206E+03  0.69582242207E+03  0.25500000920E-02 0. -1.
    10030    2    1    2    0    0  0.00000000000E+00  0.00000000000E+00  0.28951850125E+03  0.16811633454E+04  0.16560462648E+04 0.  0.
        2    1    3    3  502    0  0.50574720400E+03  0.61499244676E+03  0.37541974372E+03  0.88030445183E+03  0.25500000920E-02 0. -1.
       -2    1    3    3    0  502 -0.50574720400E+03 -0.61499244676E+03 -0.85901242467E+02  0.80085889356E+03  0.25500000920E-02 0.  1.
</event>
<event>
 5   0  0.5182179E-05  0.2631306E+04  0.7818609E-02  0.8357644E-01
        2   -1    0    0  501    0  0.00000000000E+00  0.00000000000E+00  0.15694922843E+04  0.15694922843E+04  0.25500000920E-02 0. -1.
       -2   -1    0    0    0  501  0.00000000000E+00  0.00000000000E+00 -0.11028677756E+04  0.11028677756E+04  0.25500000920E-02 0.  1.
    10030    2    1    2    0    0  0.00000000000E+00  0.00000000000E+00  0.46662450867E+03  0.26723600599E+04  0.26313057324E+04 0.  0.
        3    1    3    3  502    0  0.58302622791E+03  0.79873134826E+03  0.11146368401E+04  0.14900693422E+04  0.10100000352E+00 0. -1.
       -3    1    3    3    0  502 -0.58302622791E+03 -0.79873134826E+03 -0.64801233145E+03  0.11822907177E+04  0.10100000352E+00 0.  1.
</event>
<event>
 5   0  0.5170532E-05  0.1513606E+04  0.7818609E-02  0.8875455E-01
       -2   -1    0    0    0  501  0.00000000000E+00  0.00000000000E+00  0.45050709076E+03  0.45050709077E+03  0.25500000920E-02 0. -1.
        2   -1    0    0  501    0  0.00000000000E+00  0.00000000000E+00 -0.12713464147E+04  0.12713464147E+04  0.25500000920E-02 0.  1.
    10030    2    1    2    0    0  0.00000000000E+00  0.00000000000E+00 -0.82083932391E+03  0.17218535054E+04  0.15136057276E+04 0.  0.
        1    1    3    3  502    0 -0.53403143915E+03 -0.51872600217E+03 -0.56508226251E+03  0.93465726700E+03  0.50400001928E-02 0.  1.
       -1    1    3    3    0  502  0.53403143915E+03  0.51872600217E+03 -0.25575706140E+03  0.78719623843E+03  0.50400001928E-02 0. -1.
</event>
<event>
 5   0  0.5049803E-05  0.2639016E+04  0.7818609E-02  0.8355068E-01
        2   -1    0    0  501    0  0.00000000000E+00  0.00000000000E+00  0.27561202525E+04  0.27561202525E+04  0.25500000920E-02 0. -1.
       -2   -1    0    0    0  501  0.00000000000E+00  0.00000000000E+00 -0.63172161672E+03  0.63172161673E+03  0.25500000920E-02 0.  1.
    10030    2    1    2    0    0  0.00000000000E+00  0.00000000000E+00  0.21243986358E+04  0.33878418692E+04  0.26390155299E+04 0.  0.
        4    1    3    3  502    0 -0.10277012398E+03 -0.83521551441E+02  0.27475667117E+04  0.27507566224E+04  0.12699999809E+01 0. -1.
       -4    1    3    3    0  502  0.10277012398E+03  0.83521551441E+02 -0.62316807590E+03  0.63708524677E+03  0.12699999809E+01 0.  1.
</event>
<event>
 5   0  0.1993815E-05  0.2674016E+04  0.7818609E-02  0.8343485E-01
       -1   -1    0    0    0  501  0.00000000000E+00  0.00000000000E+00  0.91755445648E+03  0.91755445650E+03  0.50400001928E-02 0.  1.
        1   -1    0    0  501    0  0.00000000000E+00  0.00000000000E+00 -0.19482114095E+04  0.19482114096E+04  0.50400001928E-02 0. -1.
    10030    2    1    2    0    0  0.00000000000E+00  0.00000000000E+00 -0.10306569531E+04  0.28657658661E+04  0.26740157524E+04 0.  0.
        5    1    3    3  502    0 -0.12360772844E+04 -0.17178640251E+03 -0.11647516984E+01  0.12479667735E+04  0.46999998093E+01 0. -1.
       -5    1    3    3    0  502  0.12360772844E+04  0.17178640251E+03 -0.10294922014E+04  0.16177990925E+04  0.46999998093E+01 0.  1.
</event>
<event>
 5   0  0.1954502E-05  0.2383124E+04  0.7818609E-02  0.8445849E-01
       -1   -1    0    0    0  501  0.00000000000E+00  0.00000000000E+00  0.64099043863E+03  0.64099043865E+03  0.50400001928E-02 0. -1.
        1   -1    0    0  501    0  0.00000000000E+00  0.00000000000E+00 -0.22150401343E+04  0.22150401343E+04  0.50400001928E-02 0.  1.
    10030    2    1    2    0    0  0.00000000000E+00  0.00000000000E+00 -0.15740496957E+04  0.28560305730E+04  0.23831236202E+04 0.  0.
        4    1    3    3  502    0  0.85943447349E+03 -0.68957140940E+03 -0.24350677075E+03  0.11284651094E+04  0.12699999809E+01 0.  1.
       -4    1    3    3    0  502 -0.85943447349E+03  0.68957140940E+03 -0.13305429250E+04  0.17275654636E+04  0.12699999809E+01 0. -1.
</event>
<event>
 5   0  0.1698625E-05  0.2092610E+04  0.7818609E-02  0.8564506E-01
       -3   -1    0    0    0  501  0.00000000000E+00  0.00000000000E+00  0.10485435789E+04  0.10485435837E+04  0.10100000352E+00 0. -1.
        3   -1    0    0  501    0  0.00000000000E+00  0.00000000000E+00 -0.10440713309E+04  0.10440713358E+04  0.10100000352E+00 0.  1.
    10030    2    1    2    0    0  0.00000000000E+00  0.00000000000E+00  0.44722479706E+01  0.20926149195E+04  0.20926101406E+04 0.  0.
        4    1    3    3  502    0 -0.69162269384E+03 -0.12982705059E+03 -0.77207544894E+03  0.10446526339E+04  0.12699999809E+01 0.  1.
       -4    1    3    3    0  502  0.69162269384E+03  0.12982705059E+03  0.77654769691E+03  0.10479622857E+04  0.12699999809E+01 0. -1.
</event>
<event>
 5   0  0.5182179E-05  0.1603137E+04  0.7818609E-02  0.8818623E-01
       -2   -1    0    0    0  501  0.00000000000E+00  0.00000000000E+00  0.30033920257E+03  0.30033920258E+03  0.25500000920E-02 0.  1.
        2   -1    0    0  501    0  0.00000000000E+00  0.00000000000E+00 -0.21392879427E+04  0.21392879427E+04  0.25500000920E-02 0. -1.
    10030    2    1    2    0    0  0.00000000000E+00  0.00000000000E+00 -0.18389487401E+04  0.24396271453E+04  0.16031369683E+04 0.  0.
        3    1    3    3  502    0  0.67413873970E+03 -0.42539043585E+03 -0.10476295035E+04  0.13164146953E+04  0.10100000352E+00 0. -1.
       -3    1    3    3    0  502 -0.67413873970E+03  0.42539043585E+03 -0.79131923663E+03  0.11232124500E+04  0.10100000352E+00 0.  1.
</event>
<event>
 5   0  0.5036452E-05  0.1907838E+04  0.7818609E-02  0.8650965E-01
        2   -1    0    0  501    0  0.00000000000E+00  0.00000000000E+00  0.18366011637E+04  0.18366011637E+04  0.25500000920E-02 0. -1.
       -2   -1    0    0    0  501  0.00000000000E+00  0.00000000000E+00 -0.49545926603E+03  0.49545926604E+03  0.25500000920E-02 0.  1.
    10030    2    1    2    0    0  0.00000000000E+00  0.00000000000E+00  0.13411418977E+04  0.23320604297E+04  0.19078375870E+04 0.  0.
        2    1    3    3  502    0  0.33787963683E+01 -0.46548319358E+03 -0.34720265458E+03  0.58071998685E+03  0.25500000920E-02 0. -1.
       -2    1    3    3    0  502 -0.33787963683E+01  0.46548319358E+03  0.16883445523E+04  0.17513404429E+04  0.25500000920E-02 0.  1.
</event>
<event>
 5   0  0.4955675E-05  0.2357864E+04  0.7818609E-02  0.8455449E-01
        2   -1    0    0  501    0  0.00000000000E+00  0.00000000000E+00  0.14984315313E+04  0.14984315313E+04  0.25500000920E-02 0.  1.
       -2   -1    0    0    0  501  0.00000000000E+00  0.00000000000E+00 -0.92755723707E+03  0.92755723707E+03  0.25500000920E-02 0. -1.
    10030    2    1    2    0    0  0.00000000000E+00  0.00000000000E+00  0.57087429423E+03  0.24259887684E+04  0.23578642973E+04 0.  0.
        5    1    3    3  502    0 -0.71466399185E+03  0.52705526015E+03 -0.51242038745E+03  0.10252456349E+04  0.46999998093E+01 0. -1.
       -5    1    3    3    0  502  0.71466399185E+03 -0.52705526015E+03  0.10832946817E+04  0.14007431334E+04  0.46999998093E+01 0.  1.
</event>
<event>
 5   0  0.1954502E-05  0.2612619E+04  0.7818609E-02  0.8363927E-01
        1   -1    0    0  501    0  0.00000000000E+00  0.00000000000E+00  0.15586487951E+04  0.15586487951E+04  0.50400001928E-02 0.  1.
       -1   -1    0    0    0  501  0.00000000000E+00  0.00000000000E+00 -0.10948231503E+04  0.10948231504E+04  0.50400001928E-02 0. -1.
    10030    2    1    2    0    0  0.00000000000E+00  0.00000000000E+00  0.46382564473E+03  0.26534719454E+04  0.26126192100E+04 0.  0.
        4    1    3    3  502    0  0.11637393028E+04  0.56746188474E+03  0.55586428352E+02  0.12959142022E+04  0.12699999809E+01 0. -1.
       -4    1    3    3    0  502 -0.11637393028E+04 -0.56746188474E+03  0.40823921638E+03  0.13575577432E+04  0.12699999809E+01 0.  1.
</event>
<event>
 5   0  0.2163800E-05  0.2565123E+04  0.7818609E-02  0.8380146E-01
        1   -1    0    0  501    0  0.00000000000E+00  0.00000000000E+00  0.11837238104E+04  0.11837238104E+04  0.50400001928E-02 0. -1.
       -1   -1    0    0    0  501  0.00000000000E+00  0.00000000000E+00 -0.13896514003E+04  0.13896514003E+04  0.50400001928E-02 0.  1.
    10030    2    1    2    0    0  0.00000000000E+00  0.00000000000E+00 -0.20592758991E+03  0.25733752107E+04  0.25651225707E+04 0.  0.
        1    1    3    3  502    0  0.28572172523E+03  0.54390025617E+03  0.10264908962E+04  0.11963059612E+04  0.50400001928E-02 0. -1.
       -1    1    3    3    0  502 -0.28572172523E+03 -0.54390025617E+03 -0.12324184861E+04  0.13770692494E+04  0.50400001928E-02 0.  1.
</event>
<event>
 5   0  0.5036452E-05  0.2644686E+04  0.7818609E-02  0.8353179E-01
       -2   -1    0    0    0  501  0.00000000000E+00  0.00000000000E+00  0.11651670370E+04  0.11651670370E+04  0.25500000920E-02 0.  1.
        2   -1    0    0  501    0  0.00000000000E+00  0.00000000000E+00 -0.15007213687E+04  0.15007213687E+04  0.25500000920E-02 0. -1.
    10030    2    1    2    0    0  0.00000000000E+00  0.00000000000E+00 -0.33555433174E+03  0.26658884058E+04  0.26446860461E+04 0.  0.
        2    1    3    3  502    0 -0.63349056108E+03 -0.66839113195E+03 -0.11243497227E+04  0.14533476167E+04  0.25500000920E-02 0. -1.
       -2    1    3    3    0  502  0.63349056108E+03  0.66839113195E+03  0.78879539092E+03  0.12125407890E+04  0.25500000920E-02 0.  1.
</event>
<event>
 5   0  0.1954502E-05  0.2621498E+04  0.7818609E-02  0.8360935E-01
        1   -1    0    0  501    0  0.00000000000E+00  0.00000000000E+00  0.25226628910E+04  0.25226628910E+04  0.50400001928E-02 0.  1.
       -1   -1    0    0    0  501  0.00000000000E+00  0.00000000000E+00 -0.68105122229E+03  0.68105122231E+03  0.50400001928E-02 0. -1.
    10030    2    1    2    0    0  0.00000000000E+00  0.00000000000E+00  0.18416116687E+04  0.32037141133E+04  0.26214977744E+04 0.  0.
        4    1    3    3  502    0  0.17185163911E+03 -0.33289744384E+02 -0.66670185135E+03  0.68929976385E+03  0.12699999809E+01 0. -1.
       -4    1    3    3    0  502 -0.17185163911E+03  0.33289744384E+02  0.25083135200E+04  0.25144143494E+04  0.12699999809E+01 0.  1.
</event>
<event>
 5   0  0.5049803E-05  0.2624160E+04  0.7818609E-02  0.8360041E-01
        2   -1    0    0  501    0  0.00000000000E+00  0.00000000000E+00  0.13685163865E+04  0.13685163865E+04  0.25500000920E-02 0.  1.
       -2   -1    0    0    0  501  0.00000000000E+00  0.00000000000E+00 -0.12579707292E+04  0.12579707292E+04  0.25500000920E-02 0. -1.
    10030    2    1    2    0    0  0.00000000000E+00  0.00000000000E+00  0.11054565728E+03  0.26264871157E+04  0.26241597182E+04 0.  0.
        4    1    3    3  502    0  0.77200199081E+03  0.76669706345E+03  0.78923111236E+03  0.13441349718E+04  0.12699999809E+01 0.  1.
       -4    1    3    3    0  502 -0.77200199081E+03 -0.76669706345E+03 -0.67868545508E+03  0.12823521438E+04  0.12699999809E+01 0. -1.
</event>
<event>
 5   0  0.1993815E-05  0.2548898E+04  0.7818609E-02  0.8385769E-01
       -1   -1    0    0    0  501  0.00000000000E+00  0.00000000000E+00  0.13109153521E+04  0.13109153521E+04  0.50400001928E-02 0.  1.
        1   -1    0    0  501    0  0.00000000000E+00  0.00000000000E+00 -0.12389971797E+04  0.12389971798E+04  0.50400001928E-02 0. -1.
    10030    2    1    2    0    0  0.00000000000E+00  0.00000000000E+00  0.71918172364E+02  0.25499125319E+04  0.25488981338E+04 0.  0.
        5    1    3    3  502    0 -0.33722813739E+03 -0.39478090105E+03 -0.11283870759E+04  0.12421168462E+04  0.46999998093E+01 0. -1.
       -5    1    3    3    0  502  0.33722813739E+03  0.39478090105E+03  0.12003052483E+04  0.13077956857E+04  0.46999998093E+01 0.  1.
</event>
<event>
 5   0  0.4955675E-05  0.2590534E+04  0.7818609E-02  0.8371424E-01
       -2   -1    0    0    0  501  0.00000000000E+00  0.00000000000E+00  0.72220782701E+03  0.72220782701E+03  0.25500000920E-02 0. -1.
        2   -1    0    0  501    0  0.00000000000E+00  0.00000000000E+00 -0.23230380744E+04  0.23230380744E+04  0.25500000920E-02 0.  1.
    10030    2    1    2    0    0  0.00000000000E+00  0.00000000000E+00 -0.16008302474E+04  0.30452459015E+04  0.25905337518E+04 0.  0.
        5    1    3    3  502    0  0.31362905769E+03  0.25092293977E+03 -0.22479715960E+04  0.22835769954E+04  0.46999998093E+01 0.  1.
       -5    1    3    3    0  502 -0.31362905769E+03 -0.25092293977E+03  0.64714134853E+03  0.76166890609E+03  0.46999998093E+01 0. -1.
</event>
<event>
 5   0  0.5170532E-05  0.2599681E+04  0.7818609E-02  0.8368310E-01
       -2   -1    0    0    0  501  0.00000000000E+00  0.00000000000E+00  0.47793978139E+03  0.47793978140E+03  0.25500000920E-02 0.  1.
        2   -1    0    0  501    0  0.00000000000E+00  0.00000000000E+00 -0.35351427650E+04  0.35351427650E+04  0.25500000920E-02 0. -1.
    10030    2    1    2    0    0  0.00000000000E+00  0.00000000000E+00 -0.30572029836E+04  0.40130825464E+04  0.25996810268E+04 0.  0.
        1    1    3    3  502    0  0.13410133919E+03  0.25381064516E+03  0.42839751489E+03  0.51568153308E+03  0.50400001928E-02 0.  1.
       -1    1    3    3    0  502 -0.13410133919E+03 -0.25381064516E+03 -0.34856004985E+04  0.34974010133E+04  0.50400001928E-02 0. -1.
</event>
<event>
 5   0  0.2159405E-05  0.2616669E+04  0.7818609E-02  0.8362561E-01
        1   -1    0    0  501    0  0.00000000000E+00  0.00000000000E+00  0.16003791991E+04  0.16003791991E+04  0.50400001928E-02 0.  1.
       -1   -1    0    0    0  501  0.00000000000E+00  0.00000000000E+00 -0.10695832265E+04  0.10695832266E+04  0.50400001928E-02 0. -1.
    10030    2    1    2    0    0  0.00000000000E+00  0.00000000000E+00  0.53079597260E+03  0.26699624257E+04  0.26166686818E+04 0.  0.
        3    1    3    3  502    0 -0.49938328939E+03  0.11248654709E+04 -0.18752630289E+03  0.12449386017E+04  0.10100000352E+00 0. -1.
       -3    1    3    3    0  502  0.49938328939E+03 -0.11248654709E+04  0.71832227548E+03  0.14250238240E+04  0.10100000352E+00 0.  1.
</event>
<event>
 5   0  0.1954502E-05  0.2456851E+04  0.7818609E-02  0.8418521E-01
       -1   -1    0    0    0  501  0.00000000000E+00  0.00000000000E+00  0.14296916942E+04  0.14296916942E+04  0.50400001928E-02 0. -1.
        1   -1    0    0  501    0  0.00000000000E+00  0.00000000000E+00 -0.10554928260E+04  0.10554928260E+04  0.50400001928E-02 0.  1.
    10030    2    1    2    0    0  0.00000000000E+00  0.00000000000E+00  0.37419886826E+03  0.24851845202E+04  0.24568510957E+04 0.  0.
        4    1    3    3  502    0 -0.59898751741E+03  0.12724491931E+03 -0.89009966579E+03  0.10803963826E+04  0.12699999809E+01 0.  1.
       -4    1    3    3    0  502  0.59898751741E+03 -0.12724491931E+03  0.12642985341E+04  0.14047881376E+04  0.12699999809E+01 0. -1.
</event>
<event>
 5   0  0.1954502E-05  0.1331103E+04  0.7818609E-02  0.9005257E-01
       -1   -1    0    0    0  501  0.00000000000E+00  0.00000000000E+00  0.12176544002E+04  0.12176544002E+04  0.50400001928E-02 0.  1.
        1   -1    0    0  501    0  0.00000000000E+00  0.00000000000E+00 -0.36378060443E+03  0.36378060446E+03  0.50400001928E-02 0. -1.
    10030    2    1    2    0    0  0.00000000000E+00  0.00000000000E+00  0.85387379579E+03  0.15814350047E+04  0.13311033825E+04 0.  0.
        4    1    3    3  502    0 -0.14130216983E+03 -0.35581056282E+03  0.10737388471E+04  0.11399492026E+04  0.12699999809E+01 0.  1.
       -4    1    3    3    0  502  0.14130216983E+03  0.35581056282E+03 -0.21986505127E+03  0.44148580213E+03  0.12699999809E+01 0. -1.
</event>
<event>
 5   0  0.1954502E-05  0.2583722E+04  0.7818609E-02  0.8373751E-01
       -1   -1    0    0    0  501  0.00000000000E+00  0.00000000000E+00  0.12480465973E+04  0.12480465974E+04  0.50400001928E-02 0. -1.
        1   -1    0    0  501    0  0.00000000000E+00  0.00000000000E+00 -0.13372138294E+04  0.13372138295E+04  0.50400001928E-02 0.  1.
    10030    2    1    2    0    0  0.00000000000E+00  0.00000000000E+00 -0.89167232099E+02  0.25852604268E+04  0.25837222527E+04 0.  0.
        4    1    3    3  502    0 -0.10250610128E+03 -0.12725823943E+04  0.15284098321E+03  0.12858209168E+04  0.12699999809E+01 0. -1.
       -4    1    3    3    0  502  0.10250610128E+03  0.12725823943E+04 -0.24200821531E+03  0.12994395100E+04  0.12699999809E+01 0.  1.
</event>
<event>
 5   0  0.2159405E-05  0.2021471E+04  0.7818609E-02  0.8596648E-01
        1   -1    0    0  501    0  0.00000000000E+00  0.00000000000E+00  0.10567638408E+04  0.10567638408E+04  0.50400001928E-02 0. -1.
       -1   -1    0    0    0  501  0.00000000000E+00  0.00000000000E+00 -0.96671189003E+03  0.96671189004E+03  0.50400001928E-02 0.  1.
    10030    2    1    2    0    0  0.00000000000E+00  0.00000000000E+00  0.90051950786E+02  0.20234757309E+04  0.20214709198E+04 0.  0.
        3    1    3    3  502    0 -0.95284863776E+03 -0.27586249211E+03  0.23903645824E+03  0.10203720300E+04  0.10100000352E+00 0. -1.
       -3    1    3    3    0  502  0.95284863776E+03  0.27586249211E+03 -0.14898450746E+03  0.10031037009E+04  0.10100000352E+00 0.  1.
</event>
<event>
 5   0  0.4955675E-05  0.2561834E+04  0.7818609E-02  0.8381282E-01
        2   -1    0    0  501    0  0.00000000000E+00  0.00000000000E+00  0.20005545928E+04  0.20005545928E+04  0.25500000920E-02 0.  1.
       -2   -1    0    0    0  501  0.00000000000E+00  0.00000000000E+00 -0.82014692195E+03  0.82014692196E+03  0.25500000920E-02 0. -1.
    10030    2    1    2    0    0  0.00000000000E+00  0.00000000000E+00  0.11804076709E+04  0.28207015148E+04  0.25618342581E+04 0.  0.
        5    1    3    3  502    0 -0.45632683462E+03  0.47235261779E+03  0.18010435936E+04  0.19170631944E+04  0.46999998093E+01 0.  1.
       -5    1    3    3    0  502  0.45632683462E+03 -0.47235261779E+03 -0.62063592267E+03  0.90363832037E+03  0.46999998093E+01 0. -1.
</event>
<event>
 5   0  0.5036452E-05  0.2753429E+04  0.7818609E-02  0.8317875E-01
       -2   -1    0    0    0  501  0.00000000000E+00  0.00000000000E+00  0.15350481508E+04  0.15350481508E+04  0.25500000920E-02 0.  1.
        2   -1    0    0  501    0  0.00000000000E+00  0.00000000000E+00 -0.12347118950E+04  0.12347118950E+04  0.25500000920E-02 0. -1.
    10030    2    1    2    0    0  0.00000000000E+00  0.00000000000E+00  0.30033625579E+03  0.27697600458E+04  0.27534285618E+04 0.  0.
        2    1    3    3  502    0 -0.20637401269E+03  0.20812552952E+02 -0.12189036004E+04  0.12364260522E+04  0.25500000920E-02 0. -1.
       -2    1    3    3    0  502  0.20637401269E+03 -0.20812552952E+02  0.15192398562E+04  0.15333339936E+04  0.25500000920E-02 0.  1.
</event>
<event>
 5   0  0.2072710E-05  0.2596978E+04  0.7818609E-02  0.8369229E-01
       -1   -1    0    0    0  501  0.00000000000E+00  0.00000000000E+00  0.15996999931E+04  0.15996999931E+04  0.50400001928E-02 0.  1.
        1   -1    0    0  501    0  0.00000000000E+00  0.00000000000E+00 -0.10539933253E+04  0.10539933253E+04  0.50400001928E-02 0. -1.
    10030    2    1    2    0    0  0.00000000000E+00  0.00000000000E+00  0.54570666784E+03  0.26536933184E+04  0.25969775626E+04 0.  0.
        2    1    3    3  502    0 -0.87953736180E+02  0.12811848326E+04  0.46914935096E+03  0.13672130590E+04  0.25500000920E-02 0.  1.
       -2    1    3    3    0  502  0.87953736180E+02 -0.12811848326E+04  0.76557316883E+02  0.12864802594E+04  0.25500000920E-02 0. -1.
</event>
<event>
 5   0  0.2163800E-05  0.2597457E+04  0.7818609E-02  0.8369065E-01
        1   -1    0    0  501    0  0.00000000000E+00  0.00000000000E+00  0.14493105273E+04  0.14493105273E+04  0.50400001928E-02 0.  1.
       -1   -1    0    0    0  501  0.00000000000E+00  0.00000000000E+00 -0.11637921867E+04  0.11637921867E+04  0.50400001928E-02 0. -1.
    10030    2    1    2    0    0  0.00000000000E+00  0.00000000000E+00  0.28551834063E+03  0.26131027140E+04  0.25974574243E+04 0.  0.
        1    1    3    3  502    0 -0.96153187217E+03 -0.76444657722E+03 -0.28141318182E+03  0.12602045427E+04  0.50400001928E-02 0.  1.
       -1    1    3    3    0  502  0.96153187217E+03  0.76444657722E+03  0.56693152245E+03  0.13528981713E+04  0.50400001928E-02 0. -1.
</event>
<event>
 5   0  0.2159405E-05  0.2565357E+04  0.7818609E-02  0.8380065E-01
        1   -1    0    0  501    0  0.00000000000E+00  0.00000000000E+00  0.10878820449E+04  0.10878820449E+04  0.50400001928E-02 0.  1.
       -1   -1    0    0    0  501  0.00000000000E+00  0.00000000000E+00 -0.15123552545E+04  0.15123552545E+04  0.50400001928E-02 0. -1.
    10030    2    1    2    0    0  0.00000000000E+00  0.00000000000E+00 -0.42447320954E+03  0.26002372994E+04  0.25653569942E+04 0.  0.
        3    1    3    3  502    0  0.11103132719E+04 -0.17574350539E+03 -0.83835945714E+03  0.14023294659E+04  0.10100000352E+00 0. -1.
       -3    1    3    3    0  502 -0.11103132719E+04  0.17574350539E+03  0.41388624760E+03  0.11979078335E+04  0.10100000352E+00 0.  1.
</event>
<event>
 5   0  0.2163800E-05  0.2606407E+04  0.7818609E-02  0.8366028E-01
        1   -1    0    0  501    0  0.00000000000E+00  0.00000000000E+00  0.16674336108E+04  0.16674336108E+04  0.50400001928E-02 0.  1.
       -1   -1    0    0    0  501  0.00000000000E+00  0.00000000000E+00 -0.10185348621E+04  0.10185348621E+04  0.50400001928E-02 0. -1.
    10030    2    1    2    0    0  0.00000000000E+00  0.00000000000E+00  0.64889874869E+03  0.26859684729E+04  0.26064069236E+04 0.  0.
        1    1    3    3  502    0 -0.29863775748E+03  0.59672589648E+03 -0.82912837033E+03  0.10642932680E+04  0.50400001928E-02 0. -1.
       -1    1    3    3    0  502  0.29863775748E+03 -0.59672589648E+03  0.14780271190E+04  0.16216752049E+04  0.50400001928E-02 0.  1.
</event>
<event>
 5   0  0.1954502E-05  0.2273851E+04  0.7818609E-02  0.8488303E-01
       -1   -1    0    0    0  501  0.00000000000E+00  0.00000000000E+00  0.87771757418E+03  0.87771757419E+03  0.50400001928E-02 0.  1.
        1   -1    0    0  501    0  0.00000000000E+00  0.00000000000E+00 -0.14726833748E+04  0.14726833748E+04  0.50400001928E-02 0. -1.
    10030    2    1    2    0    0  0.00000000000E+00  0.00000000000E+00 -0.59496580058E+03  0.23504009490E+04  0.22738514281E+04 0.  0.
        4    1    3    3  502    0 -0.83029226988E+03  0.33301273291E+03 -0.10227562612E+04  0.13587916384E+04  0.12699999809E+01 0.  1.
       -4    1    3    3    0  502  0.83029226988E+03 -0.33301273291E+03  0.42779046066E+03  0.99160931058E+03  0.12699999809E+01 0. -1.
</event>
<event>
 5   0  0.1954502E-05  0.2659426E+04  0.7818609E-02  0.8348291E-01
        1   -1    0    0  501    0  0.00000000000E+00  0.00000000000E+00  0.90017396641E+03  0.90017396642E+03  0.50400001928E-02 0.  1.
       -1   -1    0    0    0  501  0.00000000000E+00  0.00000000000E+00 -0.19642173477E+04  0.19642173477E+04  0.50400001928E-02 0. -1.
    10030    2    1    2    0    0  0.00000000000E+00  0.00000000000E+00 -0.10640433813E+04  0.28643913141E+04  0.26594264952E+04 0.  0.
        4    1    3    3  502    0  0.10089286590E+04 -0.75105800118E+03 -0.67367508231E+02  0.12595892799E+04  0.12699999809E+01 0. -1.
       -4    1    3    3    0  502 -0.10089286590E+04  0.75105800118E+03 -0.99667587304E+03  0.16048020342E+04  0.12699999809E+01 0.  1.
</event>
<event>
 5   0  0.2159405E-05  0.2474051E+04  0.7818609E-02  0.8412289E-01
       -1   -1    0    0    0  501  0.00000000000E+00  0.00000000000E+00  0.79217929881E+03  0.79217929883E+03  0.50400001928E-02 0.  1.
        1   -1    0    0  501    0  0.00000000000E+00  0.00000000000E+00 -0.19316738362E+04  0.19316738362E+04  0.50400001928E-02 0. -1.
    10030    2    1    2    0    0  0.00000000000E+00  0.00000000000E+00 -0.11394945374E+04  0.27238531350E+04  0.24740509494E+04 0.  0.
        3    1    3    3  502    0 -0.13516527807E+03  0.12123912133E+04 -0.79556645186E+03  0.14563955836E+04  0.10100000352E+00 0.  1.
       -3    1    3    3    0  502  0.13516527807E+03 -0.12123912133E+04 -0.34392808551E+03  0.12674575514E+04  0.10100000352E+00 0. -1.
</event>
<event>
 5   0  0.5036452E-05  0.2574643E+04  0.7818609E-02  0.8376866E-01
       -2   -1    0    0    0  501  0.00000000000E+00  0.00000000000E+00  0.86462841583E+03  0.86462841583E+03  0.25500000920E-02 0. -1.
        2   -1    0    0  501    0  0.00000000000E+00  0.00000000000E+00 -0.19166580962E+04  0.19166580962E+04  0.25500000920E-02 0.  1.
    10030    2    1    2    0    0  0.00000000000E+00  0.00000000000E+00 -0.10520296804E+04  0.27812865120E+04  0.25746433178E+04 0.  0.
        2    1    3    3  502    0 -0.85885466253E+03  0.87569194337E+03 -0.10384238064E+03  0.12309553002E+04  0.25500000920E-02 0. -1.
       -2    1    3    3    0  502  0.85885466253E+03 -0.87569194337E+03 -0.94818729974E+03  0.15503312119E+04  0.25500000920E-02 0.  1.
</event>
<event>
 5   0  0.1698625E-05  0.2555030E+04  0.7818609E-02  0.8383639E-01
       -3   -1    0    0    0  501  0.00000000000E+00  0.00000000000E+00  0.13513114041E+04  0.13513114079E+04  0.10100000352E+00 0.  1.
        3   -1    0    0  501    0  0.00000000000E+00  0.00000000000E+00 -0.12077485416E+04  0.12077485458E+04  0.10100000352E+00 0. -1.
    10030    2    1    2    0    0  0.00000000000E+00  0.00000000000E+00  0.14356286254E+03  0.25590599537E+04  0.25550298533E+04 0.  0.
        4    1    3    3  502    0  0.12236505995E+04 -0.22739346808E+03  0.36035773383E+03  0.12957190622E+04  0.12699999809E+01 0. -1.
       -4    1    3    3    0  502 -0.12236505995E+04  0.22739346808E+03 -0.21679487129E+03  0.12633408915E+04  0.12699999809E+01 0.  1.
</event>
<event>
 5   0  0.5170532E-05  0.2498519E+04  0.7818609E-02  0.8403513E-01
       -2   -1    0    0    0  501  0.00000000000E+00  0.00000000000E+00  0.79365345806E+03  0.79365345806E+03  0.25500000920E-02 0. -1.
        2   -1    0    0  501    0  0.00000000000E+00  0.00000000000E+00 -0.19664112962E+04  0.19664112962E+04  0.25500000920E-02 0.  1.
    10030    2    1    2    0    0  0.00000000000E+00  0.00000000000E+00 -0.11727578381E+04  0.27600647542E+04  0.24985188614E+04 0.  0.
        1    1    3    3  502    0  0.15168187390E+03 -0.82588228014E+03  0.43541173017E+03  0.94587118907E+03  0.50400001928E-02 0. -1.
       -1    1    3    3    0  502 -0.15168187390E+03  0.82588228014E+03 -0.16081695683E+04  0.18141935652E+04  0.50400001928E-02 0.  1.
</event>
<event>
 5   0  0.2159405E-05  0.2596364E+04  0.7818609E-02  0.8369437E-01
       -1   -1    0    0    0  501  0.00000000000E+00  0.00000000000E+00  0.10266254039E+04  0.10266254039E+04  0.50400001928E-02 0. -1.
        1   -1    0    0  501    0  0.00000000000E+00  0.00000000000E+00 -0.16415694870E+04  0.16415694871E+04  0.50400001928E-02 0.  1.
    10030    2    1    2    0    0  0.00000000000E+00  0.00000000000E+00 -0.61494408312E+03  0.26681948910E+04  0.25963643332E+04 0.  0.
        3    1    3    3  502    0 -0.11491333628E+04 -0.59794651367E+03 -0.22009379938E+03  0.13139592115E+04  0.10100000352E+00 0. -1.
       -3    1    3    3    0  502  0.11491333628E+04  0.59794651367E+03 -0.39485028374E+03  0.13542356795E+04  0.10100000352E+00 0.  1.
</event>
<event>
 5   0  0.5170532E-05  0.2606709E+04  0.7818609E-02  0.8365926E-01
        2   -1    0    0  501    0  0.00000000000E+00  0.00000000000E+00  0.19799790665E+04  0.19799790665E+04  0.25500000920E-02 0.  1.
       -2   -1    0    0    0  501  0.00000000000E+00  0.00000000000E+00 -0.85795479263E+03  0.85795479264E+03  0.25500000920E-02 0. -1.
    10030    2    1    2    0    0  0.00000000000E+00  0.00000000000E+00  0.11220242739E+04  0.28379338592E+04  0.26067086753E+04 0.  0.
        1    1    3    3  502    0  0.28143679126E+03  0.11425430421E+04 -0.49168521176E+02  0.11777218746E+04  0.50400001928E-02 0. -1.
       -1    1    3    3    0  502 -0.28143679126E+03 -0.11425430421E+04  0.11711927951E+04  0.16602119846E+04  0.50400001928E-02 0.  1.
</event>
<event>
 5   0  0.2163800E-05  0.1855851E+04  0.7818609E-02  0.8677150E-01
       -1   -1    0    0    0  501  0.00000000000E+00  0.00000000000E+00  0.50636376184E+03  0.50636376187E+03  0.50400001928E-02 0.  1.
        1   -1    0    0  501    0  0.00000000000E+00  0.00000000000E+00 -0.17004489120E+04  0.17004489120E+04  0.50400001928E-02 0. -1.
    10030    2    1    2    0    0  0.00000000000E+00  0.00000000000E+00 -0.11940851502E+04  0.22068126739E+04  0.18558509724E+04 0.  0.
        1    1    3    3  502    0 -0.47156849866E+03 -0.30508828016E+03 -0.14753682370E+04  0.15786599198E+04  0.50400001928E-02 0. -1.
       -1    1    3    3    0  502  0.47156849866E+03  0.30508828016E+03  0.28128308676E+03  0.62815275415E+03  0.50400001928E-02 0.  1.
</event>
<event>
 5   0  0.4955675E-05  0.2551070E+04  0.7818609E-02  0.8385014E-01
        2   -1    0    0  501    0  0.00000000000E+00  0.00000000000E+00  0.19276096159E+04  0.19276096159E+04  0.25500000920E-02 0.  1.
       -2   -1    0    0    0  501  0.00000000000E+00  0.00000000000E+00 -0.84404481986E+03  0.84404481986E+03  0.25500000920E-02 0. -1.
    10030    2    1    2    0    0  0.00000000000E+00  0.00000000000E+00  0.10835647960E+04  0.27716544358E+04  0.25510695098E+04 0.  0.
        5    1    3    3  502    0 -0.18491356638E+03 -0.71517841509E+03 -0.58798389224E+03  0.94415059179E+03  0.46999998093E+01 0. -1.
       -5    1    3    3    0  502  0.18491356638E+03  0.71517841509E+03  0.16715486883E+04  0.18275038440E+04  0.46999998093E+01 0.  1.
</event>
<event>
 5   0  0.2072710E-05  0.2603241E+04  0.7818609E-02  0.8367101E-01
        1   -1    0    0  501    0  0.00000000000E+00  0.00000000000E+00  0.10447112969E+04  0.10447112969E+04  0.50400001928E-02 0. -1.
       -1   -1    0    0    0  501  0.00000000000E+00  0.00000000000E+00 -0.16217070770E+04  0.16217070770E+04  0.50400001928E-02 0.  1.
    10030    2    1    2    0    0  0.00000000000E+00  0.00000000000E+00 -0.57699578011E+03  0.26664183738E+04  0.26032408291E+04 0.  0.
        2    1    3    3  502    0  0.61614198988E+03 -0.95503340990E+03 -0.93832031878E+03  0.14738265795E+04  0.25500000920E-02 0.  1.
       -2    1    3    3    0  502 -0.61614198988E+03  0.95503340990E+03  0.36132453867E+03  0.11925917944E+04  0.25500000920E-02 0. -1.
</event>
<event>
 5   0  0.5182179E-05  0.2604697E+04  0.7818609E-02  0.8366608E-01
       -2   -1    0    0    0  501  0.00000000000E+00  0.00000000000E+00  0.13005110034E+04  0.13005110034E+04  0.25500000920E-02 0.  1.
        2   -1    0    0  501    0  0.00000000000E+00  0.00000000000E+00 -0.13041884350E+04  0.13041884350E+04  0.25500000920E-02 0. -1.
    10030    2    1    2    0    0  0.00000000000E+00  0.00000000000E+00 -0.36774316057E+01  0.26046994384E+04  0.26046968425E+04 0.  0.
        3    1    3    3  502    0 -0.13457192079E+03  0.77156128685E+03 -0.10423660518E+04  0.13038187824E+04  0.10100000352E+00 0. -1.
       -3    1    3    3    0  502  0.13457192079E+03 -0.77156128685E+03  0.10386886202E+04  0.13008806560E+04  0.10100000352E+00 0.  1.
</event>
<event>
 5   0  0.5036452E-05  0.2576638E+04  0.7818609E-02  0.8376180E-01
       -2   -1    0    0    0  501  0.00000000000E+00  0.00000000000E+00  0.10631659380E+04  0.10631659380E+04  0.25500000920E-02 0. -1.
        2   -1    0    0  501    0  0.00000000000E+00  0.00000000000E+00 -0.15611546543E+04  0.15611546543E+04  0.25500000920E-02 0.  1.
    10030    2    1    2    0    0  0.00000000000E+00  0.00000000000E+00 -0.49798871632E+03  0.26243205922E+04  0.25766384708E+04 0.  0.
        2    1    3    3  502    0  0.18840658786E+03 -0.11297164244E+04  0.35184641251E+03  0.11981452916E+04  0.25500000920E-02 0. -1.
       -2    1    3    3    0  502 -0.18840658786E+03  0.11297164244E+04 -0.84983512884E+03  0.14261753006E+04  0.25500000920E-02 0.  1.
</event>
<event>
 5   0  0.2072710E-05  0.2367390E+04  0.7818609E-02  0.8451814E-01
        1   -1    0    0  501    0  0.00000000000E+00  0.00000000000E+00  0.13103615974E+04  0.13103615975E+04  0.50400001928E-02 0.  1.
       -1   -1    0    0    0  501  0.00000000000E+00  0.00000000000E+00 -0.10692723852E+04  0.10692723852E+04  0.50400001928E-02 0. -1.
    10030    2    1    2    0    0  0.00000000000E+00  0.00000000000E+00  0.24108921222E+03  0.23796339827E+04  0.23673896771E+04 0.  0.
        2    1    3    3  502    0  0.10701455213E+03 -0.11782253255E+04  0.82052438098E+02  0.11859172124E+04  0.25500000920E-02 0.  1.
       -2    1    3    3    0  502 -0.10701455213E+03  0.11782253255E+04  0.15903677412E+03  0.11937167703E+04  0.25500000920E-02 0. -1.
</event>
<event>
 5   0  0.1698625E-05  0.2687947E+04  0.7818609E-02  0.8338926E-01
        4   -1    0    0  501    0  0.00000000000E+00  0.00000000000E+00  0.82782241778E+03  0.82782339196E+03  0.12699999809E+01 0. -1.
       -4   -1    0    0    0  501  0.00000000000E+00  0.00000000000E+00 -0.21819444443E+04  0.21819448139E+04  0.12699999809E+01 0.  1.
    10030    2    1    2    0    0  0.00000000000E+00  0.00000000000E+00 -0.13541220265E+04  0.30097682058E+04  0.26879468355E+04 0.  0.
        1    1    3    3  502    0 -0.33966568394E+02 -0.11231016666E+04  0.14862208512E+03  0.11334017847E+04  0.50400001928E-02 0. -1.
       -1    1    3    3    0  502  0.33966568394E+02  0.11231016666E+04 -0.15027441116E+04  0.18763664211E+04  0.50400001928E-02 0.  1.
</event>
<event>
 5   0  0.4955675E-05  0.2591810E+04  0.7818609E-02  0.8370988E-01
        2   -1    0    0  501    0  0.00000000000E+00  0.00000000000E+00  0.19305968800E+04  0.19305968800E+04  0.25500000920E-02 0. -1.
       -2   -1    0    0    0  501  0.00000000000E+00  0.00000000000E+00 -0.86987102451E+03  0.86987102451E+03  0.25500000920E-02 0.  1.
    10030    2    1    2    0    0  0.00000000000E+00  0.00000000000E+00  0.10607258555E+04  0.28004679045E+04  0.25918103988E+04 0.  0.
        5    1    3    3  502    0 -0.94968262775E+03  0.21247062833E+03 -0.39428002423E+03  0.10500093756E+04  0.46999998093E+01 0.  1.
       -5    1    3    3    0  502  0.94968262775E+03 -0.21247062833E+03  0.14550058797E+04  0.17504585289E+04  0.46999998093E+01 0. -1.
</event>
<event>
 5   0  0.5182179E-05  0.2600737E+04  0.7818609E-02  0.8367951E-01
        2   -1    0    0  501    0  0.00000000000E+00  0.00000000000E+00  0.89553921602E+03  0.89553921602E+03  0.25500000920E-02 0. -1.
       -2   -1    0    0    0  501  0.00000000000E+00  0.00000000000E+00 -0.18882010610E+04  0.18882010610E+04  0.25500000920E-02 0.  1.
    10030    2    1    2    0    0  0.00000000000E+00  0.00000000000E+00 -0.99266184495E+03  0.27837402770E+04  0.26007368939E+04 0.  0.
        3    1    3    3  502    0  0.41581489911E+03 -0.11820310720E+04 -0.12422114809E+03  0.12591784581E+04  0.10100000352E+00 0.  1.
       -3    1    3    3    0  502 -0.41581489911E+03  0.11820310720E+04 -0.86844069687E+03  0.15245618189E+04  0.10100000352E+00 0. -1.
</event>
<event>
 5   0  0.5170532E-05  0.2661938E+04  0.7818609E-02  0.8347461E-01
       -2   -1    0    0    0  501  0.00000000000E+00  0.00000000000E+00  0.11693252428E+04  0.11693252428E+04  0.25500000920E-02 0.  1.
        2   -1    0    0  501    0  0.00000000000E+00  0.00000000000E+00 -0.15149580924E+04  0.15149580924E+04  0.25500000920E-02 0. -1.
    10030    2    1    2    0    0  0.00000000000E+00  0.00000000000E+00 -0.34563284967E+03  0.26842833352E+04  0.26619381955E+04 0.  0.
        1    1    3    3  502    0  0.52394619156E+03  0.46224482483E+03  0.96951624547E+03  0.11950529863E+04  0.50400001928E-02 0.  1.
       -1    1    3    3    0  502 -0.52394619156E+03 -0.46224482483E+03 -0.13151490951E+04  0.14892303489E+04  0.50400001928E-02 0. -1.
</event>
<event>
 5   0  0.1993815E-05  0.2558308E+04  0.7818609E-02  0.8382503E-01
        1   -1    0    0  501    0  0.00000000000E+00  0.00000000000E+00  0.21271979441E+04  0.21271979441E+04  0.50400001928E-02 0.  1.
       -1   -1    0    0    0  501  0.00000000000E+00  0.00000000000E+00 -0.76919707238E+03  0.76919707240E+03  0.50400001928E-02 0. -1.
    10030    2    1    2    0    0  0.00000000000E+00  0.00000000000E+00  0.13580008717E+04  0.28963950165E+04  0.25583075898E+04 0.  0.
        5    1    3    3  502    0 -0.62749913308E+03  0.10976998005E+04  0.45972396387E+03  0.13453877608E+04  0.46999998093E+01 0. -1.
       -5    1    3    3    0  502  0.62749913308E+03 -0.10976998005E+04  0.89827690781E+03  0.15510072557E+04  0.46999998093E+01 0.  1.
</event>
<event>
 5   0  0.2163800E-05  0.1603028E+04  0.7818609E-02  0.8818690E-01
       -1   -1    0    0    0  501  0.00000000000E+00  0.00000000000E+00  0.64254170758E+03  0.64254170760E+03  0.50400001928E-02 0. -1.
        1   -1    0    0  501    0  0.00000000000E+00  0.00000000000E+00 -0.99981784400E+03  0.99981784401E+03  0.50400001928E-02 0.  1.
    10030    2    1    2    0    0  0.00000000000E+00  0.00000000000E+00 -0.35727613642E+03  0.16423595516E+04  0.16030279658E+04 0.  0.
        1    1    3    3  502    0  0.37417753391E+03  0.10387736886E+03  0.53972544736E+03  0.66490818403E+03  0.50400001928E-02 0. -1.
       -1    1    3    3    0  502 -0.37417753391E+03 -0.10387736886E+03 -0.89700158378E+03  0.97745136758E+03  0.50400001928E-02 0.  1.
</event>
<event>
 5   0  0.5036452E-05  0.2624631E+04  0.7818609E-02  0.8359883E-01
       -2   -1    0    0    0  501  0.00000000000E+00  0.00000000000E+00  0.16051644057E+04  0.16051644057E+04  0.25500000920E-02 0.  1.
        2   -1    0    0  501    0  0.00000000000E+00  0.00000000000E+00 -0.10728942488E+04  0.10728942488E+04  0.25500000920E-02 0. -1.
    10030    2    1    2    0    0  0.00000000000E+00  0.00000000000E+00  0.53227015693E+03  0.26780586545E+04  0.26246307620E+04 0.  0.
        2    1    3    3  502    0  0.12463707829E+04  0.24006670218E+03  0.60623610306E+03  0.14066251678E+04  0.25500000920E-02 0.  1.
       -2    1    3    3    0  502 -0.12463707829E+04 -0.24006670218E+03 -0.73965946128E+02  0.12714334867E+04  0.25500000920E-02 0. -1.
</event>
<event>
 5   0  0.2072710E-05  0.2556867E+04  0.7818609E-02  0.8383002E-01
       -1   -1    0    0    0  501  0.00000000000E+00  0.00000000000E+00  0.86753607972E+03  0.86753607974E+03  0.50400001928E-02 0. -1.
        1   -1    0    0  501    0  0.00000000000E+00  0.00000000000E+00 -0.18839475423E+04  0.18839475423E+04  0.50400001928E-02 0.  1.
    10030    2    1    2    0    0  0.00000000000E+00  0.00000000000E+00 -0.10164114625E+04  0.27514836220E+04  0.25568671966E+04 0.  0.
        2    1    3    3  502    0 -0.19240228562E+03  0.87904545323E+02 -0.18649845521E+04  0.18769425213E+04  0.25500000920E-02 0.  1.
       -2    1    3    3    0  502  0.19240228562E+03 -0.87904545323E+02  0.84857308954E+03  0.87454110075E+03  0.25500000920E-02 0. -1.
</event>
<event>
 5   0  0.5182179E-05  0.2615419E+04  0.7818609E-02  0.8362983E-01
       -2   -1    0    0    0  501  0.00000000000E+00  0.00000000000E+00  0.14794383989E+04  0.14794383989E+04  0.25500000920E-02 0.  1.
        2   -1    0    0  501    0  0.00000000000E+00  0.00000000000E+00 -0.11559144444E+04  0.11559144444E+04  0.25500000920E-02 0. -1.
    10030    2    1    2    0    0  0.00000000000E+00  0.00000000000E+00  0.32352395458E+03  0.26353528433E+04  0.26154190600E+04 0.  0.
        3    1    3    3  502    0  0.28320369737E+03  0.12176051300E+03 -0.11187797427E+04  0.11604732136E+04  0.10100000352E+00 0. -1.
       -3    1    3    3    0  502 -0.28320369737E+03 -0.12176051300E+03  0.14423036972E+04  0.14748796297E+04  0.10100000352E+00 0.  1.
</event>
<event>
 5   0  0.4955675E-05  0.2433640E+04  0.7818609E-02  0.8427015E-01
       -2   -1    0    0    0  501  0.00000000000E+00  0.00000000000E+00  0.93567455597E+03  0.93567455598E+03  0.25500000920E-02 0.  1.
        2   -1    0    0  501    0  0.00000000000E+00  0.00000000000E+00 -0.15824426445E+04  0.15824426445E+04  0.25500000920E-02 0. -1.
    10030    2    1    2    0    0  0.00000000000E+00  0.00000000000E+00 -0.64676808853E+03  0.25181172005E+04  0.24336403340E+04 0.  0.
        5    1    3    3  502    0 -0.22538784739E+03 -0.92565552381E+03 -0.11066217673E+04  0.14602300012E+04  0.46999998093E+01 0. -1.
       -5    1    3    3    0  502  0.22538784739E+03  0.92565552381E+03  0.45985367878E+03  0.10578871993E+04  0.46999998093E+01 0.  1.
</event>
<event>
 5   0  0.1993815E-05  0.2598276E+04  0.7818609E-02  0.8368787E-01
       -1   -1    0    0    0  501  0.00000000000E+00  0.00000000000E+00  0.10180135947E+04  0.10180135947E+04  0.50400001928E-02 0.  1.
        1   -1    0    0  501    0  0.00000000000E+00  0.00000000000E+00 -0.16578947515E+04  0.16578947515E+04  0.50400001928E-02 0. -1.
    10030    2    1    2    0    0  0.00000000000E+00  0.00000000000E+00 -0.63988115684E+03  0.26759083462E+04  0.25982758865E+04 0.  0.
        5    1    3    3  502    0 -0.68146799551E+03 -0.50711556231E+03  0.69236890074E+03  0.10958839387E+04  0.46999998093E+01 0.  1.
       -5    1    3    3    0  502  0.68146799551E+03  0.50711556231E+03 -0.13322500576E+04  0.15800244075E+04  0.46999998093E+01 0. -1.
</event>
<event>
 5   0  0.1993815E-05  0.2408709E+04  0.7818609E-02  0.8436250E-01
        1   -1    0    0  501    0  0.00000000000E+00  0.00000000000E+00  0.96714857150E+03  0.96714857151E+03  0.50400001928E-02 0.  1.
       -1   -1    0    0    0  501  0.00000000000E+00  0.00000000000E+00 -0.14997384003E+04  0.14997384003E+04  0.50400001928E-02 0. -1.
    10030    2    1    2    0    0  0.00000000000E+00  0.00000000000E+00 -0.53258982881E+03  0.24668869718E+04  0.24087090746E+04 0.  0.
        5    1    3    3  502    0 -0.10459293560E+04 -0.29736118626E+03  0.26395128272E+03  0.11189657111E+04  0.46999998093E+01 0.  1.
       -5    1    3    3    0  502  0.10459293560E+04  0.29736118626E+03 -0.79654111153E+03  0.13479212608E+04  0.46999998093E+01 0. -1.
</event>
<event>
 5   0  0.5170532E-05  0.2554768E+04  0.7818609E-02  0.8383730E-01
        2   -1    0    0  501    0  0.00000000000E+00  0.00000000000E+00  0.20821497189E+04  0.20821497189E+04  0.25500000920E-02 0.  1.
       -2   -1    0    0    0  501  0.00000000000E+00  0.00000000000E+00 -0.78366601497E+03  0.78366601497E+03  0.25500000920E-02 0. -1.
    10030    2    1    2    0    0  0.00000000000E+00  0.00000000000E+00  0.12984837039E+04  0.28658157338E+04  0.25547680699E+04 0.  0.
        1    1    3    3  502    0  0.98915641898E+03 -0.38045776199E+03  0.14491786743E+04  0.17953543828E+04  0.50400001928E-02 0.  1.
       -1    1    3    3    0  502 -0.98915641898E+03  0.38045776199E+03 -0.15069497040E+03  0.10704613510E+04  0.50400001928E-02 0. -1.
</event>
<event>
 5   0  0.5049803E-05  0.2569048E+04  0.7818609E-02  0.8378791E-01
        2   -1    0    0  501    0  0.00000000000E+00  0.00000000000E+00  0.19745967980E+04  0.19745967980E+04  0.25500000920E-02 0. -1.
       -2   -1    0    0    0  501  0.00000000000E+00  0.00000000000E+00 -0.83561474701E+03  0.83561474702E+03  0.25500000920E-02 0.  1.
    10030    2    1    2    0    0  0.00000000000E+00  0.00000000000E+00  0.11389820510E+04  0.28102115451E+04  0.25690482314E+04 0.  0.
        4    1    3    3  502    0  0.41907234052E+03  0.93367203137E+03  0.14186599885E+04  0.17492749540E+04  0.12699999809E+01 0. -1.
       -4    1    3    3    0  502 -0.41907234052E+03 -0.93367203137E+03 -0.27967793744E+03  0.10609365911E+04  0.12699999809E+01 0.  1.
</event>
<event>
 5   0  0.2072710E-05  0.2555751E+04  0.7818609E-02  0.8383389E-01
       -1   -1    0    0    0  501  0.00000000000E+00  0.00000000000E+00  0.91231250689E+03  0.91231250690E+03  0.50400001928E-02 0. -1.
        1   -1    0    0  501    0  0.00000000000E+00  0.00000000000E+00 -0.17899198068E+04  0.17899198068E+04  0.50400001928E-02 0.  1.
    10030    2    1    2    0    0  0.00000000000E+00  0.00000000000E+00 -0.87760729989E+03  0.27022323137E+04  0.25557513385E+04 0.  0.
        2    1    3    3  502    0 -0.21461667126E+03  0.26308296500E+03 -0.17413587072E+04  0.17741485590E+04  0.25500000920E-02 0.  1.
       -2    1    3    3    0  502  0.21461667126E+03 -0.26308296500E+03  0.86375140734E+03  0.92808375471E+03  0.25500000920E-02 0. -1.
</event>
<event>
 5   0  0.1954502E-05  0.2607230E+04  0.7818609E-02  0.8365750E-01
        1   -1    0    0  501    0  0.00000000000E+00  0.00000000000E+00  0.11295644562E+04  0.11295644562E+04  0.50400001928E-02 0. -1.
       -1   -1    0    0    0  501  0.00000000000E+00  0.00000000000E+00 -0.15044840266E+04  0.15044840266E+04  0.50400001928E-02 0.  1.
    10030    2    1    2    0    0  0.00000000000E+00  0.00000000000E+00 -0.37491957041E+03  0.26340484828E+04  0.26072297032E+04 0.  0.
        4    1    3    3  502    0  0.10196224977E+04 -0.38821159967E+03  0.53337208941E+03  0.12144240127E+04  0.12699999809E+01 0. -1.
       -4    1    3    3    0  502 -0.10196224977E+04  0.38821159967E+03 -0.90829165982E+03  0.14196244701E+04  0.12699999809E+01 0.  1.
</event>
<event>
 5   0  0.4955675E-05  0.1722971E+04  0.7818609E-02  0.8748370E-01
        2   -1    0    0  501    0  0.00000000000E+00  0.00000000000E+00  0.21315260639E+04  0.21315260639E+04  0.25500000920E-02 0.  1.
       -2   -1    0    0    0  501  0.00000000000E+00  0.00000000000E+00 -0.34818128964E+03  0.34818128965E+03  0.25500000920E-02 0. -1.
    10030    2    1    2    0    0  0.00000000000E+00  0.00000000000E+00  0.17833447742E+04  0.24797073535E+04  0.17229712637E+04 0.  0.
        5    1    3    3  502    0 -0.36624480291E+03  0.57581074397E+02  0.20108186231E+04  0.20447162298E+04  0.46999998093E+01 0.  1.
       -5    1    3    3    0  502  0.36624480291E+03 -0.57581074397E+02 -0.22747384882E+03  0.43499112368E+03  0.46999998093E+01 0. -1.
</event>
<event>
 5   0  0.2163800E-05  0.2548428E+04  0.7818609E-02  0.8385933E-01
        1   -1    0    0  501    0  0.00000000000E+00  0.00000000000E+00  0.11912034479E+04  0.11912034479E+04  0.50400001928E-02 0. -1.
       -1   -1    0    0    0  501  0.00000000000E+00  0.00000000000E+00 -0.13630090835E+04  0.13630090836E+04  0.50400001928E-02 0.  1.
    10030    2    1    2    0    0  0.00000000000E+00  0.00000000000E+00 -0.17180563565E+03  0.25542125315E+04  0.25484278447E+04 0.  0.
        1    1    3    3  502    0 -0.46128409714E+03 -0.21173149438E+03  0.10855135590E+04  0.11983125347E+04  0.50400001928E-02 0. -1.
       -1    1    3    3    0  502  0.46128409714E+03  0.21173149438E+03 -0.12573191947E+04  0.13558999968E+04  0.50400001928E-02 0.  1.
</event>
<event>
 5   0  0.4955675E-05  0.2540338E+04  0.7818609E-02  0.8388754E-01
       -2   -1    0    0    0  501  0.00000000000E+00  0.00000000000E+00  0.64409012150E+03  0.64409012150E+03  0.25500000920E-02 0.  1.
        2   -1    0    0  501    0  0.00000000000E+00  0.00000000000E+00 -0.25048199248E+04  0.25048199248E+04  0.25500000920E-02 0. -1.
    10030    2    1    2    0    0  0.00000000000E+00  0.00000000000E+00 -0.18607298033E+04  0.31489100463E+04  0.25403383788E+04 0.  0.
        5    1    3    3  502    0 -0.88882505987E+03 -0.89311827615E+03 -0.11288399845E+04  0.16917363988E+04  0.46999998093E+01 0. -1.
       -5    1    3    3    0  502  0.88882505987E+03  0.89311827615E+03 -0.73188981877E+03  0.14571736475E+04  0.46999998093E+01 0.  1.
</event>
<event>
 5   0  0.2072710E-05  0.2284942E+04  0.7818609E-02  0.8483882E-01
        1   -1    0    0  501    0  0.00000000000E+00  0.00000000000E+00  0.22745813295E+04  0.22745813295E+04  0.50400001928E-02 0. -1.
       -1   -1    0    0    0  501  0.00000000000E+00  0.00000000000E+00 -0.57383723365E+03  0.57383723367E+03  0.50400001928E-02 0.  1.
    10030    2    1    2    0    0  0.00000000000E+00  0.00000000000E+00  0.17007440959E+04  0.28484185632E+04  0.22849415379E+04 0.  0.
        2    1    3    3  502    0  0.30903600969E+03  0.41554087696E+03  0.21198672724E+04  0.21822040986E+04  0.25500000920E-02 0. -1.
       -2    1    3    3    0  502 -0.30903600969E+03 -0.41554087696E+03 -0.41912317648E+03  0.66621446455E+03  0.25500000920E-02 0.  1.
</event>
<event>
 5   0  0.5170532E-05  0.2559727E+04  0.7818609E-02  0.8382011E-01
        2   -1    0    0  501    0  0.00000000000E+00  0.00000000000E+00  0.21371544495E+04  0.21371544495E+04  0.25500000920E-02 0. -1.
       -2   -1    0    0    0  501  0.00000000000E+00  0.00000000000E+00 -0.76646346405E+03  0.76646346405E+03  0.25500000920E-02 0.  1.
    10030    2    1    2    0    0  0.00000000000E+00  0.00000000000E+00  0.13706909854E+04  0.29036179135E+04  0.25597271750E+04 0.  0.
        1    1    3    3  502    0  0.93939370146E+03  0.57421955957E+03  0.14255987400E+04  0.18012552280E+04  0.50400001928E-02 0. -1.
       -1    1    3    3    0  502 -0.93939370146E+03 -0.57421955957E+03 -0.54907754540E+02  0.11023626855E+04  0.50400001928E-02 0.  1.
</event>
<event>
 5   0  0.5036452E-05  0.2829732E+04  0.7818609E-02  0.8294097E-01
       -2   -1    0    0    0  501  0.00000000000E+00  0.00000000000E+00  0.20391687205E+04  0.20391687205E+04  0.25500000920E-02 0.  1.
        2   -1    0    0  501    0  0.00000000000E+00  0.00000000000E+00 -0.98169727823E+03  0.98169727823E+03  0.25500000920E-02 0. -1.
    10030    2    1    2    0    0  0.00000000000E+00  0.00000000000E+00  0.10574714423E+04  0.30208659987E+04  0.28297324133E+04 0.  0.
        2    1    3    3  502    0 -0.50285113555E+03 -0.11402914330E+04 -0.18637789421E+03  0.12601033831E+04  0.25500000920E-02 0. -1.
       -2    1    3    3    0  502  0.50285113555E+03  0.11402914330E+04  0.12438493365E+04  0.17607626156E+04  0.25500000920E-02 0.  1.
</event>
<event>
 5   0  0.1954502E-05  0.2429032E+04  0.7818609E-02  0.8428714E-01
        1   -1    0    0  501    0  0.00000000000E+00  0.00000000000E+00  0.18221489190E+04  0.18221489190E+04  0.50400001928E-02 0.  1.
       -1   -1    0    0    0  501  0.00000000000E+00  0.00000000000E+00 -0.80951040492E+03  0.80951040494E+03  0.50400001928E-02 0. -1.
    10030    2    1    2    0    0  0.00000000000E+00  0.00000000000E+00  0.10126385141E+04  0.26316593240E+04  0.24290315019E+04 0.  0.
        4    1    3    3  502    0  0.10705122112E+04 -0.32561740783E+03  0.10179682599E+04  0.15127075334E+04  0.12699999809E+01 0.  1.
       -4    1    3    3    0  502 -0.10705122112E+04  0.32561740783E+03 -0.53297457655E+01  0.11189517906E+04  0.12699999809E+01 0. -1.
</event>
<event>
 5   0  0.5049803E-05  0.2595290E+04  0.7818609E-02  0.8369803E-01
       -2   -1    0    0    0  501  0.00000000000E+00  0.00000000000E+00  0.14674839682E+04  0.14674839682E+04  0.25500000920E-02 0. -1.
        2   -1    0    0  501    0  0.00000000000E+00  0.00000000000E+00 -0.11474620666E+04  0.11474620666E+04  0.25500000920E-02 0.  1.
    10030    2    1    2    0    0  0.00000000000E+00  0.00000000000E+00  0.32002190164E+03  0.26149460348E+04  0.25952897232E+04 0.  0.
        4    1    3    3  502    0  0.55175714728E+02  0.12778085778E+04  0.38085461812E+03  0.13345002713E+04  0.12699999809E+01 0. -1.
       -4    1    3    3    0  502 -0.55175714728E+02 -0.12778085778E+04 -0.60832716481E+02  0.12804457635E+04  0.12699999809E+01 0.  1.
</event>
<event>
 5   0  0.4955675E-05  0.1915860E+04  0.7818609E-02  0.8647002E-01
        2   -1    0    0  501    0  0.00000000000E+00  0.00000000000E+00  0.10936484102E+04  0.10936484102E+04  0.25500000920E-02 0.  1.
       -2   -1    0    0    0  501  0.00000000000E+00  0.00000000000E+00 -0.83905365018E+03  0.83905365018E+03  0.25500000920E-02 0. -1.
    10030    2    1    2    0    0  0.00000000000E+00  0.00000000000E+00  0.25459475998E+03  0.19327020603E+04  0.19158597971E+04 0.  0.
        5    1    3    3  502    0  0.34846187132E+03  0.54861818751E+03 -0.58259335397E+03  0.87283715406E+03  0.46999998093E+01 0. -1.
       -5    1    3    3    0  502 -0.34846187132E+03 -0.54861818751E+03  0.83718811395E+03  0.10598649063E+04  0.46999998093E+01 0.  1.
</event>
<event>
 5   0  0.2163800E-05  0.2597948E+04  0.7818609E-02  0.8368898E-01
        1   -1    0    0  501    0  0.00000000000E+00  0.00000000000E+00  0.17261549664E+04  0.17261549664E+04  0.50400001928E-02 0. -1.
       -1   -1    0    0    0  501  0.00000000000E+00  0.00000000000E+00 -0.97751009257E+03  0.97751009259E+03  0.50400001928E-02 0.  1.
    10030    2    1    2    0    0  0.00000000000E+00  0.00000000000E+00  0.74864487384E+03  0.27036650590E+04  0.25979483452E+04 0.  0.
        1    1    3    3  502    0  0.59215240848E+03 -0.66353946556E+03  0.13596360074E+04  0.16246658641E+04  0.50400001928E-02 0. -1.
       -1    1    3    3    0  502 -0.59215240848E+03  0.66353946556E+03 -0.61099113361E+03  0.10789991949E+04  0.50400001928E-02 0.  1.
</event>
<event>
 5   0  0.5049803E-05  0.2663486E+04  0.7818609E-02  0.8346951E-01
        2   -1    0    0  501    0  0.00000000000E+00  0.00000000000E+00  0.21986684467E+04  0.21986684467E+04  0.25500000920E-02 0.  1.
       -2   -1    0    0    0  501  0.00000000000E+00  0.00000000000E+00 -0.80664221814E+03  0.80664221814E+03  0.25500000920E-02 0. -1.
    10030    2    1    2    0    0  0.00000000000E+00  0.00000000000E+00  0.13920262286E+04  0.30053106649E+04  0.26634855305E+04 0.  0.
        4    1    3    3  502    0  0.92598546200E+03 -0.77397727597E+03  0.13313455776E+04  0.17969342112E+04  0.12699999809E+01 0.  1.
       -4    1    3    3    0  502 -0.92598546200E+03  0.77397727597E+03  0.60680651042E+02  0.12083764537E+04  0.12699999809E+01 0. -1.
</event>
<event>
 5   0  0.2159405E-05  0.2593312E+04  0.7818609E-02  0.8370477E-01
        1   -1    0    0  501    0  0.00000000000E+00  0.00000000000E+00  0.14251406022E+04  0.14251406022E+04  0.50400001928E-02 0.  1.
       -1   -1    0    0    0  501  0.00000000000E+00  0.00000000000E+00 -0.11797547885E+04  0.11797547885E+04  0.50400001928E-02 0. -1.
    10030    2    1    2    0    0  0.00000000000E+00  0.00000000000E+00  0.24538581370E+03  0.26048953906E+04  0.25933117434E+04 0.  0.
        3    1    3    3  502    0  0.82762960476E+03  0.79787785926E+03 -0.47976661459E+03  0.12456949288E+04  0.10100000352E+00 0. -1.
       -3    1    3    3    0  502 -0.82762960476E+03 -0.79787785926E+03  0.72515242829E+03  0.13592004618E+04  0.10100000352E+00 0.  1.
</event>
<event>
 5   0  0.2072710E-05  0.2576366E+04  0.7818609E-02  0.8376274E-01
       -1   -1    0    0    0  501  0.00000000000E+00  0.00000000000E+00  0.78881722330E+03  0.78881722332E+03  0.50400001928E-02 0. -1.
        1   -1    0    0  501    0  0.00000000000E+00  0.00000000000E+00 -0.21036759130E+04  0.21036759130E+04  0.50400001928E-02 0.  1.
    10030    2    1    2    0    0  0.00000000000E+00  0.00000000000E+00 -0.13148586897E+04  0.28924931363E+04  0.25763662725E+04 0.  0.
        2    1    3    3  502    0 -0.48646131650E+03  0.11327810165E+04 -0.23798556340E+03  0.12555773859E+04  0.25500000920E-02 0. -1.
       -2    1    3    3    0  502  0.48646131650E+03 -0.11327810165E+04 -0.10768731263E+04  0.16369157504E+04  0.25500000920E-02 0.  1.
</event>
<event>
 5   0  0.2072710E-05  0.2634968E+04  0.7818609E-02  0.8356420E-01
       -1   -1    0    0    0  501  0.00000000000E+00  0.00000000000E+00  0.10598441589E+04  0.10598441590E+04  0.50400001928E-02 0.  1.
        1   -1    0    0  501    0  0.00000000000E+00  0.00000000000E+00 -0.16377538662E+04  0.16377538662E+04  0.50400001928E-02 0. -1.
    10030    2    1    2    0    0  0.00000000000E+00  0.00000000000E+00 -0.57790970728E+03  0.26975980252E+04  0.26349678320E+04 0.  0.
        2    1    3    3  502    0 -0.27978080498E+03 -0.19565717862E+03 -0.15916800523E+04  0.16278834170E+04  0.25500000920E-02 0. -1.
       -2    1    3    3    0  502  0.27978080498E+03  0.19565717862E+03  0.10137703451E+04  0.10697146082E+04  0.25500000920E-02 0.  1.
</event>
<event>
 5   0  0.2163800E-05  0.2704460E+04  0.7818609E-02  0.8333559E-01
       -1   -1    0    0    0  501  0.00000000000E+00  0.00000000000E+00  0.96958900166E+03  0.96958900167E+03  0.50400001928E-02 0. -1.
        1   -1    0    0  501    0  0.00000000000E+00  0.00000000000E+00 -0.18858778898E+04  0.18858778898E+04  0.50400001928E-02 0.  1.
    10030    2    1    2    0    0  0.00000000000E+00  0.00000000000E+00 -0.91628888811E+03  0.28554668914E+04  0.27044603605E+04 0.  0.
        1    1    3    3  502    0 -0.61882924981E+03 -0.94499547685E+03 -0.12429939243E+04  0.16795832780E+04  0.50400001928E-02 0.  1.
       -1    1    3    3    0  502  0.61882924981E+03  0.94499547685E+03  0.32670503624E+03  0.11758836135E+04  0.50400001928E-02 0. -1.
</event>
<event>
 5   0  0.1993815E-05  0.1420000E+04  0.7818609E-02  0.8939467E-01
       -1   -1    0    0    0  501  0.00000000000E+00  0.00000000000E+00  0.33291147929E+03  0.33291147933E+03  0.50400001928E-02 0. -1.
        1   -1    0    0  501    0  0.00000000000E+00  0.00000000000E+00 -0.15142162566E+04  0.15142162566E+04  0.50400001928E-02 0.  1.
    10030    2    1    2    0    0  0.00000000000E+00  0.00000000000E+00 -0.11813047773E+04  0.18471277359E+04  0.14199999634E+04 0.  0.
        5    1    3    3  502    0  0.60102424071E+02 -0.88577955401E+02  0.32233422207E+03  0.33967601664E+03  0.46999998093E+01 0. -1.
       -5    1    3    3    0  502 -0.60102424071E+02  0.88577955401E+02 -0.15036389993E+04  0.15074517193E+04  0.46999998093E+01 0.  1.
</event>
<event>
 5   0  0.2072710E-05  0.2622177E+04  0.7818609E-02  0.8360707E-01
       -1   -1    0    0    0  501  0.00000000000E+00  0.00000000000E+00  0.10079835655E+04  0.10079835655E+04  0.50400001928E-02 0.  1.
        1   -1    0    0  501    0  0.00000000000E+00  0.00000000000E+00 -0.17053386668E+04  0.17053386669E+04  0.50400001928E-02 0. -1.
    10030    2    1    2    0    0  0.00000000000E+00  0.00000000000E+00 -0.69735510139E+03  0.27133222323E+04  0.26221772249E+04 0.  0.
        2    1    3    3  502    0  0.50516134468E+03 -0.12026823471E+04 -0.21249545393E+03  0.13216607470E+04  0.25500000920E-02 0.  1.
       -2    1    3    3    0  502 -0.50516134468E+03  0.12026823471E+04 -0.48485964746E+03  0.13916614854E+04  0.25500000920E-02 0. -1.
</event>
<event>
 5   0  0.5049803E-05  0.1445295E+04  0.7818609E-02  0.8921669E-01
       -2   -1    0    0    0  501  0.00000000000E+00  0.00000000000E+00  0.40170610006E+03  0.40170610007E+03  0.25500000920E-02 0. -1.
        2   -1    0    0  501    0  0.00000000000E+00  0.00000000000E+00 -0.13000039989E+04  0.13000039989E+04  0.25500000920E-02 0.  1.
    10030    2    1    2    0    0  0.00000000000E+00  0.00000000000E+00 -0.89829789886E+03  0.17017100990E+04  0.14452951760E+04 0.  0.
        4    1    3    3  502    0 -0.72831718782E+02 -0.24000825873E+03  0.34881218152E+03  0.42962771605E+03  0.12699999809E+01 0. -1.
       -4    1    3    3    0  502  0.72831718782E+02  0.24000825873E+03 -0.12471100804E+04  0.12720823829E+04  0.12699999809E+01 0.  1.
</event>
<event>
 5   0  0.5049803E-05  0.2400722E+04  0.7818609E-02  0.8439233E-01
        2   -1    0    0  501    0  0.00000000000E+00  0.00000000000E+00  0.11953176923E+04  0.11953176923E+04  0.25500000920E-02 0.  1.
       -2   -1    0    0    0  501  0.00000000000E+00  0.00000000000E+00 -0.12054253452E+04  0.12054253452E+04  0.25500000920E-02 0. -1.
    10030    2    1    2    0    0  0.00000000000E+00  0.00000000000E+00 -0.10107652913E+02  0.24007430375E+04  0.24007217597E+04 0.  0.
        4    1    3    3  502    0 -0.40714979197E+03 -0.76583090104E+03  0.82477080149E+03  0.11968777757E+04  0.12699999809E+01 0.  1.
       -4    1    3    3    0  502  0.40714979197E+03  0.76583090104E+03 -0.83487845440E+03  0.12038652618E+04  0.12699999809E+01 0. -1.
</event>
<event>
 5   0  0.5170532E-05  0.2525032E+04  0.7818609E-02  0.8394122E-01
        2   -1    0    0  501    0  0.00000000000E+00  0.00000000000E+00  0.17982789257E+04  0.17982789257E+04  0.25500000920E-02 0. -1.
       -2   -1    0    0    0  501  0.00000000000E+00  0.00000000000E+00 -0.88637317582E+03  0.88637317582E+03  0.25500000920E-02 0.  1.
    10030    2    1    2    0    0  0.00000000000E+00  0.00000000000E+00  0.91190574984E+03  0.26846521015E+04  0.25250316452E+04 0.  0.
        1    1    3    3  502    0  0.21449573750E+03 -0.16168729169E+02  0.17786525978E+04  0.17916123780E+04  0.50400001928E-02 0. -1.
       -1    1    3    3    0  502 -0.21449573750E+03  0.16168729169E+02 -0.86674684798E+03  0.89303972349E+03  0.50400001928E-02 0.  1.
</event>
<event>
 5   0  0.1954502E-05  0.1656834E+04  0.7818609E-02  0.8786374E-01
       -1   -1    0    0    0  501  0.00000000000E+00  0.00000000000E+00  0.99371856819E+03  0.99371856820E+03  0.50400001928E-02 0.  1.
        1   -1    0    0  501    0  0.00000000000E+00  0.00000000000E+00 -0.69061270775E+03  0.69061270777E+03  0.50400001928E-02 0. -1.
    10030    2    1    2    0    0  0.00000000000E+00  0.00000000000E+00  0.30310586044E+03  0.16843312760E+04  0.16568339339E+04 0.  0.
        4    1    3    3  502    0 -0.69542287229E+03 -0.36947819129E+03  0.41300986868E+03  0.88921643579E+03  0.12699999809E+01 0.  1.
       -4    1    3    3    0  502  0.69542287229E+03  0.36947819129E+03 -0.10990400824E+03  0.79511484018E+03  0.12699999809E+01 0. -1.
</event>
<event>
 5   0  0.1954502E-05  0.2594302E+04  0.7818609E-02  0.8370139E-01
        1   -1    0    0  501    0  0.00000000000E+00  0.00000000000E+00  0.15679273005E+04  0.15679273005E+04  0.50400001928E-02 0. -1.
       -1   -1    0    0    0  501  0.00000000000E+00  0.00000000000E+00 -0.10731369934E+04  0.10731369934E+04  0.50400001928E-02 0.  1.
    10030    2    1    2    0    0  0.00000000000E+00  0.00000000000E+00  0.49479030712E+03  0.26410642939E+04  0.25943020557E+04 0.  0.
        4    1    3    3  502    0  0.65085269917E+01  0.34041902475E+03  0.15216240031E+04  0.15592526072E+04  0.12699999809E+01 0. -1.
       -4    1    3    3    0  502 -0.65085269917E+01 -0.34041902475E+03 -0.10268336960E+04  0.10818116867E+04  0.12699999809E+01 0.  1.
</event>
<event>
 5   0  0.4955675E-05  0.2653468E+04  0.7818609E-02  0.8350263E-01
        2   -1    0    0  501    0  0.00000000000E+00  0.00000000000E+00  0.19952551052E+04  0.19952551052E+04  0.25500000920E-02 0. -1.
       -2   -1    0    0    0  501  0.00000000000E+00  0.00000000000E+00 -0.88220444394E+03  0.88220444395E+03  0.25500000920E-02 0.  1.
    10030    2    1    2    0    0  0.00000000000E+00  0.00000000000E+00  0.11130506612E+04  0.28774595491E+04  0.26534678597E+04 0.  0.
        5    1    3    3  502    0 -0.29452637501E+03 -0.12918392598E+04  0.48292582524E+03  0.14102602247E+04  0.46999998093E+01 0. -1.
       -5    1    3    3    0  502  0.29452637501E+03  0.12918392598E+04  0.63012483599E+03  0.14671993244E+04  0.46999998093E+01 0.  1.
</event>
<event>
 5   0  0.1993815E-05  0.2818490E+04  0.7818609E-02  0.8297551E-01
        1   -1    0    0  501    0  0.00000000000E+00  0.00000000000E+00  0.20265588994E+04  0.20265588994E+04  0.50400001928E-02 0.  1.
       -1   -1    0    0    0  501  0.00000000000E+00  0.00000000000E+00 -0.97997258222E+03  0.97997258224E+03  0.50400001928E-02 0. -1.
    10030    2    1    2    0    0  0.00000000000E+00  0.00000000000E+00  0.10465863171E+04  0.30065314816E+04  0.28184904880E+04 0.  0.
        5    1    3    3  502    0 -0.10261334430E+04  0.94122420324E+03  0.29179537470E+03  0.14226803837E+04  0.46999998093E+01 0. -1.
       -5    1    3    3    0  502  0.10261334430E+04 -0.94122420324E+03  0.75479094244E+03  0.15838510979E+04  0.46999998093E+01 0.  1.
</event>
<event>
 5   0  0.1698625E-05  0.1741389E+04  0.7818609E-02  0.8738104E-01
        3   -1    0    0  501    0  0.00000000000E+00  0.00000000000E+00  0.53205417535E+03  0.53205418494E+03  0.10100000352E+00 0.  1.
       -3   -1    0    0    0  501  0.00000000000E+00  0.00000000000E+00 -0.14248719897E+04  0.14248719933E+04  0.10100000352E+00 0. -1.
    10030    2    1    2    0    0  0.00000000000E+00  0.00000000000E+00 -0.89281781432E+03  0.19569261782E+04  0.17413892205E+04 0.  0.
        4    1    3    3  502    0  0.22064566412E+03  0.49356402164E+03  0.32057545511E+03  0.62853813557E+03  0.12699999809E+01 0.  1.
       -4    1    3    3    0  502 -0.22064566412E+03 -0.49356402164E+03 -0.12133932694E+04  0.13283880426E+04  0.12699999809E+01 0. -1.
</event>
<event>
 5   0  0.5036452E-05  0.2625584E+04  0.7818609E-02  0.8359563E-01
       -2   -1    0    0    0  501  0.00000000000E+00  0.00000000000E+00  0.14858741755E+04  0.14858741755E+04  0.25500000920E-02 0.  1.
        2   -1    0    0  501    0  0.00000000000E+00  0.00000000000E+00 -0.11598711093E+04  0.11598711093E+04  0.25500000920E-02 0. -1.
    10030    2    1    2    0    0  0.00000000000E+00  0.00000000000E+00  0.32600306629E+03  0.26457452848E+04  0.26255837661E+04 0.  0.
        2    1    3    3  502    0 -0.54322799830E+03  0.82291182846E+03  0.10363411741E+04  0.14304836821E+04  0.25500000920E-02 0.  1.
       -2    1    3    3    0  502  0.54322799830E+03 -0.82291182846E+03 -0.71033810784E+03  0.12152616027E+04  0.25500000920E-02 0. -1.
</event>
<event>
 5   0  0.2159405E-05  0.2574019E+04  0.7818609E-02  0.8377080E-01
        1   -1    0    0  501    0  0.00000000000E+00  0.00000000000E+00  0.16033045001E+04  0.16033045001E+04  0.50400001928E-02 0. -1.
       -1   -1    0    0    0  501  0.00000000000E+00  0.00000000000E+00 -0.10331120425E+04  0.10331120425E+04  0.50400001928E-02 0.  1.
    10030    2    1    2    0    0  0.00000000000E+00  0.00000000000E+00  0.57019245761E+03  0.26364165427E+04  0.25740187932E+04 0.  0.
        3    1    3    3  502    0  0.59596672257E+02  0.99253479481E+03 -0.55185131058E+03  0.11371969757E+04  0.10100000352E+00 0.  1.
       -3    1    3    3    0  502 -0.59596672257E+02 -0.99253479481E+03  0.11220437682E+04  0.14992195670E+04  0.10100000352E+00 0. -1.
</event>
<event>
 5   0  0.5182179E-05  0.1386843E+04  0.7818609E-02  0.8963398E-01
       -2   -1    0    0    0  501  0.00000000000E+00  0.00000000000E+00  0.56582868581E+03  0.56582868582E+03  0.25500000920E-02 0.  1.
        2   -1    0    0  501    0  0.00000000000E+00  0.00000000000E+00 -0.84978608048E+03  0.84978608049E+03  0.25500000920E-02 0. -1.
    10030    2    1    2    0    0  0.00000000000E+00  0.00000000000E+00 -0.28395739467E+03  0.14156147663E+04  0.13868429488E+04 0.  0.
        3    1    3    3  502    0  0.20175266138E+03 -0.24739419639E+03  0.48636115621E+03  0.58176903428E+03  0.10100000352E+00 0.  1.
       -3    1    3    3    0  502 -0.20175266138E+03  0.24739419639E+03 -0.77031855088E+03  0.83384573202E+03  0.10100000352E+00 0. -1.
</event>
<event>
 5   0  0.5049803E-05  0.2659445E+04  0.7818609E-02  0.8348285E-01
       -2   -1    0    0    0  501  0.00000000000E+00  0.00000000000E+00  0.83938189124E+03  0.83938189124E+03  0.25500000920E-02 0. -1.
        2   -1    0    0  501    0  0.00000000000E+00  0.00000000000E+00 -0.21065053703E+04  0.21065053703E+04  0.25500000920E-02 0.  1.
    10030    2    1    2    0    0  0.00000000000E+00  0.00000000000E+00 -0.12671234790E+04  0.29458872615E+04  0.26594454020E+04 0.  0.
        4    1    3    3  502    0 -0.66565857319E+03 -0.50392275015E+02 -0.19074349059E+04  0.20208785838E+04  0.12699999809E+01 0.  1.
       -4    1    3    3    0  502  0.66565857319E+03  0.50392275015E+02  0.64031142689E+03  0.92500867766E+03  0.12699999809E+01 0. -1.
</event>
<event>
 5   0  0.5049803E-05  0.2570632E+04  0.7818609E-02  0.8378246E-01
        2   -1    0    0  501    0  0.00000000000E+00  0.00000000000E+00  0.21223053920E+04  0.21223053920E+04  0.25500000920E-02 0.  1.
       -2   -1    0    0    0  501  0.00000000000E+00  0.00000000000E+00 -0.77841613413E+03  0.77841613414E+03  0.25500000920E-02 0. -1.
    10030    2    1    2    0    0  0.00000000000E+00  0.00000000000E+00  0.13438892578E+04  0.29007215261E+04  0.25706316412E+04 0.  0.
        4    1    3    3  502    0 -0.75118369131E+03 -0.88173844856E+03  0.13005150478E+04  0.17415741822E+04  0.12699999809E+01 0.  1.
       -4    1    3    3    0  502  0.75118369131E+03  0.88173844856E+03  0.43374210015E+02  0.11591473439E+04  0.12699999809E+01 0. -1.
</event>
<event>
 5   0  0.1954502E-05  0.2596783E+04  0.7818609E-02  0.8369295E-01
       -1   -1    0    0    0  501  0.00000000000E+00  0.00000000000E+00  0.10980976953E+04  0.10980976953E+04  0.50400001928E-02 0. -1.
        1   -1    0    0  501    0  0.00000000000E+00  0.00000000000E+00 -0.15352190531E+04  0.15352190531E+04  0.50400001928E-02 0.  1.
    10030    2    1    2    0    0  0.00000000000E+00  0.00000000000E+00 -0.43712135784E+03  0.26333167484E+04  0.25967830128E+04 0.  0.
        4    1    3    3  502    0 -0.33445372169E+02  0.12856954283E+04 -0.38046273864E+02  0.12866936151E+04  0.12699999809E+01 0. -1.
       -4    1    3    3    0  502  0.33445372169E+02 -0.12856954283E+04 -0.39907508398E+03  0.13466231332E+04  0.12699999809E+01 0.  1.
</event>
<event>
 5   0  0.5170532E-05  0.2534171E+04  0.7818609E-02  0.8390912E-01
       -2   -1    0    0    0  501  0.00000000000E+00  0.00000000000E+00  0.14048660615E+04  0.14048660615E+04  0.25500000920E-02 0. -1.
        2   -1    0    0  501    0  0.00000000000E+00  0.00000000000E+00 -0.11428179374E+04  0.11428179374E+04  0.25500000920E-02 0.  1.
    10030    2    1    2    0    0  0.00000000000E+00  0.00000000000E+00  0.26204812409E+03  0.25476839990E+04  0.25341713713E+04 0.  0.
        1    1    3    3  502    0  0.27937890136E+03  0.20116485995E+03 -0.10948985549E+04  0.11477468000E+04  0.50400001928E-02 0.  1.
       -1    1    3    3    0  502 -0.27937890136E+03 -0.20116485995E+03  0.13569466790E+04  0.13999371990E+04  0.50400001928E-02 0. -1.
</event>
<event>
 5   0  0.2163800E-05  0.2195534E+04  0.7818609E-02  0.8520289E-01
       -1   -1    0    0    0  501  0.00000000000E+00  0.00000000000E+00  0.58999362263E+03  0.58999362266E+03  0.50400001928E-02 0. -1.
        1   -1    0    0  501    0  0.00000000000E+00  0.00000000000E+00 -0.20425510072E+04  0.20425510072E+04  0.50400001928E-02 0.  1.
    10030    2    1    2    0    0  0.00000000000E+00  0.00000000000E+00 -0.14525573846E+04  0.26325446299E+04  0.21955337102E+04 0.  0.
        1    1    3    3  502    0  0.84985737216E+03  0.63696027801E+03 -0.39330630759E+03  0.11325483656E+04  0.50400001928E-02 0. -1.
       -1    1    3    3    0  502 -0.84985737216E+03 -0.63696027801E+03 -0.10592510770E+04  0.14999962643E+04  0.50400001928E-02 0.  1.
</event>
<event>
 5   0  0.1993815E-05  0.2592977E+04  0.7818609E-02  0.8370591E-01
        1   -1    0    0  501    0  0.00000000000E+00  0.00000000000E+00  0.22701844818E+04  0.22701844818E+04  0.50400001928E-02 0.  1.
       -1   -1    0    0    0  501  0.00000000000E+00  0.00000000000E+00 -0.74041663750E+03  0.74041663752E+03  0.50400001928E-02 0. -1.
    10030    2    1    2    0    0  0.00000000000E+00  0.00000000000E+00  0.15297678443E+04  0.30106011193E+04  0.25929769460E+04 0.  0.
        5    1    3    3  502    0  0.60147928824E+03 -0.48820147616E+03 -0.44213930995E+03  0.89197941395E+03  0.46999998093E+01 0. -1.
       -5    1    3    3    0  502 -0.60147928824E+03  0.48820147616E+03  0.19719071543E+04  0.21186217054E+04  0.46999998093E+01 0.  1.
</event>
<event>
 5   0  0.5170532E-05  0.2610908E+04  0.7818609E-02  0.8364505E-01
       -2   -1    0    0    0  501  0.00000000000E+00  0.00000000000E+00  0.86092385311E+03  0.86092385311E+03  0.25500000920E-02 0.  1.
        2   -1    0    0  501    0  0.00000000000E+00  0.00000000000E+00 -0.19795133664E+04  0.19795133664E+04  0.25500000920E-02 0. -1.
    10030    2    1    2    0    0  0.00000000000E+00  0.00000000000E+00 -0.11185895133E+04  0.28404372195E+04  0.26109080985E+04 0.  0.
        1    1    3    3  502    0  0.10909394625E+04 -0.12934911134E+03  0.20791834921E+03  0.11180832453E+04  0.50400001928E-02 0.  1.
       -1    1    3    3    0  502 -0.10909394625E+04  0.12934911134E+03 -0.13265078625E+04  0.17223539743E+04  0.50400001928E-02 0. -1.
</event>
<event>
 5   0  0.1993815E-05  0.1813950E+04  0.7818609E-02  0.8698916E-01
       -1   -1    0    0    0  501  0.00000000000E+00  0.00000000000E+00  0.49583633990E+03  0.49583633993E+03  0.50400001928E-02 0.  1.
        1   -1    0    0  501    0  0.00000000000E+00  0.00000000000E+00 -0.16590220037E+04  0.16590220037E+04  0.50400001928E-02 0. -1.
    10030    2    1    2    0    0  0.00000000000E+00  0.00000000000E+00 -0.11631856638E+04  0.21548583437E+04  0.18139497217E+04 0.  0.
        5    1    3    3  502    0 -0.12064139487E+03  0.45441217580E+03  0.33975684081E+03  0.58008755593E+03  0.46999998093E+01 0.  1.
       -5    1    3    3    0  502  0.12064139487E+03 -0.45441217580E+03 -0.15029425046E+04  0.15747707877E+04  0.46999998093E+01 0. -1.
</event>
<event>
 5   0  0.1993815E-05  0.2754601E+04  0.7818609E-02  0.8317503E-01
       -1   -1    0    0    0  501  0.00000000000E+00  0.00000000000E+00  0.10991547124E+04  0.10991547125E+04  0.50400001928E-02 0. -1.
        1   -1    0    0  501    0  0.00000000000E+00  0.00000000000E+00 -0.17258320976E+04  0.17258320976E+04  0.50400001928E-02 0.  1.
    10030    2    1    2    0    0  0.00000000000E+00  0.00000000000E+00 -0.62667738513E+03  0.28249868101E+04  0.27546008662E+04 0.  0.
        5    1    3    3  502    0  0.11119944586E+04  0.19637314420E+03 -0.11220568213E+04  0.15918943709E+04  0.46999998093E+01 0.  1.
       -5    1    3    3    0  502 -0.11119944586E+04 -0.19637314420E+03  0.49537943614E+03  0.12330924392E+04  0.46999998093E+01 0. -1.
</event>
<event>
 5   0  0.1954502E-05  0.2691210E+04  0.7818609E-02  0.8337863E-01
       -1   -1    0    0    0  501  0.00000000000E+00  0.00000000000E+00  0.22644178476E+04  0.22644178476E+04  0.50400001928E-02 0.  1.
        1   -1    0    0  501    0  0.00000000000E+00  0.00000000000E+00 -0.79961088811E+03  0.79961088813E+03  0.50400001928E-02 0. -1.
    10030    2    1    2    0    0  0.00000000000E+00  0.00000000000E+00  0.14648069595E+04  0.30640287357E+04  0.26912102602E+04 0.  0.
        4    1    3    3  502    0  0.69363407427E+03 -0.88067299728E+03  0.15797790491E+04  0.19371155397E+04  0.12699999809E+01 0.  1.
       -4    1    3    3    0  502 -0.69363407427E+03  0.88067299728E+03 -0.11497208965E+03  0.11269131960E+04  0.12699999809E+01 0. -1.
</event>
<event>
 5   0  0.4955675E-05  0.2581388E+04  0.7818609E-02  0.8374551E-01
       -2   -1    0    0    0  501  0.00000000000E+00  0.00000000000E+00  0.96505231326E+03  0.96505231326E+03  0.25500000920E-02 0.  1.
        2   -1    0    0  501    0  0.00000000000E+00  0.00000000000E+00 -0.17262178963E+04  0.17262178963E+04  0.25500000920E-02 0. -1.
    10030    2    1    2    0    0  0.00000000000E+00  0.00000000000E+00 -0.76116558308E+03  0.26912702096E+04  0.25813876687E+04 0.  0.
        5    1    3    3  502    0 -0.11040823378E+04 -0.57848920429E+03 -0.72983646096E+03  0.14444136934E+04  0.46999998093E+01 0.  1.
       -5    1    3    3    0  502  0.11040823378E+04  0.57848920429E+03 -0.31329122121E+02  0.12468565162E+04  0.46999998093E+01 0. -1.
</event>
<event>
 5   0  0.5170532E-05  0.1811473E+04  0.7818609E-02  0.8700222E-01
        2   -1    0    0  501    0  0.00000000000E+00  0.00000000000E+00  0.11556990649E+04  0.11556990649E+04  0.25500000920E-02 0. -1.
       -2   -1    0    0    0  501  0.00000000000E+00  0.00000000000E+00 -0.70983781607E+03  0.70983781607E+03  0.25500000920E-02 0.  1.
    10030    2    1    2    0    0  0.00000000000E+00  0.00000000000E+00  0.44586124882E+03  0.18655368810E+04  0.18114733233E+04 0.  0.
        1    1    3    3  502    0  0.73465775080E+03  0.21258699832E+03  0.72263757984E+03  0.10521978495E+04  0.50400001928E-02 0. -1.
       -1    1    3    3    0  502 -0.73465775080E+03 -0.21258699832E+03 -0.27677633102E+03  0.81333903146E+03  0.50400001928E-02 0.  1.
</event>
<event>
 5   0  0.2072710E-05  0.1652130E+04  0.7818609E-02  0.8789147E-01
        1   -1    0    0  501    0  0.00000000000E+00  0.00000000000E+00  0.65554151046E+03  0.65554151048E+03  0.50400001928E-02 0.  1.
       -1   -1    0    0    0  501  0.00000000000E+00  0.00000000000E+00 -0.10409466534E+04  0.10409466534E+04  0.50400001928E-02 0. -1.
    10030    2    1    2    0    0  0.00000000000E+00  0.00000000000E+00 -0.38540514295E+03  0.16964881639E+04  0.16521304325E+04 0.  0.
        2    1    3    3  502    0 -0.48712140247E+03 -0.31576142794E+03  0.41077639507E+03  0.71114681106E+03  0.25500000920E-02 0.  1.
       -2    1    3    3    0  502  0.48712140247E+03  0.31576142794E+03 -0.79618153802E+03  0.98534135284E+03  0.25500000920E-02 0. -1.
</event>
<event>
 5   0  0.1993815E-05  0.2216845E+04  0.7818609E-02  0.8511449E-01
        1   -1    0    0  501    0  0.00000000000E+00  0.00000000000E+00  0.14559338881E+04  0.14559338881E+04  0.50400001928E-02 0.  1.
       -1   -1    0    0    0  501  0.00000000000E+00  0.00000000000E+00 -0.84385722781E+03  0.84385722783E+03  0.50400001928E-02 0. -1.
    10030    2    1    2    0    0  0.00000000000E+00  0.00000000000E+00  0.61207666026E+03  0.22997911159E+04  0.22168449063E+04 0.  0.
        5    1    3    3  502    0 -0.10827944907E+04  0.10940294175E+03  0.52405707316E+03  0.12079200382E+04  0.46999998093E+01 0.  1.
       -5    1    3    3    0  502  0.10827944907E+04 -0.10940294175E+03  0.88019587107E+02  0.10918710777E+04  0.46999998093E+01 0. -1.
</event>
<event>
 5   0  0.5182179E-05  0.2587555E+04  0.7818609E-02  0.8372441E-01
        2   -1    0    0  501    0  0.00000000000E+00  0.00000000000E+00  0.10592625712E+04  0.10592625712E+04  0.25500000920E-02 0. -1.
       -2   -1    0    0    0  501  0.00000000000E+00  0.00000000000E+00 -0.15802123025E+04  0.15802123025E+04  0.25500000920E-02 0.  1.
    10030    2    1    2    0    0  0.00000000000E+00  0.00000000000E+00 -0.52094973130E+03  0.26394748736E+04  0.25875546344E+04 0.  0.
        3    1    3    3  502    0 -0.60460793206E+03  0.56449544508E+03 -0.12752496543E+04  0.15200222203E+04  0.10100000352E+00 0.  1.
       -3    1    3    3    0  502  0.60460793206E+03 -0.56449544508E+03  0.75429992304E+03  0.11194526534E+04  0.10100000352E+00 0. -1.
</event>
<event>
 5   0  0.5170532E-05  0.2613630E+04  0.7818609E-02  0.8363586E-01
       -2   -1    0    0    0  501  0.00000000000E+00  0.00000000000E+00  0.12574538248E+04  0.12574538248E+04  0.25500000920E-02 0. -1.
        2   -1    0    0  501    0  0.00000000000E+00  0.00000000000E+00 -0.13581135132E+04  0.13581135132E+04  0.25500000920E-02 0.  1.
    10030    2    1    2    0    0  0.00000000000E+00  0.00000000000E+00 -0.10065968838E+03  0.26155673380E+04  0.26136296843E+04 0.  0.
        1    1    3    3  502    0 -0.76800728035E+03  0.13556034244E+03 -0.10997030798E+04  0.13481686292E+04  0.50400001928E-02 0.  1.
       -1    1    3    3    0  502  0.76800728035E+03 -0.13556034244E+03  0.99904339139E+03  0.12673987088E+04  0.50400001928E-02 0. -1.
</event>
<event>
 5   0  0.1698625E-05  0.2568219E+04  0.7818609E-02  0.8379077E-01
        3   -1    0    0  501    0  0.00000000000E+00  0.00000000000E+00  0.11900567207E+04  0.11900567250E+04  0.10100000352E+00 0. -1.
       -3   -1    0    0    0  501  0.00000000000E+00  0.00000000000E+00 -0.13855956057E+04  0.13855956094E+04  0.10100000352E+00 0.  1.
    10030    2    1    2    0    0  0.00000000000E+00  0.00000000000E+00 -0.19553888500E+03  0.25756523344E+04  0.25682191286E+04 0.  0.
        3    1    3    3  502    0 -0.44883512348E+03 -0.11825422551E+04  0.12440777346E+03  0.12709588733E+04  0.10100000352E+00 0.  1.
       -3    1    3    3    0  502  0.44883512348E+03  0.11825422551E+04 -0.31994665846E+03  0.13046934612E+04  0.10100000352E+00 0. -1.
</event>
<event>
 5   0  0.2072710E-05  0.2586095E+04  0.7818609E-02  0.8372940E-01
       -1   -1    0    0    0  501  0.00000000000E+00  0.00000000000E+00  0.11843738909E+04  0.11843738910E+04  0.50400001928E-02 0.  1.
        1   -1    0    0  501    0  0.00000000000E+00  0.00000000000E+00 -0.14116926018E+04  0.14116926018E+04  0.50400001928E-02 0. -1.
    10030    2    1    2    0    0  0.00000000000E+00  0.00000000000E+00 -0.22731871086E+03  0.25960664928E+04  0.25860950173E+04 0.  0.
        2    1    3    3  502    0  0.35528964094E+03  0.41637001234E+03  0.10623426775E+04  0.11950592791E+04  0.25500000920E-02 0.  1.
       -2    1    3    3    0  502 -0.35528964094E+03 -0.41637001234E+03 -0.12896613883E+04  0.14010072137E+04  0.25500000920E-02 0. -1.
</event>
<event>
 5   0  0.1993815E-05  0.2644383E+04  0.7818609E-02  0.8353280E-01
        1   -1    0    0  501    0  0.00000000000E+00  0.00000000000E+00  0.18712810379E+04  0.18712810380E+04  0.50400001928E-02 0. -1.
       -1   -1    0    0    0  501  0.00000000000E+00  0.00000000000E+00 -0.93422138746E+03  0.93422138748E+03  0.50400001928E-02 0.  1.
    10030    2    1    2    0    0  0.00000000000E+00  0.00000000000E+00  0.93705965048E+03  0.28055024254E+04  0.26443833063E+04 0.  0.
        5    1    3    3  502    0  0.93596003356E+03  0.67489968322E+03  0.11533492296E+04  0.16314862250E+04  0.46999998093E+01 0. -1.
       -5    1    3    3    0  502 -0.93596003356E+03 -0.67489968322E+03 -0.21628957916E+03  0.11740162004E+04  0.46999998093E+01 0.  1.
</event>
<event>
 5   0  0.2072710E-05  0.1821286E+04  0.7818609E-02  0.8695061E-01
        1   -1    0    0  501    0  0.00000000000E+00  0.00000000000E+00  0.59627068318E+03  0.59627068320E+03  0.50400001928E-02 0. -1.
       -1   -1    0    0    0  501  0.00000000000E+00  0.00000000000E+00 -0.13907627919E+04  0.13907627919E+04  0.50400001928E-02 0.  1.
    10030    2    1    2    0    0  0.00000000000E+00  0.00000000000E+00 -0.79449210872E+03  0.19870334751E+04  0.18212864466E+04 0.  0.
        2    1    3    3  502    0 -0.41402073351E+02  0.89221416446E+03 -0.20357849880E+03  0.91608102923E+03  0.25500000920E-02 0.  1.
       -2    1    3    3    0  502  0.41402073351E+02 -0.89221416446E+03 -0.59091360993E+03  0.10709524459E+04  0.25500000920E-02 0. -1.
</event>
<event>
 5   0  0.1993815E-05  0.2567372E+04  0.7818609E-02  0.8379369E-01
        1   -1    0    0  501    0  0.00000000000E+00  0.00000000000E+00  0.77856395324E+03  0.77856395326E+03  0.50400001928E-02 0.  1.
       -1   -1    0    0    0  501  0.00000000000E+00  0.00000000000E+00 -0.21165252440E+04  0.21165252440E+04  0.50400001928E-02 0. -1.
    10030    2    1    2    0    0  0.00000000000E+00  0.00000000000E+00 -0.13379612908E+04  0.28950891973E+04  0.25673724008E+04 0.  0.
        5    1    3    3  502    0 -0.12036415832E+04 -0.42247550504E+03 -0.50717391159E+03  0.13727658503E+04  0.46999998093E+01 0.  1.
       -5    1    3    3    0  502  0.12036415832E+04  0.42247550504E+03 -0.83078737917E+03  0.15223233469E+04  0.46999998093E+01 0. -1.
</event>
<event>
 5   0  0.2072710E-05  0.2928476E+04  0.7818609E-02  0.8264455E-01
        1   -1    0    0  501    0  0.00000000000E+00  0.00000000000E+00  0.19553347802E+04  0.19553347802E+04  0.50400001928E-02 0. -1.
       -1   -1    0    0    0  501  0.00000000000E+00  0.00000000000E+00 -0.10964840427E+04  0.10964840427E+04  0.50400001928E-02 0.  1.
    10030    2    1    2    0    0  0.00000000000E+00  0.00000000000E+00  0.85885073747E+03  0.30518188229E+04  0.29284763169E+04 0.  0.
        2    1    3    3  502    0  0.96157405925E+03 -0.11040162790E+04  0.40573535702E+03  0.15192425072E+04  0.25500000920E-02 0. -1.
       -2    1    3    3    0  502 -0.96157405925E+03  0.11040162790E+04  0.45311538045E+03  0.15325763158E+04  0.25500000920E-02 0.  1.
</event>
<event>
 5   0  0.5182179E-05  0.2752053E+04  0.7818609E-02  0.8318311E-01
       -2   -1    0    0    0  501  0.00000000000E+00  0.00000000000E+00  0.14122675078E+04  0.14122675078E+04  0.25500000920E-02 0. -1.
        2   -1    0    0  501    0  0.00000000000E+00  0.00000000000E+00 -0.13407154154E+04  0.13407154154E+04  0.25500000920E-02 0.  1.
    10030    2    1    2    0    0  0.00000000000E+00  0.00000000000E+00  0.71552092476E+02  0.27529829232E+04  0.27520529198E+04 0.  0.
        3    1    3    3  502    0 -0.69592814847E+03  0.57745879921E+03  0.10732736536E+04  0.14034568031E+04  0.10100000352E+00 0. -1.
       -3    1    3    3    0  502  0.69592814847E+03 -0.57745879921E+03 -0.10017215611E+04  0.13495261201E+04  0.10100000352E+00 0.  1.
</event>
<event>
 5   0  0.5036452E-05  0.1483715E+04  0.7818609E-02  0.8895355E-01
       -2   -1    0    0    0  501  0.00000000000E+00  0.00000000000E+00  0.32680922329E+03  0.32680922330E+03  0.25500000920E-02 0. -1.
        2   -1    0    0  501    0  0.00000000000E+00  0.00000000000E+00 -0.16840180683E+04  0.16840180683E+04  0.25500000920E-02 0.  1.
    10030    2    1    2    0    0  0.00000000000E+00  0.00000000000E+00 -0.13572088450E+04  0.20108272916E+04  0.14837151168E+04 0.  0.
        2    1    3    3  502    0 -0.64275414315E+03  0.33402457493E+03 -0.89564720282E+03  0.11519067745E+04  0.25500000920E-02 0.  1.
       -2    1    3    3    0  502  0.64275414315E+03 -0.33402457493E+03 -0.46156164222E+03  0.85892051714E+03  0.25500000920E-02 0. -1.
</event>
<event>
 5   0  0.5170532E-05  0.2588298E+04  0.7818609E-02  0.8372187E-01
       -2   -1    0    0    0  501  0.00000000000E+00  0.00000000000E+00  0.14459651857E+04  0.14459651857E+04  0.25500000920E-02 0. -1.
        2   -1    0    0  501    0  0.00000000000E+00  0.00000000000E+00 -0.11582722918E+04  0.11582722918E+04  0.25500000920E-02 0.  1.
    10030    2    1    2    0    0  0.00000000000E+00  0.00000000000E+00  0.28769289390E+03  0.26042374776E+04  0.25882978265E+04 0.  0.
        1    1    3    3  502    0 -0.37624881970E+03 -0.77202076615E+03 -0.83022821805E+03  0.11945116708E+04  0.50400001928E-02 0.  1.
       -1    1    3    3    0  502  0.37624881970E+03  0.77202076615E+03  0.11179211119E+04  0.14097258068E+04  0.50400001928E-02 0. -1.
</event>
<event>
 5   0  0.2072710E-05  0.2451511E+04  0.7818609E-02  0.8420466E-01
        1   -1    0    0  501    0  0.00000000000E+00  0.00000000000E+00  0.17867106822E+04  0.17867106822E+04  0.50400001928E-02 0.  1.
       -1   -1    0    0    0  501  0.00000000000E+00  0.00000000000E+00 -0.84091788865E+03  0.84091788866E+03  0.50400001928E-02 0. -1.
    10030    2    1    2    0    0  0.00000000000E+00  0.00000000000E+00  0.94579279354E+03  0.26276285709E+04  0.24515113498E+04 0.  0.
        2    1    3    3  502    0  0.76054014158E+03  0.62919138731E+02  0.15010235732E+04  0.16838800113E+04  0.25500000920E-02 0.  1.
       -2    1    3    3    0  502 -0.76054014158E+03 -0.62919138731E+02 -0.55523077970E+03  0.94374855958E+03  0.25500000920E-02 0. -1.
</event>
<event>
 5   0  0.5049803E-05  0.2564397E+04  0.7818609E-02  0.8380396E-01
        2   -1    0    0  501    0  0.00000000000E+00  0.00000000000E+00  0.15611196445E+04  0.15611196445E+04  0.25500000920E-02 0. -1.
       -2   -1    0    0    0  501  0.00000000000E+00  0.00000000000E+00 -0.10531118018E+04  0.10531118018E+04  0.25500000920E-02 0.  1.
    10030    2    1    2    0    0  0.00000000000E+00  0.00000000000E+00  0.50800784276E+03  0.26142314463E+04  0.25643974119E+04 0.  0.
        4    1    3    3  502    0 -0.19315976325E+03  0.20921682848E+03  0.15284785143E+04  0.15547766904E+04  0.12699999809E+01 0. -1.
       -4    1    3    3    0  502  0.19315976325E+03 -0.20921682848E+03 -0.10204706715E+04  0.10594547559E+04  0.12699999809E+01 0.  1.
</event>
<event>
 5   0  0.2163800E-05  0.2584778E+04  0.7818609E-02  0.8373390E-01
       -1   -1    0    0    0  501  0.00000000000E+00  0.00000000000E+00  0.13317614154E+04  0.13317614154E+04  0.50400001928E-02 0.  1.
        1   -1    0    0  501    0  0.00000000000E+00  0.00000000000E+00 -0.12541801639E+04  0.12541801639E+04  0.50400001928E-02 0. -1.
    10030    2    1    2    0    0  0.00000000000E+00  0.00000000000E+00  0.77581251515E+02  0.25859415794E+04  0.25847775536E+04 0.  0.
        1    1    3    3  502    0 -0.15733992986E+03 -0.66863575382E+03 -0.10564348195E+04  0.12601127540E+04  0.50400001928E-02 0. -1.
       -1    1    3    3    0  502  0.15733992986E+03  0.66863575382E+03  0.11340160710E+04  0.13258288254E+04  0.50400001928E-02 0.  1.
</event>
<event>
 5   0  0.1954502E-05  0.2566015E+04  0.7818609E-02  0.8379838E-01
        1   -1    0    0  501    0  0.00000000000E+00  0.00000000000E+00  0.10776449662E+04  0.10776449662E+04  0.50400001928E-02 0.  1.
       -1   -1    0    0    0  501  0.00000000000E+00  0.00000000000E+00 -0.15275050735E+04  0.15275050735E+04  0.50400001928E-02 0. -1.
    10030    2    1    2    0    0  0.00000000000E+00  0.00000000000E+00 -0.44986010732E+03  0.26051500397E+04  0.25660149285E+04 0.  0.
        4    1    3    3  502    0  0.48193570436E+03  0.11684934898E+04 -0.44844099574E+03  0.13411711294E+04  0.12699999809E+01 0. -1.
       -4    1    3    3    0  502 -0.48193570436E+03 -0.11684934898E+04 -0.14191115870E+01  0.12639789103E+04  0.12699999809E+01 0.  1.
</event>
<event>
 5   0  0.5182179E-05  0.2601793E+04  0.7818609E-02  0.8367592E-01
       -2   -1    0    0    0  501  0.00000000000E+00  0.00000000000E+00  0.11214220601E+04  0.11214220601E+04  0.25500000920E-02 0. -1.
        2   -1    0    0  501    0  0.00000000000E+00  0.00000000000E+00 -0.15090947384E+04  0.15090947384E+04  0.25500000920E-02 0.  1.
    10030    2    1    2    0    0  0.00000000000E+00  0.00000000000E+00 -0.38767267831E+03  0.26305167985E+04  0.26017933280E+04 0.  0.
        3    1    3    3  502    0  0.36266157833E+03 -0.10794047992E+04  0.44215031907E+03  0.12215298014E+04  0.10100000352E+00 0. -1.
       -3    1    3    3    0  502 -0.36266157833E+03  0.10794047992E+04 -0.82982299738E+03  0.14089869971E+04  0.10100000352E+00 0.  1.
</event>
<event>
 5   0  0.1993815E-05  0.2586690E+04  0.7818609E-02  0.8372736E-01
       -1   -1    0    0    0  501  0.00000000000E+00  0.00000000000E+00  0.27379958857E+04  0.27379958857E+04  0.50400001928E-02 0.  1.
        1   -1    0    0  501    0  0.00000000000E+00  0.00000000000E+00 -0.61093643495E+03  0.61093643497E+03  0.50400001928E-02 0. -1.
    10030    2    1    2    0    0  0.00000000000E+00  0.00000000000E+00  0.21270594508E+04  0.33489323207E+04  0.25866901209E+04 0.  0.
        5    1    3    3  502    0  0.29427816424E+03 -0.11393395613E+04  0.36870203035E+03  0.12331494439E+04  0.46999998093E+01 0. -1.
       -5    1    3    3    0  502 -0.29427816424E+03  0.11393395613E+04  0.17583574204E+04  0.21157828768E+04  0.46999998093E+01 0.  1.
</event>
<event>
 5   0  0.5182179E-05  0.2511676E+04  0.7818609E-02  0.8398838E-01
       -2   -1    0    0    0  501  0.00000000000E+00  0.00000000000E+00  0.11243427850E+04  0.11243427850E+04  0.25500000920E-02 0.  1.
        2   -1    0    0  501    0  0.00000000000E+00  0.00000000000E+00 -0.14027117590E+04  0.14027117590E+04  0.25500000920E-02 0. -1.
    10030    2    1    2    0    0  0.00000000000E+00  0.00000000000E+00 -0.27836897398E+03  0.25270545440E+04  0.25116758116E+04 0.  0.
        3    1    3    3  502    0 -0.12261080672E+04  0.13301397193E+03  0.99109781876E+02  0.12372778461E+04  0.10100000352E+00 0. -1.
       -3    1    3    3    0  502  0.12261080672E+04 -0.13301397193E+03 -0.37747875586E+03  0.12897766980E+04  0.10100000352E+00 0.  1.
</event>
<event>
 5   0  0.1954502E-05  0.1480145E+04  0.7818609E-02  0.8897764E-01
        1   -1    0    0  501    0  0.00000000000E+00  0.00000000000E+00  0.71117579747E+03  0.71117579749E+03  0.50400001928E-02 0.  1.
       -1   -1    0    0    0  501  0.00000000000E+00  0.00000000000E+00 -0.77014361583E+03  0.77014361585E+03  0.50400001928E-02 0. -1.
    10030    2    1    2    0    0  0.00000000000E+00  0.00000000000E+00 -0.58967818360E+02  0.14813194133E+04  0.14801452634E+04 0.  0.
        4    1    3    3  502    0  0.10444847619E+03  0.23717487250E+03  0.66427915212E+03  0.71304264190E+03  0.12699999809E+01 0.  1.
       -4    1    3    3    0  502 -0.10444847619E+03 -0.23717487250E+03 -0.72324697048E+03  0.76827677144E+03  0.12699999809E+01 0. -1.
</event>
<event>
 5   0  0.1993815E-05  0.2605585E+04  0.7818609E-02  0.8366307E-01
        1   -1    0    0  501    0  0.00000000000E+00  0.00000000000E+00  0.19464035067E+04  0.19464035067E+04  0.50400001928E-02 0. -1.
       -1   -1    0    0    0  501  0.00000000000E+00  0.00000000000E+00 -0.87200224255E+03  0.87200224256E+03  0.50400001928E-02 0.  1.
    10030    2    1    2    0    0  0.00000000000E+00  0.00000000000E+00  0.10744012642E+04  0.28184057493E+04  0.26055849422E+04 0.  0.
        5    1    3    3  502    0 -0.78487760196E+03 -0.83041240841E+03 -0.13971638670E+03  0.11511561044E+04  0.46999998093E+01 0.  1.
       -5    1    3    3    0  502  0.78487760196E+03  0.83041240841E+03  0.12141176509E+04  0.16672496449E+04  0.46999998093E+01 0. -1.
</event>
<event>
 5   0  0.4955675E-05  0.2395191E+04  0.7818609E-02  0.8441306E-01
       -2   -1    0    0    0  501  0.00000000000E+00  0.00000000000E+00  0.11516386407E+04  0.11516386407E+04  0.25500000920E-02 0.  1.
        2   -1    0    0  501    0  0.00000000000E+00  0.00000000000E+00 -0.12453860940E+04  0.12453860940E+04  0.25500000920E-02 0. -1.
    10030    2    1    2    0    0  0.00000000000E+00  0.00000000000E+00 -0.93747453339E+02  0.23970247347E+04  0.23951908053E+04 0.  0.
        5    1    3    3  502    0 -0.13244768887E+03 -0.10704361202E+04 -0.56769200936E+03  0.12188815304E+04  0.46999998093E+01 0. -1.
       -5    1    3    3    0  502  0.13244768887E+03  0.10704361202E+04  0.47394455602E+03  0.11781432043E+04  0.46999998093E+01 0.  1.
</event>
<event>
 5   0  0.2163800E-05  0.2668531E+04  0.7818609E-02  0.8345288E-01
        1   -1    0    0  501    0  0.00000000000E+00  0.00000000000E+00  0.18073792269E+04  0.18073792269E+04  0.50400001928E-02 0.  1.
       -1   -1    0    0    0  501  0.00000000000E+00  0.00000000000E+00 -0.98499789942E+03  0.98499789944E+03  0.50400001928E-02 0. -1.
    10030    2    1    2    0    0  0.00000000000E+00  0.00000000000E+00  0.82238132748E+03  0.27923771263E+04  0.26685312380E+04 0.  0.
        1    1    3    3  502    0 -0.24255841943E+03 -0.11408418207E+04  0.10892691082E+04  0.15958890427E+04  0.50400001928E-02 0.  1.
       -1    1    3    3    0  502  0.24255841943E+03  0.11408418207E+04 -0.26688778069E+03  0.11964880836E+04  0.50400001928E-02 0. -1.
</event>
<event>
 5   0  0.4955675E-05  0.2524657E+04  0.7818609E-02  0.8394254E-01
        2   -1    0    0  501    0  0.00000000000E+00  0.00000000000E+00  0.10123419465E+04  0.10123419465E+04  0.25500000920E-02 0.  1.
       -2   -1    0    0    0  501  0.00000000000E+00  0.00000000000E+00 -0.15740458378E+04  0.15740458378E+04  0.25500000920E-02 0. -1.
    10030    2    1    2    0    0  0.00000000000E+00  0.00000000000E+00 -0.56170389135E+03  0.25863877843E+04  0.25246565131E+04 0.  0.
        5    1    3    3  502    0 -0.66794076950E+03  0.40531604402E+03  0.73486693976E+03  0.10726031308E+04  0.46999998093E+01 0.  1.
       -5    1    3    3    0  502  0.66794076950E+03 -0.40531604402E+03 -0.12965708311E+04  0.15137846535E+04  0.46999998093E+01 0. -1.
</event>
<event>
 5   0  0.2072710E-05  0.2559924E+04  0.7818609E-02  0.8381943E-01
       -1   -1    0    0    0  501  0.00000000000E+00  0.00000000000E+00  0.63820933089E+03  0.63820933091E+03  0.50400001928E-02 0. -1.
        1   -1    0    0  501    0  0.00000000000E+00  0.00000000000E+00 -0.25670304305E+04  0.25670304305E+04  0.50400001928E-02 0.  1.
    10030    2    1    2    0    0  0.00000000000E+00  0.00000000000E+00 -0.19288210996E+04  0.32052397614E+04  0.25599240406E+04 0.  0.
        2    1    3    3  502    0  0.49137982041E+03  0.11817926381E+04 -0.98276141812E+03  0.16136629054E+04  0.25500000920E-02 0. -1.
       -2    1    3    3    0  502 -0.49137982041E+03 -0.11817926381E+04 -0.94605968146E+03  0.15915768559E+04  0.25500000920E-02 0.  1.
</event>
<event>
 5   0  0.2159405E-05  0.2606073E+04  0.7818609E-02  0.8366141E-01
       -1   -1    0    0    0  501  0.00000000000E+00  0.00000000000E+00  0.10708729023E+04  0.10708729023E+04  0.50400001928E-02 0.  1.
        1   -1    0    0  501    0  0.00000000000E+00  0.00000000000E+00 -0.15855324337E+04  0.15855324337E+04  0.50400001928E-02 0. -1.
    10030    2    1    2    0    0  0.00000000000E+00  0.00000000000E+00 -0.51465953138E+03  0.26564053359E+04  0.26060726919E+04 0.  0.
        3    1    3    3  502    0  0.53312367051E+03 -0.11409776759E+04  0.83573573864E+02  0.12621550846E+04  0.10100000352E+00 0.  1.
       -3    1    3    3    0  502 -0.53312367051E+03  0.11409776759E+04 -0.59823310525E+03  0.13942502514E+04  0.10100000352E+00 0. -1.
</event>
<event>
 5   0  0.1993815E-05  0.2608276E+04  0.7818609E-02  0.8365395E-01
        1   -1    0    0  501    0  0.00000000000E+00  0.00000000000E+00  0.18241948405E+04  0.18241948405E+04  0.50400001928E-02 0.  1.
       -1   -1    0    0    0  501  0.00000000000E+00  0.00000000000E+00 -0.93234339172E+03  0.93234339174E+03  0.50400001928E-02 0. -1.
    10030    2    1    2    0    0  0.00000000000E+00  0.00000000000E+00  0.89185144882E+03  0.27565382323E+04  0.26082760627E+04 0.  0.
        5    1    3    3  502    0  0.83911735328E+03 -0.82618983454E+03  0.10381788107E+04  0.15698869094E+04  0.46999998093E+01 0.  1.
       -5    1    3    3    0  502 -0.83911735328E+03  0.82618983454E+03 -0.14632736189E+03  0.11866513229E+04  0.46999998093E+01 0. -1.
</event>
<event>
 5   0  0.5036452E-05  0.2771731E+04  0.7818609E-02  0.8312099E-01
        2   -1    0    0  501    0  0.00000000000E+00  0.00000000000E+00  0.22919490840E+04  0.22919490840E+04  0.25500000920E-02 0.  1.
       -2   -1    0    0    0  501  0.00000000000E+00  0.00000000000E+00 -0.83798707582E+03  0.83798707582E+03  0.25500000920E-02 0. -1.
    10030    2    1    2    0    0  0.00000000000E+00  0.00000000000E+00  0.14539620082E+04  0.31299361598E+04  0.27717313801E+04 0.  0.
        2    1    3    3  502    0  0.31798866652E+03  0.49266313770E+02 -0.79521765465E+03  0.85785492945E+03  0.25500000920E-02 0. -1.
       -2    1    3    3    0  502 -0.31798866652E+03 -0.49266313770E+02  0.22491796628E+04  0.22720812304E+04  0.25500000920E-02 0.  1.
</event>
<event>
 5   0  0.5170532E-05  0.2606516E+04  0.7818609E-02  0.8365991E-01
        2   -1    0    0  501    0  0.00000000000E+00  0.00000000000E+00  0.16776091920E+04  0.16776091920E+04  0.25500000920E-02 0. -1.
       -2   -1    0    0    0  501  0.00000000000E+00  0.00000000000E+00 -0.10124417941E+04  0.10124417941E+04  0.25500000920E-02 0.  1.
    10030    2    1    2    0    0  0.00000000000E+00  0.00000000000E+00  0.66516739787E+03  0.26900509861E+04  0.26065161885E+04 0.  0.
        1    1    3    3  502    0 -0.12625590390E+04 -0.70563636335E+02  0.65804260500E+03  0.14255015342E+04  0.50400001928E-02 0. -1.
       -1    1    3    3    0  502  0.12625590390E+04  0.70563636335E+02  0.71247928688E+01  0.12645494520E+04  0.50400001928E-02 0.  1.
</event>
<event>
 5   0  0.2163800E-05  0.2806855E+04  0.7818609E-02  0.8301143E-01
        1   -1    0    0  501    0  0.00000000000E+00  0.00000000000E+00  0.10892023689E+04  0.10892023689E+04  0.50400001928E-02 0. -1.
       -1   -1    0    0    0  501  0.00000000000E+00  0.00000000000E+00 -0.18083041271E+04  0.18083041271E+04  0.50400001928E-02 0.  1.
    10030    2    1    2    0    0  0.00000000000E+00  0.00000000000E+00 -0.71910175812E+03  0.28975064960E+04  0.28068552788E+04 0.  0.
        1    1    3    3  502    0  0.17897944276E+03 -0.29374815329E+03 -0.17641142358E+04  0.17973371013E+04  0.50400001928E-02 0.  1.
       -1    1    3    3    0  502 -0.17897944276E+03  0.29374815329E+03  0.10450124777E+04  0.11001693947E+04  0.50400001928E-02 0. -1.
</event>
<event>
 5   0  0.2159405E-05  0.2698686E+04  0.7818609E-02  0.8335432E-01
        1   -1    0    0  501    0  0.00000000000E+00  0.00000000000E+00  0.99906008295E+03  0.99906008296E+03  0.50400001928E-02 0. -1.
       -1   -1    0    0    0  501  0.00000000000E+00  0.00000000000E+00 -0.18224388300E+04  0.18224388301E+04  0.50400001928E-02 0.  1.
    10030    2    1    2    0    0  0.00000000000E+00  0.00000000000E+00 -0.82337874710E+03  0.28214989130E+04  0.26986855235E+04 0.  0.
        3    1    3    3  502    0 -0.23455885009E+03 -0.67281590106E+03  0.78633154448E+03  0.10611391987E+04  0.10100000352E+00 0. -1.
       -3    1    3    3    0  502  0.23455885009E+03  0.67281590106E+03 -0.16097102916E+04  0.17603597144E+04  0.10100000352E+00 0.  1.
</event>
<event>
 5   0  0.2159405E-05  0.1319580E+04  0.7818609E-02  0.9014180E-01
        1   -1    0    0  501    0  0.00000000000E+00  0.00000000000E+00  0.81145496558E+03  0.81145496560E+03  0.50400001928E-02 0.  1.
       -1   -1    0    0    0  501  0.00000000000E+00  0.00000000000E+00 -0.53647208936E+03  0.53647208938E+03  0.50400001928E-02 0. -1.
    10030    2    1    2    0    0  0.00000000000E+00  0.00000000000E+00  0.27498287623E+03  0.13479270550E+04  0.13195801466E+04 0.  0.
        3    1    3    3  502    0  0.38092202133E+01  0.21232229078E+03 -0.50060988523E+03  0.54378813219E+03  0.10100000352E+00 0. -1.
       -3    1    3    3    0  502 -0.38092202133E+01 -0.21232229078E+03  0.77559276146E+03  0.80413892279E+03  0.10100000352E+00 0.  1.
</event>
<event>
 5   0  0.1954502E-05  0.2114136E+04  0.7818609E-02  0.8555042E-01
        1   -1    0    0  501    0  0.00000000000E+00  0.00000000000E+00  0.31529906390E+04  0.31529906390E+04  0.50400001928E-02 0.  1.
       -1   -1    0    0    0  501  0.00000000000E+00  0.00000000000E+00 -0.35439152116E+03  0.35439152120E+03  0.50400001928E-02 0. -1.
    10030    2    1    2    0    0  0.00000000000E+00  0.00000000000E+00  0.27985991178E+04  0.35073821602E+04  0.21141363710E+04 0.  0.
        4    1    3    3  502    0 -0.14532559660E+03  0.14999760344E+03 -0.31982076692E+03  0.38197610648E+03  0.12699999809E+01 0. -1.
       -4    1    3    3    0  502  0.14532559660E+03 -0.14999760344E+03  0.31184198848E+04  0.31254060537E+04  0.12699999809E+01 0.  1.
</event>
<event>
 5   0  0.5170532E-05  0.2629360E+04  0.7818609E-02  0.8358296E-01
       -2   -1    0    0    0  501  0.00000000000E+00  0.00000000000E+00  0.15559404997E+04  0.15559404997E+04  0.25500000920E-02 0.  1.
        2   -1    0    0  501    0  0.00000000000E+00  0.00000000000E+00 -0.11108291334E+04  0.11108291334E+04  0.25500000920E-02 0. -1.
    10030    2    1    2    0    0  0.00000000000E+00  0.00000000000E+00  0.44511136639E+03  0.26667696331E+04  0.26293604066E+04 0.  0.
        1    1    3    3  502    0  0.14458472861E+03  0.10036117266E+04  0.10712664402E+04  0.14750433985E+04  0.50400001928E-02 0.  1.
       -1    1    3    3    0  502 -0.14458472861E+03 -0.10036117266E+04 -0.62615507385E+03  0.11917262346E+04  0.50400001928E-02 0. -1.
</event>
<event>
 5   0  0.5182179E-05  0.2590848E+04  0.7818609E-02  0.8371317E-01
        2   -1    0    0  501    0  0.00000000000E+00  0.00000000000E+00  0.10717689904E+04  0.10717689904E+04  0.25500000920E-02 0.  1.
       -2   -1    0    0    0  501  0.00000000000E+00  0.00000000000E+00 -0.15657506527E+04  0.15657506527E+04  0.25500000920E-02 0. -1.
    10030    2    1    2    0    0  0.00000000000E+00  0.00000000000E+00 -0.49398166229E+03  0.26375196431E+04  0.25908477348E+04 0.  0.
        3    1    3    3  502    0 -0.10806016966E+04 -0.70394450289E+03 -0.37119313069E+03  0.13420216989E+04  0.10100000352E+00 0.  1.
       -3    1    3    3    0  502  0.10806016966E+04  0.70394450289E+03 -0.12278853160E+03  0.12954979442E+04  0.10100000352E+00 0. -1.
</event>
<event>
 5   0  0.2159405E-05  0.1981737E+04  0.7818609E-02  0.8615207E-01
       -1   -1    0    0    0  501  0.00000000000E+00  0.00000000000E+00  0.39223607448E+03  0.39223607451E+03  0.50400001928E-02 0. -1.
        1   -1    0    0  501    0  0.00000000000E+00  0.00000000000E+00 -0.25031371676E+04  0.25031371676E+04  0.50400001928E-02 0.  1.
    10030    2    1    2    0    0  0.00000000000E+00  0.00000000000E+00 -0.21109010931E+04  0.28953732421E+04  0.19817373151E+04 0.  0.
        3    1    3    3  502    0 -0.10646638834E+03  0.97525000632E+03 -0.85209448179E+03  0.12994278290E+04  0.10100000352E+00 0.  1.
       -3    1    3    3    0  502  0.10646638834E+03 -0.97525000632E+03 -0.12588066113E+04  0.15959454131E+04  0.10100000352E+00 0. -1.
</event>
<event>
 5   0  0.5049803E-05  0.2476398E+04  0.7818609E-02  0.8411443E-01
       -2   -1    0    0    0  501  0.00000000000E+00  0.00000000000E+00  0.79341979168E+03  0.79341979169E+03  0.25500000920E-02 0.  1.
        2   -1    0    0  501    0  0.00000000000E+00  0.00000000000E+00 -0.19323143422E+04  0.19323143422E+04  0.25500000920E-02 0. -1.
    10030    2    1    2    0    0  0.00000000000E+00  0.00000000000E+00 -0.11388945505E+04  0.27257341339E+04  0.24763977409E+04 0.  0.
        4    1    3    3  502    0 -0.11490864150E+04  0.44737709715E+03 -0.69294480080E+03  0.14144680859E+04  0.12699999809E+01 0. -1.
       -4    1    3    3    0  502  0.11490864150E+04 -0.44737709715E+03 -0.44594974970E+03  0.13112660479E+04  0.12699999809E+01 0.  1.
</event>
<event>
 5   0  0.2159405E-05  0.1624367E+04  0.7818609E-02  0.8805717E-01
       -1   -1    0    0    0  501  0.00000000000E+00  0.00000000000E+00  0.47786798407E+03  0.47786798410E+03  0.50400001928E-02 0. -1.
        1   -1    0    0  501    0  0.00000000000E+00  0.00000000000E+00 -0.13803847395E+04  0.13803847396E+04  0.50400001928E-02 0.  1.
    10030    2    1    2    0    0  0.00000000000E+00  0.00000000000E+00 -0.90251675548E+03  0.18582527237E+04  0.16243665507E+04 0.  0.
        3    1    3    3  502    0 -0.44658935043E+03 -0.15059305862E+03 -0.12079525045E+04  0.12966377985E+04  0.10100000352E+00 0.  1.
       -3    1    3    3    0  502  0.44658935043E+03  0.15059305862E+03  0.30543574899E+03  0.56161492518E+03  0.10100000352E+00 0. -1.
</event>
<event>
 5   0  0.2159405E-05  0.2488880E+04  0.7818609E-02  0.8406958E-01
        1   -1    0    0  501    0  0.00000000000E+00  0.00000000000E+00  0.23647769854E+04  0.23647769854E+04  0.50400001928E-02 0. -1.
       -1   -1    0    0    0  501  0.00000000000E+00  0.00000000000E+00 -0.65487419858E+03  0.65487419860E+03  0.50400001928E-02 0.  1.
    10030    2    1    2    0    0  0.00000000000E+00  0.00000000000E+00  0.17099027868E+04  0.30196511840E+04  0.24888804175E+04 0.  0.
        3    1    3    3  502    0 -0.10599613821E+04  0.17835142519E+03  0.16158327843E+04  0.19406810556E+04  0.10100000352E+00 0. -1.
       -3    1    3    3    0  502  0.10599613821E+04 -0.17835142519E+03  0.94070002527E+02  0.10789701284E+04  0.10100000352E+00 0.  1.
</event>
<event>
 5   0  0.4955675E-05  0.1646691E+04  0.7818609E-02  0.8792367E-01
       -2   -1    0    0    0  501  0.00000000000E+00  0.00000000000E+00  0.65945194709E+03  0.65945194710E+03  0.25500000920E-02 0. -1.
        2   -1    0    0  501    0  0.00000000000E+00  0.00000000000E+00 -0.10279711408E+04  0.10279711408E+04  0.25500000920E-02 0.  1.
    10030    2    1    2    0    0  0.00000000000E+00  0.00000000000E+00 -0.36851919370E+03  0.16874230879E+04  0.16466907061E+04 0.  0.
        5    1    3    3  502    0 -0.67274142718E+03 -0.45754561194E+03 -0.31366254524E+03  0.87197207360E+03  0.46999998093E+01 0. -1.
       -5    1    3    3    0  502  0.67274142718E+03  0.45754561194E+03 -0.54856648461E+02  0.81545101430E+03  0.46999998093E+01 0.  1.
</event>
<event>
 5   0  0.1954502E-05  0.2554512E+04  0.7818609E-02  0.8383819E-01
       -1   -1    0    0    0  501  0.00000000000E+00  0.00000000000E+00  0.65962451594E+03  0.65962451595E+03  0.50400001928E-02 0.  1.
        1   -1    0    0  501    0  0.00000000000E+00  0.00000000000E+00 -0.24731988908E+04  0.24731988908E+04  0.50400001928E-02 0. -1.
    10030    2    1    2    0    0  0.00000000000E+00  0.00000000000E+00 -0.18135743749E+04  0.31328234068E+04  0.25545117899E+04 0.  0.
        4    1    3    3  502    0 -0.26174580847E+03  0.39491452989E+03  0.54787306236E+03  0.72431682262E+03  0.12699999809E+01 0.  1.
       -4    1    3    3    0  502  0.26174580847E+03 -0.39491452989E+03 -0.23614474372E+04  0.24085065841E+04  0.12699999809E+01 0. -1.
</event>
<event>
 5   0  0.2159405E-05  0.2595421E+04  0.7818609E-02  0.8369758E-01
        1   -1    0    0  501    0  0.00000000000E+00  0.00000000000E+00  0.18725887080E+04  0.18725887081E+04  0.50400001928E-02 0.  1.
       -1   -1    0    0    0  501  0.00000000000E+00  0.00000000000E+00 -0.89931814752E+03  0.89931814753E+03  0.50400001928E-02 0. -1.
    10030    2    1    2    0    0  0.00000000000E+00  0.00000000000E+00  0.97327056053E+03  0.27719068556E+04  0.25954213593E+04 0.  0.
        3    1    3    3  502    0 -0.99235573023E+03  0.15069117206E+03 -0.39183853097E+03  0.10775041388E+04  0.10100000352E+00 0. -1.
       -3    1    3    3    0  502  0.99235573023E+03 -0.15069117206E+03  0.13651090915E+04  0.16944027168E+04  0.10100000352E+00 0.  1.
</event>
<event>
 5   0  0.5036452E-05  0.1892647E+04  0.7818609E-02  0.8658525E-01
        2   -1    0    0  501    0  0.00000000000E+00  0.00000000000E+00  0.14972870266E+04  0.14972870266E+04  0.25500000920E-02 0. -1.
       -2   -1    0    0    0  501  0.00000000000E+00  0.00000000000E+00 -0.59810052401E+03  0.59810052402E+03  0.25500000920E-02 0.  1.
    10030    2    1    2    0    0  0.00000000000E+00  0.00000000000E+00  0.89918650259E+03  0.20953875506E+04  0.18926469879E+04 0.  0.
        2    1    3    3  502    0  0.73117854641E+03 -0.59503231927E+03  0.54117442191E+03  0.10869936903E+04  0.25500000920E-02 0.  1.
       -2    1    3    3    0  502 -0.73117854641E+03  0.59503231927E+03  0.35801208068E+03  0.10083938604E+04  0.25500000920E-02 0. -1.
</event>
<event>
 5   0  0.2163800E-05  0.1781699E+04  0.7818609E-02  0.8716092E-01
       -1   -1    0    0    0  501  0.00000000000E+00  0.00000000000E+00  0.50327452720E+03  0.50327452722E+03  0.50400001928E-02 0.  1.
        1   -1    0    0  501    0  0.00000000000E+00  0.00000000000E+00 -0.15768993480E+04  0.15768993480E+04  0.50400001928E-02 0. -1.
    10030    2    1    2    0    0  0.00000000000E+00  0.00000000000E+00 -0.10736248208E+04  0.20801738753E+04  0.17816994964E+04 0.  0.
        1    1    3    3  502    0 -0.32465511997E+03  0.64764806758E+03  0.68460137543E+02  0.72769207556E+03  0.50400001928E-02 0.  1.
       -1    1    3    3    0  502  0.32465511997E+03 -0.64764806758E+03 -0.11420849584E+04  0.13524817997E+04  0.50400001928E-02 0. -1.
</event>
<event>
 5   0  0.5170532E-05  0.2550321E+04  0.7818609E-02  0.8385275E-01
       -2   -1    0    0    0  501  0.00000000000E+00  0.00000000000E+00  0.96530074654E+03  0.96530074654E+03  0.25500000920E-02 0.  1.
        2   -1    0    0  501    0  0.00000000000E+00  0.00000000000E+00 -0.16844843149E+04  0.16844843149E+04  0.25500000920E-02 0. -1.
    10030    2    1    2    0    0  0.00000000000E+00  0.00000000000E+00 -0.71918356832E+03  0.26497850614E+04  0.25503207380E+04 0.  0.
        1    1    3    3  502    0 -0.89209339227E+03  0.44711161564E+03  0.46528222685E+03  0.11010117929E+04  0.50400001928E-02 0.  1.
       -1    1    3    3    0  502  0.89209339227E+03 -0.44711161564E+03 -0.11844657952E+04  0.15487732685E+04  0.50400001928E-02 0. -1.
</event>
<event>
 5   0  0.2072710E-05  0.1628341E+04  0.7818609E-02  0.8803324E-01
       -1   -1    0    0    0  501  0.00000000000E+00  0.00000000000E+00  0.79703226626E+03  0.79703226627E+03  0.50400001928E-02 0. -1.
        1   -1    0    0  501    0  0.00000000000E+00  0.00000000000E+00 -0.83167699320E+03  0.83167699322E+03  0.50400001928E-02 0.  1.
    10030    2    1    2    0    0  0.00000000000E+00  0.00000000000E+00 -0.34644726948E+02  0.16287092595E+04  0.16283407490E+04 0.  0.
        2    1    3    3  502    0 -0.38921614089E+03  0.47468451904E+03 -0.55228805638E+03  0.82573403356E+03  0.25500000920E-02 0.  1.
       -2    1    3    3    0  502  0.38921614089E+03 -0.47468451904E+03  0.51764332944E+03  0.80297522593E+03  0.25500000920E-02 0. -1.
</event>
<event>
 5   0  0.1954502E-05  0.2644436E+04  0.7818609E-02  0.8353262E-01
       -1   -1    0    0    0  501  0.00000000000E+00  0.00000000000E+00  0.92543971360E+03  0.92543971361E+03  0.50400001928E-02 0.  1.
        1   -1    0    0  501    0  0.00000000000E+00  0.00000000000E+00 -0.18891127018E+04  0.18891127018E+04  0.50400001928E-02 0. -1.
    10030    2    1    2    0    0  0.00000000000E+00  0.00000000000E+00 -0.96367298819E+03  0.28145524154E+04  0.26444356054E+04 0.  0.
        4    1    3    3  502    0  0.71432389230E+03 -0.92862345646E+03  0.17050162516E+03  0.11839225330E+04  0.12699999809E+01 0.  1.
       -4    1    3    3    0  502 -0.71432389230E+03  0.92862345646E+03 -0.11341746134E+04  0.16306298824E+04  0.12699999809E+01 0. -1.
</event>
<event>
 5   0  0.5182179E-05  0.2553802E+04  0.7818609E-02  0.8384065E-01
        2   -1    0    0  501    0  0.00000000000E+00  0.00000000000E+00  0.18016010416E+04  0.18016010416E+04  0.25500000920E-02 0. -1.
       -2   -1    0    0    0  501  0.00000000000E+00  0.00000000000E+00 -0.90501534588E+03  0.90501534589E+03  0.25500000920E-02 0.  1.
    10030    2    1    2    0    0  0.00000000000E+00  0.00000000000E+00  0.89658569573E+03  0.27066163875E+04  0.25538023336E+04 0.  0.
        3    1    3    3  502    0 -0.10979257992E+04  0.64638181204E+03  0.35819994689E+03  0.13234642873E+04  0.10100000352E+00 0.  1.
       -3    1    3    3    0  502  0.10979257992E+04 -0.64638181204E+03  0.53838574885E+03  0.13831521002E+04  0.10100000352E+00 0. -1.
</event>
<event>
 5   0  0.2159405E-05  0.2613759E+04  0.7818609E-02  0.8363543E-01
       -1   -1    0    0    0  501  0.00000000000E+00  0.00000000000E+00  0.13617316202E+04  0.13617316202E+04  0.50400001928E-02 0. -1.
        1   -1    0    0  501    0  0.00000000000E+00  0.00000000000E+00 -0.12542368400E+04  0.12542368400E+04  0.50400001928E-02 0.  1.
    10030    2    1    2    0    0  0.00000000000E+00  0.00000000000E+00  0.10749478020E+03  0.26159684603E+04  0.26137589517E+04 0.  0.
        3    1    3    3  502    0  0.77658719048E+01  0.73011556893E+03 -0.10310530313E+04  0.12634078583E+04  0.10100000352E+00 0.  1.
       -3    1    3    3    0  502 -0.77658719048E+01 -0.73011556893E+03  0.11385478115E+04  0.13525606020E+04  0.10100000352E+00 0. -1.
</event>
<event>
 5   0  0.5036452E-05  0.1996410E+04  0.7818609E-02  0.8608301E-01
        2   -1    0    0  501    0  0.00000000000E+00  0.00000000000E+00  0.83935455178E+03  0.83935455179E+03  0.25500000920E-02 0.  1.
       -2   -1    0    0    0  501  0.00000000000E+00  0.00000000000E+00 -0.11871180288E+04  0.11871180289E+04  0.25500000920E-02 0. -1.
    10030    2    1    2    0    0  0.00000000000E+00  0.00000000000E+00 -0.34776347706E+03  0.20264725806E+04  0.19964096985E+04 0.  0.
        2    1    3    3  502    0  0.20814892031E+03 -0.95977511152E+03  0.74665848032E+01  0.98211505824E+03  0.25500000920E-02 0.  1.
       -2    1    3    3    0  502 -0.20814892031E+03  0.95977511152E+03 -0.35523006187E+03  0.10443575224E+04  0.25500000920E-02 0. -1.
</event>
<event>
 5   0  0.5182179E-05  0.2593528E+04  0.7818609E-02  0.8370403E-01
        2   -1    0    0  501    0  0.00000000000E+00  0.00000000000E+00  0.16231173728E+04  0.16231173728E+04  0.25500000920E-02 0. -1.
       -2   -1    0    0    0  501  0.00000000000E+00  0.00000000000E+00 -0.10360294934E+04  0.10360294934E+04  0.25500000920E-02 0.  1.
    10030    2    1    2    0    0  0.00000000000E+00  0.00000000000E+00  0.58708787948E+03  0.26591468662E+04  0.25935284610E+04 0.  0.
        3    1    3    3  502    0 -0.90060009560E+03 -0.93220282161E+03  0.33344943877E+03  0.13383837907E+04  0.10100000352E+00 0. -1.
       -3    1    3    3    0  502  0.90060009560E+03  0.93220282161E+03  0.25363844071E+03  0.13207630755E+04  0.10100000352E+00 0.  1.
</event>
<event>
 5   0  0.5036452E-05  0.2652420E+04  0.7818609E-02  0.8350610E-01
       -2   -1    0    0    0  501  0.00000000000E+00  0.00000000000E+00  0.13494965487E+04  0.13494965487E+04  0.25500000920E-02 0. -1.
        2   -1    0    0  501    0  0.00000000000E+00  0.00000000000E+00 -0.13033253522E+04  0.13033253522E+04  0.25500000920E-02 0.  1.
    10030    2    1    2    0    0  0.00000000000E+00  0.00000000000E+00  0.46171196526E+02  0.26528219008E+04  0.26524200757E+04 0.  0.
        2    1    3    3  502    0  0.16406593604E+03  0.55325897850E+03  0.12173435161E+04  0.13471964834E+04  0.25500000920E-02 0. -1.
       -2    1    3    3    0  502 -0.16406593604E+03 -0.55325897850E+03 -0.11711723196E+04  0.13056254175E+04  0.25500000920E-02 0.  1.
</event>
<event>
 5   0  0.5036452E-05  0.2386287E+04  0.7818609E-02  0.8444655E-01
       -2   -1    0    0    0  501  0.00000000000E+00  0.00000000000E+00  0.84083279301E+03  0.84083279302E+03  0.25500000920E-02 0.  1.
        2   -1    0    0  501    0  0.00000000000E+00  0.00000000000E+00 -0.16930736416E+04  0.16930736416E+04  0.25500000920E-02 0. -1.
    10030    2    1    2    0    0  0.00000000000E+00  0.00000000000E+00 -0.85224084855E+03  0.25339064346E+04  0.23862873581E+04 0.  0.
        2    1    3    3  502    0  0.10353382300E+03 -0.28239204496E+03  0.79991677704E+03  0.85459427201E+03  0.25500000920E-02 0.  1.
       -2    1    3    3    0  502 -0.10353382300E+03  0.28239204496E+03 -0.16521576256E+04  0.16793121626E+04  0.25500000920E-02 0. -1.
</event>
<event>
 5   0  0.1993815E-05  0.2574261E+04  0.7818609E-02  0.8376997E-01
        1   -1    0    0  501    0  0.00000000000E+00  0.00000000000E+00  0.20271605513E+04  0.20271605513E+04  0.50400001928E-02 0. -1.
       -1   -1    0    0    0  501  0.00000000000E+00  0.00000000000E+00 -0.81725367251E+03  0.81725367253E+03  0.50400001928E-02 0.  1.
    10030    2    1    2    0    0  0.00000000000E+00  0.00000000000E+00  0.12099068788E+04  0.28444142239E+04  0.25742605970E+04 0.  0.
        5    1    3    3  502    0 -0.11201048761E+04 -0.57307657527E+03  0.30512725108E+03  0.12946723230E+04  0.46999998093E+01 0.  1.
       -5    1    3    3    0  502  0.11201048761E+04  0.57307657527E+03  0.90477962773E+03  0.15497419009E+04  0.46999998093E+01 0. -1.
</event>
<event>
 5   0  0.2163800E-05  0.2637273E+04  0.7818609E-02  0.8355650E-01
        1   -1    0    0  501    0  0.00000000000E+00  0.00000000000E+00  0.28115471321E+04  0.28115471321E+04  0.50400001928E-02 0. -1.
       -1   -1    0    0    0  501  0.00000000000E+00  0.00000000000E+00 -0.61845036121E+03  0.61845036124E+03  0.50400001928E-02 0.  1.
    10030    2    1    2    0    0  0.00000000000E+00  0.00000000000E+00  0.21930967709E+04  0.34299974933E+04  0.26372730913E+04 0.  0.
        1    1    3    3  502    0 -0.39853772060E+03 -0.45673682334E+03 -0.42650341830E+03  0.74117879515E+03  0.50400001928E-02 0.  1.
       -1    1    3    3    0  502  0.39853772060E+03  0.45673682334E+03  0.26196001892E+04  0.26888186982E+04  0.50400001928E-02 0. -1.
</event>
<event>
 5   0  0.5036452E-05  0.2599773E+04  0.7818609E-02  0.8368278E-01
       -2   -1    0    0    0  501  0.00000000000E+00  0.00000000000E+00  0.12730495110E+04  0.12730495110E+04  0.25500000920E-02 0. -1.
        2   -1    0    0  501    0  0.00000000000E+00  0.00000000000E+00 -0.13272887554E+04  0.13272887554E+04  0.25500000920E-02 0.  1.
    10030    2    1    2    0    0  0.00000000000E+00  0.00000000000E+00 -0.54239244357E+02  0.26003382664E+04  0.25997725293E+04 0.  0.
        2    1    3    3  502    0 -0.90568184455E+01  0.94396482330E+03  0.86669259059E+03  0.12815255207E+04  0.25500000920E-02 0. -1.
       -2    1    3    3    0  502  0.90568184455E+01 -0.94396482330E+03 -0.92093183495E+03  0.13188127457E+04  0.25500000920E-02 0.  1.
</event>
<event>
 5   0  0.5036452E-05  0.2545222E+04  0.7818609E-02  0.8387050E-01
       -2   -1    0    0    0  501  0.00000000000E+00  0.00000000000E+00  0.16630460317E+04  0.16630460317E+04  0.25500000920E-02 0. -1.
        2   -1    0    0  501    0  0.00000000000E+00  0.00000000000E+00 -0.97383875520E+03  0.97383875521E+03  0.25500000920E-02 0.  1.
    10030    2    1    2    0    0  0.00000000000E+00  0.00000000000E+00  0.68920727651E+03  0.26368847869E+04  0.25452219372E+04 0.  0.
        2    1    3    3  502    0  0.68006751418E+03  0.56366298996E+03  0.12937476227E+04  0.15665218483E+04  0.25500000920E-02 0. -1.
       -2    1    3    3    0  502 -0.68006751418E+03 -0.56366298996E+03 -0.60454034619E+03  0.10703629386E+04  0.25500000920E-02 0.  1.
</event>
<event>
 5   0  0.5182179E-05  0.2730598E+04  0.7818609E-02  0.8325145E-01
       -2   -1    0    0    0  501  0.00000000000E+00  0.00000000000E+00  0.12700661943E+04  0.12700661943E+04  0.25500000920E-02 0.  1.
        2   -1    0    0  501    0  0.00000000000E+00  0.00000000000E+00 -0.14676726288E+04  0.14676726288E+04  0.25500000920E-02 0. -1.
    10030    2    1    2    0    0  0.00000000000E+00  0.00000000000E+00 -0.19760643455E+03  0.27377388231E+04  0.27305980225E+04 0.  0.
        3    1    3    3  502    0  0.92299834336E+03 -0.10340590805E+03  0.90452482260E+03  0.12964504960E+04  0.10100000352E+00 0.  1.
       -3    1    3    3    0  502 -0.92299834336E+03  0.10340590805E+03 -0.11021312572E+04  0.14412883271E+04  0.10100000352E+00 0. -1.
</event>
<event>
 5   0  0.2072710E-05  0.2542431E+04  0.7818609E-02  0.8388023E-01
       -1   -1    0    0    0  501  0.00000000000E+00  0.00000000000E+00  0.10139048467E+04  0.10139048468E+04  0.50400001928E-02 0.  1.
        1   -1    0    0  501    0  0.00000000000E+00  0.00000000000E+00 -0.15938268071E+04  0.15938268071E+04  0.50400001928E-02 0. -1.
    10030    2    1    2    0    0  0.00000000000E+00  0.00000000000E+00 -0.57992196033E+03  0.26077316538E+04  0.25424309034E+04 0.  0.
        2    1    3    3  502    0  0.70556290461E+03  0.10509349428E+04 -0.41003817151E+03  0.13305692648E+04  0.25500000920E-02 0.  1.
       -2    1    3    3    0  502 -0.70556290461E+03 -0.10509349428E+04 -0.16988378883E+03  0.12771623891E+04  0.25500000920E-02 0. -1.
</event>
<event>
 5   0  0.2163800E-05  0.2641518E+04  0.7818609E-02  0.8354234E-01
        1   -1    0    0  501    0  0.00000000000E+00  0.00000000000E+00  0.20925646289E+04  0.20925646289E+04  0.50400001928E-02 0. -1.
       -1   -1    0    0    0  501  0.00000000000E+00  0.00000000000E+00 -0.83362008146E+03  0.83362008147E+03  0.50400001928E-02 0.  1.
    10030    2    1    2    0    0  0.00000000000E+00  0.00000000000E+00  0.12589445475E+04  0.29261847104E+04  0.26415176671E+04 0.  0.
        1    1    3    3  502    0 -0.17539415247E+03 -0.44224811253E+03  0.19943454946E+04  0.20503074046E+04  0.50400001928E-02 0. -1.
       -1    1    3    3    0  502  0.17539415247E+03  0.44224811253E+03 -0.73540094710E+03  0.87587730578E+03  0.50400001928E-02 0.  1.
</event>
<event>
 5   0  0.5036452E-05  0.2514299E+04  0.7818609E-02  0.8397909E-01
        2   -1    0    0  501    0  0.00000000000E+00  0.00000000000E+00  0.31210499768E+04  0.31210499768E+04  0.25500000920E-02 0.  1.
       -2   -1    0    0    0  501  0.00000000000E+00  0.00000000000E+00 -0.50637600179E+03  0.50637600180E+03  0.25500000920E-02 0. -1.
    10030    2    1    2    0    0  0.00000000000E+00  0.00000000000E+00  0.26146739750E+04  0.36274259786E+04  0.25142989549E+04 0.  0.
        2    1    3    3  502    0  0.83723167964E+02  0.90190759248E+03  0.49622291375E+02  0.90714345395E+03  0.25500000920E-02 0. -1.
       -2    1    3    3    0  502 -0.83723167964E+02 -0.90190759248E+03  0.25650516836E+04  0.27202825247E+04  0.25500000920E-02 0.  1.
</event>
<event>
 5   0  0.4955675E-05  0.2601431E+04  0.7818609E-02  0.8367715E-01
       -2   -1    0    0    0  501  0.00000000000E+00  0.00000000000E+00  0.10745488153E+04  0.10745488153E+04  0.25500000920E-02 0.  1.
        2   -1    0    0  501    0  0.00000000000E+00  0.00000000000E+00 -0.15744846299E+04  0.15744846299E+04  0.25500000920E-02 0. -1.
    10030    2    1    2    0    0  0.00000000000E+00  0.00000000000E+00 -0.49993581462E+03  0.26490334452E+04  0.26014308322E+04 0.  0.
        5    1    3    3  502    0  0.83572060324E+03  0.91497318849E+03 -0.65246471095E+03  0.14004774726E+04  0.46999998093E+01 0. -1.
       -5    1    3    3    0  502 -0.83572060324E+03 -0.91497318849E+03  0.15252889634E+03  0.12485559725E+04  0.46999998093E+01 0.  1.
</event>
<event>
 5   0  0.2072710E-05  0.2683868E+04  0.7818609E-02  0.8340258E-01
        1   -1    0    0  501    0  0.00000000000E+00  0.00000000000E+00  0.12187452765E+04  0.12187452765E+04  0.50400001928E-02 0.  1.
       -1   -1    0    0    0  501  0.00000000000E+00  0.00000000000E+00 -0.14775749679E+04  0.14775749679E+04  0.50400001928E-02 0. -1.
    10030    2    1    2    0    0  0.00000000000E+00  0.00000000000E+00 -0.25882969138E+03  0.26963202444E+04  0.26838684862E+04 0.  0.
        2    1    3    3  502    0  0.19037347148E+03  0.11800832730E+04 -0.74212050861E+03  0.14069759910E+04  0.25500000920E-02 0. -1.
       -2    1    3    3    0  502 -0.19037347148E+03 -0.11800832730E+04  0.48329081723E+03  0.12893442535E+04  0.25500000920E-02 0.  1.
</event>
<event>
 5   0  0.1993815E-05  0.2570278E+04  0.7818609E-02  0.8378368E-01
       -1   -1    0    0    0  501  0.00000000000E+00  0.00000000000E+00  0.12391404638E+04  0.12391404638E+04  0.50400001928E-02 0. -1.
        1   -1    0    0  501    0  0.00000000000E+00  0.00000000000E+00 -0.13328450299E+04  0.13328450299E+04  0.50400001928E-02 0.  1.
    10030    2    1    2    0    0  0.00000000000E+00  0.00000000000E+00 -0.93704566180E+02  0.25719854937E+04  0.25702779683E+04 0.  0.
        5    1    3    3  502    0  0.46638946308E+03 -0.37842501056E+03  0.10900519181E+04  0.12445721731E+04  0.46999998093E+01 0. -1.
       -5    1    3    3    0  502 -0.46638946308E+03  0.37842501056E+03 -0.11837564842E+04  0.13274133207E+04  0.46999998093E+01 0.  1.
</event>
<event>
 5   0  0.5049803E-05  0.1877235E+04  0.7818609E-02  0.8666272E-01
        2   -1    0    0  501    0  0.00000000000E+00  0.00000000000E+00  0.20916544280E+04  0.20916544280E+04  0.25500000920E-02 0.  1.
       -2   -1    0    0    0  501  0.00000000000E+00  0.00000000000E+00 -0.42119888078E+03  0.42119888079E+03  0.25500000920E-02 0. -1.
    10030    2    1    2    0    0  0.00000000000E+00  0.00000000000E+00  0.16704555472E+04  0.25128533088E+04  0.18772346727E+04 0.  0.
        4    1    3    3  502    0 -0.32176446804E+03  0.71933252969E+03  0.15178173543E+04  0.17101879414E+04  0.12699999809E+01 0.  1.
       -4    1    3    3    0  502  0.32176446804E+03 -0.71933252969E+03  0.15263819296E+03  0.80266536739E+03  0.12699999809E+01 0. -1.
</event>
<event>
 5   0  0.2159405E-05  0.2577902E+04  0.7818609E-02  0.8375746E-01
       -1   -1    0    0    0  501  0.00000000000E+00  0.00000000000E+00  0.10389137895E+04  0.10389137896E+04  0.50400001928E-02 0.  1.
        1   -1    0    0  501    0  0.00000000000E+00  0.00000000000E+00 -0.15991653107E+04  0.15991653107E+04  0.50400001928E-02 0. -1.
    10030    2    1    2    0    0  0.00000000000E+00  0.00000000000E+00 -0.56025152111E+03  0.26380791002E+04  0.25779021650E+04 0.  0.
        3    1    3    3  502    0 -0.32960238225E+03  0.21005897772E+03 -0.15370615555E+04  0.15859762735E+04  0.10100000352E+00 0. -1.
       -3    1    3    3    0  502  0.32960238225E+03 -0.21005897772E+03  0.97681003439E+03  0.10521028267E+04  0.10100000352E+00 0.  1.
</event>
<event>
 5   0  0.2072710E-05  0.1501700E+04  0.7818609E-02  0.8883323E-01
        1   -1    0    0  501    0  0.00000000000E+00  0.00000000000E+00  0.69685356846E+03  0.69685356848E+03  0.50400001928E-02 0.  1.
       -1   -1    0    0    0  501  0.00000000000E+00  0.00000000000E+00 -0.80903028766E+03  0.80903028767E+03  0.50400001928E-02 0. -1.
    10030    2    1    2    0    0  0.00000000000E+00  0.00000000000E+00 -0.11217671920E+03  0.15058838562E+04  0.15016998941E+04 0.  0.
        2    1    3    3  502    0  0.61576639707E+03 -0.42955226216E+03 -0.65719350553E+02  0.75365936253E+03  0.25500000920E-02 0.  1.
       -2    1    3    3    0  502 -0.61576639707E+03  0.42955226216E+03 -0.46457368647E+02  0.75222449362E+03  0.25500000920E-02 0. -1.
</event>
<event>
 5   0  0.5036452E-05  0.2523061E+04  0.7818609E-02  0.8394816E-01
        2   -1    0    0  501    0  0.00000000000E+00  0.00000000000E+00  0.12294851535E+04  0.12294851535E+04  0.25500000920E-02 0. -1.
       -2   -1    0    0    0  501  0.00000000000E+00  0.00000000000E+00 -0.12944111902E+04  0.12944111902E+04  0.25500000920E-02 0.  1.
    10030    2    1    2    0    0  0.00000000000E+00  0.00000000000E+00 -0.64926036697E+02  0.25238963438E+04  0.25230611098E+04 0.  0.
        2    1    3    3  502    0 -0.96478944410E+03 -0.79233696850E+03  0.14882279472E+03  0.12572846803E+04  0.25500000920E-02 0.  1.
       -2    1    3    3    0  502  0.96478944410E+03  0.79233696850E+03 -0.21374883141E+03  0.12666116635E+04  0.25500000920E-02 0. -1.
</event>
<event>
 5   0  0.4955675E-05  0.2607482E+04  0.7818609E-02  0.8365664E-01
       -2   -1    0    0    0  501  0.00000000000E+00  0.00000000000E+00  0.13740915560E+04  0.13740915560E+04  0.25500000920E-02 0. -1.
        2   -1    0    0  501    0  0.00000000000E+00  0.00000000000E+00 -0.12369923361E+04  0.12369923361E+04  0.25500000920E-02 0.  1.
    10030    2    1    2    0    0  0.00000000000E+00  0.00000000000E+00  0.13709921996E+03  0.26110838921E+04  0.26074820988E+04 0.  0.
        5    1    3    3  502    0  0.61763532996E+03 -0.99723154346E+03  0.63834744992E+03  0.13354601113E+04  0.46999998093E+01 0. -1.
       -5    1    3    3    0  502 -0.61763532996E+03  0.99723154346E+03 -0.50124822996E+03  0.12756237808E+04  0.46999998093E+01 0.  1.
</event>
<event>
 5   0  0.1954502E-05  0.2326522E+04  0.7818609E-02  0.8467537E-01
       -1   -1    0    0    0  501  0.00000000000E+00  0.00000000000E+00  0.11291231234E+04  0.11291231234E+04  0.50400001928E-02 0. -1.
        1   -1    0    0  501    0  0.00000000000E+00  0.00000000000E+00 -0.11984305680E+04  0.11984305680E+04  0.50400001928E-02 0.  1.
    10030    2    1    2    0    0  0.00000000000E+00  0.00000000000E+00 -0.69307444633E+02  0.23275536914E+04  0.23265215805E+04 0.  0.
        4    1    3    3  502    0 -0.67262446148E+03 -0.42770849252E+03 -0.88226970885E+03  0.11890162626E+04  0.12699999809E+01 0.  1.
       -4    1    3    3    0  502  0.67262446148E+03  0.42770849252E+03  0.81296226422E+03  0.11385374288E+04  0.12699999809E+01 0. -1.
</event>
<event>
 5   0  0.4955675E-05  0.2541390E+04  0.7818609E-02  0.8388387E-01
        2   -1    0    0  501    0  0.00000000000E+00  0.00000000000E+00  0.19142299363E+04  0.19142299363E+04  0.25500000920E-02 0.  1.
       -2   -1    0    0    0  501  0.00000000000E+00  0.00000000000E+00 -0.84350667822E+03  0.84350667823E+03  0.25500000920E-02 0. -1.
    10030    2    1    2    0    0  0.00000000000E+00  0.00000000000E+00  0.10707232581E+04  0.27577366146E+04  0.25413899622E+04 0.  0.
        5    1    3    3  502    0 -0.64021399409E+03  0.53695533622E+01  0.17264069688E+04  0.18413054885E+04  0.46999998093E+01 0.  1.
       -5    1    3    3    0  502  0.64021399409E+03 -0.53695533622E+01 -0.65568371065E+03  0.91643112602E+03  0.46999998093E+01 0. -1.
</event>
<event>
 5   0  0.2159405E-05  0.2629943E+04  0.7818609E-02  0.8358101E-01
        1   -1    0    0  501    0  0.00000000000E+00  0.00000000000E+00  0.14669938500E+04  0.14669938500E+04  0.50400001928E-02 0.  1.
       -1   -1    0    0    0  501  0.00000000000E+00  0.00000000000E+00 -0.11787028766E+04  0.11787028766E+04  0.50400001928E-02 0. -1.
    10030    2    1    2    0    0  0.00000000000E+00  0.00000000000E+00  0.28829097342E+03  0.26456967267E+04  0.26299428671E+04 0.  0.
        3    1    3    3  502    0  0.55441103852E+03  0.60140086811E+03 -0.89163134326E+03  0.12099839116E+04  0.10100000352E+00 0.  1.
       -3    1    3    3    0  502 -0.55441103852E+03 -0.60140086811E+03  0.11799223167E+04  0.14357128151E+04  0.10100000352E+00 0. -1.
</event>
<event>
 5   0  0.5036452E-05  0.2653973E+04  0.7818609E-02  0.8350095E-01
       -2   -1    0    0    0  501  0.00000000000E+00  0.00000000000E+00  0.67354869641E+03  0.67354869642E+03  0.25500000920E-02 0.  1.
        2   -1    0    0  501    0  0.00000000000E+00  0.00000000000E+00 -0.26143523398E+04  0.26143523398E+04  0.25500000920E-02 0. -1.
    10030    2    1    2    0    0  0.00000000000E+00  0.00000000000E+00 -0.19408036433E+04  0.32879010362E+04  0.26539733310E+04 0.  0.
        2    1    3    3  502    0  0.87674503790E+02  0.83453152989E+03  0.30313401609E+03  0.89219948706E+03  0.25500000920E-02 0.  1.
       -2    1    3    3    0  502 -0.87674503790E+02 -0.83453152989E+03 -0.22439376594E+04  0.23957015491E+04  0.25500000920E-02 0. -1.
</event>
<event>
 5   0  0.5182179E-05  0.2616409E+04  0.7818609E-02  0.8362649E-01
       -2   -1    0    0    0  501  0.00000000000E+00  0.00000000000E+00  0.77712627680E+03  0.77712627680E+03  0.25500000920E-02 0. -1.
        2   -1    0    0  501    0  0.00000000000E+00  0.00000000000E+00 -0.22022149618E+04  0.22022149618E+04  0.25500000920E-02 0.  1.
    10030    2    1    2    0    0  0.00000000000E+00  0.00000000000E+00 -0.14250886850E+04  0.29793412386E+04  0.26164090765E+04 0.  0.
        3    1    3    3  502    0 -0.18697685425E+03  0.67475785223E+03  0.54579401817E+03  0.88777791347E+03  0.10100000352E+00 0. -1.
       -3    1    3    3    0  502  0.18697685425E+03 -0.67475785223E+03 -0.19708827031E+04  0.20915633251E+04  0.10100000352E+00 0.  1.
</event>
<event>
 5   0  0.5170532E-05  0.2580470E+04  0.7818609E-02  0.8374866E-01
        2   -1    0    0  501    0  0.00000000000E+00  0.00000000000E+00  0.17438287715E+04  0.17438287715E+04  0.25500000920E-02 0.  1.
       -2   -1    0    0    0  501  0.00000000000E+00  0.00000000000E+00 -0.95462683685E+03  0.95462683686E+03  0.25500000920E-02 0. -1.
    10030    2    1    2    0    0  0.00000000000E+00  0.00000000000E+00  0.78920193468E+03  0.26984556084E+04  0.25804695264E+04 0.  0.
        1    1    3    3  502    0  0.76546853114E+03  0.77811193659E+03  0.11140289276E+04  0.15596348001E+04  0.50400001928E-02 0.  1.
       -1    1    3    3    0  502 -0.76546853114E+03 -0.77811193659E+03 -0.32482699295E+03  0.11388208083E+04  0.50400001928E-02 0. -1.
</event>
<event>
 5   0  0.2163800E-05  0.2036733E+04  0.7818609E-02  0.8589637E-01
        1   -1    0    0  501    0  0.00000000000E+00  0.00000000000E+00  0.45642282838E+03  0.45642282841E+03  0.50400001928E-02 0.  1.
       -1   -1    0    0    0  501  0.00000000000E+00  0.00000000000E+00 -0.22721691954E+04  0.22721691954E+04  0.50400001928E-02 0. -1.
    10030    2    1    2    0    0  0.00000000000E+00  0.00000000000E+00 -0.18157463670E+04  0.27285920238E+04  0.20367325703E+04 0.  0.
        1    1    3    3  502    0 -0.99420690607E+03 -0.17182175914E+03 -0.10930211842E+04  0.14875030750E+04  0.50400001928E-02 0.  1.
       -1    1    3    3    0  502  0.99420690607E+03  0.17182175914E+03 -0.72272518286E+03  0.12410889489E+04  0.50400001928E-02 0. -1.
</event>
<event>
 5   0  0.5182179E-05  0.2573574E+04  0.7818609E-02  0.8377233E-01
       -2   -1    0    0    0  501  0.00000000000E+00  0.00000000000E+00  0.12957215794E+04  0.12957215794E+04  0.25500000920E-02 0. -1.
        2   -1    0    0  501    0  0.00000000000E+00  0.00000000000E+00 -0.12779137823E+04  0.12779137823E+04  0.25500000920E-02 0.  1.
    10030    2    1    2    0    0  0.00000000000E+00  0.00000000000E+00  0.17807797087E+02  0.25736353618E+04  0.25735737522E+04 0.  0.
        3    1    3    3  502    0 -0.14283586351E+03 -0.95416782286E+03 -0.84257531303E+03  0.12809260269E+04  0.10100000352E+00 0.  1.
       -3    1    3    3    0  502  0.14283586351E+03  0.95416782286E+03  0.86038311012E+03  0.12927093349E+04  0.10100000352E+00 0. -1.
</event>
<event>
 5   0  0.1954502E-05  0.2577728E+04  0.7818609E-02  0.8375806E-01
       -1   -1    0    0    0  501  0.00000000000E+00  0.00000000000E+00  0.10128977588E+04  0.10128977588E+04  0.50400001928E-02 0. -1.
        1   -1    0    0  501    0  0.00000000000E+00  0.00000000000E+00 -0.16400173147E+04  0.16400173147E+04  0.50400001928E-02 0.  1.
    10030    2    1    2    0    0  0.00000000000E+00  0.00000000000E+00 -0.62711955586E+03  0.26529150735E+04  0.25777275748E+04 0.  0.
        4    1    3    3  502    0 -0.92091456093E+03  0.42349039295E+03 -0.11328580971E+04  0.15201305281E+04  0.12699999809E+01 0.  1.
       -4    1    3    3    0  502  0.92091456093E+03 -0.42349039295E+03  0.50573854121E+03  0.11327845455E+04  0.12699999809E+01 0. -1.
</event>
<event>
 5   0  0.4955675E-05  0.2149627E+04  0.7818609E-02  0.8539692E-01
        2   -1    0    0  501    0  0.00000000000E+00  0.00000000000E+00  0.10254672643E+04  0.10254672643E+04  0.25500000920E-02 0. -1.
       -2   -1    0    0    0  501  0.00000000000E+00  0.00000000000E+00 -0.11265344263E+04  0.11265344263E+04  0.25500000920E-02 0.  1.
    10030    2    1    2    0    0  0.00000000000E+00  0.00000000000E+00 -0.10106716201E+03  0.21520016906E+04  0.21496271084E+04 0.  0.
        5    1    3    3  502    0 -0.62495052272E+02 -0.97483162939E+03 -0.49935878356E+03  0.10970795878E+04  0.46999998093E+01 0.  1.
       -5    1    3    3    0  502  0.62495052272E+02  0.97483162939E+03  0.39829162155E+03  0.10549221028E+04  0.46999998093E+01 0. -1.
</event>
<event>
 5   0  0.1954502E-05  0.2142223E+04  0.7818609E-02  0.8542868E-01
       -1   -1    0    0    0  501  0.00000000000E+00  0.00000000000E+00  0.83530879944E+03  0.83530879945E+03  0.50400001928E-02 0. -1.
        1   -1    0    0  501    0  0.00000000000E+00  0.00000000000E+00 -0.13734801410E+04  0.13734801410E+04  0.50400001928E-02 0.  1.
    10030    2    1    2    0    0  0.00000000000E+00  0.00000000000E+00 -0.53817134154E+03  0.22087889404E+04  0.21422231888E+04 0.  0.
        4    1    3    3  502    0  0.27942829764E+03  0.98335684514E+03 -0.59871894777E+03  0.11847096057E+04  0.12699999809E+01 0. -1.
       -4    1    3    3    0  502 -0.27942829764E+03 -0.98335684514E+03  0.60547606235E+02  0.10240793348E+04  0.12699999809E+01 0.  1.
</event>
<event>
 5   0  0.1993815E-05  0.2427333E+04  0.7818609E-02  0.8429341E-01
        1   -1    0    0  501    0  0.00000000000E+00  0.00000000000E+00  0.13766940809E+04  0.13766940809E+04  0.50400001928E-02 0.  1.
       -1   -1    0    0    0  501  0.00000000000E+00  0.00000000000E+00 -0.10699449737E+04  0.10699449737E+04  0.50400001928E-02 0. -1.
    10030    2    1    2    0    0  0.00000000000E+00  0.00000000000E+00  0.30674910719E+03  0.24466390546E+04  0.24273334441E+04 0.  0.
        5    1    3    3  502    0  0.28114893245E+03 -0.10086655027E+03  0.13390577350E+04  0.13719753973E+04  0.46999998093E+01 0.  1.
       -5    1    3    3    0  502 -0.28114893245E+03  0.10086655027E+03 -0.10323086278E+04  0.10746636573E+04  0.46999998093E+01 0. -1.
</event>
<event>
 5   0  0.5170532E-05  0.2629378E+04  0.7818609E-02  0.8358290E-01
       -2   -1    0    0    0  501  0.00000000000E+00  0.00000000000E+00  0.61730454002E+03  0.61730454002E+03  0.25500000920E-02 0. -1.
        2   -1    0    0  501    0  0.00000000000E+00  0.00000000000E+00 -0.27999269037E+04  0.27999269037E+04  0.25500000920E-02 0.  1.
    10030    2    1    2    0    0  0.00000000000E+00  0.00000000000E+00 -0.21826223637E+04  0.34172314437E+04  0.26293783215E+04 0.  0.
        1    1    3    3  502    0 -0.35081456491E+03  0.12665327266E+04 -0.10457019122E+04  0.16794845923E+04  0.50400001928E-02 0.  1.
       -1    1    3    3    0  502  0.35081456491E+03 -0.12665327266E+04 -0.11369204515E+04  0.17377468514E+04  0.50400001928E-02 0. -1.
</event>
<event>
 5   0  0.5049803E-05  0.2672550E+04  0.7818609E-02  0.8343967E-01
        2   -1    0    0  501    0  0.00000000000E+00  0.00000000000E+00  0.16197696593E+04  0.16197696593E+04  0.25500000920E-02 0. -1.
       -2   -1    0    0    0  501  0.00000000000E+00  0.00000000000E+00 -0.11023984199E+04  0.11023984199E+04  0.25500000920E-02 0.  1.
    10030    2    1    2    0    0  0.00000000000E+00  0.00000000000E+00  0.51737123933E+03  0.27221680792E+04  0.26725504770E+04 0.  0.
        4    1    3    3  502    0 -0.82299745292E+03  0.59418793819E+03 -0.62649760736E+03  0.11928474246E+04  0.12699999809E+01 0.  1.
       -4    1    3    3    0  502  0.82299745292E+03 -0.59418793819E+03  0.11438688467E+04  0.15293206546E+04  0.12699999809E+01 0. -1.
</event>
<event>
 5   0  0.5182179E-05  0.2192289E+04  0.7818609E-02  0.8521645E-01
       -2   -1    0    0    0  501  0.00000000000E+00  0.00000000000E+00  0.12309064663E+04  0.12309064663E+04  0.25500000920E-02 0.  1.
        2   -1    0    0  501    0  0.00000000000E+00  0.00000000000E+00 -0.97613622678E+03  0.97613622678E+03  0.25500000920E-02 0. -1.
    10030    2    1    2    0    0  0.00000000000E+00  0.00000000000E+00  0.25477023949E+03  0.22070426930E+04  0.21922886612E+04 0.  0.
        3    1    3    3  502    0 -0.19277253228E+03  0.10656869554E+04  0.29788382970E+03  0.11232028857E+04  0.10100000352E+00 0.  1.
       -3    1    3    3    0  502  0.19277253228E+03 -0.10656869554E+04 -0.43113590209E+02  0.10838398074E+04  0.10100000352E+00 0. -1.
</event>
<event>
 5   0  0.1954502E-05  0.2040078E+04  0.7818609E-02  0.8588109E-01
       -1   -1    0    0    0  501  0.00000000000E+00  0.00000000000E+00  0.58553194651E+03  0.58553194653E+03  0.50400001928E-02 0. -1.
        1   -1    0    0  501    0  0.00000000000E+00  0.00000000000E+00 -0.17769808585E+04  0.17769808585E+04  0.50400001928E-02 0.  1.
    10030    2    1    2    0    0  0.00000000000E+00  0.00000000000E+00 -0.11914489120E+04  0.23625128050E+04  0.20400775093E+04 0.  0.
        4    1    3    3  502    0 -0.17803566183E+03 -0.33020097410E+03 -0.16941938588E+04  0.17352301935E+04  0.12699999809E+01 0.  1.
       -4    1    3    3    0  502  0.17803566183E+03  0.33020097410E+03  0.50274494688E+03  0.62728261151E+03  0.12699999809E+01 0. -1.
</event>
<event>
 5   0  0.2072710E-05  0.1486378E+04  0.7818609E-02  0.8893562E-01
        1   -1    0    0  501    0  0.00000000000E+00  0.00000000000E+00  0.12322042553E+04  0.12322042553E+04  0.50400001928E-02 0.  1.
       -1   -1    0    0    0  501  0.00000000000E+00  0.00000000000E+00 -0.44824536638E+03  0.44824536641E+03  0.50400001928E-02 0. -1.
    10030    2    1    2    0    0  0.00000000000E+00  0.00000000000E+00  0.78395888891E+03  0.16804496217E+04  0.14863779437E+04 0.  0.
        2    1    3    3  502    0 -0.43795297878E+03 -0.59938539362E+03  0.43217719631E+03  0.85897775916E+03  0.25500000920E-02 0. -1.
       -2    1    3    3    0  502  0.43795297878E+03  0.59938539362E+03  0.35178169260E+03  0.82147186255E+03  0.25500000920E-02 0.  1.
</event>
<event>
 5   0  0.4955675E-05  0.2521541E+04  0.7818609E-02  0.8395351E-01
        2   -1    0    0  501    0  0.00000000000E+00  0.00000000000E+00  0.19924957834E+04  0.19924957834E+04  0.25500000920E-02 0.  1.
       -2   -1    0    0    0  501  0.00000000000E+00  0.00000000000E+00 -0.79776432447E+03  0.79776432447E+03  0.25500000920E-02 0. -1.
    10030    2    1    2    0    0  0.00000000000E+00  0.00000000000E+00  0.11947314590E+04  0.27902601079E+04  0.25215408406E+04 0.  0.
        5    1    3    3  502    0  0.69776418463E+03  0.12365149583E+03  0.17512558202E+04  0.18892018388E+04  0.46999998093E+01 0.  1.
       -5    1    3    3    0  502 -0.69776418463E+03 -0.12365149583E+03 -0.55652436123E+03  0.90105826916E+03  0.46999998093E+01 0. -1.
</event>
<event>
 5   0  0.2163800E-05  0.2570096E+04  0.7818609E-02  0.8378430E-01
        1   -1    0    0  501    0  0.00000000000E+00  0.00000000000E+00  0.10915077005E+04  0.10915077005E+04  0.50400001928E-02 0.  1.
       -1   -1    0    0    0  501  0.00000000000E+00  0.00000000000E+00 -0.15129055977E+04  0.15129055977E+04  0.50400001928E-02 0. -1.
    10030    2    1    2    0    0  0.00000000000E+00  0.00000000000E+00 -0.42139789726E+03  0.26044132982E+04  0.25700958037E+04 0.  0.
        1    1    3    3  502    0  0.60998837412E+03  0.52151737588E+03 -0.12277344455E+04  0.14667644864E+04  0.50400001928E-02 0. -1.
       -1    1    3    3    0  502 -0.60998837412E+03 -0.52151737588E+03  0.80633654826E+03  0.11376488118E+04  0.50400001928E-02 0.  1.
</event>
<event>
 5   0  0.5182179E-05  0.2591483E+04  0.7818609E-02  0.8371100E-01
        2   -1    0    0  501    0  0.00000000000E+00  0.00000000000E+00  0.15001390133E+04  0.15001390133E+04  0.25500000920E-02 0.  1.
       -2   -1    0    0    0  501  0.00000000000E+00  0.00000000000E+00 -0.11191938545E+04  0.11191938545E+04  0.25500000920E-02 0. -1.
    10030    2    1    2    0    0  0.00000000000E+00  0.00000000000E+00  0.38094515881E+03  0.26193328679E+04  0.25914832546E+04 0.  0.
        3    1    3    3  502    0 -0.48505234543E+03 -0.12014582649E+04  0.17734786928E+03  0.13077576293E+04  0.10100000352E+00 0. -1.
       -3    1    3    3    0  502  0.48505234543E+03  0.12014582649E+04  0.20359728953E+03  0.13115752386E+04  0.10100000352E+00 0.  1.
</event>
<event>
 5   0  0.2072710E-05  0.2610304E+04  0.7818609E-02  0.8364709E-01
       -1   -1    0    0    0  501  0.00000000000E+00  0.00000000000E+00  0.64600669201E+03  0.64600669203E+03  0.50400001928E-02 0. -1.
        1   -1    0    0  501    0  0.00000000000E+00  0.00000000000E+00 -0.26368491270E+04  0.26368491270E+04  0.50400001928E-02 0.  1.
    10030    2    1    2    0    0  0.00000000000E+00  0.00000000000E+00 -0.19908424350E+04  0.32828558190E+04  0.26103043362E+04 0.  0.
        2    1    3    3  502    0  0.84814799694E+02  0.69581724196E+03  0.38917766745E+03  0.80175709620E+03  0.25500000920E-02 0. -1.
       -2    1    3    3    0  502 -0.84814799694E+02 -0.69581724196E+03 -0.23800201024E+04  0.24810987228E+04  0.25500000920E-02 0.  1.
</event>
<event>
 5   0  0.1954502E-05  0.2611282E+04  0.7818609E-02  0.8364379E-01
       -1   -1    0    0    0  501  0.00000000000E+00  0.00000000000E+00  0.18407119180E+04  0.18407119180E+04  0.50400001928E-02 0. -1.
        1   -1    0    0  501    0  0.00000000000E+00  0.00000000000E+00 -0.92610841969E+03  0.92610841971E+03  0.50400001928E-02 0.  1.
    10030    2    1    2    0    0  0.00000000000E+00  0.00000000000E+00  0.91460349834E+03  0.27668203377E+04  0.26112822946E+04 0.  0.
        4    1    3    3  502    0 -0.17667193714E+03 -0.12524826618E+04  0.80026572989E+03  0.14967807598E+04  0.12699999809E+01 0.  1.
       -4    1    3    3    0  502  0.17667193714E+03  0.12524826618E+04  0.11433776845E+03  0.12700395780E+04  0.12699999809E+01 0. -1.
</event>
<event>
 5   0  0.1698625E-05  0.2814033E+04  0.7818609E-02  0.8298925E-01
        3   -1    0    0  501    0  0.00000000000E+00  0.00000000000E+00  0.91834867419E+03  0.91834867974E+03  0.10100000352E+00 0. -1.
       -3   -1    0    0    0  501  0.00000000000E+00  0.00000000000E+00 -0.21557127942E+04  0.21557127966E+04  0.10100000352E+00 0.  1.
    10030    2    1    2    0    0  0.00000000000E+00  0.00000000000E+00 -0.12373641201E+04  0.30740614764E+04  0.28140334033E+04 0.  0.
        3    1    3    3  502    0  0.27118245302E+03  0.84533624205E+03 -0.18111363785E+04  0.20170146942E+04  0.10100000352E+00 0.  1.
       -3    1    3    3    0  502 -0.27118245302E+03 -0.84533624205E+03  0.57377225842E+03  0.10570467822E+04  0.10100000352E+00 0. -1.
</event>
<event>
 5   0  0.5049803E-05  0.1728006E+04  0.7818609E-02  0.8745551E-01
       -2   -1    0    0    0  501  0.00000000000E+00  0.00000000000E+00  0.73727404412E+03  0.73727404412E+03  0.25500000920E-02 0.  1.
        2   -1    0    0  501    0  0.00000000000E+00  0.00000000000E+00 -0.10125150868E+04  0.10125150868E+04  0.25500000920E-02 0. -1.
    10030    2    1    2    0    0  0.00000000000E+00  0.00000000000E+00 -0.27524104265E+03  0.17497891309E+04  0.17280058944E+04 0.  0.
        4    1    3    3  502    0 -0.65580797937E+03  0.53603654529E+03  0.35058333890E+02  0.84773225925E+03  0.12699999809E+01 0.  1.
       -4    1    3    3    0  502  0.65580797937E+03 -0.53603654529E+03 -0.31029937654E+03  0.90205687164E+03  0.12699999809E+01 0. -1.
</event>
<event>
 5   0  0.1993815E-05  0.2598064E+04  0.7818609E-02  0.8368859E-01
        1   -1    0    0  501    0  0.00000000000E+00  0.00000000000E+00  0.13573810344E+04  0.13573810344E+04  0.50400001928E-02 0. -1.
       -1   -1    0    0    0  501  0.00000000000E+00  0.00000000000E+00 -0.12431907841E+04  0.12431907841E+04  0.50400001928E-02 0.  1.
    10030    2    1    2    0    0  0.00000000000E+00  0.00000000000E+00  0.11419025030E+03  0.26005718186E+04  0.25980635809E+04 0.  0.
        5    1    3    3  502    0  0.24177043437E+03 -0.51130750519E+03  0.12276569776E+04  0.13516848939E+04  0.46999998093E+01 0. -1.
       -5    1    3    3    0  502 -0.24177043437E+03  0.51130750519E+03 -0.11134667273E+04  0.12488869247E+04  0.46999998093E+01 0.  1.
</event>
<event>
 5   0  0.5036452E-05  0.2531124E+04  0.7818609E-02  0.8391980E-01
       -2   -1    0    0    0  501  0.00000000000E+00  0.00000000000E+00  0.87956329030E+03  0.87956329031E+03  0.25500000920E-02 0. -1.
        2   -1    0    0  501    0  0.00000000000E+00  0.00000000000E+00 -0.18209577788E+04  0.18209577788E+04  0.25500000920E-02 0.  1.
    10030    2    1    2    0    0  0.00000000000E+00  0.00000000000E+00 -0.94139448847E+03  0.27005210691E+04  0.25311243473E+04 0.  0.
        2    1    3    3  502    0  0.10919359220E+04 -0.53134529741E+03 -0.90482764299E+02  0.12177187744E+04  0.25500000920E-02 0. -1.
       -2    1    3    3    0  502 -0.10919359220E+04  0.53134529741E+03 -0.85091172417E+03  0.14828022947E+04  0.25500000920E-02 0.  1.
</event>
<event>
 5   0  0.1954502E-05  0.1527062E+04  0.7818609E-02  0.8866654E-01
       -1   -1    0    0    0  501  0.00000000000E+00  0.00000000000E+00  0.70314158916E+03  0.70314158918E+03  0.50400001928E-02 0. -1.
        1   -1    0    0  501    0  0.00000000000E+00  0.00000000000E+00 -0.82910671492E+03  0.82910671493E+03  0.50400001928E-02 0.  1.
    10030    2    1    2    0    0  0.00000000000E+00  0.00000000000E+00 -0.12596512576E+03  0.15322483041E+04  0.15270617710E+04 0.  0.
        4    1    3    3  502    0 -0.28805706253E+03  0.37727387522E+03 -0.66306508782E+03  0.81545654193E+03  0.12699999809E+01 0.  1.
       -4    1    3    3    0  502  0.28805706253E+03 -0.37727387522E+03  0.53709996206E+03  0.71679176219E+03  0.12699999809E+01 0. -1.
</event>
<event>
 5   0  0.2163800E-05  0.2245243E+04  0.7818609E-02  0.8499829E-01
       -1   -1    0    0    0  501  0.00000000000E+00  0.00000000000E+00  0.10485466870E+04  0.10485466870E+04  0.50400001928E-02 0. -1.
        1   -1    0    0  501    0  0.00000000000E+00  0.00000000000E+00 -0.12019298231E+04  0.12019298231E+04  0.50400001928E-02 0.  1.
    10030    2    1    2    0    0  0.00000000000E+00  0.00000000000E+00 -0.15338313609E+03  0.22504765101E+04  0.22452434470E+04 0.  0.
        1    1    3    3  502    0  0.58710941781E+03 -0.92736329703E+03  0.15961070493E+03  0.11091328732E+04  0.50400001928E-02 0. -1.
       -1    1    3    3    0  502 -0.58710941781E+03  0.92736329703E+03 -0.31299384102E+03  0.11413436370E+04  0.50400001928E-02 0.  1.
</event>
<event>
 5   0  0.5036452E-05  0.2728213E+04  0.7818609E-02  0.8325908E-01
        2   -1    0    0  501    0  0.00000000000E+00  0.00000000000E+00  0.14300182399E+04  0.14300182399E+04  0.25500000920E-02 0. -1.
       -2   -1    0    0    0  501  0.00000000000E+00  0.00000000000E+00 -0.13012332074E+04  0.13012332074E+04  0.25500000920E-02 0.  1.
    10030    2    1    2    0    0  0.00000000000E+00  0.00000000000E+00  0.12878503253E+03  0.27312514473E+04  0.27282134967E+04 0.  0.
        2    1    3    3  502    0  0.47569032443E+03 -0.12252140930E+04 -0.30119402731E+03  0.13483874445E+04  0.25500000920E-02 0.  1.
       -2    1    3    3    0  502 -0.47569032443E+03  0.12252140930E+04  0.42997905985E+03  0.13828640028E+04  0.25500000920E-02 0. -1.
</event>
<event>
 5   0  0.5170532E-05  0.2622371E+04  0.7818609E-02  0.8360642E-01
        2   -1    0    0  501    0  0.00000000000E+00  0.00000000000E+00  0.13917606985E+04  0.13917606985E+04  0.25500000920E-02 0. -1.
       -2   -1    0    0    0  501  0.00000000000E+00  0.00000000000E+00 -0.12352753804E+04  0.12352753804E+04  0.25500000920E-02 0.  1.
    10030    2    1    2    0    0  0.00000000000E+00  0.00000000000E+00  0.15648531811E+03  0.26270360790E+04  0.26223712371E+04 0.  0.
        1    1    3    3  502    0  0.11622012549E+04 -0.48172777808E+03 -0.29178456330E+03  0.12914765350E+04  0.50400001928E-02 0. -1.
       -1    1    3    3    0  502 -0.11622012549E+04  0.48172777808E+03  0.44826988140E+03  0.13355595440E+04  0.50400001928E-02 0.  1.
</event>
<event>
 5   0  0.2072710E-05  0.2584851E+04  0.7818609E-02  0.8373365E-01
        1   -1    0    0  501    0  0.00000000000E+00  0.00000000000E+00  0.23890565463E+04  0.23890565463E+04  0.50400001928E-02 0.  1.
       -1   -1    0    0    0  501  0.00000000000E+00  0.00000000000E+00 -0.69917318446E+03  0.69917318448E+03  0.50400001928E-02 0. -1.
    10030    2    1    2    0    0  0.00000000000E+00  0.00000000000E+00  0.16898833619E+04  0.30882297308E+04  0.25848514645E+04 0.  0.
        2    1    3    3  502    0  0.10809446219E+04  0.47506794472E+03  0.21701037134E+03  0.12005100287E+04  0.25500000920E-02 0. -1.
       -2    1    3    3    0  502 -0.10809446219E+04 -0.47506794472E+03  0.14728729905E+04  0.18877197021E+04  0.25500000920E-02 0.  1.
</event>
<event>
 5   0  0.2163800E-05  0.3157809E+04  0.7818609E-02  0.8200049E-01
       -1   -1    0    0    0  501  0.00000000000E+00  0.00000000000E+00  0.27031608315E+04  0.27031608315E+04  0.50400001928E-02 0. -1.
        1   -1    0    0  501    0  0.00000000000E+00  0.00000000000E+00 -0.92223108571E+03  0.92223108572E+03  0.50400001928E-02 0.  1.
    10030    2    1    2    0    0  0.00000000000E+00  0.00000000000E+00  0.17809297458E+04  0.36253919172E+04  0.31578087013E+04 0.  0.
        1    1    3    3  502    0  0.12190793998E+04  0.81846061127E+03  0.15568478589E+04  0.21400485067E+04  0.50400001928E-02 0. -1.
       -1    1    3    3    0  502 -0.12190793998E+04 -0.81846061127E+03  0.22408188695E+03  0.14853434106E+04  0.50400001928E-02 0.  1.
</event>
<event>
 5   0  0.2163800E-05  0.2574525E+04  0.7818609E-02  0.8376906E-01
       -1   -1    0    0    0  501  0.00000000000E+00  0.00000000000E+00  0.12476686657E+04  0.12476686657E+04  0.50400001928E-02 0.  1.
        1   -1    0    0  501    0  0.00000000000E+00  0.00000000000E+00 -0.13281133165E+04  0.13281133165E+04  0.50400001928E-02 0. -1.
    10030    2    1    2    0    0  0.00000000000E+00  0.00000000000E+00 -0.80444650777E+02  0.25757819823E+04  0.25745254860E+04 0.  0.
        1    1    3    3  502    0 -0.68521825846E+03 -0.10097558207E+04 -0.45019602153E+03  0.13006949439E+04  0.50400001928E-02 0. -1.
       -1    1    3    3    0  502  0.68521825846E+03  0.10097558207E+04  0.36975137076E+03  0.12750870384E+04  0.50400001928E-02 0.  1.
</event>
<event>
 5   0  0.5049803E-05  0.2669086E+04  0.7818609E-02  0.8345106E-01
        2   -1    0    0  501    0  0.00000000000E+00  0.00000000000E+00  0.19814351281E+04  0.19814351281E+04  0.25500000920E-02 0. -1.
       -2   -1    0    0    0  501  0.00000000000E+00  0.00000000000E+00 -0.89884605714E+03  0.89884605714E+03  0.25500000920E-02 0.  1.
    10030    2    1    2    0    0  0.00000000000E+00  0.00000000000E+00  0.10825890710E+04  0.28802811853E+04  0.26690861001E+04 0.  0.
        4    1    3    3  502    0 -0.12594244492E+04 -0.56379765879E+02  0.68845521219E+02  0.12625648261E+04  0.12699999809E+01 0.  1.
       -4    1    3    3    0  502  0.12594244492E+04  0.56379765879E+02  0.10137435498E+04  0.16177163592E+04  0.12699999809E+01 0. -1.
</event>
<event>
 5   0  0.2159405E-05  0.2664628E+04  0.7818609E-02  0.8346574E-01
       -1   -1    0    0    0  501  0.00000000000E+00  0.00000000000E+00  0.12958297582E+04  0.12958297582E+04  0.50400001928E-02 0.  1.
        1   -1    0    0  501    0  0.00000000000E+00  0.00000000000E+00 -0.13698252089E+04  0.13698252090E+04  0.50400001928E-02 0. -1.
    10030    2    1    2    0    0  0.00000000000E+00  0.00000000000E+00 -0.73995450701E+02  0.26656549672E+04  0.26646277559E+04 0.  0.
        3    1    3    3  502    0 -0.63369372132E+03 -0.11570182897E+04  0.14962499820E+03  0.13276470560E+04  0.10100000352E+00 0. -1.
       -3    1    3    3    0  502  0.63369372132E+03  0.11570182897E+04 -0.22362044890E+03  0.13380079112E+04  0.10100000352E+00 0.  1.
</event>
<event>
 5   0  0.2163800E-05  0.2633468E+04  0.7818609E-02  0.8356921E-01
       -1   -1    0    0    0  501  0.00000000000E+00  0.00000000000E+00  0.97429423362E+03  0.97429423363E+03  0.50400001928E-02 0.  1.
        1   -1    0    0  501    0  0.00000000000E+00  0.00000000000E+00 -0.17795330919E+04  0.17795330919E+04  0.50400001928E-02 0. -1.
    10030    2    1    2    0    0  0.00000000000E+00  0.00000000000E+00 -0.80523885828E+03  0.27538273255E+04  0.26334683063E+04 0.  0.
        1    1    3    3  502    0  0.50885628272E+03 -0.48067648013E+03  0.76361168697E+03  0.10358993211E+04  0.50400001928E-02 0.  1.
       -1    1    3    3    0  502 -0.50885628272E+03  0.48067648013E+03 -0.15688505453E+04  0.17179280044E+04  0.50400001928E-02 0. -1.
</event>
<event>
 5   0  0.2163800E-05  0.2627246E+04  0.7818609E-02  0.8359005E-01
       -1   -1    0    0    0  501  0.00000000000E+00  0.00000000000E+00  0.17293536820E+04  0.17293536820E+04  0.50400001928E-02 0. -1.
        1   -1    0    0  501    0  0.00000000000E+00  0.00000000000E+00 -0.99783266977E+03  0.99783266979E+03  0.50400001928E-02 0.  1.
    10030    2    1    2    0    0  0.00000000000E+00  0.00000000000E+00  0.73152101224E+03  0.27271863518E+04  0.26272461640E+04 0.  0.
        1    1    3    3  502    0 -0.54896330370E+03 -0.10886190832E+04  0.87339638982E+03  0.14997578041E+04  0.50400001928E-02 0. -1.
       -1    1    3    3    0  502  0.54896330370E+03  0.10886190832E+04 -0.14187537758E+03  0.12274285478E+04  0.50400001928E-02 0.  1.
</event>
<event>
 5   0  0.5049803E-05  0.2255418E+04  0.7818609E-02  0.8495710E-01
       -2   -1    0    0    0  501  0.00000000000E+00  0.00000000000E+00  0.82583883214E+03  0.82583883214E+03  0.25500000920E-02 0. -1.
        2   -1    0    0  501    0  0.00000000000E+00  0.00000000000E+00 -0.15399216137E+04  0.15399216137E+04  0.25500000920E-02 0.  1.
    10030    2    1    2    0    0  0.00000000000E+00  0.00000000000E+00 -0.71408278152E+03  0.23657604458E+04  0.22554175374E+04 0.  0.
        4    1    3    3  502    0 -0.15364387773E+03  0.84528388693E+03 -0.11232684544E+04  0.14141587337E+04  0.12699999809E+01 0.  1.
       -4    1    3    3    0  502  0.15364387773E+03 -0.84528388693E+03  0.40918567286E+03  0.95160171208E+03  0.12699999809E+01 0. -1.
</event>
<event>
 5   0  0.5182179E-05  0.2576358E+04  0.7818609E-02  0.8376277E-01
        2   -1    0    0  501    0  0.00000000000E+00  0.00000000000E+00  0.28002751381E+04  0.28002751381E+04  0.25500000920E-02 0. -1.
       -2   -1    0    0    0  501  0.00000000000E+00  0.00000000000E+00 -0.59258628913E+03  0.59258628914E+03  0.25500000920E-02 0.  1.
    10030    2    1    2    0    0  0.00000000000E+00  0.00000000000E+00  0.22076888489E+04  0.33928614272E+04  0.25763576247E+04 0.  0.
        3    1    3    3  502    0  0.69672754035E+03  0.42603572660E+03  0.24157979058E+04  0.25501010250E+04  0.10100000352E+00 0. -1.
       -3    1    3    3    0  502 -0.69672754035E+03 -0.42603572660E+03 -0.20810905685E+03  0.84276040223E+03  0.10100000352E+00 0.  1.
</event>
<event>
 5   0  0.4955675E-05  0.2070351E+04  0.7818609E-02  0.8574417E-01
       -2   -1    0    0    0  501  0.00000000000E+00  0.00000000000E+00  0.79226980442E+03  0.79226980443E+03  0.25500000920E-02 0.  1.
        2   -1    0    0  501    0  0.00000000000E+00  0.00000000000E+00 -0.13525553603E+04  0.13525553603E+04  0.25500000920E-02 0. -1.
    10030    2    1    2    0    0  0.00000000000E+00  0.00000000000E+00 -0.56028555590E+03  0.21448251648E+04  0.20703514395E+04 0.  0.
        5    1    3    3  502    0 -0.26143821688E+03  0.40444064488E+03  0.66913988375E+03  0.82443462475E+03  0.46999998093E+01 0.  1.
       -5    1    3    3    0  502  0.26143821688E+03 -0.40444064488E+03 -0.12294254396E+04  0.13203905400E+04  0.46999998093E+01 0. -1.
</event>
<event>
 5   0  0.5182179E-05  0.2637393E+04  0.7818609E-02  0.8355609E-01
        2   -1    0    0  501    0  0.00000000000E+00  0.00000000000E+00  0.21648004969E+04  0.21648004969E+04  0.25500000920E-02 0. -1.
       -2   -1    0    0    0  501  0.00000000000E+00  0.00000000000E+00 -0.80328898685E+03  0.80328898685E+03  0.25500000920E-02 0.  1.
    10030    2    1    2    0    0  0.00000000000E+00  0.00000000000E+00  0.13615115100E+04  0.29680894837E+04  0.26373929536E+04 0.  0.
        3    1    3    3  502    0  0.69702972313E+03 -0.79476668924E+03  0.15679266655E+04  0.18910046440E+04  0.10100000352E+00 0. -1.
       -3    1    3    3    0  502 -0.69702972313E+03  0.79476668924E+03 -0.20641515547E+03  0.10770848397E+04  0.10100000352E+00 0.  1.
</event>
<event>
 5   0  0.1993815E-05  0.1496395E+04  0.7818609E-02  0.8886854E-01
        1   -1    0    0  501    0  0.00000000000E+00  0.00000000000E+00  0.15010032852E+04  0.15010032852E+04  0.50400001928E-02 0.  1.
       -1   -1    0    0    0  501  0.00000000000E+00  0.00000000000E+00 -0.37295027526E+03  0.37295027529E+03  0.50400001928E-02 0. -1.
    10030    2    1    2    0    0  0.00000000000E+00  0.00000000000E+00  0.11280530100E+04  0.18739535605E+04  0.14963951195E+04 0.  0.
        5    1    3    3  502    0  0.66390252379E+03 -0.25660390535E+03  0.27527319311E+03  0.76315761555E+03  0.46999998093E+01 0. -1.
       -5    1    3    3    0  502 -0.66390252379E+03  0.25660390535E+03  0.85277981687E+03  0.11107959450E+04  0.46999998093E+01 0.  1.
</event>
<event>
 5   0  0.4955675E-05  0.2572362E+04  0.7818609E-02  0.8377650E-01
       -2   -1    0    0    0  501  0.00000000000E+00  0.00000000000E+00  0.10552811490E+04  0.10552811490E+04  0.25500000920E-02 0.  1.
        2   -1    0    0  501    0  0.00000000000E+00  0.00000000000E+00 -0.15676031737E+04  0.15676031737E+04  0.25500000920E-02 0. -1.
    10030    2    1    2    0    0  0.00000000000E+00  0.00000000000E+00 -0.51232202467E+03  0.26228843227E+04  0.25723623993E+04 0.  0.
        5    1    3    3  502    0 -0.35405886952E+03 -0.90607465328E+03 -0.11140603320E+04  0.14790136827E+04  0.46999998093E+01 0. -1.
       -5    1    3    3    0  502  0.35405886952E+03  0.90607465328E+03  0.60173830733E+03  0.11438706399E+04  0.46999998093E+01 0.  1.
</event>
<event>
 5   0  0.5036452E-05  0.2620670E+04  0.7818609E-02  0.8361214E-01
       -2   -1    0    0    0  501  0.00000000000E+00  0.00000000000E+00  0.12697027014E+04  0.12697027014E+04  0.25500000920E-02 0. -1.
        2   -1    0    0  501    0  0.00000000000E+00  0.00000000000E+00 -0.13522672529E+04  0.13522672529E+04  0.25500000920E-02 0.  1.
    10030    2    1    2    0    0  0.00000000000E+00  0.00000000000E+00 -0.82564551502E+02  0.26219699544E+04  0.26206696733E+04 0.  0.
        2    1    3    3  502    0 -0.44514311015E+03  0.32736885519E+03  0.11474379602E+04  0.12735527583E+04  0.25500000920E-02 0. -1.
       -2    1    3    3    0  502  0.44514311015E+03 -0.32736885519E+03 -0.12300025117E+04  0.13484171960E+04  0.25500000920E-02 0.  1.
</event>
<event>
 5   0  0.4955675E-05  0.2018073E+04  0.7818609E-02  0.8598217E-01
       -2   -1    0    0    0  501  0.00000000000E+00  0.00000000000E+00  0.72671435846E+03  0.72671435847E+03  0.25500000920E-02 0.  1.
        2   -1    0    0  501    0  0.00000000000E+00  0.00000000000E+00 -0.14010380640E+04  0.14010380640E+04  0.25500000920E-02 0. -1.
    10030    2    1    2    0    0  0.00000000000E+00  0.00000000000E+00 -0.67432370550E+03  0.21277524224E+04  0.20180728211E+04 0.  0.
        5    1    3    3  502    0 -0.31786603930E+03  0.92133096881E+03 -0.61259279390E+03  0.11511653201E+04  0.46999998093E+01 0. -1.
       -5    1    3    3    0  502  0.31786603930E+03 -0.92133096881E+03 -0.61730911598E+02  0.97658710235E+03  0.46999998093E+01 0.  1.
</event>
<event>
 5   0  0.2163800E-05  0.2687807E+04  0.7818609E-02  0.8338972E-01
        1   -1    0    0  501    0  0.00000000000E+00  0.00000000000E+00  0.20595261107E+04  0.20595261107E+04  0.50400001928E-02 0.  1.
       -1   -1    0    0    0  501  0.00000000000E+00  0.00000000000E+00 -0.87693803578E+03  0.87693803580E+03  0.50400001928E-02 0. -1.
    10030    2    1    2    0    0  0.00000000000E+00  0.00000000000E+00  0.11825880749E+04  0.29364641465E+04  0.26878071227E+04 0.  0.
        1    1    3    3  502    0 -0.18649163461E+03 -0.13143790448E+04  0.81969295815E+03  0.15602140715E+04  0.50400001928E-02 0.  1.
       -1    1    3    3    0  502  0.18649163461E+03  0.13143790448E+04  0.36289511680E+03  0.13762500750E+04  0.50400001928E-02 0. -1.
</event>
<event>
 5   0  0.5036452E-05  0.2689210E+04  0.7818609E-02  0.8338514E-01
        2   -1    0    0  501    0  0.00000000000E+00  0.00000000000E+00  0.19340359351E+04  0.19340359351E+04  0.25500000920E-02 0.  1.
       -2   -1    0    0    0  501  0.00000000000E+00  0.00000000000E+00 -0.93481356342E+03  0.93481356342E+03  0.25500000920E-02 0. -1.
    10030    2    1    2    0    0  0.00000000000E+00  0.00000000000E+00  0.99922237169E+03  0.28688494985E+04  0.26892103111E+04 0.  0.
        2    1    3    3  502    0  0.13209246113E+04 -0.19791207761E+03  0.66471379423E+03  0.14919301081E+04  0.25500000920E-02 0. -1.
       -2    1    3    3    0  502 -0.13209246113E+04  0.19791207761E+03  0.33450857746E+03  0.13769193904E+04  0.25500000920E-02 0.  1.
</event>
<event>
 5   0  0.1993815E-05  0.1818748E+04  0.7818609E-02  0.8696393E-01
       -1   -1    0    0    0  501  0.00000000000E+00  0.00000000000E+00  0.55127836773E+03  0.55127836775E+03  0.50400001928E-02 0.  1.
        1   -1    0    0  501    0  0.00000000000E+00  0.00000000000E+00 -0.15000782904E+04  0.15000782904E+04  0.50400001928E-02 0. -1.
    10030    2    1    2    0    0  0.00000000000E+00  0.00000000000E+00 -0.94879992268E+03  0.20513566582E+04  0.18187476036E+04 0.  0.
        5    1    3    3  502    0  0.52027457621E+03  0.52757350174E+03 -0.10690042080E+04  0.13006965523E+04  0.46999998093E+01 0. -1.
       -5    1    3    3    0  502 -0.52027457621E+03 -0.52757350174E+03  0.12020428530E+03  0.75066010590E+03  0.46999998093E+01 0.  1.
</event>
<event>
 5   0  0.2159405E-05  0.2641030E+04  0.7818609E-02  0.8354396E-01
       -1   -1    0    0    0  501  0.00000000000E+00  0.00000000000E+00  0.85012268597E+03  0.85012268599E+03  0.50400001928E-02 0. -1.
        1   -1    0    0  501    0  0.00000000000E+00  0.00000000000E+00 -0.20511856630E+04  0.20511856630E+04  0.50400001928E-02 0.  1.
    10030    2    1    2    0    0  0.00000000000E+00  0.00000000000E+00 -0.12010629770E+04  0.29013083490E+04  0.26410296971E+04 0.  0.
        3    1    3    3  502    0 -0.59155055623E+03 -0.84881698588E+03 -0.15019716048E+04  0.18238259368E+04  0.10100000352E+00 0.  1.
       -3    1    3    3    0  502  0.59155055623E+03  0.84881698588E+03  0.30090862774E+03  0.10774824122E+04  0.10100000352E+00 0. -1.
</event>
<event>
 5   0  0.5049803E-05  0.2660547E+04  0.7818609E-02  0.8347921E-01
        2   -1    0    0  501    0  0.00000000000E+00  0.00000000000E+00  0.13643714949E+04  0.13643714949E+04  0.25500000920E-02 0.  1.
       -2   -1    0    0    0  501  0.00000000000E+00  0.00000000000E+00 -0.12970277129E+04  0.12970277129E+04  0.25500000920E-02 0. -1.
    10030    2    1    2    0    0  0.00000000000E+00  0.00000000000E+00  0.67343781940E+02  0.26613992078E+04  0.26605470412E+04 0.  0.
        4    1    3    3  502    0 -0.63351440707E+03  0.35309130324E+03 -0.10818588498E+04  0.13024723245E+04  0.12699999809E+01 0. -1.
       -4    1    3    3    0  502  0.63351440707E+03 -0.35309130324E+03  0.11492026317E+04  0.13589268833E+04  0.12699999809E+01 0.  1.
</event>
<event>
 5   0  0.1993815E-05  0.2701602E+04  0.7818609E-02  0.8334485E-01
       -1   -1    0    0    0  501  0.00000000000E+00  0.00000000000E+00  0.13416866162E+04  0.13416866162E+04  0.50400001928E-02 0.  1.
        1   -1    0    0  501    0  0.00000000000E+00  0.00000000000E+00 -0.13599771102E+04  0.13599771102E+04  0.50400001928E-02 0. -1.
    10030    2    1    2    0    0  0.00000000000E+00  0.00000000000E+00 -0.18290494043E+02  0.27016637264E+04  0.27016018116E+04 0.  0.
        5    1    3    3  502    0 -0.10131855874E+04  0.60376261099E+03 -0.66761813577E+03  0.13552897809E+04  0.46999998093E+01 0. -1.
       -5    1    3    3    0  502  0.10131855874E+04 -0.60376261099E+03  0.64932764173E+03  0.13463739455E+04  0.46999998093E+01 0.  1.
</event>
<event>
 5   0  0.2163800E-05  0.2576517E+04  0.7818609E-02  0.8376222E-01
       -1   -1    0    0    0  501  0.00000000000E+00  0.00000000000E+00  0.99943674535E+03  0.99943674536E+03  0.50400001928E-02 0. -1.
        1   -1    0    0  501    0  0.00000000000E+00  0.00000000000E+00 -0.16605447177E+04  0.16605447177E+04  0.50400001928E-02 0.  1.
    10030    2    1    2    0    0  0.00000000000E+00  0.00000000000E+00 -0.66110797237E+03  0.26599814631E+04  0.25765165695E+04 0.  0.
        1    1    3    3  502    0 -0.92399592042E+03  0.77992511601E+03  0.12831923898E+03  0.12159430392E+04  0.50400001928E-02 0. -1.
       -1    1    3    3    0  502  0.92399592042E+03 -0.77992511601E+03 -0.78942721135E+03  0.14440384239E+04  0.50400001928E-02 0.  1.
</event>
<event>
 5   0  0.1993815E-05  0.2438787E+04  0.7818609E-02  0.8425123E-01
        1   -1    0    0  501    0  0.00000000000E+00  0.00000000000E+00  0.95035838295E+03  0.95035838296E+03  0.50400001928E-02 0. -1.
       -1   -1    0    0    0  501  0.00000000000E+00  0.00000000000E+00 -0.15645893818E+04  0.15645893818E+04  0.50400001928E-02 0.  1.
    10030    2    1    2    0    0  0.00000000000E+00  0.00000000000E+00 -0.61423099881E+03  0.25149477647E+04  0.24387871042E+04 0.  0.
        5    1    3    3  502    0  0.78376216809E+02 -0.18877648102E+03 -0.15467878302E+04  0.15602416713E+04  0.46999998093E+01 0.  1.
       -5    1    3    3    0  502 -0.78376216809E+02  0.18877648102E+03  0.93255683137E+03  0.95470609346E+03  0.46999998093E+01 0. -1.
</event>
<event>
 5   0  0.4955675E-05  0.2581342E+04  0.7818609E-02  0.8374567E-01
        2   -1    0    0  501    0  0.00000000000E+00  0.00000000000E+00  0.94946982141E+03  0.94946982141E+03  0.25500000920E-02 0. -1.
       -2   -1    0    0    0  501  0.00000000000E+00  0.00000000000E+00 -0.17544864154E+04  0.17544864154E+04  0.25500000920E-02 0.  1.
    10030    2    1    2    0    0  0.00000000000E+00  0.00000000000E+00 -0.80501659401E+03  0.27039562368E+04  0.25813422117E+04 0.  0.
        5    1    3    3  502    0 -0.26317369588E+03 -0.74201860925E+03 -0.14738084256E+04  0.16709235100E+04  0.46999998093E+01 0.  1.
       -5    1    3    3    0  502  0.26317369588E+03  0.74201860925E+03  0.66879183164E+03  0.10330327269E+04  0.46999998093E+01 0. -1.
</event>
<event>
 5   0  0.2163800E-05  0.2579589E+04  0.7818609E-02  0.8375168E-01
        1   -1    0    0  501    0  0.00000000000E+00  0.00000000000E+00  0.18863175878E+04  0.18863175878E+04  0.50400001928E-02 0.  1.
       -1   -1    0    0    0  501  0.00000000000E+00  0.00000000000E+00 -0.88191365174E+03  0.88191365175E+03  0.50400001928E-02 0. -1.
    10030    2    1    2    0    0  0.00000000000E+00  0.00000000000E+00  0.10044039361E+04  0.27682312396E+04  0.25795885193E+04 0.  0.
        1    1    3    3  502    0 -0.10269228803E+04  0.22366428397E+03  0.13045214051E+04  0.16752230927E+04  0.50400001928E-02 0.  1.
       -1    1    3    3    0  502  0.10269228803E+04 -0.22366428397E+03 -0.30011746898E+03  0.10930081469E+04  0.50400001928E-02 0. -1.
</event>
<event>
 5   0  0.1698625E-05  0.2594005E+04  0.7818609E-02  0.8370240E-01
        3   -1    0    0  501    0  0.00000000000E+00  0.00000000000E+00  0.98279078482E+03  0.98279079001E+03  0.10100000352E+00 0.  1.
       -3   -1    0    0    0  501  0.00000000000E+00  0.00000000000E+00 -0.17116718135E+04  0.17116718165E+04  0.10100000352E+00 0. -1.
    10030    2    1    2    0    0  0.00000000000E+00  0.00000000000E+00 -0.72888102869E+03  0.26944626065E+04  0.25940048543E+04 0.  0.
        1    1    3    3  502    0  0.25073215839E+03  0.51834995017E+03 -0.15716279835E+04  0.16737884587E+04  0.50400001928E-02 0. -1.
       -1    1    3    3    0  502 -0.25073215839E+03 -0.51834995017E+03  0.84274695479E+03  0.10206741478E+04  0.50400001928E-02 0.  1.
</event>
<event>
 5   0  0.4955675E-05  0.2805270E+04  0.7818609E-02  0.8301634E-01
        2   -1    0    0  501    0  0.00000000000E+00  0.00000000000E+00  0.13836612879E+04  0.13836612879E+04  0.25500000920E-02 0. -1.
       -2   -1    0    0    0  501  0.00000000000E+00  0.00000000000E+00 -0.14218688689E+04  0.14218688689E+04  0.25500000920E-02 0.  1.
    10030    2    1    2    0    0  0.00000000000E+00  0.00000000000E+00 -0.38207581022E+02  0.28055301568E+04  0.28052699766E+04 0.  0.
        5    1    3    3  502    0 -0.49484183198E+03  0.16826262162E+03 -0.13208320060E+04  0.14204928815E+04  0.46999998093E+01 0.  1.
       -5    1    3    3    0  502  0.49484183198E+03 -0.16826262162E+03  0.12826244249E+04  0.13850372753E+04  0.46999998093E+01 0. -1.
</event>
<event>
 5   0  0.1993815E-05  0.2620296E+04  0.7818609E-02  0.8361340E-01
       -1   -1    0    0    0  501  0.00000000000E+00  0.00000000000E+00  0.89322282940E+03  0.89322282941E+03  0.50400001928E-02 0. -1.
        1   -1    0    0  501    0  0.00000000000E+00  0.00000000000E+00 -0.19216789702E+04  0.19216789702E+04  0.50400001928E-02 0.  1.
    10030    2    1    2    0    0  0.00000000000E+00  0.00000000000E+00 -0.10284561408E+04  0.28149017996E+04  0.26202958054E+04 0.  0.
        5    1    3    3  502    0  0.59223657393E+03  0.35742256118E+03 -0.17095036751E+04  0.18441583315E+04  0.46999998093E+01 0.  1.
       -5    1    3    3    0  502 -0.59223657393E+03 -0.35742256118E+03  0.68104753431E+03  0.97074346803E+03  0.46999998093E+01 0. -1.
</event>
<event>
 5   0  0.5049803E-05  0.2700373E+04  0.7818609E-02  0.8334884E-01
       -2   -1    0    0    0  501  0.00000000000E+00  0.00000000000E+00  0.14515491559E+04  0.14515491559E+04  0.25500000920E-02 0.  1.
        2   -1    0    0  501    0  0.00000000000E+00  0.00000000000E+00 -0.12559023509E+04  0.12559023509E+04  0.25500000920E-02 0. -1.
    10030    2    1    2    0    0  0.00000000000E+00  0.00000000000E+00  0.19564680505E+03  0.27074515068E+04  0.27003733055E+04 0.  0.
        4    1    3    3  502    0  0.90538397330E+03 -0.10417669429E+03 -0.90099538977E+03  0.12815487615E+04  0.12699999809E+01 0. -1.
       -4    1    3    3    0  502 -0.90538397330E+03  0.10417669429E+03  0.10966421948E+04  0.14259027453E+04  0.12699999809E+01 0.  1.
</event>
<event>
 5   0  0.1954502E-05  0.2658999E+04  0.7818609E-02  0.8348432E-01
        1   -1    0    0  501    0  0.00000000000E+00  0.00000000000E+00  0.23659343062E+04  0.23659343062E+04  0.50400001928E-02 0.  1.
       -1   -1    0    0    0  501  0.00000000000E+00  0.00000000000E+00 -0.74709147226E+03  0.74709147227E+03  0.50400001928E-02 0. -1.
    10030    2    1    2    0    0  0.00000000000E+00  0.00000000000E+00  0.16188428340E+04  0.31130257785E+04  0.26589993186E+04 0.  0.
        4    1    3    3  502    0  0.20588256760E+03  0.73079464939E+03  0.20871603209E+04  0.22209656164E+04  0.12699999809E+01 0.  1.
       -4    1    3    3    0  502 -0.20588256760E+03 -0.73079464939E+03 -0.46831748698E+03  0.89206016206E+03  0.12699999809E+01 0. -1.
</event>
<event>
 5   0  0.2072710E-05  0.2655937E+04  0.7818609E-02  0.8349445E-01
       -1   -1    0    0    0  501  0.00000000000E+00  0.00000000000E+00  0.63616836856E+03  0.63616836858E+03  0.50400001928E-02 0. -1.
        1   -1    0    0  501    0  0.00000000000E+00  0.00000000000E+00 -0.27720653837E+04  0.27720653837E+04  0.50400001928E-02 0.  1.
    10030    2    1    2    0    0  0.00000000000E+00  0.00000000000E+00 -0.21358970151E+04  0.34082337522E+04  0.26559369817E+04 0.  0.
        2    1    3    3  502    0 -0.97803652184E+03  0.72422420861E+03 -0.38595865230E+03  0.12767224537E+04  0.25500000920E-02 0. -1.
       -2    1    3    3    0  502  0.97803652184E+03 -0.72422420861E+03 -0.17499383628E+04  0.21315112986E+04  0.25500000920E-02 0.  1.
</event>
<event>
 5   0  0.2159405E-05  0.2449530E+04  0.7818609E-02  0.8421190E-01
       -1   -1    0    0    0  501  0.00000000000E+00  0.00000000000E+00  0.83214301533E+03  0.83214301534E+03  0.50400001928E-02 0.  1.
        1   -1    0    0  501    0  0.00000000000E+00  0.00000000000E+00 -0.18026334139E+04  0.18026334139E+04  0.50400001928E-02 0. -1.
    10030    2    1    2    0    0  0.00000000000E+00  0.00000000000E+00 -0.97049039860E+03  0.26347764293E+04  0.24495295913E+04 0.  0.
        3    1    3    3  502    0  0.11443343566E+04 -0.65327056824E+02 -0.94948701128E+03  0.14883864884E+04  0.10100000352E+00 0. -1.
       -3    1    3    3    0  502 -0.11443343566E+04  0.65327056824E+02 -0.21003387313E+02  0.11463899409E+04  0.10100000352E+00 0.  1.
</event>
<event>
 5   0  0.5182179E-05  0.2498779E+04  0.7818609E-02  0.8403421E-01
        2   -1    0    0  501    0  0.00000000000E+00  0.00000000000E+00  0.63029895874E+03  0.63029895874E+03  0.25500000920E-02 0.  1.
       -2   -1    0    0    0  501  0.00000000000E+00  0.00000000000E+00 -0.24765615844E+04  0.24765615844E+04  0.25500000920E-02 0. -1.
    10030    2    1    2    0    0  0.00000000000E+00  0.00000000000E+00 -0.18462626257E+04  0.31068605432E+04  0.24987790522E+04 0.  0.
        3    1    3    3  502    0 -0.81122941775E+03  0.47575398371E+03  0.99550121605E+02  0.94569829129E+03  0.10100000352E+00 0.  1.
       -3    1    3    3    0  502  0.81122941775E+03 -0.47575398371E+03 -0.19458127473E+04  0.21611622519E+04  0.10100000352E+00 0. -1.
</event>
<event>
 5   0  0.2072710E-05  0.2602465E+04  0.7818609E-02  0.8367364E-01
        1   -1    0    0  501    0  0.00000000000E+00  0.00000000000E+00  0.10425775393E+04  0.10425775393E+04  0.50400001928E-02 0. -1.
       -1   -1    0    0    0  501  0.00000000000E+00  0.00000000000E+00 -0.16240576661E+04  0.16240576661E+04  0.50400001928E-02 0.  1.
    10030    2    1    2    0    0  0.00000000000E+00  0.00000000000E+00 -0.58148012677E+03  0.26666352055E+04  0.26024650202E+04 0.  0.
        2    1    3    3  502    0  0.53964850326E+03 -0.81628491679E+02 -0.15011040120E+04  0.15972466849E+04  0.25500000920E-02 0.  1.
       -2    1    3    3    0  502 -0.53964850326E+03  0.81628491679E+02  0.91962388518E+03  0.10693885206E+04  0.25500000920E-02 0. -1.
</event>
<event>
 5   0  0.1954502E-05  0.2523850E+04  0.7818609E-02  0.8394538E-01
        1   -1    0    0  501    0  0.00000000000E+00  0.00000000000E+00  0.73341382831E+03  0.73341382833E+03  0.50400001928E-02 0. -1.
       -1   -1    0    0    0  501  0.00000000000E+00  0.00000000000E+00 -0.21712904756E+04  0.21712904756E+04  0.50400001928E-02 0.  1.
    10030    2    1    2    0    0  0.00000000000E+00  0.00000000000E+00 -0.14378766473E+04  0.29047043039E+04  0.25238498054E+04 0.  0.
        4    1    3    3  502    0  0.84257777738E+03  0.26884018809E+03 -0.17549040626E+04  0.19651723180E+04  0.12699999809E+01 0.  1.
       -4    1    3    3    0  502 -0.84257777738E+03 -0.26884018809E+03  0.31702741528E+03  0.93953198594E+03  0.12699999809E+01 0. -1.
</event>
<event>
 5   0  0.4955675E-05  0.2636246E+04  0.7818609E-02  0.8355993E-01
       -2   -1    0    0    0  501  0.00000000000E+00  0.00000000000E+00  0.21591817763E+04  0.21591817763E+04  0.25500000920E-02 0. -1.
        2   -1    0    0  501    0  0.00000000000E+00  0.00000000000E+00 -0.80467880034E+03  0.80467880034E+03  0.25500000920E-02 0.  1.
    10030    2    1    2    0    0  0.00000000000E+00  0.00000000000E+00  0.13545029759E+04  0.29638605766E+04  0.26362456649E+04 0.  0.
        5    1    3    3  502    0  0.48408909489E+03  0.56882869243E+03  0.18982751030E+04  0.20399457811E+04  0.46999998093E+01 0. -1.
       -5    1    3    3    0  502 -0.48408909489E+03 -0.56882869243E+03 -0.54377212710E+03  0.92391479549E+03  0.46999998093E+01 0.  1.
</event>
<event>
 5   0  0.5049803E-05  0.2545631E+04  0.7818609E-02  0.8386907E-01
       -2   -1    0    0    0  501  0.00000000000E+00  0.00000000000E+00  0.10989759651E+04  0.10989759651E+04  0.25500000920E-02 0. -1.
        2   -1    0    0  501    0  0.00000000000E+00  0.00000000000E+00 -0.14741533872E+04  0.14741533872E+04  0.25500000920E-02 0.  1.
    10030    2    1    2    0    0  0.00000000000E+00  0.00000000000E+00 -0.37517742212E+03  0.25731293522E+04  0.25456308777E+04 0.  0.
        4    1    3    3  502    0  0.10522992224E+04  0.75601615808E+02  0.53214809231E+03  0.11816228090E+04  0.12699999809E+01 0. -1.
       -4    1    3    3    0  502 -0.10522992224E+04 -0.75601615808E+02 -0.90732551443E+03  0.13915065432E+04  0.12699999809E+01 0.  1.
</event>
<event>
 5   0  0.2072710E-05  0.2609432E+04  0.7818609E-02  0.8365004E-01
        1   -1    0    0  501    0  0.00000000000E+00  0.00000000000E+00  0.17441053231E+04  0.17441053231E+04  0.50400001928E-02 0. -1.
       -1   -1    0    0    0  501  0.00000000000E+00  0.00000000000E+00 -0.97602125500E+03  0.97602125501E+03  0.50400001928E-02 0.  1.
    10030    2    1    2    0    0  0.00000000000E+00  0.00000000000E+00  0.76808406808E+03  0.27201265781E+04  0.26094320197E+04 0.  0.
        2    1    3    3  502    0 -0.81179834674E+02  0.49214836676E+03  0.16407900477E+04  0.17149321156E+04  0.25500000920E-02 0. -1.
       -2    1    3    3    0  502  0.81179834674E+02 -0.49214836676E+03 -0.87270597965E+03  0.10051944625E+04  0.25500000920E-02 0.  1.
</event>
<event>
 5   0  0.2159405E-05  0.2595134E+04  0.7818609E-02  0.8369856E-01
       -1   -1    0    0    0  501  0.00000000000E+00  0.00000000000E+00  0.85246849079E+03  0.85246849080E+03  0.50400001928E-02 0.  1.
        1   -1    0    0  501    0  0.00000000000E+00  0.00000000000E+00 -0.19750642918E+04  0.19750642918E+04  0.50400001928E-02 0. -1.
    10030    2    1    2    0    0  0.00000000000E+00  0.00000000000E+00 -0.11225958010E+04  0.28275327826E+04  0.25951339665E+04 0.  0.
        3    1    3    3  502    0  0.11194689450E+03  0.11152202697E+04  0.15103209968E+03  0.11309549339E+04  0.10100000352E+00 0.  1.
       -3    1    3    3    0  502 -0.11194689450E+03 -0.11152202697E+04 -0.12736279007E+04  0.16965778487E+04  0.10100000352E+00 0. -1.
</event>
<event>
 5   0  0.1993815E-05  0.2663113E+04  0.7818609E-02  0.8347074E-01
        1   -1    0    0  501    0  0.00000000000E+00  0.00000000000E+00  0.84301148880E+03  0.84301148881E+03  0.50400001928E-02 0. -1.
       -1   -1    0    0    0  501  0.00000000000E+00  0.00000000000E+00 -0.21032243239E+04  0.21032243239E+04  0.50400001928E-02 0.  1.
    10030    2    1    2    0    0  0.00000000000E+00  0.00000000000E+00 -0.12602128351E+04  0.29462358127E+04  0.26631126665E+04 0.  0.
        5    1    3    3  502    0 -0.37942845862E+03  0.79763394700E+03 -0.17324484120E+04  0.19446299028E+04  0.46999998093E+01 0.  1.
       -5    1    3    3    0  502  0.37942845862E+03 -0.79763394700E+03  0.47223557693E+03  0.10016059099E+04  0.46999998093E+01 0. -1.
</event>
<event>
 5   0  0.5036452E-05  0.2613757E+04  0.7818609E-02  0.8363543E-01
        2   -1    0    0  501    0  0.00000000000E+00  0.00000000000E+00  0.10941167962E+04  0.10941167962E+04  0.25500000920E-02 0.  1.
       -2   -1    0    0    0  501  0.00000000000E+00  0.00000000000E+00 -0.15610133673E+04  0.15610133673E+04  0.25500000920E-02 0. -1.
    10030    2    1    2    0    0  0.00000000000E+00  0.00000000000E+00 -0.46689657113E+03  0.26551301635E+04  0.26137566407E+04 0.  0.
        2    1    3    3  502    0  0.67679791084E+03 -0.45097945843E+03 -0.12726236528E+04  0.15103009123E+04  0.25500000920E-02 0. -1.
       -2    1    3    3    0  502 -0.67679791084E+03  0.45097945843E+03  0.80572708171E+03  0.11448292511E+04  0.25500000920E-02 0.  1.
</event>
<event>
 5   0  0.2163800E-05  0.2444364E+04  0.7818609E-02  0.8423079E-01
        1   -1    0    0  501    0  0.00000000000E+00  0.00000000000E+00  0.13588912028E+04  0.13588912028E+04  0.50400001928E-02 0. -1.
       -1   -1    0    0    0  501  0.00000000000E+00  0.00000000000E+00 -0.10992258662E+04  0.10992258662E+04  0.50400001928E-02 0.  1.
    10030    2    1    2    0    0  0.00000000000E+00  0.00000000000E+00  0.25966533656E+03  0.24581170690E+04  0.24443636059E+04 0.  0.
        1    1    3    3  502    0 -0.21763690852E+03 -0.25739906717E+03  0.13112227774E+04  0.13538557072E+04  0.50400001928E-02 0. -1.
       -1    1    3    3    0  502  0.21763690852E+03  0.25739906717E+03 -0.10515574409E+04  0.11042613618E+04  0.50400001928E-02 0.  1.
</event>
<event>
 5   0  0.4955675E-05  0.2345074E+04  0.7818609E-02  0.8460358E-01
       -2   -1    0    0    0  501  0.00000000000E+00  0.00000000000E+00  0.10413109339E+04  0.10413109339E+04  0.25500000920E-02 0.  1.
        2   -1    0    0  501    0  0.00000000000E+00  0.00000000000E+00 -0.13203001357E+04  0.13203001357E+04  0.25500000920E-02 0. -1.
    10030    2    1    2    0    0  0.00000000000E+00  0.00000000000E+00 -0.27898920178E+03  0.23616110696E+04  0.23450739582E+04 0.  0.
        5    1    3    3  502    0  0.81556944078E+03 -0.72688642564E+03  0.28930553334E+03  0.11301491805E+04  0.46999998093E+01 0.  1.
       -5    1    3    3    0  502 -0.81556944078E+03  0.72688642564E+03 -0.56829473512E+03  0.12314618892E+04  0.46999998093E+01 0. -1.
</event>
<event>
 5   0  0.2159405E-05  0.2616165E+04  0.7818609E-02  0.8362731E-01
        1   -1    0    0  501    0  0.00000000000E+00  0.00000000000E+00  0.12593714914E+04  0.12593714914E+04  0.50400001928E-02 0.  1.
       -1   -1    0    0    0  501  0.00000000000E+00  0.00000000000E+00 -0.13586777867E+04  0.13586777867E+04  0.50400001928E-02 0. -1.
    10030    2    1    2    0    0  0.00000000000E+00  0.00000000000E+00 -0.99306295257E+02  0.26180492781E+04  0.26161651864E+04 0.  0.
        3    1    3    3  502    0 -0.63565493961E+03 -0.73651463651E+03 -0.92467925523E+03  0.13422156113E+04  0.10100000352E+00 0. -1.
       -3    1    3    3    0  502  0.63565493961E+03  0.73651463651E+03  0.82537295998E+03  0.12758336668E+04  0.10100000352E+00 0.  1.
</event>
<event>
 5   0  0.5036452E-05  0.2590035E+04  0.7818609E-02  0.8371594E-01
        2   -1    0    0  501    0  0.00000000000E+00  0.00000000000E+00  0.13373810026E+04  0.13373810026E+04  0.25500000920E-02 0.  1.
       -2   -1    0    0    0  501  0.00000000000E+00  0.00000000000E+00 -0.12539964029E+04  0.12539964029E+04  0.25500000920E-02 0. -1.
    10030    2    1    2    0    0  0.00000000000E+00  0.00000000000E+00  0.83384599681E+02  0.25913774055E+04  0.25900354952E+04 0.  0.
        2    1    3    3  502    0 -0.70394539801E+03  0.11797405898E+03 -0.10394294191E+04  0.12609006778E+04  0.25500000920E-02 0. -1.
       -2    1    3    3    0  502  0.70394539801E+03 -0.11797405898E+03  0.11228140188E+04  0.13304767277E+04  0.25500000920E-02 0.  1.
</event>
<event>
 5   0  0.4955675E-05  0.2581234E+04  0.7818609E-02  0.8374604E-01
        2   -1    0    0  501    0  0.00000000000E+00  0.00000000000E+00  0.22259601924E+04  0.22259601924E+04  0.25500000920E-02 0. -1.
       -2   -1    0    0    0  501  0.00000000000E+00  0.00000000000E+00 -0.74830273094E+03  0.74830273095E+03  0.25500000920E-02 0.  1.
    10030    2    1    2    0    0  0.00000000000E+00  0.00000000000E+00  0.14776574614E+04  0.29742629233E+04  0.25812338840E+04 0.  0.
        5    1    3    3  502    0 -0.91008449075E+01  0.65612833745E+03 -0.54173156791E+03  0.85093031574E+03  0.46999998093E+01 0.  1.
       -5    1    3    3    0  502  0.91008449075E+01 -0.65612833745E+03  0.20193890293E+04  0.21233326076E+04  0.46999998093E+01 0. -1.
</event>
<event>
 5   0  0.2163800E-05  0.2524263E+04  0.7818609E-02  0.8394392E-01
       -1   -1    0    0    0  501  0.00000000000E+00  0.00000000000E+00  0.17250342013E+04  0.17250342013E+04  0.50400001928E-02 0.  1.
        1   -1    0    0  501    0  0.00000000000E+00  0.00000000000E+00 -0.92344589258E+03  0.92344589259E+03  0.50400001928E-02 0. -1.
    10030    2    1    2    0    0  0.00000000000E+00  0.00000000000E+00  0.80158830871E+03  0.26484800939E+04  0.25242628609E+04 0.  0.
        1    1    3    3  502    0  0.55983323039E+03 -0.18179401489E+03 -0.77062040593E+03  0.96970001535E+03  0.50400001928E-02 0. -1.
       -1    1    3    3    0  502 -0.55983323039E+03  0.18179401489E+03  0.15722087146E+04  0.16787800785E+04  0.50400001928E-02 0.  1.
</event>
<event>
 5   0  0.1954502E-05  0.2580026E+04  0.7818609E-02  0.8375018E-01
        1   -1    0    0  501    0  0.00000000000E+00  0.00000000000E+00  0.11377287449E+04  0.11377287449E+04  0.50400001928E-02 0.  1.
       -1   -1    0    0    0  501  0.00000000000E+00  0.00000000000E+00 -0.14626804890E+04  0.14626804890E+04  0.50400001928E-02 0. -1.
    10030    2    1    2    0    0  0.00000000000E+00  0.00000000000E+00 -0.32495174406E+03  0.26004092339E+04  0.25800260750E+04 0.  0.
        4    1    3    3  502    0 -0.93449983446E+03  0.12844886498E+03 -0.10493955385E+04  0.14110356695E+04  0.12699999809E+01 0. -1.
       -4    1    3    3    0  502  0.93449983446E+03 -0.12844886498E+03  0.72444379442E+03  0.11893735644E+04  0.12699999809E+01 0.  1.
</event>
<event>
 5   0  0.5182179E-05  0.2364858E+04  0.7818609E-02  0.8452779E-01
        2   -1    0    0  501    0  0.00000000000E+00  0.00000000000E+00  0.16844303136E+04  0.16844303137E+04  0.25500000920E-02 0.  1.
       -2   -1    0    0    0  501  0.00000000000E+00  0.00000000000E+00 -0.83003627059E+03  0.83003627059E+03  0.25500000920E-02 0. -1.
    10030    2    1    2    0    0  0.00000000000E+00  0.00000000000E+00  0.85439404306E+03  0.25144665842E+04  0.23648579286E+04 0.  0.
        3    1    3    3  502    0 -0.63366990211E+03 -0.47201781522E+03  0.13625060856E+04  0.15750432395E+04  0.10100000352E+00 0.  1.
       -3    1    3    3    0  502  0.63366990211E+03  0.47201781522E+03 -0.50811204253E+03  0.93942334477E+03  0.10100000352E+00 0. -1.
</event>
<event>
 5   0  0.1993815E-05  0.2571435E+04  0.7818609E-02  0.8377969E-01
       -1   -1    0    0    0  501  0.00000000000E+00  0.00000000000E+00  0.26020157636E+04  0.26020157636E+04  0.50400001928E-02 0.  1.
        1   -1    0    0  501    0  0.00000000000E+00  0.00000000000E+00 -0.63530342467E+03  0.63530342469E+03  0.50400001928E-02 0. -1.
    10030    2    1    2    0    0  0.00000000000E+00  0.00000000000E+00  0.19667123389E+04  0.32373191883E+04  0.25714350279E+04 0.  0.
        5    1    3    3  502    0 -0.51159443459E+03 -0.15004904140E+03 -0.48956863464E+03  0.72383915227E+03  0.46999998093E+01 0. -1.
       -5    1    3    3    0  502  0.51159443459E+03  0.15004904140E+03  0.24562809736E+04  0.25134800360E+04  0.46999998093E+01 0.  1.
</event>
<event>
 5   0  0.5170532E-05  0.2548161E+04  0.7818609E-02  0.8386026E-01
       -2   -1    0    0    0  501  0.00000000000E+00  0.00000000000E+00  0.65480981887E+03  0.65480981887E+03  0.25500000920E-02 0.  1.
        2   -1    0    0  501    0  0.00000000000E+00  0.00000000000E+00 -0.24790106913E+04  0.24790106913E+04  0.25500000920E-02 0. -1.
    10030    2    1    2    0    0  0.00000000000E+00  0.00000000000E+00 -0.18242008724E+04  0.31338205102E+04  0.25481605458E+04 0.  0.
        1    1    3    3  502    0  0.23214686193E+03  0.69730373942E+03 -0.21920498642E+04  0.23119704318E+04  0.50400001928E-02 0. -1.
       -1    1    3    3    0  502 -0.23214686193E+03 -0.69730373942E+03  0.36784899176E+03  0.82185007835E+03  0.50400001928E-02 0.  1.
</event>
<event>
 5   0  0.2163800E-05  0.2598904E+04  0.7818609E-02  0.8368574E-01
        1   -1    0    0  501    0  0.00000000000E+00  0.00000000000E+00  0.16588739704E+04  0.16588739704E+04  0.50400001928E-02 0.  1.
       -1   -1    0    0    0  501  0.00000000000E+00  0.00000000000E+00 -0.10179045275E+04  0.10179045275E+04  0.50400001928E-02 0. -1.
    10030    2    1    2    0    0  0.00000000000E+00  0.00000000000E+00  0.64096944289E+03  0.26767784978E+04  0.25989038651E+04 0.  0.
        1    1    3    3  502    0 -0.61083991647E+03  0.11272226848E+04  0.53853317547E+03  0.13906021594E+04  0.50400001928E-02 0.  1.
       -1    1    3    3    0  502  0.61083991647E+03 -0.11272226848E+04  0.10243626742E+03  0.12861763384E+04  0.50400001928E-02 0. -1.
</event>
<event>
 5   0  0.5036452E-05  0.2570472E+04  0.7818609E-02  0.8378301E-01
       -2   -1    0    0    0  501  0.00000000000E+00  0.00000000000E+00  0.11677651557E+04  0.11677651557E+04  0.25500000920E-02 0.  1.
        2   -1    0    0  501    0  0.00000000000E+00  0.00000000000E+00 -0.14145237517E+04  0.14145237517E+04  0.25500000920E-02 0. -1.
    10030    2    1    2    0    0  0.00000000000E+00  0.00000000000E+00 -0.24675859601E+03  0.25822889074E+04  0.25704719793E+04 0.  0.
        2    1    3    3  502    0  0.15344759184E+03  0.19684104651E+03 -0.13899444887E+04  0.14121750043E+04  0.25500000920E-02 0. -1.
       -2    1    3    3    0  502 -0.15344759184E+03 -0.19684104651E+03  0.11431858927E+04  0.11701139031E+04  0.25500000920E-02 0.  1.
</event>
<event>
 5   0  0.2159405E-05  0.2614457E+04  0.7818609E-02  0.8363307E-01
        1   -1    0    0  501    0  0.00000000000E+00  0.00000000000E+00  0.11318605782E+04  0.11318605782E+04  0.50400001928E-02 0.  1.
       -1   -1    0    0    0  501  0.00000000000E+00  0.00000000000E+00 -0.15097671459E+04  0.15097671460E+04  0.50400001928E-02 0. -1.
    10030    2    1    2    0    0  0.00000000000E+00  0.00000000000E+00 -0.37790656777E+03  0.26416277241E+04  0.26144566661E+04 0.  0.
        3    1    3    3  502    0 -0.12894132256E+04  0.62486979756E+02 -0.39689497137E+03  0.13505616304E+04  0.10100000352E+00 0. -1.
       -3    1    3    3    0  502  0.12894132256E+04 -0.62486979756E+02  0.18988403604E+02  0.12910660938E+04  0.10100000352E+00 0.  1.
</event>
<event>
 5   0  0.5049803E-05  0.2693684E+04  0.7818609E-02  0.8337057E-01
       -2   -1    0    0    0  501  0.00000000000E+00  0.00000000000E+00  0.21265537325E+04  0.21265537325E+04  0.25500000920E-02 0.  1.
        2   -1    0    0  501    0  0.00000000000E+00  0.00000000000E+00 -0.85301537738E+03  0.85301537738E+03  0.25500000920E-02 0. -1.
    10030    2    1    2    0    0  0.00000000000E+00  0.00000000000E+00  0.12735383551E+04  0.29795691099E+04  0.26936837488E+04 0.  0.
        4    1    3    3  502    0  0.12473870568E+04 -0.32340632971E+03  0.20351656400E+03  0.13046021341E+04  0.12699999809E+01 0. -1.
       -4    1    3    3    0  502 -0.12473870568E+04  0.32340632971E+03  0.10700217911E+04  0.16749669758E+04  0.12699999809E+01 0.  1.
</event>
<event>
 5   0  0.5170532E-05  0.2464967E+04  0.7818609E-02  0.8415574E-01
        2   -1    0    0  501    0  0.00000000000E+00  0.00000000000E+00  0.17014668625E+04  0.17014668625E+04  0.25500000920E-02 0. -1.
       -2   -1    0    0    0  501  0.00000000000E+00  0.00000000000E+00 -0.89276795539E+03  0.89276795540E+03  0.25500000920E-02 0.  1.
    10030    2    1    2    0    0  0.00000000000E+00  0.00000000000E+00  0.80869890714E+03  0.25942348179E+04  0.24649666059E+04 0.  0.
        1    1    3    3  502    0 -0.45553863562E+01 -0.10182860336E+04  0.11350868892E+04  0.15249096510E+04  0.50400001928E-02 0. -1.
       -1    1    3    3    0  502  0.45553863562E+01  0.10182860336E+04 -0.32638798203E+03  0.10693251669E+04  0.50400001928E-02 0.  1.
</event>
<event>
 5   0  0.2159405E-05  0.2587324E+04  0.7818609E-02  0.8372520E-01
       -1   -1    0    0    0  501  0.00000000000E+00  0.00000000000E+00  0.13848099756E+04  0.13848099756E+04  0.50400001928E-02 0.  1.
        1   -1    0    0  501    0  0.00000000000E+00  0.00000000000E+00 -0.12085131648E+04  0.12085131648E+04  0.50400001928E-02 0. -1.
    10030    2    1    2    0    0  0.00000000000E+00  0.00000000000E+00  0.17629681083E+03  0.25933231404E+04  0.25873237805E+04 0.  0.
        3    1    3    3  502    0  0.20530158047E+03  0.10740220087E+04 -0.60474974212E+03  0.12495576317E+04  0.10100000352E+00 0. -1.
       -3    1    3    3    0  502 -0.20530158047E+03 -0.10740220087E+04  0.78104655295E+03  0.13437655087E+04  0.10100000352E+00 0.  1.
</event>
<event>
 5   0  0.1993815E-05  0.2502884E+04  0.7818609E-02  0.8401959E-01
       -1   -1    0    0    0  501  0.00000000000E+00  0.00000000000E+00  0.64087040938E+03  0.64087040940E+03  0.50400001928E-02 0. -1.
        1   -1    0    0  501    0  0.00000000000E+00  0.00000000000E+00 -0.24437196751E+04  0.24437196751E+04  0.50400001928E-02 0.  1.
    10030    2    1    2    0    0  0.00000000000E+00  0.00000000000E+00 -0.18028492657E+04  0.30845900845E+04  0.25028844389E+04 0.  0.
        5    1    3    3  502    0  0.10414162278E+04  0.68116114969E+03 -0.73812503371E+03  0.14468513838E+04  0.46999998093E+01 0. -1.
       -5    1    3    3    0  502 -0.10414162278E+04 -0.68116114969E+03 -0.10647242320E+04  0.16377387007E+04  0.46999998093E+01 0.  1.
</event>
<event>
 5   0  0.2159405E-05  0.2539320E+04  0.7818609E-02  0.8389110E-01
        1   -1    0    0  501    0  0.00000000000E+00  0.00000000000E+00  0.82704478211E+03  0.82704478212E+03  0.50400001928E-02 0. -1.
       -1   -1    0    0    0  501  0.00000000000E+00  0.00000000000E+00 -0.19491530941E+04  0.19491530941E+04  0.50400001928E-02 0.  1.
    10030    2    1    2    0    0  0.00000000000E+00  0.00000000000E+00 -0.11221083120E+04  0.27761978762E+04  0.25393202996E+04 0.  0.
        3    1    3    3  502    0 -0.62528692960E+03 -0.74161386975E+03 -0.14566545165E+04  0.17500906453E+04  0.10100000352E+00 0. -1.
       -3    1    3    3    0  502  0.62528692960E+03  0.74161386975E+03  0.33454620454E+03  0.10261072309E+04  0.10100000352E+00 0.  1.
</event>
<event>
 5   0  0.1698625E-05  0.2349365E+04  0.7818609E-02  0.8458707E-01
       -3   -1    0    0    0  501  0.00000000000E+00  0.00000000000E+00  0.13941906323E+04  0.13941906359E+04  0.10100000352E+00 0.  1.
        3   -1    0    0  501    0  0.00000000000E+00  0.00000000000E+00 -0.98973508261E+03  0.98973508777E+03  0.10100000352E+00 0. -1.
    10030    2    1    2    0    0  0.00000000000E+00  0.00000000000E+00  0.40445554967E+03  0.23839257237E+04  0.23493653536E+04 0.  0.
        4    1    3    3  502    0 -0.85562472733E+03  0.75180653885E+03  0.49380662383E+03  0.12414319718E+04  0.12699999809E+01 0.  1.
       -4    1    3    3    0  502  0.85562472733E+03 -0.75180653885E+03 -0.89351074162E+02  0.11424937519E+04  0.12699999809E+01 0. -1.
</event>
<event>
 5   0  0.5036452E-05  0.2225457E+04  0.7818609E-02  0.8507906E-01
       -2   -1    0    0    0  501  0.00000000000E+00  0.00000000000E+00  0.55596745352E+03  0.55596745352E+03  0.25500000920E-02 0.  1.
        2   -1    0    0  501    0  0.00000000000E+00  0.00000000000E+00 -0.22270457801E+04  0.22270457801E+04  0.25500000920E-02 0. -1.
    10030    2    1    2    0    0  0.00000000000E+00  0.00000000000E+00 -0.16710783266E+04  0.27830132336E+04  0.22254572305E+04 0.  0.
        2    1    3    3  502    0 -0.47400886896E+03 -0.32078146569E+03  0.35777564115E+03  0.67497301130E+03  0.25500000920E-02 0.  1.
       -2    1    3    3    0  502  0.47400886896E+03  0.32078146569E+03 -0.20288539677E+04  0.21080402223E+04  0.25500000920E-02 0. -1.
</event>
<event>
 5   0  0.2159405E-05  0.2615006E+04  0.7818609E-02  0.8363122E-01
       -1   -1    0    0    0  501  0.00000000000E+00  0.00000000000E+00  0.97907596928E+03  0.97907596929E+03  0.50400001928E-02 0. -1.
        1   -1    0    0  501    0  0.00000000000E+00  0.00000000000E+00 -0.17460997110E+04  0.17460997110E+04  0.50400001928E-02 0.  1.
    10030    2    1    2    0    0  0.00000000000E+00  0.00000000000E+00 -0.76702374173E+03  0.27251756803E+04  0.26150061316E+04 0.  0.
        3    1    3    3  502    0  0.11556578499E+04  0.33358917574E+03  0.15066217807E+03  0.12122400366E+04  0.10100000352E+00 0. -1.
       -3    1    3    3    0  502 -0.11556578499E+04 -0.33358917574E+03 -0.91768591980E+03  0.15129356437E+04  0.10100000352E+00 0.  1.
</event>
<event>
 5   0  0.5170532E-05  0.2430764E+04  0.7818609E-02  0.8428075E-01
        2   -1    0    0  501    0  0.00000000000E+00  0.00000000000E+00  0.85144727245E+03  0.85144727245E+03  0.25500000920E-02 0.  1.
       -2   -1    0    0    0  501  0.00000000000E+00  0.00000000000E+00 -0.17348739481E+04  0.17348739481E+04  0.25500000920E-02 0. -1.
    10030    2    1    2    0    0  0.00000000000E+00  0.00000000000E+00 -0.88342667564E+03  0.25863212205E+04  0.24307642347E+04 0.  0.
        1    1    3    3  502    0  0.21247644143E+02  0.52303509431E+03  0.72535713133E+03  0.89451670765E+03  0.50400001928E-02 0.  1.
       -1    1    3    3    0  502 -0.21247644143E+02 -0.52303509431E+03 -0.16087838070E+04  0.16918045129E+04  0.50400001928E-02 0. -1.
</event>
<event>
 5   0  0.5049803E-05  0.2624213E+04  0.7818609E-02  0.8360023E-01
       -2   -1    0    0    0  501  0.00000000000E+00  0.00000000000E+00  0.13813110179E+04  0.13813110179E+04  0.25500000920E-02 0.  1.
        2   -1    0    0  501    0  0.00000000000E+00  0.00000000000E+00 -0.12463687216E+04  0.12463687216E+04  0.25500000920E-02 0. -1.
    10030    2    1    2    0    0  0.00000000000E+00  0.00000000000E+00  0.13494229631E+03  0.26276797394E+04  0.26242125275E+04 0.  0.
        4    1    3    3  502    0  0.10086745578E+04 -0.76093975343E+03  0.42172887028E+03  0.13320324789E+04  0.12699999809E+01 0.  1.
       -4    1    3    3    0  502 -0.10086745578E+04  0.76093975343E+03 -0.28678657398E+03  0.12956472606E+04  0.12699999809E+01 0. -1.
</event>
<event>
 5   0  0.1993815E-05  0.2347051E+04  0.7818609E-02  0.8459597E-01
        1   -1    0    0  501    0  0.00000000000E+00  0.00000000000E+00  0.14893204284E+04  0.14893204284E+04  0.50400001928E-02 0.  1.
       -1   -1    0    0    0  501  0.00000000000E+00  0.00000000000E+00 -0.92469189460E+03  0.92469189461E+03  0.50400001928E-02 0. -1.
    10030    2    1    2    0    0  0.00000000000E+00  0.00000000000E+00  0.56462853377E+03  0.24140123230E+04  0.23470513659E+04 0.  0.
        5    1    3    3  502    0  0.17044235416E+03 -0.86493537986E+03 -0.51436599221E+03  0.10206656021E+04  0.46999998093E+01 0. -1.
       -5    1    3    3    0  502 -0.17044235416E+03  0.86493537986E+03  0.10789945260E+04  0.13933467209E+04  0.46999998093E+01 0.  1.
</event>
<event>
 5   0  0.5182179E-05  0.2574950E+04  0.7818609E-02  0.8376760E-01
        2   -1    0    0  501    0  0.00000000000E+00  0.00000000000E+00  0.14886645593E+04  0.14886645593E+04  0.25500000920E-02 0. -1.
       -2   -1    0    0    0  501  0.00000000000E+00  0.00000000000E+00 -0.11134759689E+04  0.11134759689E+04  0.25500000920E-02 0.  1.
    10030    2    1    2    0    0  0.00000000000E+00  0.00000000000E+00  0.37518859042E+03  0.26021405282E+04  0.25749502617E+04 0.  0.
        3    1    3    3  502    0  0.67669345087E+03  0.10523125361E+04 -0.11945038195E+03  0.12567991502E+04  0.10100000352E+00 0. -1.
       -3    1    3    3    0  502 -0.67669345087E+03 -0.10523125361E+04  0.49463897237E+03  0.13453413780E+04  0.10100000352E+00 0.  1.
</event>
<event>
 5   0  0.5182179E-05  0.3064022E+04  0.7818609E-02  0.8225682E-01
        2   -1    0    0  501    0  0.00000000000E+00  0.00000000000E+00  0.20061453970E+04  0.20061453970E+04  0.25500000920E-02 0. -1.
       -2   -1    0    0    0  501  0.00000000000E+00  0.00000000000E+00 -0.11699341555E+04  0.11699341555E+04  0.25500000920E-02 0.  1.
    10030    2    1    2    0    0  0.00000000000E+00  0.00000000000E+00  0.83621124151E+03  0.31760795525E+04  0.30640222067E+04 0.  0.
        3    1    3    3  502    0  0.10209119788E+04  0.22508582696E+02 -0.76571680607E+03  0.12763581559E+04  0.10100000352E+00 0.  1.
       -3    1    3    3    0  502 -0.10209119788E+04 -0.22508582696E+02  0.16019280476E+04  0.18997213966E+04  0.10100000352E+00 0. -1.
</event>
<event>
 5   0  0.2072710E-05  0.2645171E+04  0.7818609E-02  0.8353018E-01
        1   -1    0    0  501    0  0.00000000000E+00  0.00000000000E+00  0.99331328303E+03  0.99331328305E+03  0.50400001928E-02 0.  1.
       -1   -1    0    0    0  501  0.00000000000E+00  0.00000000000E+00 -0.17610072774E+04  0.17610072774E+04  0.50400001928E-02 0. -1.
    10030    2    1    2    0    0  0.00000000000E+00  0.00000000000E+00 -0.76769399437E+03  0.27543205605E+04  0.26451706336E+04 0.  0.
        2    1    3    3  502    0 -0.34069535419E+03 -0.41285562605E+03 -0.16431775290E+04  0.17281653521E+04  0.25500000920E-02 0. -1.
       -2    1    3    3    0  502  0.34069535419E+03  0.41285562605E+03  0.87548353461E+03  0.10261552084E+04  0.25500000920E-02 0.  1.
</event>
<event>
 5   0  0.1993815E-05  0.2622276E+04  0.7818609E-02  0.8360674E-01
       -1   -1    0    0    0  501  0.00000000000E+00  0.00000000000E+00  0.14434129338E+04  0.14434129338E+04  0.50400001928E-02 0.  1.
        1   -1    0    0  501    0  0.00000000000E+00  0.00000000000E+00 -0.11909846780E+04  0.11909846780E+04  0.50400001928E-02 0. -1.
    10030    2    1    2    0    0  0.00000000000E+00  0.00000000000E+00  0.25242825579E+03  0.26343976117E+04  0.26222758727E+04 0.  0.
        5    1    3    3  502    0 -0.19149947801E+03 -0.47153012084E+03 -0.10876958911E+04  0.12008818204E+04  0.46999998093E+01 0. -1.
       -5    1    3    3    0  502  0.19149947801E+03  0.47153012084E+03  0.13401241469E+04  0.14335157914E+04  0.46999998093E+01 0.  1.
</event>
<event>
 5   0  0.2163800E-05  0.2605873E+04  0.7818609E-02  0.8366209E-01
       -1   -1    0    0    0  501  0.00000000000E+00  0.00000000000E+00  0.45365513093E+03  0.45365513096E+03  0.50400001928E-02 0. -1.
        1   -1    0    0  501    0  0.00000000000E+00  0.00000000000E+00 -0.37421454624E+04  0.37421454624E+04  0.50400001928E-02 0.  1.
    10030    2    1    2    0    0  0.00000000000E+00  0.00000000000E+00 -0.32884903314E+04  0.41958005933E+04  0.26058729745E+04 0.  0.
        1    1    3    3  502    0 -0.81679792243E+03 -0.10076881070E+04 -0.14467210730E+04  0.19430893006E+04  0.50400001928E-02 0. -1.
       -1    1    3    3    0  502  0.81679792243E+03  0.10076881070E+04 -0.18417692584E+04  0.22527112927E+04  0.50400001928E-02 0.  1.
</event>
<event>
 5   0  0.4955675E-05  0.2598894E+04  0.7818609E-02  0.8368577E-01
        2   -1    0    0  501    0  0.00000000000E+00  0.00000000000E+00  0.22108196053E+04  0.22108196053E+04  0.25500000920E-02 0.  1.
       -2   -1    0    0    0  501  0.00000000000E+00  0.00000000000E+00 -0.76377198272E+03  0.76377198272E+03  0.25500000920E-02 0. -1.
    10030    2    1    2    0    0  0.00000000000E+00  0.00000000000E+00  0.14470476225E+04  0.29745915880E+04  0.25988936672E+04 0.  0.
        5    1    3    3  502    0 -0.21137158204E+03  0.12387392728E+04  0.11020725408E+04  0.16714481466E+04  0.46999998093E+01 0.  1.
       -5    1    3    3    0  502  0.21137158204E+03 -0.12387392728E+04  0.34497508177E+03  0.13031434414E+04  0.46999998093E+01 0. -1.
</event>
<event>
 5   0  0.5182179E-05  0.2482713E+04  0.7818609E-02  0.8409170E-01
        2   -1    0    0  501    0  0.00000000000E+00  0.00000000000E+00  0.27588810456E+04  0.27588810456E+04  0.25500000920E-02 0.  1.
       -2   -1    0    0    0  501  0.00000000000E+00  0.00000000000E+00 -0.55854735216E+03  0.55854735217E+03  0.25500000920E-02 0. -1.
    10030    2    1    2    0    0  0.00000000000E+00  0.00000000000E+00  0.22003336935E+04  0.33174283978E+04  0.24827127929E+04 0.  0.
        3    1    3    3  502    0  0.33418735532E+03 -0.11259985715E+04  0.16370040562E+04  0.20147794574E+04  0.10100000352E+00 0.  1.
       -3    1    3    3    0  502 -0.33418735532E+03  0.11259985715E+04  0.56332963721E+03  0.13026489404E+04  0.10100000352E+00 0. -1.
</event>
<event>
 5   0  0.5049803E-05  0.2620346E+04  0.7818609E-02  0.8361323E-01
        2   -1    0    0  501    0  0.00000000000E+00  0.00000000000E+00  0.22243374253E+04  0.22243374253E+04  0.25500000920E-02 0. -1.
       -2   -1    0    0    0  501  0.00000000000E+00  0.00000000000E+00 -0.77171459077E+03  0.77171459078E+03  0.25500000920E-02 0.  1.
    10030    2    1    2    0    0  0.00000000000E+00  0.00000000000E+00  0.14526228345E+04  0.29960520160E+04  0.26203462717E+04 0.  0.
        4    1    3    3  502    0 -0.72417696766E+03  0.44043604501E+03 -0.41600255466E+03  0.94418002976E+03  0.12699999809E+01 0.  1.
       -4    1    3    3    0  502  0.72417696766E+03 -0.44043604501E+03  0.18686253891E+04  0.20518719863E+04  0.12699999809E+01 0. -1.
</event>
<event>
 5   0  0.5182179E-05  0.1798713E+04  0.7818609E-02  0.8706984E-01
       -2   -1    0    0    0  501  0.00000000000E+00  0.00000000000E+00  0.49065361938E+03  0.49065361939E+03  0.25500000920E-02 0. -1.
        2   -1    0    0  501    0  0.00000000000E+00  0.00000000000E+00 -0.16484999531E+04  0.16484999531E+04  0.25500000920E-02 0.  1.
    10030    2    1    2    0    0  0.00000000000E+00  0.00000000000E+00 -0.11578463337E+04  0.21391535725E+04  0.17987133941E+04 0.  0.
        3    1    3    3  502    0  0.12198403271E+03 -0.68635524572E+03  0.96848192546E+02  0.70380623055E+03  0.10100000352E+00 0. -1.
       -3    1    3    3    0  502 -0.12198403271E+03  0.68635524572E+03 -0.12546945263E+04  0.14353473420E+04  0.10100000352E+00 0.  1.
</event>
<event>
 5   0  0.1993815E-05  0.2602765E+04  0.7818609E-02  0.8367263E-01
       -1   -1    0    0    0  501  0.00000000000E+00  0.00000000000E+00  0.12459819549E+04  0.12459819550E+04  0.50400001928E-02 0. -1.
        1   -1    0    0  501    0  0.00000000000E+00  0.00000000000E+00 -0.13592465505E+04  0.13592465505E+04  0.50400001928E-02 0.  1.
    10030    2    1    2    0    0  0.00000000000E+00  0.00000000000E+00 -0.11326459553E+03  0.26052285054E+04  0.26027652020E+04 0.  0.
        5    1    3    3  502    0  0.14278238426E+03  0.44139543354E+03  0.11603958280E+04  0.12497028869E+04  0.46999998093E+01 0. -1.
       -5    1    3    3    0  502 -0.14278238426E+03 -0.44139543354E+03 -0.12736604235E+04  0.13555256185E+04  0.46999998093E+01 0.  1.
</event>
<event>
 5   0  0.1954502E-05  0.2419769E+04  0.7818609E-02  0.8432139E-01
        1   -1    0    0  501    0  0.00000000000E+00  0.00000000000E+00  0.14397205394E+04  0.14397205394E+04  0.50400001928E-02 0. -1.
       -1   -1    0    0    0  501  0.00000000000E+00  0.00000000000E+00 -0.10167392724E+04  0.10167392724E+04  0.50400001928E-02 0.  1.
    10030    2    1    2    0    0  0.00000000000E+00  0.00000000000E+00  0.42298126705E+03  0.24564598118E+04  0.24197689259E+04 0.  0.
        4    1    3    3  502    0  0.11975123651E+02  0.12098180642E+04  0.20747478135E+03  0.12275384107E+04  0.12699999809E+01 0. -1.
       -4    1    3    3    0  502 -0.11975123651E+02 -0.12098180642E+04  0.21550648569E+03  0.12289214012E+04  0.12699999809E+01 0.  1.
</event>
<event>
 5   0  0.1993815E-05  0.2557567E+04  0.7818609E-02  0.8382759E-01
       -1   -1    0    0    0  501  0.00000000000E+00  0.00000000000E+00  0.13747726122E+04  0.13747726122E+04  0.50400001928E-02 0. -1.
        1   -1    0    0  501    0  0.00000000000E+00  0.00000000000E+00 -0.11894964118E+04  0.11894964118E+04  0.50400001928E-02 0.  1.
    10030    2    1    2    0    0  0.00000000000E+00  0.00000000000E+00  0.18527620035E+03  0.25642690240E+04  0.25575668823E+04 0.  0.
        5    1    3    3  502    0 -0.11910135048E+04  0.95159483848E+01  0.55932674737E+03  0.13158541797E+04  0.46999998093E+01 0. -1.
       -5    1    3    3    0  502  0.11910135048E+04 -0.95159483848E+01 -0.37405054703E+03  0.12484148444E+04  0.46999998093E+01 0.  1.
</event>
<event>
 5   0  0.1954502E-05  0.2549486E+04  0.7818609E-02  0.8385565E-01
        1   -1    0    0  501    0  0.00000000000E+00  0.00000000000E+00  0.13466344011E+04  0.13466344011E+04  0.50400001928E-02 0.  1.
       -1   -1    0    0    0  501  0.00000000000E+00  0.00000000000E+00 -0.12066897024E+04  0.12066897024E+04  0.50400001928E-02 0. -1.
    10030    2    1    2    0    0  0.00000000000E+00  0.00000000000E+00  0.13994469869E+03  0.25533241034E+04  0.25494861166E+04 0.  0.
        4    1    3    3  502    0 -0.35805720308E+02 -0.60375595616E+03  0.11937867849E+04  0.13382570025E+04  0.12699999809E+01 0.  1.
       -4    1    3    3    0  502  0.35805720308E+02  0.60375595616E+03 -0.10538420862E+04  0.12150671009E+04  0.12699999809E+01 0. -1.
</event>
<event>
 5   0  0.5182179E-05  0.2639515E+04  0.7818609E-02  0.8354901E-01
       -2   -1    0    0    0  501  0.00000000000E+00  0.00000000000E+00  0.68412619847E+03  0.68412619848E+03  0.25500000920E-02 0. -1.
        2   -1    0    0  501    0  0.00000000000E+00  0.00000000000E+00 -0.25459637058E+04  0.25459637058E+04  0.25500000920E-02 0.  1.
    10030    2    1    2    0    0  0.00000000000E+00  0.00000000000E+00 -0.18618375073E+04  0.32300899043E+04  0.26395154643E+04 0.  0.
        3    1    3    3  502    0  0.36304179083E+03  0.11451244819E+04 -0.15996820283E+04  0.20005229373E+04  0.10100000352E+00 0.  1.
       -3    1    3    3    0  502 -0.36304179083E+03 -0.11451244819E+04 -0.26215547902E+03  0.12295669670E+04  0.10100000352E+00 0. -1.
</event>
<event>
 5   0  0.2159405E-05  0.2515302E+04  0.7818609E-02  0.8397554E-01
       -1   -1    0    0    0  501  0.00000000000E+00  0.00000000000E+00  0.14944114243E+04  0.14944114243E+04  0.50400001928E-02 0. -1.
        1   -1    0    0  501    0  0.00000000000E+00  0.00000000000E+00 -0.10584003289E+04  0.10584003289E+04  0.50400001928E-02 0.  1.
    10030    2    1    2    0    0  0.00000000000E+00  0.00000000000E+00  0.43601109540E+03  0.25528117531E+04  0.25153016065E+04 0.  0.
        3    1    3    3  502    0  0.80499023512E+03 -0.75526245177E+03 -0.39368877960E+03  0.11719306784E+04  0.10100000352E+00 0.  1.
       -3    1    3    3    0  502 -0.80499023512E+03  0.75526245177E+03  0.82969987500E+03  0.13808810747E+04  0.10100000352E+00 0. -1.
</event>
<event>
 5   0  0.2072710E-05  0.2603135E+04  0.7818609E-02  0.8367137E-01
        1   -1    0    0  501    0  0.00000000000E+00  0.00000000000E+00  0.24966808670E+04  0.24966808670E+04  0.50400001928E-02 0.  1.
       -1   -1    0    0    0  501  0.00000000000E+00  0.00000000000E+00 -0.67853182676E+03  0.67853182678E+03  0.50400001928E-02 0. -1.
    10030    2    1    2    0    0  0.00000000000E+00  0.00000000000E+00  0.18181490402E+04  0.31752126937E+04  0.26031345947E+04 0.  0.
        2    1    3    3  502    0  0.35484120887E+03  0.12365013185E+04  0.11506669564E+04  0.17259438690E+04  0.25500000920E-02 0.  1.
       -2    1    3    3    0  502 -0.35484120887E+03 -0.12365013185E+04  0.66748208380E+03  0.14492688248E+04  0.25500000920E-02 0. -1.
</event>
<event>
 5   0  0.5182179E-05  0.2549299E+04  0.7818609E-02  0.8385630E-01
        2   -1    0    0  501    0  0.00000000000E+00  0.00000000000E+00  0.14272800683E+04  0.14272800683E+04  0.25500000920E-02 0. -1.
       -2   -1    0    0    0  501  0.00000000000E+00  0.00000000000E+00 -0.11383413090E+04  0.11383413090E+04  0.25500000920E-02 0.  1.
    10030    2    1    2    0    0  0.00000000000E+00  0.00000000000E+00  0.28893875927E+03  0.25656213773E+04  0.25492994027E+04 0.  0.
        3    1    3    3  502    0  0.11893684364E+04  0.37922674065E+03  0.40364812971E+03  0.13119992459E+04  0.10100000352E+00 0. -1.
       -3    1    3    3    0  502 -0.11893684364E+04 -0.37922674065E+03 -0.11470937044E+03  0.12536221314E+04  0.10100000352E+00 0.  1.
</event>
<event>
 5   0  0.2159405E-05  0.2378808E+04  0.7818609E-02  0.8447480E-01
        1   -1    0    0  501    0  0.00000000000E+00  0.00000000000E+00  0.11801987001E+04  0.11801987001E+04  0.50400001928E-02 0. -1.
       -1   -1    0    0    0  501  0.00000000000E+00  0.00000000000E+00 -0.11986809284E+04  0.11986809284E+04  0.50400001928E-02 0.  1.
    10030    2    1    2    0    0  0.00000000000E+00  0.00000000000E+00 -0.18482228221E+02  0.23788796285E+04  0.23788078304E+04 0.  0.
        3    1    3    3  502    0 -0.36422013812E+03 -0.11291346656E+04  0.74905713589E+02  0.11887860524E+04  0.10100000352E+00 0.  1.
       -3    1    3    3    0  502  0.36422013812E+03  0.11291346656E+04 -0.93387941810E+02  0.11900935762E+04  0.10100000352E+00 0. -1.
</event>
<event>
 5   0  0.5049803E-05  0.2672468E+04  0.7818609E-02  0.8343994E-01
        2   -1    0    0  501    0  0.00000000000E+00  0.00000000000E+00  0.17003434343E+04  0.17003434343E+04  0.25500000920E-02 0.  1.
       -2   -1    0    0    0  501  0.00000000000E+00  0.00000000000E+00 -0.10500942440E+04  0.10500942440E+04  0.25500000920E-02 0. -1.
    10030    2    1    2    0    0  0.00000000000E+00  0.00000000000E+00  0.65024919036E+03  0.27504376783E+04  0.26724676635E+04 0.  0.
        4    1    3    3  502    0  0.77788310704E+03 -0.98752696896E+03 -0.14109021735E+03  0.12649979071E+04  0.12699999809E+01 0. -1.
       -4    1    3    3    0  502 -0.77788310704E+03  0.98752696896E+03  0.79133940771E+03  0.14854397712E+04  0.12699999809E+01 0.  1.
</event>
<event>
 5   0  0.2072710E-05  0.2593910E+04  0.7818609E-02  0.8370273E-01
       -1   -1    0    0    0  501  0.00000000000E+00  0.00000000000E+00  0.75401597377E+03  0.75401597378E+03  0.50400001928E-02 0.  1.
        1   -1    0    0  501    0  0.00000000000E+00  0.00000000000E+00 -0.22308440553E+04  0.22308440553E+04  0.50400001928E-02 0. -1.
    10030    2    1    2    0    0  0.00000000000E+00  0.00000000000E+00 -0.14768280815E+04  0.29848600291E+04  0.25939098309E+04 0.  0.
        2    1    3    3  502    0  0.10464473086E+04  0.57715251478E+03 -0.15854432688E+03  0.12055261501E+04  0.25500000920E-02 0.  1.
       -2    1    3    3    0  502 -0.10464473086E+04 -0.57715251478E+03 -0.13182837546E+04  0.17793338790E+04  0.25500000920E-02 0. -1.
</event>
<event>
 5   0  0.2072710E-05  0.2308414E+04  0.7818609E-02  0.8474611E-01
       -1   -1    0    0    0  501  0.00000000000E+00  0.00000000000E+00  0.94488453931E+03  0.94488453932E+03  0.50400001928E-02 0.  1.
        1   -1    0    0  501    0  0.00000000000E+00  0.00000000000E+00 -0.14099008658E+04  0.14099008658E+04  0.50400001928E-02 0. -1.
    10030    2    1    2    0    0  0.00000000000E+00  0.00000000000E+00 -0.46501632651E+03  0.23547854051E+04  0.23084137672E+04 0.  0.
        2    1    3    3  502    0  0.29604762500E+03 -0.59770872748E+02 -0.13688775010E+04  0.14017996884E+04  0.25500000920E-02 0. -1.
       -2    1    3    3    0  502 -0.29604762500E+03  0.59770872748E+02  0.90386117453E+03  0.95298571675E+03  0.25500000920E-02 0.  1.
</event>
<event>
 5   0  0.1954502E-05  0.2455426E+04  0.7818609E-02  0.8419040E-01
        1   -1    0    0  501    0  0.00000000000E+00  0.00000000000E+00  0.14847135910E+04  0.14847135910E+04  0.50400001928E-02 0.  1.
       -1   -1    0    0    0  501  0.00000000000E+00  0.00000000000E+00 -0.10151982335E+04  0.10151982335E+04  0.50400001928E-02 0. -1.
    10030    2    1    2    0    0  0.00000000000E+00  0.00000000000E+00  0.46951535744E+03  0.24999118245E+04  0.24554255150E+04 0.  0.
        4    1    3    3  502    0  0.42710834468E+03  0.23105004512E+03 -0.91326697365E+03  0.10343422255E+04  0.12699999809E+01 0. -1.
       -4    1    3    3    0  502 -0.42710834468E+03 -0.23105004512E+03  0.13827823311E+04  0.14655695990E+04  0.12699999809E+01 0.  1.
</event>
<event>
 5   0  0.2159405E-05  0.2370819E+04  0.7818609E-02  0.8450510E-01
        1   -1    0    0  501    0  0.00000000000E+00  0.00000000000E+00  0.89607689025E+03  0.89607689027E+03  0.50400001928E-02 0.  1.
       -1   -1    0    0    0  501  0.00000000000E+00  0.00000000000E+00 -0.15681636504E+04  0.15681636504E+04  0.50400001928E-02 0. -1.
    10030    2    1    2    0    0  0.00000000000E+00  0.00000000000E+00 -0.67208676011E+03  0.24642405406E+04  0.23708185989E+04 0.  0.
        3    1    3    3  502    0 -0.58630681078E+03 -0.50014020945E+03 -0.12722577890E+04  0.14874595111E+04  0.10100000352E+00 0. -1.
       -3    1    3    3    0  502  0.58630681078E+03  0.50014020945E+03  0.60017102887E+03  0.97678102949E+03  0.10100000352E+00 0.  1.
</event>
<event>
 5   0  0.1993815E-05  0.2192205E+04  0.7818609E-02  0.8521679E-01
       -1   -1    0    0    0  501  0.00000000000E+00  0.00000000000E+00  0.11244780321E+04  0.11244780321E+04  0.50400001928E-02 0.  1.
        1   -1    0    0  501    0  0.00000000000E+00  0.00000000000E+00 -0.10684433586E+04  0.10684433586E+04  0.50400001928E-02 0. -1.
    10030    2    1    2    0    0  0.00000000000E+00  0.00000000000E+00  0.56034673538E+02  0.21929213907E+04  0.21922053602E+04 0.  0.
        5    1    3    3  502    0 -0.29045080838E+03  0.88392396996E+03  0.60763367040E+03  0.11112713549E+04  0.46999998093E+01 0.  1.
       -5    1    3    3    0  502  0.29045080838E+03 -0.88392396996E+03 -0.55159899686E+03  0.10816500359E+04  0.46999998093E+01 0. -1.
</event>
<event>
 5   0  0.5182179E-05  0.2627895E+04  0.7818609E-02  0.8358787E-01
        2   -1    0    0  501    0  0.00000000000E+00  0.00000000000E+00  0.19871697351E+04  0.19871697351E+04  0.25500000920E-02 0. -1.
       -2   -1    0    0    0  501  0.00000000000E+00  0.00000000000E+00 -0.86880265340E+03  0.86880265341E+03  0.25500000920E-02 0.  1.
    10030    2    1    2    0    0  0.00000000000E+00  0.00000000000E+00  0.11183670817E+04  0.28559723886E+04  0.26278952328E+04 0.  0.
        3    1    3    3  502    0 -0.71106362963E+03  0.98500596889E+03  0.11032415759E+04  0.16410332809E+04  0.10100000352E+00 0. -1.
       -3    1    3    3    0  502  0.71106362963E+03 -0.98500596889E+03  0.15125505865E+02  0.12149391076E+04  0.10100000352E+00 0.  1.
</event>
<event>
 5   0  0.2163800E-05  0.2582244E+04  0.7818609E-02  0.8374257E-01
        1   -1    0    0  501    0  0.00000000000E+00  0.00000000000E+00  0.11465374559E+04  0.11465374560E+04  0.50400001928E-02 0.  1.
       -1   -1    0    0    0  501  0.00000000000E+00  0.00000000000E+00 -0.14539398192E+04  0.14539398193E+04  0.50400001928E-02 0. -1.
    10030    2    1    2    0    0  0.00000000000E+00  0.00000000000E+00 -0.30740236330E+03  0.26004772752E+04  0.25822443428E+04 0.  0.
        1    1    3    3  502    0  0.65954009414E+03  0.22370479172E+03 -0.12485572369E+04  0.14296615486E+04  0.50400001928E-02 0. -1.
       -1    1    3    3    0  502 -0.65954009414E+03 -0.22370479172E+03  0.94115487360E+03  0.11708157266E+04  0.50400001928E-02 0.  1.
</event>
<event>
 5   0  0.5170532E-05  0.1279121E+04  0.7818609E-02  0.9046288E-01
       -2   -1    0    0    0  501  0.00000000000E+00  0.00000000000E+00  0.37436106210E+03  0.37436106211E+03  0.25500000920E-02 0. -1.
        2   -1    0    0  501    0  0.00000000000E+00  0.00000000000E+00 -0.10926287531E+04  0.10926287531E+04  0.25500000920E-02 0.  1.
    10030    2    1    2    0    0  0.00000000000E+00  0.00000000000E+00 -0.71826769097E+03  0.14669898152E+04  0.12791210427E+04 0.  0.
        1    1    3    3  502    0 -0.51165328274E+03 -0.10919298516E+03  0.62761980147E+02  0.52692623386E+03  0.50400001928E-02 0. -1.
       -1    1    3    3    0  502  0.51165328274E+03  0.10919298516E+03 -0.78102967111E+03  0.94006358133E+03  0.50400001928E-02 0.  1.
</event>
<event>
 5   0  0.2159405E-05  0.2570912E+04  0.7818609E-02  0.8378149E-01
        1   -1    0    0  501    0  0.00000000000E+00  0.00000000000E+00  0.20777344177E+04  0.20777344177E+04  0.50400001928E-02 0.  1.
       -1   -1    0    0    0  501  0.00000000000E+00  0.00000000000E+00 -0.79528796784E+03  0.79528796786E+03  0.50400001928E-02 0. -1.
    10030    2    1    2    0    0  0.00000000000E+00  0.00000000000E+00  0.12824464498E+04  0.28730223855E+04  0.25709120427E+04 0.  0.
        3    1    3    3  502    0 -0.29403230283E+03  0.90261625836E+03 -0.32736038565E+03  0.10041593187E+04  0.10100000352E+00 0. -1.
       -3    1    3    3    0  502  0.29403230283E+03 -0.90261625836E+03  0.16098068355E+04  0.18688630669E+04  0.10100000352E+00 0.  1.
</event>
<event>
 5   0  0.2072710E-05  0.2515382E+04  0.7818609E-02  0.8397526E-01
        1   -1    0    0  501    0  0.00000000000E+00  0.00000000000E+00  0.14834125653E+04  0.14834125653E+04  0.50400001928E-02 0.  1.
       -1   -1    0    0    0  501  0.00000000000E+00  0.00000000000E+00 -0.10663157450E+04  0.10663157450E+04  0.50400001928E-02 0. -1.
    10030    2    1    2    0    0  0.00000000000E+00  0.00000000000E+00  0.41709682036E+03  0.25497283103E+04  0.25153816209E+04 0.  0.
        2    1    3    3  502    0 -0.59150954832E+03 -0.37914000554E+03 -0.84884232430E+03  0.11018910931E+04  0.25500000920E-02 0. -1.
       -2    1    3    3    0  502  0.59150954832E+03  0.37914000554E+03  0.12659391447E+04  0.14478372172E+04  0.25500000920E-02 0.  1.
</event>
<event>
 5   0  0.1993815E-05  0.2609305E+04  0.7818609E-02  0.8365048E-01
        1   -1    0    0  501    0  0.00000000000E+00  0.00000000000E+00  0.88282890730E+03  0.88282890731E+03  0.50400001928E-02 0.  1.
       -1   -1    0    0    0  501  0.00000000000E+00  0.00000000000E+00 -0.19280266344E+04  0.19280266344E+04  0.50400001928E-02 0. -1.
    10030    2    1    2    0    0  0.00000000000E+00  0.00000000000E+00 -0.10451977271E+04  0.28108555417E+04  0.26093046177E+04 0.  0.
        5    1    3    3  502    0 -0.79062613537E+03  0.20246839996E+03 -0.16190675268E+04  0.18131422683E+04  0.46999998093E+01 0. -1.
       -5    1    3    3    0  502  0.79062613537E+03 -0.20246839996E+03  0.57386979968E+03  0.99771327339E+03  0.46999998093E+01 0.  1.
</event>
<event>
 5   0  0.4955675E-05  0.2669194E+04  0.7818609E-02  0.8345070E-01
        2   -1    0    0  501    0  0.00000000000E+00  0.00000000000E+00  0.26880731758E+04  0.26880731758E+04  0.25500000920E-02 0. -1.
       -2   -1    0    0    0  501  0.00000000000E+00  0.00000000000E+00 -0.66261189689E+03  0.66261189689E+03  0.25500000920E-02 0.  1.
    10030    2    1    2    0    0  0.00000000000E+00  0.00000000000E+00  0.20254612789E+04  0.33506850727E+04  0.26691940851E+04 0.  0.
        5    1    3    3  502    0  0.10693111128E+04 -0.57865745412E+03  0.17035617477E+04  0.20929441998E+04  0.46999998093E+01 0. -1.
       -5    1    3    3    0  502 -0.10693111128E+04  0.57865745412E+03  0.32189953121E+03  0.12577408729E+04  0.46999998093E+01 0.  1.
</event>
<event>
 5   0  0.4955675E-05  0.2642318E+04  0.7818609E-02  0.8353967E-01
        2   -1    0    0  501    0  0.00000000000E+00  0.00000000000E+00  0.20455705816E+04  0.20455705816E+04  0.25500000920E-02 0.  1.
       -2   -1    0    0    0  501  0.00000000000E+00  0.00000000000E+00 -0.85328842648E+03  0.85328842648E+03  0.25500000920E-02 0. -1.
    10030    2    1    2    0    0  0.00000000000E+00  0.00000000000E+00  0.11922821551E+04  0.28988590081E+04  0.26423184538E+04 0.  0.
        5    1    3    3  502    0 -0.75615758436E+02 -0.35452453781E+03 -0.79765200436E+03  0.87617133079E+03  0.46999998093E+01 0. -1.
       -5    1    3    3    0  502  0.75615758436E+02  0.35452453781E+03  0.19899341594E+04  0.20226876773E+04  0.46999998093E+01 0.  1.
</event>
<event>
 5   0  0.4955675E-05  0.2680279E+04  0.7818609E-02  0.8341432E-01
       -2   -1    0    0    0  501  0.00000000000E+00  0.00000000000E+00  0.20916518982E+04  0.20916518983E+04  0.25500000920E-02 0. -1.
        2   -1    0    0  501    0  0.00000000000E+00  0.00000000000E+00 -0.85863867400E+03  0.85863867400E+03  0.25500000920E-02 0.  1.
    10030    2    1    2    0    0  0.00000000000E+00  0.00000000000E+00  0.12330132243E+04  0.29502905723E+04  0.26802785022E+04 0.  0.
        5    1    3    3  502    0  0.63771626208E+02 -0.13379219490E+04  0.56917272652E+03  0.14553630628E+04  0.46999998093E+01 0. -1.
       -5    1    3    3    0  502 -0.63771626208E+02  0.13379219490E+04  0.66384049773E+03  0.14949275094E+04  0.46999998093E+01 0.  1.
</event>
<event>
 5   0  0.1954502E-05  0.2591105E+04  0.7818609E-02  0.8371229E-01
        1   -1    0    0  501    0  0.00000000000E+00  0.00000000000E+00  0.20032017955E+04  0.20032017955E+04  0.50400001928E-02 0. -1.
       -1   -1    0    0    0  501  0.00000000000E+00  0.00000000000E+00 -0.83788673736E+03  0.83788673737E+03  0.50400001928E-02 0.  1.
    10030    2    1    2    0    0  0.00000000000E+00  0.00000000000E+00  0.11653150582E+04  0.28410885329E+04  0.25911049510E+04 0.  0.
        4    1    3    3  502    0  0.61393116437E+03  0.11195403012E+04  0.34199969621E+03  0.13218348481E+04  0.12699999809E+01 0. -1.
       -4    1    3    3    0  502 -0.61393116437E+03 -0.11195403012E+04  0.82331536197E+03  0.15192536848E+04  0.12699999809E+01 0.  1.
</event>
<event>
 5   0  0.5036452E-05  0.2249425E+04  0.7818609E-02  0.8498133E-01
        2   -1    0    0  501    0  0.00000000000E+00  0.00000000000E+00  0.18065590420E+04  0.18065590420E+04  0.25500000920E-02 0. -1.
       -2   -1    0    0    0  501  0.00000000000E+00  0.00000000000E+00 -0.70021409334E+03  0.70021409335E+03  0.25500000920E-02 0.  1.
    10030    2    1    2    0    0  0.00000000000E+00  0.00000000000E+00  0.11063449486E+04  0.25067731353E+04  0.22494249058E+04 0.  0.
        2    1    3    3  502    0 -0.31184180332E+03  0.17442621235E+03 -0.63528223090E+03  0.72887126899E+03  0.25500000920E-02 0.  1.
       -2    1    3    3    0  502  0.31184180332E+03 -0.17442621235E+03  0.17416271795E+04  0.17779018663E+04  0.25500000920E-02 0. -1.
</event>
<event>
 5   0  0.5182179E-05  0.2381140E+04  0.7818609E-02  0.8446598E-01
        2   -1    0    0  501    0  0.00000000000E+00  0.00000000000E+00  0.26510361873E+04  0.26510361873E+04  0.25500000920E-02 0.  1.
       -2   -1    0    0    0  501  0.00000000000E+00  0.00000000000E+00 -0.53468037550E+03  0.53468037551E+03  0.25500000920E-02 0. -1.
    10030    2    1    2    0    0  0.00000000000E+00  0.00000000000E+00  0.21163558118E+04  0.31857165628E+04  0.23811400833E+04 0.  0.
        3    1    3    3  502    0 -0.82911427573E+03  0.44423903790E+03  0.20346383457E+04  0.22415467902E+04  0.10100000352E+00 0.  1.
       -3    1    3    3    0  502  0.82911427573E+03 -0.44423903790E+03  0.81717466165E+02  0.94416977259E+03  0.10100000352E+00 0. -1.
</event>
<event>
 5   0  0.2159405E-05  0.2625775E+04  0.7818609E-02  0.8359499E-01
        1   -1    0    0  501    0  0.00000000000E+00  0.00000000000E+00  0.19189757988E+04  0.19189757988E+04  0.50400001928E-02 0. -1.
       -1   -1    0    0    0  501  0.00000000000E+00  0.00000000000E+00 -0.89822549187E+03  0.89822549189E+03  0.50400001928E-02 0.  1.
    10030    2    1    2    0    0  0.00000000000E+00  0.00000000000E+00  0.10207503070E+04  0.28172012907E+04  0.26257745378E+04 0.  0.
        3    1    3    3  502    0  0.35142318960E+03 -0.41215147295E+03  0.17935177055E+04  0.18735188456E+04  0.10100000352E+00 0. -1.
       -3    1    3    3    0  502 -0.35142318960E+03  0.41215147295E+03 -0.77276739850E+03  0.94368244512E+03  0.10100000352E+00 0.  1.
</event>
<event>
 5   0  0.5182179E-05  0.2600165E+04  0.7818609E-02  0.8368145E-01
        2   -1    0    0  501    0  0.00000000000E+00  0.00000000000E+00  0.15361400989E+04  0.15361400989E+04  0.25500000920E-02 0. -1.
       -2   -1    0    0    0  501  0.00000000000E+00  0.00000000000E+00 -0.11003000704E+04  0.11003000704E+04  0.25500000920E-02 0.  1.
    10030    2    1    2    0    0  0.00000000000E+00  0.00000000000E+00  0.43584002849E+03  0.26364401693E+04  0.26001654247E+04 0.  0.
        3    1    3    3  502    0 -0.72906875691E+03 -0.10751496424E+04  0.16497038413E+03  0.13094667784E+04  0.10100000352E+00 0. -1.
       -3    1    3    3    0  502  0.72906875691E+03  0.10751496424E+04  0.27086964436E+03  0.13269733909E+04  0.10100000352E+00 0.  1.
</event>
<event>
 5   0  0.2163800E-05  0.2552140E+04  0.7818609E-02  0.8384642E-01
       -1   -1    0    0    0  501  0.00000000000E+00  0.00000000000E+00  0.78934210143E+03  0.78934210145E+03  0.50400001928E-02 0. -1.
        1   -1    0    0  501    0  0.00000000000E+00  0.00000000000E+00 -0.20629267385E+04  0.20629267385E+04  0.50400001928E-02 0.  1.
    10030    2    1    2    0    0  0.00000000000E+00  0.00000000000E+00 -0.12735846370E+04  0.28522688399E+04  0.25521402210E+04 0.  0.
        1    1    3    3  502    0  0.79585904101E+03 -0.24739476577E+03 -0.17167415986E+04  0.19083494176E+04  0.50400001928E-02 0.  1.
       -1    1    3    3    0  502 -0.79585904101E+03  0.24739476577E+03  0.44315696153E+03  0.94391942234E+03  0.50400001928E-02 0. -1.
</event>
<event>
 5   0  0.4955675E-05  0.2024962E+04  0.7818609E-02  0.8595038E-01
        2   -1    0    0  501    0  0.00000000000E+00  0.00000000000E+00  0.17413203867E+04  0.17413203867E+04  0.25500000920E-02 0.  1.
       -2   -1    0    0    0  501  0.00000000000E+00  0.00000000000E+00 -0.58870147410E+03  0.58870147410E+03  0.25500000920E-02 0. -1.
    10030    2    1    2    0    0  0.00000000000E+00  0.00000000000E+00  0.11526189126E+04  0.23300218608E+04  0.20249621019E+04 0.  0.
        5    1    3    3  502    0 -0.16793877264E+03  0.88030072109E+03  0.11184144236E+04  0.14331802761E+04  0.46999998093E+01 0.  1.
       -5    1    3    3    0  502  0.16793877264E+03 -0.88030072109E+03  0.34204488970E+02  0.89684158466E+03  0.46999998093E+01 0. -1.
</event>
<event>
 5   0  0.2159405E-05  0.2586612E+04  0.7818609E-02  0.8372763E-01
       -1   -1    0    0    0  501  0.00000000000E+00  0.00000000000E+00  0.10899077964E+04  0.10899077964E+04  0.50400001928E-02 0.  1.
        1   -1    0    0  501    0  0.00000000000E+00  0.00000000000E+00 -0.15346617837E+04  0.15346617837E+04  0.50400001928E-02 0. -1.
    10030    2    1    2    0    0  0.00000000000E+00  0.00000000000E+00 -0.44475398733E+03  0.26245695801E+04  0.25866115618E+04 0.  0.
        3    1    3    3  502    0  0.48413085130E+03  0.82536493333E+02 -0.14363644265E+04  0.15180045223E+04  0.10100000352E+00 0. -1.
       -3    1    3    3    0  502 -0.48413085130E+03 -0.82536493333E+02  0.99161043916E+03  0.11065650578E+04  0.10100000352E+00 0.  1.
</event>
<event>
 5   0  0.5036452E-05  0.2613404E+04  0.7818609E-02  0.8363663E-01
        2   -1    0    0  501    0  0.00000000000E+00  0.00000000000E+00  0.22384209445E+04  0.22384209445E+04  0.25500000920E-02 0.  1.
       -2   -1    0    0    0  501  0.00000000000E+00  0.00000000000E+00 -0.76280088733E+03  0.76280088733E+03  0.25500000920E-02 0. -1.
    10030    2    1    2    0    0  0.00000000000E+00  0.00000000000E+00  0.14756200571E+04  0.30012218318E+04  0.26134035147E+04 0.  0.
        2    1    3    3  502    0  0.10135130998E+04  0.13220296577E+03 -0.19711615848E+03  0.10409328545E+04  0.25500000920E-02 0. -1.
       -2    1    3    3    0  502 -0.10135130998E+04 -0.13220296577E+03  0.16727362156E+04  0.19602889773E+04  0.25500000920E-02 0.  1.
</event>
<event>
 5   0  0.1993815E-05  0.2639433E+04  0.7818609E-02  0.8354929E-01
       -1   -1    0    0    0  501  0.00000000000E+00  0.00000000000E+00  0.15176716142E+04  0.15176716142E+04  0.50400001928E-02 0.  1.
        1   -1    0    0  501    0  0.00000000000E+00  0.00000000000E+00 -0.11475817369E+04  0.11475817369E+04  0.50400001928E-02 0. -1.
    10030    2    1    2    0    0  0.00000000000E+00  0.00000000000E+00  0.37008987731E+03  0.26652533512E+04  0.26394334446E+04 0.  0.
        5    1    3    3  502    0  0.12648771550E+03  0.12498737709E+04 -0.22319516365E+03  0.12759395583E+04  0.46999998093E+01 0. -1.
       -5    1    3    3    0  502 -0.12648771550E+03 -0.12498737709E+04  0.59328504096E+03  0.13893137929E+04  0.46999998093E+01 0.  1.
</event>
<event>
 5   0  0.2072710E-05  0.2692501E+04  0.7818609E-02  0.8337442E-01
        1   -1    0    0  501    0  0.00000000000E+00  0.00000000000E+00  0.94366623655E+03  0.94366623656E+03  0.50400001928E-02 0.  1.
       -1   -1    0    0    0  501  0.00000000000E+00  0.00000000000E+00 -0.19205843590E+04  0.19205843590E+04  0.50400001928E-02 0. -1.
    10030    2    1    2    0    0  0.00000000000E+00  0.00000000000E+00 -0.97691812245E+03  0.28642505956E+04  0.26925011525E+04 0.  0.
        2    1    3    3  502    0 -0.63359020136E+03 -0.95109305249E+03  0.26853366040E+03  0.11739356305E+04  0.25500000920E-02 0.  1.
       -2    1    3    3    0  502  0.63359020136E+03  0.95109305249E+03 -0.12454517828E+04  0.16903149651E+04  0.25500000920E-02 0. -1.
</event>
<event>
 5   0  0.1993815E-05  0.2635388E+04  0.7818609E-02  0.8356279E-01
       -1   -1    0    0    0  501  0.00000000000E+00  0.00000000000E+00  0.13765957281E+04  0.13765957281E+04  0.50400001928E-02 0.  1.
        1   -1    0    0  501    0  0.00000000000E+00  0.00000000000E+00 -0.12613121227E+04  0.12613121227E+04  0.50400001928E-02 0. -1.
    10030    2    1    2    0    0  0.00000000000E+00  0.00000000000E+00  0.11528360539E+03  0.26379078508E+04  0.26353875464E+04 0.  0.
        5    1    3    3  502    0 -0.48640582738E+03  0.45497673128E+03  0.11956989268E+04  0.13686900556E+04  0.46999998093E+01 0.  1.
       -5    1    3    3    0  502  0.48640582738E+03 -0.45497673128E+03 -0.10804153214E+04  0.12692177952E+04  0.46999998093E+01 0. -1.
</event>
<event>
 5   0  0.4955675E-05  0.2580703E+04  0.7818609E-02  0.8374786E-01
        2   -1    0    0  501    0  0.00000000000E+00  0.00000000000E+00  0.21297430160E+04  0.21297430160E+04  0.25500000920E-02 0.  1.
       -2   -1    0    0    0  501  0.00000000000E+00  0.00000000000E+00 -0.78178780644E+03  0.78178780645E+03  0.25500000920E-02 0. -1.
    10030    2    1    2    0    0  0.00000000000E+00  0.00000000000E+00  0.13479552095E+04  0.29115308224E+04  0.25807030986E+04 0.  0.
        5    1    3    3  502    0  0.19553997070E+03  0.63005872434E+03  0.19250896522E+04  0.20349943821E+04  0.46999998093E+01 0.  1.
       -5    1    3    3    0  502 -0.19553997070E+03 -0.63005872434E+03 -0.57713444267E+03  0.87653644030E+03  0.46999998093E+01 0. -1.
</event>
<event>
 5   0  0.1993815E-05  0.2619050E+04  0.7818609E-02  0.8361759E-01
       -1   -1    0    0    0  501  0.00000000000E+00  0.00000000000E+00  0.95992878712E+03  0.95992878714E+03  0.50400001928E-02 0. -1.
        1   -1    0    0  501    0  0.00000000000E+00  0.00000000000E+00 -0.17864401991E+04  0.17864401991E+04  0.50400001928E-02 0.  1.
    10030    2    1    2    0    0  0.00000000000E+00  0.00000000000E+00 -0.82651141201E+03  0.27463689863E+04  0.26190497312E+04 0.  0.
        5    1    3    3  502    0  0.10514149761E+04 -0.57620377542E+03  0.13898507583E+03  0.12069893057E+04  0.46999998093E+01 0. -1.
       -5    1    3    3    0  502 -0.10514149761E+04  0.57620377542E+03 -0.96549648784E+03  0.15393796805E+04  0.46999998093E+01 0.  1.
</event>
<event>
 5   0  0.5170532E-05  0.2592851E+04  0.7818609E-02  0.8370634E-01
       -2   -1    0    0    0  501  0.00000000000E+00  0.00000000000E+00  0.83655815311E+03  0.83655815311E+03  0.25500000920E-02 0.  1.
        2   -1    0    0  501    0  0.00000000000E+00  0.00000000000E+00 -0.20090875892E+04  0.20090875892E+04  0.25500000920E-02 0. -1.
    10030    2    1    2    0    0  0.00000000000E+00  0.00000000000E+00 -0.11725294361E+04  0.28456457423E+04  0.25928506344E+04 0.  0.
        1    1    3    3  502    0 -0.62810069190E+03  0.10009108764E+04 -0.99360379965E+00  0.11816657941E+04  0.50400001928E-02 0.  1.
       -1    1    3    3    0  502  0.62810069190E+03 -0.10009108764E+04 -0.11715358323E+04  0.16639799482E+04  0.50400001928E-02 0. -1.
</event>
<event>
 5   0  0.4955675E-05  0.2558934E+04  0.7818609E-02  0.8382286E-01
        2   -1    0    0  501    0  0.00000000000E+00  0.00000000000E+00  0.11887749425E+04  0.11887749425E+04  0.25500000920E-02 0.  1.
       -2   -1    0    0    0  501  0.00000000000E+00  0.00000000000E+00 -0.13770775594E+04  0.13770775594E+04  0.25500000920E-02 0. -1.
    10030    2    1    2    0    0  0.00000000000E+00  0.00000000000E+00 -0.18830261693E+03  0.25658525019E+04  0.25589336033E+04 0.  0.
        5    1    3    3  502    0  0.27219350892E+03  0.10947534545E+04 -0.69947121805E+03  0.13273494292E+04  0.46999998093E+01 0. -1.
       -5    1    3    3    0  502 -0.27219350892E+03 -0.10947534545E+04  0.51116860112E+03  0.12385030727E+04  0.46999998093E+01 0.  1.
</event>
<event>
 5   0  0.4955675E-05  0.2482365E+04  0.7818609E-02  0.8409295E-01
       -2   -1    0    0    0  501  0.00000000000E+00  0.00000000000E+00  0.62282240403E+03  0.62282240403E+03  0.25500000920E-02 0. -1.
        2   -1    0    0  501    0  0.00000000000E+00  0.00000000000E+00 -0.24734730955E+04  0.24734730955E+04  0.25500000920E-02 0.  1.
    10030    2    1    2    0    0  0.00000000000E+00  0.00000000000E+00 -0.18506506914E+04  0.30962954995E+04  0.24823653717E+04 0.  0.
        5    1    3    3  502    0  0.91288861995E+03  0.34904657469E+03 -0.18795944562E+04  0.21185128165E+04  0.46999998093E+01 0.  1.
       -5    1    3    3    0  502 -0.91288861995E+03 -0.34904657469E+03  0.28943764760E+02  0.97778268304E+03  0.46999998093E+01 0. -1.
</event>
<event>
 5   0  0.1993815E-05  0.2377793E+04  0.7818609E-02  0.8447864E-01
        1   -1    0    0  501    0  0.00000000000E+00  0.00000000000E+00  0.21959340810E+04  0.21959340810E+04  0.50400001928E-02 0. -1.
       -1   -1    0    0    0  501  0.00000000000E+00  0.00000000000E+00 -0.64367833436E+03  0.64367833438E+03  0.50400001928E-02 0.  1.
    10030    2    1    2    0    0  0.00000000000E+00  0.00000000000E+00  0.15522557467E+04  0.28396124154E+04  0.23777932557E+04 0.  0.
        5    1    3    3  502    0  0.11219074092E+04  0.18028712004E+03  0.35853699145E+03  0.11915328551E+04  0.46999998093E+01 0.  1.
       -5    1    3    3    0  502 -0.11219074092E+04 -0.18028712004E+03  0.11937187552E+04  0.16480795603E+04  0.46999998093E+01 0. -1.
</event>
<event>
 5   0  0.1993815E-05  0.1770255E+04  0.7818609E-02  0.8722279E-01
       -1   -1    0    0    0  501  0.00000000000E+00  0.00000000000E+00  0.57972462906E+03  0.57972462908E+03  0.50400001928E-02 0.  1.
        1   -1    0    0  501    0  0.00000000000E+00  0.00000000000E+00 -0.13514188929E+04  0.13514188929E+04  0.50400001928E-02 0. -1.
    10030    2    1    2    0    0  0.00000000000E+00  0.00000000000E+00 -0.77169426380E+03  0.19311435220E+04  0.17702551414E+04 0.  0.
        5    1    3    3  502    0  0.43827577489E+03 -0.13593124486E+03  0.43982024040E+03  0.63563109745E+03  0.46999998093E+01 0.  1.
       -5    1    3    3    0  502 -0.43827577489E+03  0.13593124486E+03 -0.12115145042E+04  0.12955124245E+04  0.46999998093E+01 0. -1.
</event>
<event>
 5   0  0.4955675E-05  0.2538737E+04  0.7818609E-02  0.8389314E-01
       -2   -1    0    0    0  501  0.00000000000E+00  0.00000000000E+00  0.13322480692E+04  0.13322480692E+04  0.25500000920E-02 0.  1.
        2   -1    0    0  501    0  0.00000000000E+00  0.00000000000E+00 -0.12094571559E+04  0.12094571559E+04  0.25500000920E-02 0. -1.
    10030    2    1    2    0    0  0.00000000000E+00  0.00000000000E+00  0.12279091332E+03  0.25417052251E+04  0.25387374505E+04 0.  0.
        5    1    3    3  502    0  0.52370758642E+02  0.10848695168E+04 -0.59632785188E+03  0.12390777061E+04  0.46999998093E+01 0. -1.
       -5    1    3    3    0  502 -0.52370758642E+02 -0.10848695168E+04  0.71911876520E+03  0.13026275190E+04  0.46999998093E+01 0.  1.
</event>
<event>
 5   0  0.1954502E-05  0.2468341E+04  0.7818609E-02  0.8414352E-01
        1   -1    0    0  501    0  0.00000000000E+00  0.00000000000E+00  0.11598127891E+04  0.11598127891E+04  0.50400001928E-02 0.  1.
       -1   -1    0    0    0  501  0.00000000000E+00  0.00000000000E+00 -0.13132955361E+04  0.13132955361E+04  0.50400001928E-02 0. -1.
    10030    2    1    2    0    0  0.00000000000E+00  0.00000000000E+00 -0.15348274698E+03  0.24731083252E+04  0.24683411099E+04 0.  0.
        4    1    3    3  502    0 -0.11811481417E+04  0.25359496423E+03  0.17624184095E+03  0.12208538561E+04  0.12699999809E+01 0.  1.
       -4    1    3    3    0  502  0.11811481417E+04 -0.25359496423E+03 -0.32972458793E+03  0.12522544691E+04  0.12699999809E+01 0. -1.
</event>
<event>
 5   0  0.5170532E-05  0.2569691E+04  0.7818609E-02  0.8378570E-01
        2   -1    0    0  501    0  0.00000000000E+00  0.00000000000E+00  0.11765562922E+04  0.11765562922E+04  0.25500000920E-02 0.  1.
       -2   -1    0    0    0  501  0.00000000000E+00  0.00000000000E+00 -0.14031014323E+04  0.14031014323E+04  0.25500000920E-02 0. -1.
    10030    2    1    2    0    0  0.00000000000E+00  0.00000000000E+00 -0.22654514011E+03  0.25796577245E+04  0.25696908910E+04 0.  0.
        1    1    3    3  502    0 -0.50534368360E+03 -0.92696911035E+03  0.62181328406E+03  0.12252737369E+04  0.50400001928E-02 0.  1.
       -1    1    3    3    0  502  0.50534368360E+03  0.92696911035E+03 -0.84835842417E+03  0.13543839876E+04  0.50400001928E-02 0. -1.
</event>
<event>
 5   0  0.1993815E-05  0.2293034E+04  0.7818609E-02  0.8480673E-01
        1   -1    0    0  501    0  0.00000000000E+00  0.00000000000E+00  0.93518857506E+03  0.93518857507E+03  0.50400001928E-02 0. -1.
       -1   -1    0    0    0  501  0.00000000000E+00  0.00000000000E+00 -0.14056003047E+04  0.14056003047E+04  0.50400001928E-02 0.  1.
    10030    2    1    2    0    0  0.00000000000E+00  0.00000000000E+00 -0.47041172967E+03  0.23407888798E+04  0.22930341001E+04 0.  0.
        5    1    3    3  502    0  0.14816883057E+03 -0.48030308932E+03  0.81670777416E+03  0.95899882082E+03  0.46999998093E+01 0. -1.
       -5    1    3    3    0  502 -0.14816883057E+03  0.48030308932E+03 -0.12871195038E+04  0.13817900590E+04  0.46999998093E+01 0.  1.
</event>
<event>
 5   0  0.2163800E-05  0.2594080E+04  0.7818609E-02  0.8370215E-01
       -1   -1    0    0    0  501  0.00000000000E+00  0.00000000000E+00  0.99227642354E+03  0.99227642355E+03  0.50400001928E-02 0. -1.
        1   -1    0    0  501    0  0.00000000000E+00  0.00000000000E+00 -0.16954076079E+04  0.16954076079E+04  0.50400001928E-02 0.  1.
    10030    2    1    2    0    0  0.00000000000E+00  0.00000000000E+00 -0.70313118436E+03  0.26876840315E+04  0.25940801820E+04 0.  0.
        1    1    3    3  502    0 -0.96878087141E+03 -0.82308685658E+03 -0.61835390456E+03  0.14136371181E+04  0.50400001928E-02 0.  1.
       -1    1    3    3    0  502  0.96878087141E+03  0.82308685658E+03 -0.84777279798E+02  0.12740469134E+04  0.50400001928E-02 0. -1.
</event>
<event>
 5   0  0.2163800E-05  0.2625038E+04  0.7818609E-02  0.8359746E-01
        1   -1    0    0  501    0  0.00000000000E+00  0.00000000000E+00  0.10035933752E+04  0.10035933753E+04  0.50400001928E-02 0. -1.
       -1   -1    0    0    0  501  0.00000000000E+00  0.00000000000E+00 -0.17165379467E+04  0.17165379467E+04  0.50400001928E-02 0.  1.
    10030    2    1    2    0    0  0.00000000000E+00  0.00000000000E+00 -0.71294457146E+03  0.27201313220E+04  0.26250379896E+04 0.  0.
        1    1    3    3  502    0 -0.40295672766E+03 -0.12305602478E+04 -0.57884701294E+03  0.14183499259E+04  0.50400001928E-02 0.  1.
       -1    1    3    3    0  502  0.40295672766E+03  0.12305602478E+04 -0.13409755852E+03  0.13017813961E+04  0.50400001928E-02 0. -1.
</event>
<event>
 5   0  0.1954502E-05  0.2570643E+04  0.7818609E-02  0.8378242E-01
        1   -1    0    0  501    0  0.00000000000E+00  0.00000000000E+00  0.14380313328E+04  0.14380313328E+04  0.50400001928E-02 0. -1.
       -1   -1    0    0    0  501  0.00000000000E+00  0.00000000000E+00 -0.11488287550E+04  0.11488287550E+04  0.50400001928E-02 0.  1.
    10030    2    1    2    0    0  0.00000000000E+00  0.00000000000E+00  0.28920257778E+03  0.25868600878E+04  0.25706433014E+04 0.  0.
        4    1    3    3  502    0  0.93663367953E+03  0.72668265182E+03  0.64442347087E+03  0.13493085447E+04  0.12699999809E+01 0. -1.
       -4    1    3    3    0  502 -0.93663367953E+03 -0.72668265182E+03 -0.35522089308E+03  0.12375515431E+04  0.12699999809E+01 0.  1.
</event>
<event>
 5   0  0.5049803E-05  0.1879537E+04  0.7818609E-02  0.8665110E-01
        2   -1    0    0  501    0  0.00000000000E+00  0.00000000000E+00  0.91480903623E+03  0.91480903624E+03  0.25500000920E-02 0.  1.
       -2   -1    0    0    0  501  0.00000000000E+00  0.00000000000E+00 -0.96540849897E+03  0.96540849897E+03  0.25500000920E-02 0. -1.
    10030    2    1    2    0    0  0.00000000000E+00  0.00000000000E+00 -0.50599462736E+02  0.18802175352E+04  0.18795365583E+04 0.  0.
        4    1    3    3  502    0 -0.22237263678E+03  0.28036535545E+03 -0.89458435158E+03  0.96350251536E+03  0.12699999809E+01 0. -1.
       -4    1    3    3    0  502  0.22237263678E+03 -0.28036535545E+03  0.84398488884E+03  0.91671501985E+03  0.12699999809E+01 0.  1.
</event>
<event>
 5   0  0.5182179E-05  0.2642772E+04  0.7818609E-02  0.8353816E-01
       -2   -1    0    0    0  501  0.00000000000E+00  0.00000000000E+00  0.13678047314E+04  0.13678047314E+04  0.25500000920E-02 0. -1.
        2   -1    0    0  501    0  0.00000000000E+00  0.00000000000E+00 -0.12765429614E+04  0.12765429614E+04  0.25500000920E-02 0.  1.
    10030    2    1    2    0    0  0.00000000000E+00  0.00000000000E+00  0.91261769995E+02  0.26443476928E+04  0.26427724097E+04 0.  0.
        3    1    3    3  502    0  0.63233379538E+03  0.60584799579E+03  0.10357477073E+04  0.13563447740E+04  0.10100000352E+00 0. -1.
       -3    1    3    3    0  502 -0.63233379538E+03 -0.60584799579E+03 -0.94448593726E+03  0.12880029187E+04  0.10100000352E+00 0.  1.
</event>
<event>
 5   0  0.2163800E-05  0.2325551E+04  0.7818609E-02  0.8467914E-01
       -1   -1    0    0    0  501  0.00000000000E+00  0.00000000000E+00  0.83906826423E+03  0.83906826424E+03  0.50400001928E-02 0. -1.
        1   -1    0    0  501    0  0.00000000000E+00  0.00000000000E+00 -0.16113674537E+04  0.16113674537E+04  0.50400001928E-02 0.  1.
    10030    2    1    2    0    0  0.00000000000E+00  0.00000000000E+00 -0.77229918944E+03  0.24504357179E+04  0.23255513690E+04 0.  0.
        1    1    3    3  502    0  0.60066644354E+03  0.90222185148E+03  0.57460821872E+02  0.10854060032E+04  0.50400001928E-02 0.  1.
       -1    1    3    3    0  502 -0.60066644354E+03 -0.90222185148E+03 -0.82976001132E+03  0.13650297147E+04  0.50400001928E-02 0. -1.
</event>
<event>
 5   0  0.4955675E-05  0.2587461E+04  0.7818609E-02  0.8372473E-01
       -2   -1    0    0    0  501  0.00000000000E+00  0.00000000000E+00  0.97195424742E+03  0.97195424743E+03  0.25500000920E-02 0.  1.
        2   -1    0    0  501    0  0.00000000000E+00  0.00000000000E+00 -0.17220348552E+04  0.17220348552E+04  0.25500000920E-02 0. -1.
    10030    2    1    2    0    0  0.00000000000E+00  0.00000000000E+00 -0.75008060775E+03  0.26939891026E+04  0.25874613749E+04 0.  0.
        5    1    3    3  502    0 -0.41326419172E+03  0.10020008212E+04 -0.11104666510E+04  0.15517574588E+04  0.46999998093E+01 0. -1.
       -5    1    3    3    0  502  0.41326419172E+03 -0.10020008212E+04  0.36038604325E+03  0.11422316438E+04  0.46999998093E+01 0.  1.
</event>
<event>
 5   0  0.5182179E-05  0.2658485E+04  0.7818609E-02  0.8348602E-01
       -2   -1    0    0    0  501  0.00000000000E+00  0.00000000000E+00  0.11618462513E+04  0.11618462513E+04  0.25500000920E-02 0. -1.
        2   -1    0    0  501    0  0.00000000000E+00  0.00000000000E+00 -0.15207570104E+04  0.15207570104E+04  0.25500000920E-02 0.  1.
    10030    2    1    2    0    0  0.00000000000E+00  0.00000000000E+00 -0.35891075907E+03  0.26826032617E+04  0.26584851564E+04 0.  0.
        3    1    3    3  502    0 -0.10121119309E+04  0.31461714770E+03 -0.98893710680E+03  0.14496037810E+04  0.10100000352E+00 0.  1.
       -3    1    3    3    0  502  0.10121119309E+04 -0.31461714770E+03  0.63002634773E+03  0.12329994807E+04  0.10100000352E+00 0. -1.
</event>
<event>
 5   0  0.5049803E-05  0.1581936E+04  0.7818609E-02  0.8831723E-01
        2   -1    0    0  501    0  0.00000000000E+00  0.00000000000E+00  0.77556050727E+03  0.77556050727E+03  0.25500000920E-02 0.  1.
       -2   -1    0    0    0  501  0.00000000000E+00  0.00000000000E+00 -0.80668128506E+03  0.80668128507E+03  0.25500000920E-02 0. -1.
    10030    2    1    2    0    0  0.00000000000E+00  0.00000000000E+00 -0.31120777796E+02  0.15822417923E+04  0.15819357087E+04 0.  0.
        4    1    3    3  502    0 -0.58198614282E+02  0.78696940659E+03  0.38492718749E+02  0.79005773707E+03  0.12699999809E+01 0.  1.
       -4    1    3    3    0  502  0.58198614282E+02 -0.78696940659E+03 -0.69613496545E+02  0.79218405526E+03  0.12699999809E+01 0. -1.
</event>
<event>
 5   0  0.5036452E-05  0.2665986E+04  0.7818609E-02  0.8346126E-01
        2   -1    0    0  501    0  0.00000000000E+00  0.00000000000E+00  0.15113609339E+04  0.15113609339E+04  0.25500000920E-02 0.  1.
       -2   -1    0    0    0  501  0.00000000000E+00  0.00000000000E+00 -0.11756761501E+04  0.11756761501E+04  0.25500000920E-02 0. -1.
    10030    2    1    2    0    0  0.00000000000E+00  0.00000000000E+00  0.33568478381E+03  0.26870370841E+04  0.26659864998E+04 0.  0.
        2    1    3    3  502    0  0.69662237540E+03 -0.77993866191E+03  0.10009792063E+04  0.14476002285E+04  0.25500000920E-02 0.  1.
       -2    1    3    3    0  502 -0.69662237540E+03  0.77993866191E+03 -0.66529442248E+03  0.12394368555E+04  0.25500000920E-02 0. -1.
</event>
<event>
 5   0  0.5036452E-05  0.1646518E+04  0.7818609E-02  0.8792469E-01
        2   -1    0    0  501    0  0.00000000000E+00  0.00000000000E+00  0.17357635841E+04  0.17357635841E+04  0.25500000920E-02 0.  1.
       -2   -1    0    0    0  501  0.00000000000E+00  0.00000000000E+00 -0.39046505381E+03  0.39046505382E+03  0.25500000920E-02 0. -1.
    10030    2    1    2    0    0  0.00000000000E+00  0.00000000000E+00  0.13452985303E+04  0.21262286379E+04  0.16465175629E+04 0.  0.
        2    1    3    3  502    0 -0.27201651356E+03  0.46846560426E+02 -0.32893099314E+03  0.42939862846E+03  0.25500000920E-02 0. -1.
       -2    1    3    3    0  502  0.27201651356E+03 -0.46846560426E+02  0.16742295234E+04  0.16968300094E+04  0.25500000920E-02 0.  1.
</event>
<event>
 5   0  0.5036452E-05  0.2592598E+04  0.7818609E-02  0.8370720E-01
        2   -1    0    0  501    0  0.00000000000E+00  0.00000000000E+00  0.19089086147E+04  0.19089086147E+04  0.25500000920E-02 0.  1.
       -2   -1    0    0    0  501  0.00000000000E+00  0.00000000000E+00 -0.88028910827E+03  0.88028910828E+03  0.25500000920E-02 0. -1.
    10030    2    1    2    0    0  0.00000000000E+00  0.00000000000E+00  0.10286195064E+04  0.27891977230E+04  0.25925982814E+04 0.  0.
        2    1    3    3  502    0  0.58911764751E+03 -0.13421656233E+03 -0.71953187186E+03  0.93957426680E+03  0.25500000920E-02 0. -1.
       -2    1    3    3    0  502 -0.58911764751E+03  0.13421656233E+03  0.17481513783E+04  0.18496234562E+04  0.25500000920E-02 0.  1.
</event>
<event>
 5   0  0.5182179E-05  0.2532261E+04  0.7818609E-02  0.8391582E-01
        2   -1    0    0  501    0  0.00000000000E+00  0.00000000000E+00  0.11842516482E+04  0.11842516482E+04  0.25500000920E-02 0. -1.
       -2   -1    0    0    0  501  0.00000000000E+00  0.00000000000E+00 -0.13536707902E+04  0.13536707902E+04  0.25500000920E-02 0.  1.
    10030    2    1    2    0    0  0.00000000000E+00  0.00000000000E+00 -0.16941914196E+03  0.25379224384E+04  0.25322613328E+04 0.  0.
        3    1    3    3  502    0 -0.72114417986E+03 -0.10019301045E+04 -0.36671735314E+03  0.12877866631E+04  0.10100000352E+00 0.  1.
       -3    1    3    3    0  502  0.72114417986E+03  0.10019301045E+04  0.19729821118E+03  0.12501357753E+04  0.10100000352E+00 0. -1.
</event>
<event>
 5   0  0.5049803E-05  0.2614454E+04  0.7818609E-02  0.8363308E-01
       -2   -1    0    0    0  501  0.00000000000E+00  0.00000000000E+00  0.12977776982E+04  0.12977776982E+04  0.25500000920E-02 0. -1.
        2   -1    0    0  501    0  0.00000000000E+00  0.00000000000E+00 -0.13167449068E+04  0.13167449068E+04  0.25500000920E-02 0.  1.
    10030    2    1    2    0    0  0.00000000000E+00  0.00000000000E+00 -0.18967208596E+02  0.26145226051E+04  0.26144538048E+04 0.  0.
        4    1    3    3  502    0 -0.10925982669E+04  0.70764503625E+03 -0.12910318623E+03  0.13081290899E+04  0.12699999809E+01 0.  1.
       -4    1    3    3    0  502  0.10925982669E+04 -0.70764503625E+03  0.11013597764E+03  0.13063935152E+04  0.12699999809E+01 0. -1.
</event>
<event>
 5   0  0.5170532E-05  0.2589687E+04  0.7818609E-02  0.8371713E-01
       -2   -1    0    0    0  501  0.00000000000E+00  0.00000000000E+00  0.15705102739E+04  0.15705102739E+04  0.25500000920E-02 0. -1.
        2   -1    0    0  501    0  0.00000000000E+00  0.00000000000E+00 -0.10675635433E+04  0.10675635433E+04  0.25500000920E-02 0.  1.
    10030    2    1    2    0    0  0.00000000000E+00  0.00000000000E+00  0.50294673059E+03  0.26380738172E+04  0.25896868635E+04 0.  0.
        1    1    3    3  502    0 -0.63117803194E+03 -0.11711045094E+03 -0.89404580180E+03  0.11006445664E+04  0.50400001928E-02 0.  1.
       -1    1    3    3    0  502  0.63117803194E+03  0.11711045094E+03  0.13969925324E+04  0.15374292508E+04  0.50400001928E-02 0. -1.
</event>
<event>
 5   0  0.2163800E-05  0.2219836E+04  0.7818609E-02  0.8510217E-01
        1   -1    0    0  501    0  0.00000000000E+00  0.00000000000E+00  0.16984012057E+04  0.16984012057E+04  0.50400001928E-02 0.  1.
       -1   -1    0    0    0  501  0.00000000000E+00  0.00000000000E+00 -0.72533991171E+03  0.72533991173E+03  0.50400001928E-02 0. -1.
    10030    2    1    2    0    0  0.00000000000E+00  0.00000000000E+00  0.97306129401E+03  0.24237411175E+04  0.22198361927E+04 0.  0.
        1    1    3    3  502    0 -0.12046414084E+02  0.36735743192E+03 -0.65696178903E+03  0.75279173159E+03  0.50400001928E-02 0. -1.
       -1    1    3    3    0  502  0.12046414084E+02 -0.36735743192E+03  0.16300230830E+04  0.16709493859E+04  0.50400001928E-02 0.  1.
</event>
<event>
 5   0  0.2159405E-05  0.2717718E+04  0.7818609E-02  0.8329279E-01
       -1   -1    0    0    0  501  0.00000000000E+00  0.00000000000E+00  0.13001096760E+04  0.13001096761E+04  0.50400001928E-02 0. -1.
        1   -1    0    0  501    0  0.00000000000E+00  0.00000000000E+00 -0.14202628016E+04  0.14202628016E+04  0.50400001928E-02 0.  1.
    10030    2    1    2    0    0  0.00000000000E+00  0.00000000000E+00 -0.12015312557E+03  0.27203724777E+04  0.27177177270E+04 0.  0.
        3    1    3    3  502    0 -0.67332265030E+03 -0.40810350501E+03 -0.11686716387E+04  0.14091505496E+04  0.10100000352E+00 0.  1.
       -3    1    3    3    0  502  0.67332265030E+03  0.40810350501E+03  0.10485185131E+04  0.13112219281E+04  0.10100000352E+00 0. -1.
</event>
<event>
 5   0  0.2163800E-05  0.2620473E+04  0.7818609E-02  0.8361280E-01
        1   -1    0    0  501    0  0.00000000000E+00  0.00000000000E+00  0.17791169978E+04  0.17791169978E+04  0.50400001928E-02 0. -1.
       -1   -1    0    0    0  501  0.00000000000E+00  0.00000000000E+00 -0.96492820829E+03  0.96492820830E+03  0.50400001928E-02 0.  1.
    10030    2    1    2    0    0  0.00000000000E+00  0.00000000000E+00  0.81418878955E+03  0.27440452062E+04  0.26204733749E+04 0.  0.
        1    1    3    3  502    0 -0.97249546712E+02 -0.27038104523E+03 -0.93152888091E+03  0.97483816091E+03  0.50400001928E-02 0.  1.
       -1    1    3    3    0  502  0.97249546712E+02  0.27038104523E+03  0.17457176705E+04  0.17692070452E+04  0.50400001928E-02 0. -1.
</event>
<event>
 5   0  0.5049803E-05  0.2624435E+04  0.7818609E-02  0.8359948E-01
        2   -1    0    0  501    0  0.00000000000E+00  0.00000000000E+00  0.21149320798E+04  0.21149320798E+04  0.25500000920E-02 0.  1.
       -2   -1    0    0    0  501  0.00000000000E+00  0.00000000000E+00 -0.81417011890E+03  0.81417011890E+03  0.25500000920E-02 0. -1.
    10030    2    1    2    0    0  0.00000000000E+00  0.00000000000E+00  0.13007619609E+04  0.29291021987E+04  0.26244347985E+04 0.  0.
        4    1    3    3  502    0 -0.10175272207E+04  0.87535776452E+02 -0.26921706122E+03  0.10561740368E+04  0.12699999809E+01 0. -1.
       -4    1    3    3    0  502  0.10175272207E+04 -0.87535776452E+02  0.15699790221E+04  0.18729281619E+04  0.12699999809E+01 0.  1.
</event>
<event>
 5   0  0.5036452E-05  0.2676664E+04  0.7818609E-02  0.8342617E-01
       -2   -1    0    0    0  501  0.00000000000E+00  0.00000000000E+00  0.10906327990E+04  0.10906327990E+04  0.25500000920E-02 0. -1.
        2   -1    0    0  501    0  0.00000000000E+00  0.00000000000E+00 -0.16422877744E+04  0.16422877744E+04  0.25500000920E-02 0.  1.
    10030    2    1    2    0    0  0.00000000000E+00  0.00000000000E+00 -0.55165497538E+03  0.27329205735E+04  0.26766642765E+04 0.  0.
        2    1    3    3  502    0  0.10019729049E+04  0.62167762003E+03  0.37048546262E+03  0.12359984804E+04  0.25500000920E-02 0. -1.
       -2    1    3    3    0  502 -0.10019729049E+04 -0.62167762003E+03 -0.92214043801E+03  0.14969220931E+04  0.25500000920E-02 0.  1.
</event>
<event>
 5   0  0.5036452E-05  0.2558470E+04  0.7818609E-02  0.8382446E-01
       -2   -1    0    0    0  501  0.00000000000E+00  0.00000000000E+00  0.90169841938E+03  0.90169841938E+03  0.25500000920E-02 0.  1.
        2   -1    0    0  501    0  0.00000000000E+00  0.00000000000E+00 -0.18148440605E+04  0.18148440605E+04  0.25500000920E-02 0. -1.
    10030    2    1    2    0    0  0.00000000000E+00  0.00000000000E+00 -0.91314564117E+03  0.27165424799E+04  0.25584698715E+04 0.  0.
        2    1    3    3  502    0 -0.21475360470E+03  0.77679160256E+03 -0.15113887171E+04  0.17128397937E+04  0.25500000920E-02 0. -1.
       -2    1    3    3    0  502  0.21475360470E+03 -0.77679160256E+03  0.59824307593E+03  0.10037026863E+04  0.25500000920E-02 0.  1.
</event>
<event>
 5   0  0.5170532E-05  0.2544475E+04  0.7818609E-02  0.8387310E-01
        2   -1    0    0  501    0  0.00000000000E+00  0.00000000000E+00  0.26454136294E+04  0.26454136294E+04  0.25500000920E-02 0. -1.
       -2   -1    0    0    0  501  0.00000000000E+00  0.00000000000E+00 -0.61184687589E+03  0.61184687590E+03  0.25500000920E-02 0.  1.
    10030    2    1    2    0    0  0.00000000000E+00  0.00000000000E+00  0.20335667535E+04  0.32572605053E+04  0.25444748493E+04 0.  0.
        1    1    3    3  502    0  0.45285388785E+03  0.61836953229E+03  0.23166870066E+04  0.24401836424E+04  0.50400001928E-02 0. -1.
       -1    1    3    3    0  502 -0.45285388785E+03 -0.61836953229E+03 -0.28312025304E+03  0.81707686291E+03  0.50400001928E-02 0.  1.
</event>
<event>
 5   0  0.4955675E-05  0.2733573E+04  0.7818609E-02  0.8324193E-01
        2   -1    0    0  501    0  0.00000000000E+00  0.00000000000E+00  0.21938046016E+04  0.21938046016E+04  0.25500000920E-02 0.  1.
       -2   -1    0    0    0  501  0.00000000000E+00  0.00000000000E+00 -0.85153701766E+03  0.85153701766E+03  0.25500000920E-02 0. -1.
    10030    2    1    2    0    0  0.00000000000E+00  0.00000000000E+00  0.13422675839E+04  0.30453416193E+04  0.27335733594E+04 0.  0.
        5    1    3    3  502    0 -0.10212243186E+04 -0.51178283520E+03  0.15072389073E+04  0.18911932722E+04  0.46999998093E+01 0.  1.
       -5    1    3    3    0  502  0.10212243186E+04  0.51178283520E+03 -0.16497132333E+03  0.11541483470E+04  0.46999998093E+01 0. -1.
</event>
<event>
 5   0  0.2072710E-05  0.2621994E+04  0.7818609E-02  0.8360769E-01
       -1   -1    0    0    0  501  0.00000000000E+00  0.00000000000E+00  0.22030676147E+04  0.22030676147E+04  0.50400001928E-02 0. -1.
        1   -1    0    0  501    0  0.00000000000E+00  0.00000000000E+00 -0.78014536827E+03  0.78014536828E+03  0.50400001928E-02 0.  1.
    10030    2    1    2    0    0  0.00000000000E+00  0.00000000000E+00  0.14229222465E+04  0.29832129830E+04  0.26219938945E+04 0.  0.
        2    1    3    3  502    0  0.36262298260E+03 -0.48167883258E+03 -0.61304744723E+03  0.85984713632E+03  0.25500000920E-02 0.  1.
       -2    1    3    3    0  502 -0.36262298260E+03  0.48167883258E+03  0.20359696937E+04  0.21233658467E+04  0.25500000920E-02 0. -1.
</event>
<event>
 5   0  0.2159405E-05  0.2610496E+04  0.7818609E-02  0.8364645E-01
       -1   -1    0    0    0  501  0.00000000000E+00  0.00000000000E+00  0.60365552472E+03  0.60365552474E+03  0.50400001928E-02 0.  1.
        1   -1    0    0  501    0  0.00000000000E+00  0.00000000000E+00 -0.28222586299E+04  0.28222586299E+04  0.50400001928E-02 0. -1.
    10030    2    1    2    0    0  0.00000000000E+00  0.00000000000E+00 -0.22186031052E+04  0.34259141547E+04  0.26104957492E+04 0.  0.
        3    1    3    3  502    0 -0.10642545370E+04 -0.45945031610E+03 -0.18966525031E+04  0.22228412089E+04  0.10100000352E+00 0.  1.
       -3    1    3    3    0  502  0.10642545370E+04  0.45945031610E+03 -0.32195060215E+03  0.12030729458E+04  0.10100000352E+00 0. -1.
</event>
<event>
 5   0  0.2163800E-05  0.1600414E+04  0.7818609E-02  0.8820294E-01
       -1   -1    0    0    0  501  0.00000000000E+00  0.00000000000E+00  0.78566201911E+03  0.78566201913E+03  0.50400001928E-02 0. -1.
        1   -1    0    0  501    0  0.00000000000E+00  0.00000000000E+00 -0.81502148702E+03  0.81502148703E+03  0.50400001928E-02 0.  1.
    10030    2    1    2    0    0  0.00000000000E+00  0.00000000000E+00 -0.29359467907E+02  0.16006835062E+04  0.16004142303E+04 0.  0.
        1    1    3    3  502    0 -0.20132847477E+03  0.71815298073E+03  0.27529070595E+03  0.79502316400E+03  0.50400001928E-02 0. -1.
       -1    1    3    3    0  502  0.20132847477E+03 -0.71815298073E+03 -0.30465017385E+03  0.80566034216E+03  0.50400001928E-02 0.  1.
</event>
<event>
 5   0  0.2072710E-05  0.2596090E+04  0.7818609E-02  0.8369530E-01
       -1   -1    0    0    0  501  0.00000000000E+00  0.00000000000E+00  0.12148497982E+04  0.12148497982E+04  0.50400001928E-02 0.  1.
        1   -1    0    0  501    0  0.00000000000E+00  0.00000000000E+00 -0.13869380954E+04  0.13869380954E+04  0.50400001928E-02 0. -1.
    10030    2    1    2    0    0  0.00000000000E+00  0.00000000000E+00 -0.17208829717E+03  0.26017878936E+04  0.25960904956E+04 0.  0.
        2    1    3    3  502    0  0.64340887760E+03  0.10352462012E+04  0.36126684738E+03  0.12713077581E+04  0.25500000920E-02 0.  1.
       -2    1    3    3    0  502 -0.64340887760E+03 -0.10352462012E+04 -0.53335514455E+03  0.13304801355E+04  0.25500000920E-02 0. -1.
</event>
<event>
 5   0  0.5182179E-05  0.2403628E+04  0.7818609E-02  0.8438147E-01
       -2   -1    0    0    0  501  0.00000000000E+00  0.00000000000E+00  0.20131787505E+04  0.20131787505E+04  0.25500000920E-02 0.  1.
        2   -1    0    0  501    0  0.00000000000E+00  0.00000000000E+00 -0.71745064667E+03  0.71745064667E+03  0.25500000920E-02 0. -1.
    10030    2    1    2    0    0  0.00000000000E+00  0.00000000000E+00  0.12957281039E+04  0.27306293972E+04  0.24036275888E+04 0.  0.
        3    1    3    3  502    0  0.96923963571E+03  0.70924518411E+03  0.59831654589E+03  0.13418036003E+04  0.10100000352E+00 0.  1.
       -3    1    3    3    0  502 -0.96923963571E+03 -0.70924518411E+03  0.69741155798E+03  0.13888257969E+04  0.10100000352E+00 0. -1.
</event>
<event>
 5   0  0.2072710E-05  0.2596018E+04  0.7818609E-02  0.8369555E-01
        1   -1    0    0  501    0  0.00000000000E+00  0.00000000000E+00  0.20380481756E+04  0.20380481756E+04  0.50400001928E-02 0.  1.
       -1   -1    0    0    0  501  0.00000000000E+00  0.00000000000E+00 -0.82668694117E+03  0.82668694118E+03  0.50400001928E-02 0. -1.
    10030    2    1    2    0    0  0.00000000000E+00  0.00000000000E+00  0.12113612344E+04  0.28647351168E+04  0.25960183453E+04 0.  0.
        2    1    3    3  502    0  0.79787358526E+03  0.47691522631E+03  0.16054260184E+04  0.18551126897E+04  0.25500000920E-02 0.  1.
       -2    1    3    3    0  502 -0.79787358526E+03 -0.47691522631E+03 -0.39406478398E+03  0.10096224270E+04  0.25500000920E-02 0. -1.
</event>
<event>
 5   0  0.4955675E-05  0.2083155E+04  0.7818609E-02  0.8568700E-01
        2   -1    0    0  501    0  0.00000000000E+00  0.00000000000E+00  0.14003353902E+04  0.14003353902E+04  0.25500000920E-02 0.  1.
       -2   -1    0    0    0  501  0.00000000000E+00  0.00000000000E+00 -0.77473100885E+03  0.77473100885E+03  0.25500000920E-02 0. -1.
    10030    2    1    2    0    0  0.00000000000E+00  0.00000000000E+00  0.62560438135E+03  0.21750663991E+04  0.20831545786E+04 0.  0.
        5    1    3    3  502    0 -0.47120038305E+03 -0.33277687458E+03 -0.59269309118E+03  0.82708974094E+03  0.46999998093E+01 0. -1.
       -5    1    3    3    0  502  0.47120038305E+03  0.33277687458E+03  0.12182974725E+04  0.13479766581E+04  0.46999998093E+01 0.  1.
</event>
<event>
 5   0  0.5170532E-05  0.2484254E+04  0.7818609E-02  0.8408617E-01
        2   -1    0    0  501    0  0.00000000000E+00  0.00000000000E+00  0.11488841274E+04  0.11488841274E+04  0.25500000920E-02 0. -1.
       -2   -1    0    0    0  501  0.00000000000E+00  0.00000000000E+00 -0.13429379017E+04  0.13429379017E+04  0.25500000920E-02 0.  1.
    10030    2    1    2    0    0  0.00000000000E+00  0.00000000000E+00 -0.19405377424E+03  0.24918220291E+04  0.24842544470E+04 0.  0.
        1    1    3    3  502    0 -0.26491498124E+03  0.10625970246E+04  0.49092220077E+03  0.12001237399E+04  0.50400001928E-02 0. -1.
       -1    1    3    3    0  502  0.26491498124E+03 -0.10625970246E+04 -0.68497597501E+03  0.12916982892E+04  0.50400001928E-02 0.  1.
</event>
<event>
 5   0  0.1993815E-05  0.2597579E+04  0.7818609E-02  0.8369024E-01
       -1   -1    0    0    0  501  0.00000000000E+00  0.00000000000E+00  0.84431604434E+03  0.84431604436E+03  0.50400001928E-02 0.  1.
        1   -1    0    0  501    0  0.00000000000E+00  0.00000000000E+00 -0.19978942177E+04  0.19978942177E+04  0.50400001928E-02 0. -1.
    10030    2    1    2    0    0  0.00000000000E+00  0.00000000000E+00 -0.11535781734E+04  0.28422102621E+04  0.25975789828E+04 0.  0.
        5    1    3    3  502    0 -0.61577759094E+03 -0.10293688622E+03  0.66934986575E+03  0.91533020098E+03  0.46999998093E+01 0.  1.
       -5    1    3    3    0  502  0.61577759094E+03  0.10293688622E+03 -0.18229280391E+04  0.19268800611E+04  0.46999998093E+01 0. -1.
</event>
<event>
 5   0  0.2159405E-05  0.2447545E+04  0.7818609E-02  0.8421915E-01
       -1   -1    0    0    0  501  0.00000000000E+00  0.00000000000E+00  0.77131523844E+03  0.77131523846E+03  0.50400001928E-02 0. -1.
        1   -1    0    0  501    0  0.00000000000E+00  0.00000000000E+00 -0.19416437076E+04  0.19416437076E+04  0.50400001928E-02 0.  1.
    10030    2    1    2    0    0  0.00000000000E+00  0.00000000000E+00 -0.11703284691E+04  0.27129589460E+04  0.24475452023E+04 0.  0.
        3    1    3    3  502    0  0.75191903432E+03  0.58904421392E+03  0.26282126181E+03  0.99067166407E+03  0.10100000352E+00 0. -1.
       -3    1    3    3    0  502 -0.75191903432E+03 -0.58904421392E+03 -0.14331497310E+04  0.17222872820E+04  0.10100000352E+00 0.  1.
</event>
<event>
 5   0  0.2163800E-05  0.2605355E+04  0.7818609E-02  0.8366385E-01
       -1   -1    0    0    0  501  0.00000000000E+00  0.00000000000E+00  0.57493146373E+03  0.57493146375E+03  0.50400001928E-02 0.  1.
        1   -1    0    0  501    0  0.00000000000E+00  0.00000000000E+00 -0.29516016481E+04  0.29516016481E+04  0.50400001928E-02 0. -1.
    10030    2    1    2    0    0  0.00000000000E+00  0.00000000000E+00 -0.23766701843E+04  0.35265331118E+04  0.26053549900E+04 0.  0.
        1    1    3    3  502    0 -0.56471686635E+03  0.10520551828E+04 -0.18932888938E+04  0.22383628130E+04  0.50400001928E-02 0. -1.
       -1    1    3    3    0  502  0.56471686635E+03 -0.10520551828E+04 -0.48338129050E+03  0.12881702989E+04  0.50400001928E-02 0.  1.
</event>
<event>
 5   0  0.1993815E-05  0.2249473E+04  0.7818609E-02  0.8498114E-01
       -1   -1    0    0    0  501  0.00000000000E+00  0.00000000000E+00  0.83726481707E+03  0.83726481709E+03  0.50400001928E-02 0. -1.
        1   -1    0    0  501    0  0.00000000000E+00  0.00000000000E+00 -0.15109102808E+04  0.15109102808E+04  0.50400001928E-02 0.  1.
    10030    2    1    2    0    0  0.00000000000E+00  0.00000000000E+00 -0.67364546368E+03  0.23481750979E+04  0.22494728448E+04 0.  0.
        5    1    3    3  502    0  0.73818801606E+03 -0.84803951600E+03 -0.36843969280E+03  0.11831578360E+04  0.46999998093E+01 0. -1.
       -5    1    3    3    0  502 -0.73818801606E+03  0.84803951600E+03 -0.30520577088E+03  0.11650172618E+04  0.46999998093E+01 0.  1.
</event>
<event>
 5   0  0.5036452E-05  0.1456152E+04  0.7818609E-02  0.8914146E-01
        2   -1    0    0  501    0  0.00000000000E+00  0.00000000000E+00  0.63265539904E+03  0.63265539904E+03  0.25500000920E-02 0. -1.
       -2   -1    0    0    0  501  0.00000000000E+00  0.00000000000E+00 -0.83788875244E+03  0.83788875244E+03  0.25500000920E-02 0.  1.
    10030    2    1    2    0    0  0.00000000000E+00  0.00000000000E+00 -0.20523335340E+03  0.14705441515E+04  0.14561522489E+04 0.  0.
        2    1    3    3  502    0 -0.20955477421E+03 -0.53132898657E+03  0.35336686430E+03  0.67163370683E+03  0.25500000920E-02 0. -1.
       -2    1    3    3    0  502  0.20955477421E+03  0.53132898657E+03 -0.55860021770E+03  0.79891044466E+03  0.25500000920E-02 0.  1.
</event>
<event>
 5   0  0.2072710E-05  0.2560034E+04  0.7818609E-02  0.8381905E-01
        1   -1    0    0  501    0  0.00000000000E+00  0.00000000000E+00  0.22360256341E+04  0.22360256341E+04  0.50400001928E-02 0. -1.
       -1   -1    0    0    0  501  0.00000000000E+00  0.00000000000E+00 -0.73274810596E+03  0.73274810598E+03  0.50400001928E-02 0.  1.
    10030    2    1    2    0    0  0.00000000000E+00  0.00000000000E+00  0.15032775281E+04  0.29687737401E+04  0.25600340219E+04 0.  0.
        2    1    3    3  502    0 -0.24496503711E+02 -0.51857046667E+03  0.21084570517E+04  0.21714296089E+04  0.25500000920E-02 0. -1.
       -2    1    3    3    0  502  0.24496503711E+02  0.51857046667E+03 -0.60517952362E+03  0.79734413111E+03  0.25500000920E-02 0.  1.
</event>
<event>
 5   0  0.4955675E-05  0.1707284E+04  0.7818609E-02  0.8757221E-01
        2   -1    0    0  501    0  0.00000000000E+00  0.00000000000E+00  0.22442483021E+04  0.22442483021E+04  0.25500000920E-02 0.  1.
       -2   -1    0    0    0  501  0.00000000000E+00  0.00000000000E+00 -0.32469872253E+03  0.32469872254E+03  0.25500000920E-02 0. -1.
    10030    2    1    2    0    0  0.00000000000E+00  0.00000000000E+00  0.19195495796E+04  0.25689470246E+04  0.17072838742E+04 0.  0.
        5    1    3    3  502    0  0.61446728469E+03  0.31460471948E+02  0.69427336367E+02  0.61919467882E+03  0.46999998093E+01 0. -1.
       -5    1    3    3    0  502 -0.61446728469E+03 -0.31460471948E+02  0.18501222432E+04  0.19497523458E+04  0.46999998093E+01 0.  1.
</event>
<event>
 5   0  0.2163800E-05  0.2621554E+04  0.7818609E-02  0.8360916E-01
        1   -1    0    0  501    0  0.00000000000E+00  0.00000000000E+00  0.13939265808E+04  0.13939265808E+04  0.50400001928E-02 0. -1.
       -1   -1    0    0    0  501  0.00000000000E+00  0.00000000000E+00 -0.12325875332E+04  0.12325875332E+04  0.50400001928E-02 0.  1.
    10030    2    1    2    0    0  0.00000000000E+00  0.00000000000E+00  0.16133904759E+03  0.26265141140E+04  0.26215541388E+04 0.  0.
        1    1    3    3  502    0 -0.10448991949E+04 -0.69790946083E+03 -0.29319138902E+03  0.12902918792E+04  0.50400001928E-02 0.  1.
       -1    1    3    3    0  502  0.10448991949E+04  0.69790946083E+03  0.45453043660E+03  0.13362222348E+04  0.50400001928E-02 0. -1.
</event>
<event>
 5   0  0.4955675E-05  0.2561639E+04  0.7818609E-02  0.8381350E-01
        2   -1    0    0  501    0  0.00000000000E+00  0.00000000000E+00  0.11913290046E+04  0.11913290046E+04  0.25500000920E-02 0. -1.
       -2   -1    0    0    0  501  0.00000000000E+00  0.00000000000E+00 -0.13770324250E+04  0.13770324250E+04  0.25500000920E-02 0.  1.
    10030    2    1    2    0    0  0.00000000000E+00  0.00000000000E+00 -0.18570342047E+03  0.25683614296E+04  0.25616390598E+04 0.  0.
        5    1    3    3  502    0 -0.27215583678E+03 -0.60905628537E+03  0.10033876817E+04  0.12049179590E+04  0.46999998093E+01 0. -1.
       -5    1    3    3    0  502  0.27215583678E+03  0.60905628537E+03 -0.11890911022E+04  0.13634434706E+04  0.46999998093E+01 0.  1.
</event>
<event>
 5   0  0.4955675E-05  0.2510497E+04  0.7818609E-02  0.8399255E-01
        2   -1    0    0  501    0  0.00000000000E+00  0.00000000000E+00  0.14772346109E+04  0.14772346109E+04  0.25500000920E-02 0. -1.
       -2   -1    0    0    0  501  0.00000000000E+00  0.00000000000E+00 -0.10666207849E+04  0.10666207849E+04  0.25500000920E-02 0.  1.
    10030    2    1    2    0    0  0.00000000000E+00  0.00000000000E+00  0.41061382593E+03  0.25438553958E+04  0.25104972736E+04 0.  0.
        5    1    3    3  502    0  0.11924280750E+04  0.33334726428E+03  0.41450093068E+03  0.13056945370E+04  0.46999998093E+01 0. -1.
       -5    1    3    3    0  502 -0.11924280750E+04 -0.33334726428E+03 -0.38871047493E+01  0.12381608587E+04  0.46999998093E+01 0.  1.
</event>
<event>
 5   0  0.4955675E-05  0.2666448E+04  0.7818609E-02  0.8345974E-01
       -2   -1    0    0    0  501  0.00000000000E+00  0.00000000000E+00  0.13442221123E+04  0.13442221123E+04  0.25500000920E-02 0.  1.
        2   -1    0    0  501    0  0.00000000000E+00  0.00000000000E+00 -0.13223156360E+04  0.13223156360E+04  0.25500000920E-02 0. -1.
    10030    2    1    2    0    0  0.00000000000E+00  0.00000000000E+00  0.21906476275E+02  0.26665377483E+04  0.26664477623E+04 0.  0.
        5    1    3    3  502    0  0.50412019758E+03  0.63856194288E+02  0.12435730431E+04  0.13433952474E+04  0.46999998093E+01 0.  1.
       -5    1    3    3    0  502 -0.50412019758E+03 -0.63856194288E+02 -0.12216665668E+04  0.13231425009E+04  0.46999998093E+01 0. -1.
</event>
<event>
 5   0  0.5182179E-05  0.2584480E+04  0.7818609E-02  0.8373492E-01
        2   -1    0    0  501    0  0.00000000000E+00  0.00000000000E+00  0.23757053528E+04  0.23757053528E+04  0.25500000920E-02 0. -1.
       -2   -1    0    0    0  501  0.00000000000E+00  0.00000000000E+00 -0.70290050450E+03  0.70290050450E+03  0.25500000920E-02 0.  1.
    10030    2    1    2    0    0  0.00000000000E+00  0.00000000000E+00  0.16728048483E+04  0.30786058573E+04  0.25844802116E+04 0.  0.
        3    1    3    3  502    0  0.45703668100E+03  0.74567880363E+03  0.19695769150E+04  0.21550296147E+04  0.10100000352E+00 0. -1.
       -3    1    3    3    0  502 -0.45703668100E+03 -0.74567880363E+03 -0.29677206677E+03  0.92357624253E+03  0.10100000352E+00 0.  1.
</event>
<event>
 5   0  0.2163800E-05  0.2613192E+04  0.7818609E-02  0.8363734E-01
        1   -1    0    0  501    0  0.00000000000E+00  0.00000000000E+00  0.20057992286E+04  0.20057992286E+04  0.50400001928E-02 0.  1.
       -1   -1    0    0    0  501  0.00000000000E+00  0.00000000000E+00 -0.85112866596E+03  0.85112866598E+03  0.50400001928E-02 0. -1.
    10030    2    1    2    0    0  0.00000000000E+00  0.00000000000E+00  0.11546705626E+04  0.28569278946E+04  0.26131920876E+04 0.  0.
        1    1    3    3  502    0  0.46921612610E+02 -0.12609756337E+04  0.20669851905E+03  0.12786655013E+04  0.50400001928E-02 0. -1.
       -1    1    3    3    0  502 -0.46921612610E+02  0.12609756337E+04  0.94797204357E+03  0.15782623932E+04  0.50400001928E-02 0.  1.
</event>
<event>
 5   0  0.1954502E-05  0.2606805E+04  0.7818609E-02  0.8365893E-01
       -1   -1    0    0    0  501  0.00000000000E+00  0.00000000000E+00  0.81297177222E+03  0.81297177224E+03  0.50400001928E-02 0.  1.
        1   -1    0    0  501    0  0.00000000000E+00  0.00000000000E+00 -0.20896886450E+04  0.20896886451E+04  0.50400001928E-02 0. -1.
    10030    2    1    2    0    0  0.00000000000E+00  0.00000000000E+00 -0.12767168728E+04  0.29026604173E+04  0.26068048498E+04 0.  0.
        4    1    3    3  502    0  0.49507335091E+02 -0.17775856895E+03 -0.20750703097E+04  0.20832588625E+04  0.12699999809E+01 0. -1.
       -4    1    3    3    0  502 -0.49507335091E+02  0.17775856895E+03  0.79835343683E+03  0.81940155484E+03  0.12699999809E+01 0.  1.
</event>
<event>
 5   0  0.1993815E-05  0.1956947E+04  0.7818609E-02  0.8627018E-01
       -1   -1    0    0    0  501  0.00000000000E+00  0.00000000000E+00  0.67376521783E+03  0.67376521785E+03  0.50400001928E-02 0. -1.
        1   -1    0    0  501    0  0.00000000000E+00  0.00000000000E+00 -0.14209849753E+04  0.14209849754E+04  0.50400001928E-02 0.  1.
    10030    2    1    2    0    0  0.00000000000E+00  0.00000000000E+00 -0.74721975751E+03  0.20947501932E+04  0.19569468582E+04 0.  0.
        5    1    3    3  502    0 -0.77530435036E+03 -0.52919679966E+03 -0.66917321146E+03  0.11528056928E+04  0.46999998093E+01 0.  1.
       -5    1    3    3    0  502  0.77530435036E+03  0.52919679966E+03 -0.78046546048E+02  0.94194450039E+03  0.46999998093E+01 0. -1.
</event>
<event>
 5   0  0.5036452E-05  0.2600582E+04  0.7818609E-02  0.8368003E-01
        2   -1    0    0  501    0  0.00000000000E+00  0.00000000000E+00  0.24740601710E+04  0.24740601710E+04  0.25500000920E-02 0. -1.
       -2   -1    0    0    0  501  0.00000000000E+00  0.00000000000E+00 -0.68339369305E+03  0.68339369305E+03  0.25500000920E-02 0.  1.
    10030    2    1    2    0    0  0.00000000000E+00  0.00000000000E+00  0.17906664779E+04  0.31574538640E+04  0.26005823325E+04 0.  0.
        2    1    3    3  502    0 -0.71565804730E+03 -0.10730455108E+04  0.69522575458E+03  0.14652412630E+04  0.25500000920E-02 0. -1.
       -2    1    3    3    0  502  0.71565804730E+03  0.10730455108E+04  0.10954407234E+04  0.16922126011E+04  0.25500000920E-02 0.  1.
</event>
<event>
 5   0  0.2159405E-05  0.2161449E+04  0.7818609E-02  0.8534647E-01
       -1   -1    0    0    0  501  0.00000000000E+00  0.00000000000E+00  0.58889682074E+03  0.58889682076E+03  0.50400001928E-02 0.  1.
        1   -1    0    0  501    0  0.00000000000E+00  0.00000000000E+00 -0.19833114147E+04  0.19833114147E+04  0.50400001928E-02 0. -1.
    10030    2    1    2    0    0  0.00000000000E+00  0.00000000000E+00 -0.13944145939E+04  0.25722082355E+04  0.21614493163E+04 0.  0.
        3    1    3    3  502    0  0.86069872574E+03  0.49839857032E+03 -0.19405542849E+03  0.10133414779E+04  0.10100000352E+00 0.  1.
       -3    1    3    3    0  502 -0.86069872574E+03 -0.49839857032E+03 -0.12003591654E+04  0.15588667575E+04  0.10100000352E+00 0. -1.
</event>
<event>
 5   0  0.1954502E-05  0.2607538E+04  0.7818609E-02  0.8365645E-01
        1   -1    0    0  501    0  0.00000000000E+00  0.00000000000E+00  0.23330971316E+04  0.23330971316E+04  0.50400001928E-02 0. -1.
       -1   -1    0    0    0  501  0.00000000000E+00  0.00000000000E+00 -0.72856545525E+03  0.72856545527E+03  0.50400001928E-02 0.  1.
    10030    2    1    2    0    0  0.00000000000E+00  0.00000000000E+00  0.16045316763E+04  0.30616625868E+04  0.26075382826E+04 0.  0.
        4    1    3    3  502    0  0.19169433335E+03  0.16485257645E+03  0.23040363971E+04  0.23178672140E+04  0.12699999809E+01 0. -1.
       -4    1    3    3    0  502 -0.19169433335E+03 -0.16485257645E+03 -0.69950472080E+03  0.74379537288E+03  0.12699999809E+01 0.  1.
</event>
<event>
 5   0  0.5049803E-05  0.2709015E+04  0.7818609E-02  0.8332086E-01
        2   -1    0    0  501    0  0.00000000000E+00  0.00000000000E+00  0.19539165028E+04  0.19539165028E+04  0.25500000920E-02 0. -1.
       -2   -1    0    0    0  501  0.00000000000E+00  0.00000000000E+00 -0.93898090733E+03  0.93898090733E+03  0.25500000920E-02 0.  1.
    10030    2    1    2    0    0  0.00000000000E+00  0.00000000000E+00  0.10149355954E+04  0.28928974101E+04  0.27090147955E+04 0.  0.
        4    1    3    3  502    0  0.22781635884E+03 -0.10840713215E+04  0.13398496208E+04  0.17384790889E+04  0.12699999809E+01 0. -1.
       -4    1    3    3    0  502 -0.22781635884E+03  0.10840713215E+04 -0.32491402536E+03  0.11544183212E+04  0.12699999809E+01 0.  1.
</event>
<event>
 5   0  0.1954502E-05  0.2626475E+04  0.7818609E-02  0.8359263E-01
       -1   -1    0    0    0  501  0.00000000000E+00  0.00000000000E+00  0.90843995914E+03  0.90843995915E+03  0.50400001928E-02 0. -1.
        1   -1    0    0  501    0  0.00000000000E+00  0.00000000000E+00 -0.18984119451E+04  0.18984119451E+04  0.50400001928E-02 0.  1.
    10030    2    1    2    0    0  0.00000000000E+00  0.00000000000E+00 -0.98997198594E+03  0.28068519042E+04  0.26264754100E+04 0.  0.
        4    1    3    3  502    0  0.10348600919E+04 -0.53812562675E+03  0.14984041582E+03  0.11759967530E+04  0.12699999809E+01 0. -1.
       -4    1    3    3    0  502 -0.10348600919E+04  0.53812562675E+03 -0.11398124018E+04  0.16308551512E+04  0.12699999809E+01 0.  1.
</event>
<event>
 5   0  0.1954502E-05  0.2535974E+04  0.7818609E-02  0.8390280E-01
       -1   -1    0    0    0  501  0.00000000000E+00  0.00000000000E+00  0.16735740753E+04  0.16735740753E+04  0.50400001928E-02 0.  1.
        1   -1    0    0  501    0  0.00000000000E+00  0.00000000000E+00 -0.96069341259E+03  0.96069341260E+03  0.50400001928E-02 0. -1.
    10030    2    1    2    0    0  0.00000000000E+00  0.00000000000E+00  0.71288066271E+03  0.26342674879E+04  0.25359744397E+04 0.  0.
        4    1    3    3  502    0 -0.59307754589E+03  0.72383919011E+03  0.12452360052E+04  0.15576580081E+04  0.12699999809E+01 0.  1.
       -4    1    3    3    0  502  0.59307754589E+03 -0.72383919011E+03 -0.53235534246E+03  0.10766094799E+04  0.12699999809E+01 0. -1.
</event>
<event>
 5   0  0.2163800E-05  0.2615455E+04  0.7818609E-02  0.8362970E-01
        1   -1    0    0  501    0  0.00000000000E+00  0.00000000000E+00  0.22715330760E+04  0.22715330760E+04  0.50400001928E-02 0.  1.
       -1   -1    0    0    0  501  0.00000000000E+00  0.00000000000E+00 -0.75286203152E+03  0.75286203154E+03  0.50400001928E-02 0. -1.
    10030    2    1    2    0    0  0.00000000000E+00  0.00000000000E+00  0.15186710445E+04  0.30243951075E+04  0.26154548410E+04 0.  0.
        1    1    3    3  502    0  0.64150855447E+03  0.73208110774E+03 -0.25052423428E+03  0.10051061465E+04  0.50400001928E-02 0. -1.
       -1    1    3    3    0  502 -0.64150855447E+03 -0.73208110774E+03  0.17691952787E+04  0.20192889610E+04  0.50400001928E-02 0.  1.
</event>
<event>
 5   0  0.5170532E-05  0.2580101E+04  0.7818609E-02  0.8374992E-01
        2   -1    0    0  501    0  0.00000000000E+00  0.00000000000E+00  0.15119238528E+04  0.15119238528E+04  0.25500000920E-02 0. -1.
       -2   -1    0    0    0  501  0.00000000000E+00  0.00000000000E+00 -0.11007365215E+04  0.11007365215E+04  0.25500000920E-02 0.  1.
    10030    2    1    2    0    0  0.00000000000E+00  0.00000000000E+00  0.41118733127E+03  0.26126603743E+04  0.25801006202E+04 0.  0.
        1    1    3    3  502    0 -0.37663786570E+03 -0.40547424334E+03  0.13856167439E+04  0.14920453093E+04  0.50400001928E-02 0. -1.
       -1    1    3    3    0  502  0.37663786570E+03  0.40547424334E+03 -0.97442941262E+03  0.11206150651E+04  0.50400001928E-02 0.  1.
</event>
<event>
 5   0  0.2159405E-05  0.2373189E+04  0.7818609E-02  0.8449610E-01
        1   -1    0    0  501    0  0.00000000000E+00  0.00000000000E+00  0.19596185011E+04  0.19596185012E+04  0.50400001928E-02 0. -1.
       -1   -1    0    0    0  501  0.00000000000E+00  0.00000000000E+00 -0.71851029438E+03  0.71851029440E+03  0.50400001928E-02 0.  1.
    10030    2    1    2    0    0  0.00000000000E+00  0.00000000000E+00  0.12411082068E+04  0.26781287956E+04  0.23731886281E+04 0.  0.
        3    1    3    3  502    0 -0.34001524000E+03 -0.32142674953E+03 -0.61001168205E+03  0.76879111674E+03  0.10100000352E+00 0.  1.
       -3    1    3    3    0  502  0.34001524000E+03  0.32142674953E+03  0.18511198888E+04  0.19093376788E+04  0.10100000352E+00 0. -1.
</event>
<event>
 5   0  0.5036452E-05  0.2467014E+04  0.7818609E-02  0.8414832E-01
       -2   -1    0    0    0  501  0.00000000000E+00  0.00000000000E+00  0.12688173045E+04  0.12688173045E+04  0.25500000920E-02 0. -1.
        2   -1    0    0  501    0  0.00000000000E+00  0.00000000000E+00 -0.11991790839E+04  0.11991790839E+04  0.25500000920E-02 0.  1.
    10030    2    1    2    0    0  0.00000000000E+00  0.00000000000E+00  0.69638220519E+02  0.24679963884E+04  0.24670137194E+04 0.  0.
        2    1    3    3  502    0 -0.40689904393E+03  0.91266214946E+03  0.75830849309E+03  0.12544125325E+04  0.25500000920E-02 0. -1.
       -2    1    3    3    0  502  0.40689904393E+03 -0.91266214946E+03 -0.68867027257E+03  0.12135838559E+04  0.25500000920E-02 0.  1.
</event>
<event>
 5   0  0.4955675E-05  0.2548370E+04  0.7818609E-02  0.8385953E-01
        2   -1    0    0  501    0  0.00000000000E+00  0.00000000000E+00  0.19505679598E+04  0.19505679598E+04  0.25500000920E-02 0. -1.
       -2   -1    0    0    0  501  0.00000000000E+00  0.00000000000E+00 -0.83234572175E+03  0.83234572175E+03  0.25500000920E-02 0.  1.
    10030    2    1    2    0    0  0.00000000000E+00  0.00000000000E+00  0.11182222381E+04  0.27829136816E+04  0.25483695936E+04 0.  0.
        5    1    3    3  502    0  0.23959528063E+02  0.51435154855E+03  0.18318815461E+04  0.19028777321E+04  0.46999998093E+01 0. -1.
       -5    1    3    3    0  502 -0.23959528063E+02 -0.51435154855E+03 -0.71365930800E+03  0.88003594948E+03  0.46999998093E+01 0.  1.
</event>
<event>
 5   0  0.1993815E-05  0.2610497E+04  0.7818609E-02  0.8364644E-01
        1   -1    0    0  501    0  0.00000000000E+00  0.00000000000E+00  0.15416847073E+04  0.15416847073E+04  0.50400001928E-02 0. -1.
       -1   -1    0    0    0  501  0.00000000000E+00  0.00000000000E+00 -0.11050726701E+04  0.11050726701E+04  0.50400001928E-02 0.  1.
    10030    2    1    2    0    0  0.00000000000E+00  0.00000000000E+00  0.43661203718E+03  0.26467573774E+04  0.26104969917E+04 0.  0.
        5    1    3    3  502    0 -0.40676228482E+03 -0.10985601241E+04  0.80194199244E+03  0.14196559273E+04  0.46999998093E+01 0. -1.
       -5    1    3    3    0  502  0.40676228482E+03  0.10985601241E+04 -0.36532995527E+03  0.12271014501E+04  0.46999998093E+01 0.  1.
</event>
<event>
 5   0  0.5049803E-05  0.2433790E+04  0.7818609E-02  0.8426960E-01
       -2   -1    0    0    0  501  0.00000000000E+00  0.00000000000E+00  0.99738362636E+03  0.99738362636E+03  0.25500000920E-02 0. -1.
        2   -1    0    0  501    0  0.00000000000E+00  0.00000000000E+00 -0.14847176510E+04  0.14847176510E+04  0.25500000920E-02 0.  1.
    10030    2    1    2    0    0  0.00000000000E+00  0.00000000000E+00 -0.48733402467E+03  0.24821012774E+04  0.24337896991E+04 0.  0.
        4    1    3    3  502    0  0.37261603263E+03 -0.11484835302E+04 -0.89085366826E+02  0.12107001868E+04  0.12699999809E+01 0.  1.
       -4    1    3    3    0  502 -0.37261603263E+03  0.11484835302E+04 -0.39824865785E+03  0.12714010906E+04  0.12699999809E+01 0. -1.
</event>
<event>
 5   0  0.5049803E-05  0.2562411E+04  0.7818609E-02  0.8381083E-01
       -2   -1    0    0    0  501  0.00000000000E+00  0.00000000000E+00  0.12640649555E+04  0.12640649555E+04  0.25500000920E-02 0.  1.
        2   -1    0    0  501    0  0.00000000000E+00  0.00000000000E+00 -0.12985782625E+04  0.12985782625E+04  0.25500000920E-02 0. -1.
    10030    2    1    2    0    0  0.00000000000E+00  0.00000000000E+00 -0.34513306984E+02  0.25626432180E+04  0.25624107974E+04 0.  0.
        4    1    3    3  502    0  0.11430836480E+04  0.57187616741E+03  0.71086423359E+02  0.12801318173E+04  0.12699999809E+01 0.  1.
       -4    1    3    3    0  502 -0.11430836480E+04 -0.57187616741E+03 -0.10559973034E+03  0.12825114007E+04  0.12699999809E+01 0. -1.
</event>
<event>
 5   0  0.5036452E-05  0.2495962E+04  0.7818609E-02  0.8404425E-01
       -2   -1    0    0    0  501  0.00000000000E+00  0.00000000000E+00  0.13089850621E+04  0.13089850621E+04  0.25500000920E-02 0.  1.
        2   -1    0    0  501    0  0.00000000000E+00  0.00000000000E+00 -0.11898200231E+04  0.11898200231E+04  0.25500000920E-02 0. -1.
    10030    2    1    2    0    0  0.00000000000E+00  0.00000000000E+00  0.11916503898E+03  0.24988050852E+04  0.24959620485E+04 0.  0.
        2    1    3    3  502    0  0.37677171932E+03 -0.94655591388E+03  0.78118894540E+03  0.12838150938E+04  0.25500000920E-02 0.  1.
       -2    1    3    3    0  502 -0.37677171932E+03  0.94655591388E+03 -0.66202390643E+03  0.12149899914E+04  0.25500000920E-02 0. -1.
</event>
<event>
 5   0  0.1993815E-05  0.2071203E+04  0.7818609E-02  0.8574036E-01
       -1   -1    0    0    0  501  0.00000000000E+00  0.00000000000E+00  0.10342877283E+04  0.10342877283E+04  0.50400001928E-02 0.  1.
        1   -1    0    0  501    0  0.00000000000E+00  0.00000000000E+00 -0.10369168050E+04  0.10369168050E+04  0.50400001928E-02 0. -1.
    10030    2    1    2    0    0  0.00000000000E+00  0.00000000000E+00 -0.26290767458E+01  0.20712045333E+04  0.20712028647E+04 0.  0.
        5    1    3    3  502    0 -0.87083932251E+03 -0.84614723162E+02  0.55269625051E+03  0.10348990348E+04  0.46999998093E+01 0.  1.
       -5    1    3    3    0  502  0.87083932251E+03  0.84614723162E+02 -0.55532532725E+03  0.10363054984E+04  0.46999998093E+01 0. -1.
</event>
<event>
 5   0  0.5182179E-05  0.2973668E+04  0.7818609E-02  0.8251290E-01
       -2   -1    0    0    0  501  0.00000000000E+00  0.00000000000E+00  0.12564189420E+04  0.12564189420E+04  0.25500000920E-02 0. -1.
        2   -1    0    0  501    0  0.00000000000E+00  0.00000000000E+00 -0.17595048653E+04  0.17595048653E+04  0.25500000920E-02 0.  1.
    10030    2    1    2    0    0  0.00000000000E+00  0.00000000000E+00 -0.50308592331E+03  0.30159238073E+04  0.29736679312E+04 0.  0.
        3    1    3    3  502    0  0.43868051236E+03  0.29410376463E+03  0.11580767510E+04  0.12728233922E+04  0.10100000352E+00 0. -1.
       -3    1    3    3    0  502 -0.43868051236E+03 -0.29410376463E+03 -0.16611626743E+04  0.17431004151E+04  0.10100000352E+00 0.  1.
</event>
<event>
 5   0  0.1698625E-05  0.2602600E+04  0.7818609E-02  0.8367319E-01
        3   -1    0    0  501    0  0.00000000000E+00  0.00000000000E+00  0.17947325829E+04  0.17947325857E+04  0.10100000352E+00 0.  1.
       -3   -1    0    0    0  501  0.00000000000E+00  0.00000000000E+00 -0.94352844436E+03  0.94352844976E+03  0.10100000352E+00 0. -1.
    10030    2    1    2    0    0  0.00000000000E+00  0.00000000000E+00  0.85120413850E+03  0.27382610355E+04  0.26025996644E+04 0.  0.
        5    1    3    3  502    0  0.43533596609E+03 -0.88232032078E+03  0.13216723355E+04  0.16476790962E+04  0.46999998093E+01 0.  1.
       -5    1    3    3    0  502 -0.43533596609E+03  0.88232032078E+03 -0.47046819696E+03  0.10905819392E+04  0.46999998093E+01 0. -1.
</event>
<event>
 5   0  0.2159405E-05  0.1965635E+04  0.7818609E-02  0.8622858E-01
       -1   -1    0    0    0  501  0.00000000000E+00  0.00000000000E+00  0.12596685754E+04  0.12596685754E+04  0.50400001928E-02 0.  1.
        1   -1    0    0  501    0  0.00000000000E+00  0.00000000000E+00 -0.76681327134E+03  0.76681327136E+03  0.50400001928E-02 0. -1.
    10030    2    1    2    0    0  0.00000000000E+00  0.00000000000E+00  0.49285530408E+03  0.20264818468E+04  0.19656353488E+04 0.  0.
        3    1    3    3  502    0  0.81096172512E+03  0.33386052616E+02 -0.32494570932E+03  0.87427871547E+03  0.10100000352E+00 0. -1.
       -3    1    3    3    0  502 -0.81096172512E+03 -0.33386052616E+02  0.81780101340E+03  0.11522031313E+04  0.10100000352E+00 0.  1.
</event>
<event>
 5   0  0.5049803E-05  0.2505454E+04  0.7818609E-02  0.8401045E-01
       -2   -1    0    0    0  501  0.00000000000E+00  0.00000000000E+00  0.62542889662E+03  0.62542889662E+03  0.25500000920E-02 0.  1.
        2   -1    0    0  501    0  0.00000000000E+00  0.00000000000E+00 -0.25091988590E+04  0.25091988590E+04  0.25500000920E-02 0. -1.
    10030    2    1    2    0    0  0.00000000000E+00  0.00000000000E+00 -0.18837699623E+04  0.31346277556E+04  0.25054544289E+04 0.  0.
        4    1    3    3  502    0  0.72528750524E+03 -0.50512283233E+03  0.16882116067E+03  0.89982956063E+03  0.12699999809E+01 0.  1.
       -4    1    3    3    0  502 -0.72528750524E+03  0.50512283233E+03 -0.20525911230E+04  0.22347981950E+04  0.12699999809E+01 0. -1.
</event>
<event>
 5   0  0.1954502E-05  0.2623595E+04  0.7818609E-02  0.8360230E-01
        1   -1    0    0  501    0  0.00000000000E+00  0.00000000000E+00  0.17112774349E+04  0.17112774349E+04  0.50400001928E-02 0. -1.
       -1   -1    0    0    0  501  0.00000000000E+00  0.00000000000E+00 -0.10055720133E+04  0.10055720133E+04  0.50400001928E-02 0.  1.
    10030    2    1    2    0    0  0.00000000000E+00  0.00000000000E+00  0.70570542155E+03  0.27168494482E+04  0.26235950111E+04 0.  0.
        4    1    3    3  502    0 -0.82350392666E+03  0.76198632344E+03 -0.35103517744E+03  0.11755888665E+04  0.12699999809E+01 0.  1.
       -4    1    3    3    0  502  0.82350392666E+03 -0.76198632344E+03  0.10567405990E+04  0.15412605817E+04  0.12699999809E+01 0. -1.
</event>
<event>
 5   0  0.2159405E-05  0.2611713E+04  0.7818609E-02  0.8364234E-01
       -1   -1    0    0    0  501  0.00000000000E+00  0.00000000000E+00  0.59861111787E+03  0.59861111789E+03  0.50400001928E-02 0. -1.
        1   -1    0    0  501    0  0.00000000000E+00  0.00000000000E+00 -0.28486954453E+04  0.28486954453E+04  0.50400001928E-02 0.  1.
    10030    2    1    2    0    0  0.00000000000E+00  0.00000000000E+00 -0.22500843275E+04  0.34473065632E+04  0.26117126680E+04 0.  0.
        3    1    3    3  502    0  0.71903785594E+03 -0.63431976053E+03 -0.22951709600E+04  0.24874056249E+04  0.10100000352E+00 0.  1.
       -3    1    3    3    0  502 -0.71903785594E+03  0.63431976053E+03  0.45086632513E+02  0.95990093838E+03  0.10100000352E+00 0. -1.
</event>
<event>
 5   0  0.5036452E-05  0.2859711E+04  0.7818609E-02  0.8284967E-01
        2   -1    0    0  501    0  0.00000000000E+00  0.00000000000E+00  0.94104179631E+03  0.94104179631E+03  0.25500000920E-02 0.  1.
       -2   -1    0    0    0  501  0.00000000000E+00  0.00000000000E+00 -0.21725779356E+04  0.21725779356E+04  0.25500000920E-02 0. -1.
    10030    2    1    2    0    0  0.00000000000E+00  0.00000000000E+00 -0.12315361393E+04  0.31136197319E+04  0.28597109246E+04 0.  0.
        2    1    3    3  502    0 -0.10253842188E+04 -0.84419979216E+02  0.46534283137E+03  0.11291959440E+04  0.25500000920E-02 0.  1.
       -2    1    3    3    0  502  0.10253842188E+04  0.84419979216E+02 -0.16968789706E+04  0.19844237879E+04  0.25500000920E-02 0. -1.
</event>
<event>
 5   0  0.2159405E-05  0.2574843E+04  0.7818609E-02  0.8376797E-01
        1   -1    0    0  501    0  0.00000000000E+00  0.00000000000E+00  0.92074242144E+03  0.92074242145E+03  0.50400001928E-02 0. -1.
       -1   -1    0    0    0  501  0.00000000000E+00  0.00000000000E+00 -0.18001281834E+04  0.18001281835E+04  0.50400001928E-02 0.  1.
    10030    2    1    2    0    0  0.00000000000E+00  0.00000000000E+00 -0.87938576201E+03  0.27208706049E+04  0.25748432050E+04 0.  0.
        3    1    3    3  502    0  0.32071966286E+02  0.18532578232E+03 -0.17855323209E+04  0.17954107986E+04  0.10100000352E+00 0.  1.
       -3    1    3    3    0  502 -0.32071966286E+02 -0.18532578232E+03  0.90614655890E+03  0.92545980627E+03  0.10100000352E+00 0. -1.
</event>
<event>
 5   0  0.5049803E-05  0.2569224E+04  0.7818609E-02  0.8378731E-01
       -2   -1    0    0    0  501  0.00000000000E+00  0.00000000000E+00  0.12491479844E+04  0.12491479845E+04  0.25500000920E-02 0.  1.
        2   -1    0    0  501    0  0.00000000000E+00  0.00000000000E+00 -0.13210825962E+04  0.13210825962E+04  0.25500000920E-02 0. -1.
    10030    2    1    2    0    0  0.00000000000E+00  0.00000000000E+00 -0.71934611725E+02  0.25702305806E+04  0.25692237445E+04 0.  0.
        4    1    3    3  502    0 -0.80887638271E+03 -0.56854634719E+03 -0.85647168812E+03  0.13080792472E+04  0.12699999809E+01 0. -1.
       -4    1    3    3    0  502  0.80887638271E+03  0.56854634719E+03  0.78453707639E+03  0.12621513335E+04  0.12699999809E+01 0.  1.
</event>
<event>
 5   0  0.5170532E-05  0.2523471E+04  0.7818609E-02  0.8394671E-01
       -2   -1    0    0    0  501  0.00000000000E+00  0.00000000000E+00  0.11286592451E+04  0.11286592451E+04  0.25500000920E-02 0.  1.
        2   -1    0    0  501    0  0.00000000000E+00  0.00000000000E+00 -0.14105019016E+04  0.14105019016E+04  0.25500000920E-02 0. -1.
    10030    2    1    2    0    0  0.00000000000E+00  0.00000000000E+00 -0.28184265651E+03  0.25391611467E+04  0.25234706350E+04 0.  0.
        1    1    3    3  502    0 -0.23059758766E+03  0.11052256104E+04 -0.70769723711E+03  0.13324917549E+04  0.50400001928E-02 0. -1.
       -1    1    3    3    0  502  0.23059758766E+03 -0.11052256104E+04  0.42585458059E+03  0.12066693918E+04  0.50400001928E-02 0.  1.
</event>
<event>
 5   0  0.5182179E-05  0.2492703E+04  0.7818609E-02  0.8405590E-01
        2   -1    0    0  501    0  0.00000000000E+00  0.00000000000E+00  0.16500214638E+04  0.16500214638E+04  0.25500000920E-02 0. -1.
       -2   -1    0    0    0  501  0.00000000000E+00  0.00000000000E+00 -0.94143737411E+03  0.94143737411E+03  0.25500000920E-02 0.  1.
    10030    2    1    2    0    0  0.00000000000E+00  0.00000000000E+00  0.70858408970E+03  0.25914588379E+04  0.24927028496E+04 0.  0.
        3    1    3    3  502    0  0.45067171738E+03 -0.37910543648E+03  0.14962479502E+04  0.16079750830E+04  0.10100000352E+00 0. -1.
       -3    1    3    3    0  502 -0.45067171738E+03  0.37910543648E+03 -0.78766386052E+03  0.98348375492E+03  0.10100000352E+00 0.  1.
</event>
<event>
 5   0  0.5182179E-05  0.2501206E+04  0.7818609E-02  0.8402556E-01
        2   -1    0    0  501    0  0.00000000000E+00  0.00000000000E+00  0.12653604061E+04  0.12653604061E+04  0.25500000920E-02 0.  1.
       -2   -1    0    0    0  501  0.00000000000E+00  0.00000000000E+00 -0.12360173843E+04  0.12360173843E+04  0.25500000920E-02 0. -1.
    10030    2    1    2    0    0  0.00000000000E+00  0.00000000000E+00  0.29343021788E+02  0.25013777904E+04  0.25012056768E+04 0.  0.
        3    1    3    3  502    0 -0.41913002399E+03  0.97638328433E+03 -0.64492914464E+03  0.12429512890E+04  0.10100000352E+00 0.  1.
       -3    1    3    3    0  502  0.41913002399E+03 -0.97638328433E+03  0.67427216643E+03  0.12584265015E+04  0.10100000352E+00 0. -1.
</event>
<event>
 5   0  0.4955675E-05  0.2586065E+04  0.7818609E-02  0.8372950E-01
        2   -1    0    0  501    0  0.00000000000E+00  0.00000000000E+00  0.13397606358E+04  0.13397606358E+04  0.25500000920E-02 0.  1.
       -2   -1    0    0    0  501  0.00000000000E+00  0.00000000000E+00 -0.12479345689E+04  0.12479345689E+04  0.25500000920E-02 0. -1.
    10030    2    1    2    0    0  0.00000000000E+00  0.00000000000E+00  0.91826066868E+02  0.25876952047E+04  0.25860654373E+04 0.  0.
        5    1    3    3  502    0  0.62333391012E+03  0.84038368319E+03  0.80607700865E+03  0.13208225211E+04  0.46999998093E+01 0.  1.
       -5    1    3    3    0  502 -0.62333391012E+03 -0.84038368319E+03 -0.71425094178E+03  0.12668726835E+04  0.46999998093E+01 0. -1.
</event>
<event>
 5   0  0.2159405E-05  0.2140384E+04  0.7818609E-02  0.8543660E-01
       -1   -1    0    0    0  501  0.00000000000E+00  0.00000000000E+00  0.11658237723E+04  0.11658237723E+04  0.50400001928E-02 0. -1.
        1   -1    0    0  501    0  0.00000000000E+00  0.00000000000E+00 -0.98240479346E+03  0.98240479347E+03  0.50400001928E-02 0.  1.
    10030    2    1    2    0    0  0.00000000000E+00  0.00000000000E+00  0.18341897884E+03  0.21482285658E+04  0.21403839490E+04 0.  0.
        3    1    3    3  502    0 -0.45142288775E+03  0.96741449134E+03  0.16706749558E+03  0.10805484626E+04  0.10100000352E+00 0. -1.
       -3    1    3    3    0  502  0.45142288775E+03 -0.96741449134E+03  0.16351483261E+02  0.10676801032E+04  0.10100000352E+00 0.  1.
</event>
<event>
 5   0  0.1954502E-05  0.2525854E+04  0.7818609E-02  0.8393833E-01
        1   -1    0    0  501    0  0.00000000000E+00  0.00000000000E+00  0.82248514922E+03  0.82248514924E+03  0.50400001928E-02 0.  1.
       -1   -1    0    0    0  501  0.00000000000E+00  0.00000000000E+00 -0.19392253624E+04  0.19392253624E+04  0.50400001928E-02 0. -1.
    10030    2    1    2    0    0  0.00000000000E+00  0.00000000000E+00 -0.11167402132E+04  0.27617105116E+04  0.25258535679E+04 0.  0.
        4    1    3    3  502    0 -0.11697803803E+04 -0.35751171355E+02 -0.39369236836E+02  0.11709892545E+04  0.12699999809E+01 0.  1.
       -4    1    3    3    0  502  0.11697803803E+04  0.35751171355E+02 -0.10773709763E+04  0.15907212571E+04  0.12699999809E+01 0. -1.
</event>
<event>
 5   0  0.5049803E-05  0.2585681E+04  0.7818609E-02  0.8373081E-01
       -2   -1    0    0    0  501  0.00000000000E+00  0.00000000000E+00  0.84465588408E+03  0.84465588408E+03  0.25500000920E-02 0.  1.
        2   -1    0    0  501    0  0.00000000000E+00  0.00000000000E+00 -0.19788374994E+04  0.19788374994E+04  0.25500000920E-02 0. -1.
    10030    2    1    2    0    0  0.00000000000E+00  0.00000000000E+00 -0.11341816153E+04  0.28234933835E+04  0.25856811385E+04 0.  0.
        4    1    3    3  502    0  0.53395412974E+03 -0.11388427768E+04 -0.24065625351E+03  0.12806197438E+04  0.12699999809E+01 0. -1.
       -4    1    3    3    0  502 -0.53395412974E+03  0.11388427768E+04 -0.89352536181E+03  0.15428736397E+04  0.12699999809E+01 0.  1.
</event>
<event>
 5   0  0.2159405E-05  0.2725219E+04  0.7818609E-02  0.8326868E-01
        1   -1    0    0  501    0  0.00000000000E+00  0.00000000000E+00  0.12717783894E+04  0.12717783894E+04  0.50400001928E-02 0.  1.
       -1   -1    0    0    0  501  0.00000000000E+00  0.00000000000E+00 -0.14599275206E+04  0.14599275206E+04  0.50400001928E-02 0. -1.
    10030    2    1    2    0    0  0.00000000000E+00  0.00000000000E+00 -0.18814913116E+03  0.27317059100E+04  0.27252187221E+04 0.  0.
        3    1    3    3  502    0 -0.26939768539E+02  0.11805461064E+03  0.12663745339E+04  0.12721505857E+04  0.10100000352E+00 0.  1.
       -3    1    3    3    0  502  0.26939768539E+02 -0.11805461064E+03 -0.14545236651E+04  0.14595553243E+04  0.10100000352E+00 0. -1.
</event>
<event>
 5   0  0.1954502E-05  0.2519272E+04  0.7818609E-02  0.8396152E-01
        1   -1    0    0  501    0  0.00000000000E+00  0.00000000000E+00  0.12527559065E+04  0.12527559065E+04  0.50400001928E-02 0.  1.
       -1   -1    0    0    0  501  0.00000000000E+00  0.00000000000E+00 -0.12665542804E+04  0.12665542804E+04  0.50400001928E-02 0. -1.
    10030    2    1    2    0    0  0.00000000000E+00  0.00000000000E+00 -0.13798373912E+02  0.25193101868E+04  0.25192723994E+04 0.  0.
        4    1    3    3  502    0 -0.12223489963E+04 -0.10250357947E+03 -0.29332570678E+03  0.12612238642E+04  0.12699999809E+01 0.  1.
       -4    1    3    3    0  502  0.12223489963E+04  0.10250357947E+03  0.27952733287E+03  0.12580863226E+04  0.12699999809E+01 0. -1.
</event>
<event>
 5   0  0.1993815E-05  0.2801546E+04  0.7818609E-02  0.8302789E-01
        1   -1    0    0  501    0  0.00000000000E+00  0.00000000000E+00  0.28981888009E+04  0.28981888009E+04  0.50400001928E-02 0.  1.
       -1   -1    0    0    0  501  0.00000000000E+00  0.00000000000E+00 -0.67703147034E+03  0.67703147036E+03  0.50400001928E-02 0. -1.
    10030    2    1    2    0    0  0.00000000000E+00  0.00000000000E+00  0.22211573306E+04  0.35752202713E+04  0.28015460198E+04 0.  0.
        5    1    3    3  502    0 -0.35631262847E+03 -0.82518053116E+03 -0.26048340878E+03  0.93581798148E+03  0.46999998093E+01 0. -1.
       -5    1    3    3    0  502  0.35631262847E+03  0.82518053116E+03  0.24816407394E+04  0.26394022898E+04  0.46999998093E+01 0.  1.
</event>
<event>
 5   0  0.2159405E-05  0.2564304E+04  0.7818609E-02  0.8380428E-01
        1   -1    0    0  501    0  0.00000000000E+00  0.00000000000E+00  0.15978516458E+04  0.15978516458E+04  0.50400001928E-02 0. -1.
       -1   -1    0    0    0  501  0.00000000000E+00  0.00000000000E+00 -0.10288274524E+04  0.10288274524E+04  0.50400001928E-02 0.  1.
    10030    2    1    2    0    0  0.00000000000E+00  0.00000000000E+00  0.56902419337E+03  0.26266790982E+04  0.25643039118E+04 0.  0.
        3    1    3    3  502    0  0.10048231456E+04 -0.55982463113E+03 -0.29569373020E+03  0.11876480808E+04  0.10100000352E+00 0.  1.
       -3    1    3    3    0  502 -0.10048231456E+04  0.55982463113E+03  0.86471792357E+03  0.14390310174E+04  0.10100000352E+00 0. -1.
</event>
<event>
 5   0  0.1993815E-05  0.2661343E+04  0.7818609E-02  0.8347658E-01
       -1   -1    0    0    0  501  0.00000000000E+00  0.00000000000E+00  0.11579760292E+04  0.11579760292E+04  0.50400001928E-02 0.  1.
        1   -1    0    0  501    0  0.00000000000E+00  0.00000000000E+00 -0.15291215369E+04  0.15291215369E+04  0.50400001928E-02 0. -1.
    10030    2    1    2    0    0  0.00000000000E+00  0.00000000000E+00 -0.37114550772E+03  0.26870975661E+04  0.26613425826E+04 0.  0.
        5    1    3    3  502    0 -0.65708613245E+02 -0.28434831646E+03  0.11252562829E+04  0.11624953243E+04  0.46999998093E+01 0.  1.
       -5    1    3    3    0  502  0.65708613245E+02  0.28434831646E+03 -0.14964017906E+04  0.15246022418E+04  0.46999998093E+01 0. -1.
</event>
<event>
 5   0  0.2072710E-05  0.2581734E+04  0.7818609E-02  0.8374432E-01
       -1   -1    0    0    0  501  0.00000000000E+00  0.00000000000E+00  0.28371738919E+04  0.28371738919E+04  0.50400001928E-02 0.  1.
        1   -1    0    0  501    0  0.00000000000E+00  0.00000000000E+00 -0.58732297088E+03  0.58732297090E+03  0.50400001928E-02 0. -1.
    10030    2    1    2    0    0  0.00000000000E+00  0.00000000000E+00  0.22498509210E+04  0.34244968628E+04  0.25817338353E+04 0.  0.
        2    1    3    3  502    0  0.65093772815E+03 -0.29842854444E+03  0.25495650234E+04  0.26482185202E+04  0.25500000920E-02 0.  1.
       -2    1    3    3    0  502 -0.65093772815E+03  0.29842854444E+03 -0.29971410238E+03  0.77627834263E+03  0.25500000920E-02 0. -1.
</event>
<event>
 5   0  0.2072710E-05  0.2638126E+04  0.7818609E-02  0.8355365E-01
        1   -1    0    0  501    0  0.00000000000E+00  0.00000000000E+00  0.17246944938E+04  0.17246944938E+04  0.50400001928E-02 0. -1.
       -1   -1    0    0    0  501  0.00000000000E+00  0.00000000000E+00 -0.10088321817E+04  0.10088321817E+04  0.50400001928E-02 0.  1.
    10030    2    1    2    0    0  0.00000000000E+00  0.00000000000E+00  0.71586231208E+03  0.27335266756E+04  0.26381260842E+04 0.  0.
        2    1    3    3  502    0  0.35057230155E+02  0.68298203459E+03 -0.81079089971E+03  0.10606956925E+04  0.25500000920E-02 0.  1.
       -2    1    3    3    0  502 -0.35057230155E+02 -0.68298203459E+03  0.15266532118E+04  0.16728309831E+04  0.25500000920E-02 0. -1.
</event>
<event>
 5   0  0.4955675E-05  0.1570705E+04  0.7818609E-02  0.8838750E-01
        2   -1    0    0  501    0  0.00000000000E+00  0.00000000000E+00  0.54783886467E+03  0.54783886468E+03  0.25500000920E-02 0. -1.
       -2   -1    0    0    0  501  0.00000000000E+00  0.00000000000E+00 -0.11258395246E+04  0.11258395246E+04  0.25500000920E-02 0.  1.
    10030    2    1    2    0    0  0.00000000000E+00  0.00000000000E+00 -0.57800065996E+03  0.16736783893E+04  0.15707051244E+04 0.  0.
        5    1    3    3  502    0  0.92500492134E+02  0.19802973241E+03  0.51476180574E+03  0.55926194454E+03  0.46999998093E+01 0. -1.
       -5    1    3    3    0  502 -0.92500492134E+02 -0.19802973241E+03 -0.10927624657E+04  0.11144164448E+04  0.46999998093E+01 0.  1.
</event>
<event>
 5   0  0.2159405E-05  0.2600365E+04  0.7818609E-02  0.8368077E-01
       -1   -1    0    0    0  501  0.00000000000E+00  0.00000000000E+00  0.12125208998E+04  0.12125208999E+04  0.50400001928E-02 0.  1.
        1   -1    0    0  501    0  0.00000000000E+00  0.00000000000E+00 -0.13941815408E+04  0.13941815408E+04  0.50400001928E-02 0. -1.
    10030    2    1    2    0    0  0.00000000000E+00  0.00000000000E+00 -0.18166064095E+03  0.26067024406E+04  0.26003647870E+04 0.  0.
        3    1    3    3  502    0  0.10512635618E+03  0.10901969016E+04  0.61151514627E+03  0.12544048866E+04  0.10100000352E+00 0.  1.
       -3    1    3    3    0  502 -0.10512635618E+03 -0.10901969016E+04 -0.79317578722E+03  0.13522975541E+04  0.10100000352E+00 0. -1.
</event>
<event>
 5   0  0.4955675E-05  0.2614012E+04  0.7818609E-02  0.8363457E-01
       -2   -1    0    0    0  501  0.00000000000E+00  0.00000000000E+00  0.81244245569E+03  0.81244245570E+03  0.25500000920E-02 0.  1.
        2   -1    0    0  501    0  0.00000000000E+00  0.00000000000E+00 -0.21026287543E+04  0.21026287543E+04  0.25500000920E-02 0. -1.
    10030    2    1    2    0    0  0.00000000000E+00  0.00000000000E+00 -0.12901862986E+04  0.29150712100E+04  0.26140121412E+04 0.  0.
        5    1    3    3  502    0  0.57065228023E+03 -0.97427719708E+03  0.89044254711E+02  0.11326124893E+04  0.46999998093E+01 0.  1.
       -5    1    3    3    0  502 -0.57065228023E+03  0.97427719708E+03 -0.13792305533E+04  0.17824587207E+04  0.46999998093E+01 0. -1.
</event>
<event>
 5   0  0.2159405E-05  0.2626961E+04  0.7818609E-02  0.8359101E-01
       -1   -1    0    0    0  501  0.00000000000E+00  0.00000000000E+00  0.12460130743E+04  0.12460130743E+04  0.50400001928E-02 0.  1.
        1   -1    0    0  501    0  0.00000000000E+00  0.00000000000E+00 -0.13846007857E+04  0.13846007857E+04  0.50400001928E-02 0. -1.
    10030    2    1    2    0    0  0.00000000000E+00  0.00000000000E+00 -0.13858771137E+03  0.26306138600E+04  0.26269607394E+04 0.  0.
        3    1    3    3  502    0 -0.12210506125E+04  0.33885975965E+03 -0.41537558103E+03  0.13335394327E+04  0.10100000352E+00 0. -1.
       -3    1    3    3    0  502  0.12210506125E+04 -0.33885975965E+03  0.27678786965E+03  0.12970744273E+04  0.10100000352E+00 0.  1.
</event>
<event>
 5   0  0.5049803E-05  0.2614619E+04  0.7818609E-02  0.8363252E-01
       -2   -1    0    0    0  501  0.00000000000E+00  0.00000000000E+00  0.12085861441E+04  0.12085861441E+04  0.25500000920E-02 0. -1.
        2   -1    0    0  501    0  0.00000000000E+00  0.00000000000E+00 -0.14140967002E+04  0.14140967002E+04  0.25500000920E-02 0.  1.
    10030    2    1    2    0    0  0.00000000000E+00  0.00000000000E+00 -0.20551055610E+03  0.26226828444E+04  0.26146186555E+04 0.  0.
        4    1    3    3  502    0  0.70936619809E+03 -0.10980523788E+04 -0.11448046860E+03  0.13122601953E+04  0.12699999809E+01 0.  1.
       -4    1    3    3    0  502 -0.70936619809E+03  0.10980523788E+04 -0.91030087498E+02  0.13104226491E+04  0.12699999809E+01 0. -1.
</event>
<event>
 5   0  0.1954502E-05  0.1423789E+04  0.7818609E-02  0.8936777E-01
        1   -1    0    0  501    0  0.00000000000E+00  0.00000000000E+00  0.43574989158E+03  0.43574989161E+03  0.50400001928E-02 0. -1.
       -1   -1    0    0    0  501  0.00000000000E+00  0.00000000000E+00 -0.11630375684E+04  0.11630375684E+04  0.50400001928E-02 0.  1.
    10030    2    1    2    0    0  0.00000000000E+00  0.00000000000E+00 -0.72728767681E+03  0.15987874600E+04  0.14237886000E+04 0.  0.
        4    1    3    3  502    0 -0.33763221459E+02  0.46561437250E+03 -0.96715499626E+03  0.10739306769E+04  0.12699999809E+01 0.  1.
       -4    1    3    3    0  502  0.33763221459E+02 -0.46561437250E+03  0.23986731944E+03  0.52485678317E+03  0.12699999809E+01 0. -1.
</event>
<event>
 5   0  0.5049803E-05  0.2482148E+04  0.7818609E-02  0.8409373E-01
       -2   -1    0    0    0  501  0.00000000000E+00  0.00000000000E+00  0.71586250328E+03  0.71586250328E+03  0.25500000920E-02 0. -1.
        2   -1    0    0  501    0  0.00000000000E+00  0.00000000000E+00 -0.21516202296E+04  0.21516202296E+04  0.25500000920E-02 0.  1.
    10030    2    1    2    0    0  0.00000000000E+00  0.00000000000E+00 -0.14357577264E+04  0.28674827329E+04  0.24821476537E+04 0.  0.
        4    1    3    3  502    0  0.11121539539E+04 -0.15312777781E+02 -0.81821824270E+02  0.11152655837E+04  0.12699999809E+01 0. -1.
       -4    1    3    3    0  502 -0.11121539539E+04  0.15312777781E+02 -0.13539359021E+04  0.17522171493E+04  0.12699999809E+01 0.  1.
</event>
<event>
 5   0  0.5036452E-05  0.2622239E+04  0.7818609E-02  0.8360686E-01
       -2   -1    0    0    0  501  0.00000000000E+00  0.00000000000E+00  0.13311784225E+04  0.13311784225E+04  0.25500000920E-02 0. -1.
        2   -1    0    0  501    0  0.00000000000E+00  0.00000000000E+00 -0.12913627975E+04  0.12913627975E+04  0.25500000920E-02 0.  1.
    10030    2    1    2    0    0  0.00000000000E+00  0.00000000000E+00  0.39815625063E+02  0.26225412200E+04  0.26222389606E+04 0.  0.
        2    1    3    3  502    0 -0.35302572233E+03 -0.31136357582E+03  0.12437562884E+04  0.13298511729E+04  0.25500000920E-02 0. -1.
       -2    1    3    3    0  502  0.35302572233E+03  0.31136357582E+03 -0.12039406634E+04  0.12926900471E+04  0.25500000920E-02 0.  1.
</event>
<event>
 5   0  0.2163800E-05  0.2551902E+04  0.7818609E-02  0.8384725E-01
       -1   -1    0    0    0  501  0.00000000000E+00  0.00000000000E+00  0.13786980844E+04  0.13786980844E+04  0.50400001928E-02 0.  1.
        1   -1    0    0  501    0  0.00000000000E+00  0.00000000000E+00 -0.11808611013E+04  0.11808611013E+04  0.50400001928E-02 0. -1.
    10030    2    1    2    0    0  0.00000000000E+00  0.00000000000E+00  0.19783698314E+03  0.25595591858E+04  0.25519019874E+04 0.  0.
        1    1    3    3  502    0 -0.39781973367E+03  0.58271249394E+03 -0.96739734559E+03  0.11973604367E+04  0.50400001928E-02 0. -1.
       -1    1    3    3    0  502  0.39781973367E+03 -0.58271249394E+03  0.11652343287E+04  0.13621987491E+04  0.50400001928E-02 0.  1.
</event>
<event>
 5   0  0.2163800E-05  0.2612480E+04  0.7818609E-02  0.8363975E-01
       -1   -1    0    0    0  501  0.00000000000E+00  0.00000000000E+00  0.11024892968E+04  0.11024892968E+04  0.50400001928E-02 0. -1.
        1   -1    0    0  501    0  0.00000000000E+00  0.00000000000E+00 -0.15476452432E+04  0.15476452432E+04  0.50400001928E-02 0.  1.
    10030    2    1    2    0    0  0.00000000000E+00  0.00000000000E+00 -0.44515594647E+03  0.26501345400E+04  0.26124795240E+04 0.  0.
        1    1    3    3  502    0  0.10234230191E+04  0.44881519821E+03  0.46350803613E+03  0.12098220769E+04  0.50400001928E-02 0. -1.
       -1    1    3    3    0  502 -0.10234230191E+04 -0.44881519821E+03 -0.90866398261E+03  0.14403124631E+04  0.50400001928E-02 0.  1.
</event>
<event>
 5   0  0.4955675E-05  0.2569738E+04  0.7818609E-02  0.8378554E-01
       -2   -1    0    0    0  501  0.00000000000E+00  0.00000000000E+00  0.75204134908E+03  0.75204134909E+03  0.25500000920E-02 0.  1.
        2   -1    0    0  501    0  0.00000000000E+00  0.00000000000E+00 -0.21952100782E+04  0.21952100782E+04  0.25500000920E-02 0. -1.
    10030    2    1    2    0    0  0.00000000000E+00  0.00000000000E+00 -0.14431687291E+04  0.29472514273E+04  0.25697383126E+04 0.  0.
        5    1    3    3  502    0 -0.46581700061E+03  0.35405270685E+03 -0.20335418878E+04  0.21160466669E+04  0.46999998093E+01 0. -1.
       -5    1    3    3    0  502  0.46581700061E+03 -0.35405270685E+03  0.59037315862E+03  0.83120476039E+03  0.46999998093E+01 0.  1.
</event>
<event>
 5   0  0.5182179E-05  0.2607042E+04  0.7818609E-02  0.8365813E-01
        2   -1    0    0  501    0  0.00000000000E+00  0.00000000000E+00  0.13054971603E+04  0.13054971603E+04  0.25500000920E-02 0. -1.
       -2   -1    0    0    0  501  0.00000000000E+00  0.00000000000E+00 -0.13015475100E+04  0.13015475100E+04  0.25500000920E-02 0.  1.
    10030    2    1    2    0    0  0.00000000000E+00  0.00000000000E+00  0.39496503206E+01  0.26070446703E+04  0.26070416785E+04 0.  0.
        3    1    3    3  502    0  0.62223279764E+03  0.28362538432E+03 -0.11077784725E+04  0.13018410684E+04  0.10100000352E+00 0.  1.
       -3    1    3    3    0  502 -0.62223279764E+03 -0.28362538432E+03  0.11117281228E+04  0.13052036019E+04  0.10100000352E+00 0. -1.
</event>
<event>
 5   0  0.4955675E-05  0.2355153E+04  0.7818609E-02  0.8456487E-01
        2   -1    0    0  501    0  0.00000000000E+00  0.00000000000E+00  0.16357856746E+04  0.16357856746E+04  0.25500000920E-02 0. -1.
       -2   -1    0    0    0  501  0.00000000000E+00  0.00000000000E+00 -0.84771875988E+03  0.84771875988E+03  0.25500000920E-02 0.  1.
    10030    2    1    2    0    0  0.00000000000E+00  0.00000000000E+00  0.78806691475E+03  0.24835044345E+04  0.23551528218E+04 0.  0.
        5    1    3    3  502    0 -0.97617021464E+03  0.65214508280E+03  0.29702755083E+03  0.12109702527E+04  0.46999998093E+01 0. -1.
       -5    1    3    3    0  502  0.97617021464E+03 -0.65214508280E+03  0.49103936392E+03  0.12725341818E+04  0.46999998093E+01 0.  1.
</event>
<event>
 5   0  0.2072710E-05  0.1617748E+04  0.7818609E-02  0.8809718E-01
       -1   -1    0    0    0  501  0.00000000000E+00  0.00000000000E+00  0.99626664141E+03  0.99626664142E+03  0.50400001928E-02 0.  1.
        1   -1    0    0  501    0  0.00000000000E+00  0.00000000000E+00 -0.65672906222E+03  0.65672906224E+03  0.50400001928E-02 0. -1.
    10030    2    1    2    0    0  0.00000000000E+00  0.00000000000E+00  0.33953757919E+03  0.16529957037E+04  0.16177481351E+04 0.  0.
        2    1    3    3  502    0 -0.35312665434E+03  0.75783232486E+02  0.90930317813E+03  0.97840370098E+03  0.25500000920E-02 0.  1.
       -2    1    3    3    0  502  0.35312665434E+03 -0.75783232486E+02 -0.56976559894E+03  0.67459200268E+03  0.25500000920E-02 0. -1.
</event>
<event>
 5   0  0.5049803E-05  0.2617838E+04  0.7818609E-02  0.8362167E-01
       -2   -1    0    0    0  501  0.00000000000E+00  0.00000000000E+00  0.13233289053E+04  0.13233289053E+04  0.25500000920E-02 0. -1.
        2   -1    0    0  501    0  0.00000000000E+00  0.00000000000E+00 -0.12946662483E+04  0.12946662483E+04  0.25500000920E-02 0.  1.
    10030    2    1    2    0    0  0.00000000000E+00  0.00000000000E+00  0.28662657012E+02  0.26179951535E+04  0.26178382448E+04 0.  0.
        4    1    3    3  502    0  0.28609738636E+03 -0.55484350271E+03  0.11648630744E+04  0.13215939701E+04  0.12699999809E+01 0. -1.
       -4    1    3    3    0  502 -0.28609738636E+03  0.55484350271E+03 -0.11362004174E+04  0.12964011834E+04  0.12699999809E+01 0.  1.
</event>
<event>
 5   0  0.2159405E-05  0.2432533E+04  0.7818609E-02  0.8427423E-01
        1   -1    0    0  501    0  0.00000000000E+00  0.00000000000E+00  0.12194847301E+04  0.12194847302E+04  0.50400001928E-02 0. -1.
       -1   -1    0    0    0  501  0.00000000000E+00  0.00000000000E+00 -0.12130565230E+04  0.12130565230E+04  0.50400001928E-02 0.  1.
    10030    2    1    2    0    0  0.00000000000E+00  0.00000000000E+00  0.64282071642E+01  0.24325412532E+04  0.24325327596E+04 0.  0.
        3    1    3    3  502    0 -0.84945467639E+03 -0.25822359670E+03  0.83451191370E+03  0.12184674052E+04  0.10100000352E+00 0. -1.
       -3    1    3    3    0  502  0.84945467639E+03  0.25822359670E+03 -0.82808370654E+03  0.12140738480E+04  0.10100000352E+00 0.  1.
</event>
<event>
 5   0  0.5182179E-05  0.1517243E+04  0.7818609E-02  0.8873067E-01
       -2   -1    0    0    0  501  0.00000000000E+00  0.00000000000E+00  0.60851601014E+03  0.60851601015E+03  0.25500000920E-02 0.  1.
        2   -1    0    0  501    0  0.00000000000E+00  0.00000000000E+00 -0.94575411209E+03  0.94575411209E+03  0.25500000920E-02 0. -1.
    10030    2    1    2    0    0  0.00000000000E+00  0.00000000000E+00 -0.33723810194E+03  0.15542701222E+04  0.15172429191E+04 0.  0.
        3    1    3    3  502    0  0.18218976498E+03 -0.32309471056E+03 -0.84652642678E+03  0.92422416323E+03  0.10100000352E+00 0. -1.
       -3    1    3    3    0  502 -0.18218976498E+03  0.32309471056E+03  0.50928832483E+03  0.63004595901E+03  0.10100000352E+00 0.  1.
</event>
<event>
 5   0  0.2163800E-05  0.2573623E+04  0.7818609E-02  0.8377217E-01
       -1   -1    0    0    0  501  0.00000000000E+00  0.00000000000E+00  0.73669905996E+03  0.73669905998E+03  0.50400001928E-02 0. -1.
        1   -1    0    0  501    0  0.00000000000E+00  0.00000000000E+00 -0.22477065890E+04  0.22477065890E+04  0.50400001928E-02 0.  1.
    10030    2    1    2    0    0  0.00000000000E+00  0.00000000000E+00 -0.15110075290E+04  0.29844056490E+04  0.25736226073E+04 0.  0.
        1    1    3    3  502    0  0.50964304570E+03 -0.10824141604E+04 -0.20602974370E+03  0.12140035848E+04  0.50400001928E-02 0.  1.
       -1    1    3    3    0  502 -0.50964304570E+03  0.10824141604E+04 -0.13049777853E+04  0.17704020642E+04  0.50400001928E-02 0. -1.
</event>
<event>
 5   0  0.4955675E-05  0.2562696E+04  0.7818609E-02  0.8380984E-01
       -2   -1    0    0    0  501  0.00000000000E+00  0.00000000000E+00  0.88033137721E+03  0.88033137721E+03  0.25500000920E-02 0. -1.
        2   -1    0    0  501    0  0.00000000000E+00  0.00000000000E+00 -0.18650396388E+04  0.18650396388E+04  0.25500000920E-02 0.  1.
    10030    2    1    2    0    0  0.00000000000E+00  0.00000000000E+00 -0.98470826158E+03  0.27453710160E+04  0.25626961691E+04 0.  0.
        5    1    3    3  502    0 -0.30007883578E+03 -0.85162687608E+03  0.48157945332E+03  0.10233555118E+04  0.46999998093E+01 0. -1.
       -5    1    3    3    0  502  0.30007883578E+03  0.85162687608E+03 -0.14662877149E+04  0.17220155042E+04  0.46999998093E+01 0.  1.
</event>
<event>
 5   0  0.1954502E-05  0.2708717E+04  0.7818609E-02  0.8332182E-01
        1   -1    0    0  501    0  0.00000000000E+00  0.00000000000E+00  0.20293488662E+04  0.20293488662E+04  0.50400001928E-02 0.  1.
       -1   -1    0    0    0  501  0.00000000000E+00  0.00000000000E+00 -0.90387922119E+03  0.90387922120E+03  0.50400001928E-02 0. -1.
    10030    2    1    2    0    0  0.00000000000E+00  0.00000000000E+00  0.11254696450E+04  0.29332280874E+04  0.27087165025E+04 0.  0.
        4    1    3    3  502    0  0.98921890300E+03 -0.78703226516E+02 -0.43536340270E+03  0.10836471479E+04  0.12699999809E+01 0. -1.
       -4    1    3    3    0  502 -0.98921890300E+03  0.78703226516E+02  0.15608330477E+04  0.18495809394E+04  0.12699999809E+01 0.  1.
</event>
<event>
 5   0  0.5036452E-05  0.2125604E+04  0.7818609E-02  0.8550048E-01
        2   -1    0    0  501    0  0.00000000000E+00  0.00000000000E+00  0.15673150065E+04  0.15673150065E+04  0.25500000920E-02 0.  1.
       -2   -1    0    0    0  501  0.00000000000E+00  0.00000000000E+00 -0.72068973218E+03  0.72068973218E+03  0.25500000920E-02 0. -1.
    10030    2    1    2    0    0  0.00000000000E+00  0.00000000000E+00  0.84662527436E+03  0.22880047387E+04  0.21256037564E+04 0.  0.
        2    1    3    3  502    0  0.69036820427E+03 -0.79537872565E+03  0.57672265087E+03  0.12007683335E+04  0.25500000920E-02 0. -1.
       -2    1    3    3    0  502 -0.69036820427E+03  0.79537872565E+03  0.26990262349E+03  0.10872364052E+04  0.25500000920E-02 0.  1.
</event>
<event>
 5   0  0.5182179E-05  0.2605572E+04  0.7818609E-02  0.8366311E-01
       -2   -1    0    0    0  501  0.00000000000E+00  0.00000000000E+00  0.11756703758E+04  0.11756703758E+04  0.25500000920E-02 0. -1.
        2   -1    0    0  501    0  0.00000000000E+00  0.00000000000E+00 -0.14436457952E+04  0.14436457952E+04  0.25500000920E-02 0.  1.
    10030    2    1    2    0    0  0.00000000000E+00  0.00000000000E+00 -0.26797541938E+03  0.26193161710E+04  0.26055721786E+04 0.  0.
        3    1    3    3  502    0  0.19175345867E+02 -0.51942708479E+03  0.10669179275E+04  0.11867965557E+04  0.10100000352E+00 0. -1.
       -3    1    3    3    0  502 -0.19175345867E+02  0.51942708479E+03 -0.13348933469E+04  0.14325196153E+04  0.10100000352E+00 0.  1.
</event>
<event>
 5   0  0.1993815E-05  0.2428796E+04  0.7818609E-02  0.8428801E-01
       -1   -1    0    0    0  501  0.00000000000E+00  0.00000000000E+00  0.13073333698E+04  0.13073333698E+04  0.50400001928E-02 0. -1.
        1   -1    0    0  501    0  0.00000000000E+00  0.00000000000E+00 -0.11280694327E+04  0.11280694327E+04  0.50400001928E-02 0.  1.
    10030    2    1    2    0    0  0.00000000000E+00  0.00000000000E+00  0.17926393713E+03  0.24354028025E+04  0.24287962556E+04 0.  0.
        5    1    3    3  502    0 -0.37442667489E+03 -0.34139790514E+03  0.11962610722E+04  0.12991576145E+04  0.46999998093E+01 0. -1.
       -5    1    3    3    0  502  0.37442667489E+03  0.34139790514E+03 -0.10169971351E+04  0.11362451880E+04  0.46999998093E+01 0.  1.
</event>
<event>
 5   0  0.2072710E-05  0.2368228E+04  0.7818609E-02  0.8451495E-01
       -1   -1    0    0    0  501  0.00000000000E+00  0.00000000000E+00  0.12379674216E+04  0.12379674216E+04  0.50400001928E-02 0. -1.
        1   -1    0    0  501    0  0.00000000000E+00  0.00000000000E+00 -0.11326035070E+04  0.11326035071E+04  0.50400001928E-02 0.  1.
    10030    2    1    2    0    0  0.00000000000E+00  0.00000000000E+00  0.10536391459E+03  0.23705709287E+04  0.23682282351E+04 0.  0.
        2    1    3    3  502    0 -0.59851341595E+03 -0.65572797616E+03  0.83699310402E+03  0.12201454602E+04  0.25500000920E-02 0. -1.
       -2    1    3    3    0  502  0.59851341595E+03  0.65572797616E+03 -0.73162918943E+03  0.11504254685E+04  0.25500000920E-02 0.  1.
</event>
<event>
 5   0  0.5049803E-05  0.2642267E+04  0.7818609E-02  0.8353984E-01
       -2   -1    0    0    0  501  0.00000000000E+00  0.00000000000E+00  0.84752035416E+03  0.84752035416E+03  0.25500000920E-02 0. -1.
        2   -1    0    0  501    0  0.00000000000E+00  0.00000000000E+00 -0.20594121553E+04  0.20594121553E+04  0.25500000920E-02 0.  1.
    10030    2    1    2    0    0  0.00000000000E+00  0.00000000000E+00 -0.12118918011E+04  0.29069325095E+04  0.26422669958E+04 0.  0.
        4    1    3    3  502    0 -0.57200746736E+03  0.15127935450E+03  0.69360783930E+03  0.91168603886E+03  0.12699999809E+01 0. -1.
       -4    1    3    3    0  502  0.57200746736E+03 -0.15127935450E+03 -0.19054996404E+04  0.19952464706E+04  0.12699999809E+01 0.  1.
</event>
<event>
 5   0  0.5036452E-05  0.2353112E+04  0.7818609E-02  0.8457269E-01
        2   -1    0    0  501    0  0.00000000000E+00  0.00000000000E+00  0.11154152251E+04  0.11154152251E+04  0.25500000920E-02 0.  1.
       -2   -1    0    0    0  501  0.00000000000E+00  0.00000000000E+00 -0.12410484394E+04  0.12410484394E+04  0.25500000920E-02 0. -1.
    10030    2    1    2    0    0  0.00000000000E+00  0.00000000000E+00 -0.12563321433E+03  0.23564636645E+04  0.23531122577E+04 0.  0.
        2    1    3    3  502    0 -0.11738590803E+04 -0.73209652497E+01 -0.14221122037E+03  0.11824647006E+04  0.25500000920E-02 0.  1.
       -2    1    3    3    0  502  0.11738590803E+04  0.73209652497E+01  0.16578006043E+02  0.11739989639E+04  0.25500000920E-02 0. -1.
</event>
<event>
 5   0  0.2072710E-05  0.2679107E+04  0.7818609E-02  0.8341816E-01
       -1   -1    0    0    0  501  0.00000000000E+00  0.00000000000E+00  0.13944127926E+04  0.13944127926E+04  0.50400001928E-02 0. -1.
        1   -1    0    0  501    0  0.00000000000E+00  0.00000000000E+00 -0.12868524799E+04  0.12868524799E+04  0.50400001928E-02 0.  1.
    10030    2    1    2    0    0  0.00000000000E+00  0.00000000000E+00  0.10756031266E+03  0.26812652725E+04  0.26791069857E+04 0.  0.
        2    1    3    3  502    0 -0.70588605922E+03 -0.10035721558E+04 -0.48421346580E+03  0.13190507500E+04  0.25500000920E-02 0.  1.
       -2    1    3    3    0  502  0.70588605922E+03  0.10035721558E+04  0.59177377846E+03  0.13622145226E+04  0.25500000920E-02 0. -1.
</event>
<event>
 5   0  0.5036452E-05  0.2657153E+04  0.7818609E-02  0.8349043E-01
       -2   -1    0    0    0  501  0.00000000000E+00  0.00000000000E+00  0.14824088126E+04  0.14824088126E+04  0.25500000920E-02 0. -1.
        2   -1    0    0  501    0  0.00000000000E+00  0.00000000000E+00 -0.11907075451E+04  0.11907075451E+04  0.25500000920E-02 0.  1.
    10030    2    1    2    0    0  0.00000000000E+00  0.00000000000E+00  0.29170126751E+03  0.26731163578E+04  0.26571528809E+04 0.  0.
        2    1    3    3  502    0  0.70217806456E+02 -0.81196384551E+03  0.12013917730E+04  0.14517430968E+04  0.25500000920E-02 0. -1.
       -2    1    3    3    0  502 -0.70217806456E+02  0.81196384551E+03 -0.90969050553E+03  0.12213732610E+04  0.25500000920E-02 0.  1.
</event>
<event>
 5   0  0.4955675E-05  0.2574113E+04  0.7818609E-02  0.8377048E-01
       -2   -1    0    0    0  501  0.00000000000E+00  0.00000000000E+00  0.86558706446E+03  0.86558706447E+03  0.25500000920E-02 0.  1.
        2   -1    0    0  501    0  0.00000000000E+00  0.00000000000E+00 -0.19137471565E+04  0.19137471565E+04  0.25500000920E-02 0. -1.
    10030    2    1    2    0    0  0.00000000000E+00  0.00000000000E+00 -0.10481600920E+04  0.27793342210E+04  0.25741132713E+04 0.  0.
        5    1    3    3  502    0  0.88509680570E+03  0.34971553966E+03  0.41148484708E+03  0.10368409635E+04  0.46999998093E+01 0.  1.
       -5    1    3    3    0  502 -0.88509680570E+03 -0.34971553966E+03 -0.14596449391E+04  0.17424932575E+04  0.46999998093E+01 0. -1.
</event>
<event>
 5   0  0.5049803E-05  0.2505153E+04  0.7818609E-02  0.8401152E-01
       -2   -1    0    0    0  501  0.00000000000E+00  0.00000000000E+00  0.14694339284E+04  0.14694339284E+04  0.25500000920E-02 0. -1.
        2   -1    0    0  501    0  0.00000000000E+00  0.00000000000E+00 -0.10677226289E+04  0.10677226289E+04  0.25500000920E-02 0.  1.
    10030    2    1    2    0    0  0.00000000000E+00  0.00000000000E+00  0.40171129957E+03  0.25371565573E+04  0.25051529750E+04 0.  0.
        4    1    3    3  502    0 -0.25706733833E+03  0.79877683232E+03  0.11426919523E+04  0.14177004461E+04  0.12699999809E+01 0. -1.
       -4    1    3    3    0  502  0.25706733833E+03 -0.79877683232E+03 -0.74098065270E+03  0.11194561112E+04  0.12699999809E+01 0.  1.
</event>
<event>
 5   0  0.5036452E-05  0.2633323E+04  0.7818609E-02  0.8356970E-01
       -2   -1    0    0    0  501  0.00000000000E+00  0.00000000000E+00  0.89531459315E+03  0.89531459315E+03  0.25500000920E-02 0.  1.
        2   -1    0    0  501    0  0.00000000000E+00  0.00000000000E+00 -0.19362996408E+04  0.19362996408E+04  0.25500000920E-02 0. -1.
    10030    2    1    2    0    0  0.00000000000E+00  0.00000000000E+00 -0.10409850477E+04  0.28316142340E+04  0.26333228630E+04 0.  0.
        2    1    3    3  502    0 -0.88292548125E+03  0.97582136224E+03 -0.56627292654E+03  0.14326373455E+04  0.25500000920E-02 0.  1.
       -2    1    3    3    0  502  0.88292548125E+03 -0.97582136224E+03 -0.47471212113E+03  0.13989768884E+04  0.25500000920E-02 0. -1.
</event>
<event>
 5   0  0.1698625E-05  0.1603407E+04  0.7818609E-02  0.8818458E-01
        4   -1    0    0  501    0  0.00000000000E+00  0.00000000000E+00  0.80118083271E+03  0.80118183928E+03  0.12699999809E+01 0. -1.
       -4   -1    0    0    0  501  0.00000000000E+00  0.00000000000E+00 -0.80222400407E+03  0.80222500934E+03  0.12699999809E+01 0.  1.
    10030    2    1    2    0    0  0.00000000000E+00  0.00000000000E+00 -0.10431713661E+01  0.16034068486E+04  0.16034065093E+04 0.  0.
        5    1    3    3  502    0 -0.11383758058E+03 -0.79063708882E+03 -0.68639274230E+02  0.80174774146E+03  0.46999998093E+01 0.  1.
       -5    1    3    3    0  502  0.11383758058E+03  0.79063708882E+03  0.67596102864E+02  0.80165910716E+03  0.46999998093E+01 0. -1.
</event>
<event>
 5   0  0.2163800E-05  0.2604719E+04  0.7818609E-02  0.8366600E-01
        1   -1    0    0  501    0  0.00000000000E+00  0.00000000000E+00  0.16602448773E+04  0.16602448773E+04  0.50400001928E-02 0.  1.
       -1   -1    0    0    0  501  0.00000000000E+00  0.00000000000E+00 -0.10216208647E+04  0.10216208647E+04  0.50400001928E-02 0. -1.
    10030    2    1    2    0    0  0.00000000000E+00  0.00000000000E+00  0.63862401255E+03  0.26818657420E+04  0.26047194146E+04 0.  0.
        1    1    3    3  502    0  0.93113165684E+03 -0.22584954053E+03  0.12275532609E+04  0.15572094225E+04  0.50400001928E-02 0.  1.
       -1    1    3    3    0  502 -0.93113165684E+03  0.22584954053E+03 -0.58892924832E+03  0.11246563194E+04  0.50400001928E-02 0. -1.
</event>
<event>
 5   0  0.5182179E-05  0.2574376E+04  0.7818609E-02  0.8376957E-01
        2   -1    0    0  501    0  0.00000000000E+00  0.00000000000E+00  0.11965739054E+04  0.11965739054E+04  0.25500000920E-02 0.  1.
       -2   -1    0    0    0  501  0.00000000000E+00  0.00000000000E+00 -0.13846642534E+04  0.13846642534E+04  0.25500000920E-02 0. -1.
    10030    2    1    2    0    0  0.00000000000E+00  0.00000000000E+00 -0.18809034797E+03  0.25812381588E+04  0.25743761289E+04 0.  0.
        3    1    3    3  502    0 -0.11666277596E+04 -0.38834859882E+03 -0.47587270700E+03  0.13184421895E+04  0.10100000352E+00 0. -1.
       -3    1    3    3    0  502  0.11666277596E+04  0.38834859882E+03  0.28778235903E+03  0.12627959693E+04  0.10100000352E+00 0.  1.
</event>
<event>
 5   0  0.2163800E-05  0.2595048E+04  0.7818609E-02  0.8369885E-01
       -1   -1    0    0    0  501  0.00000000000E+00  0.00000000000E+00  0.10833272978E+04  0.10833272978E+04  0.50400001928E-02 0. -1.
        1   -1    0    0  501    0  0.00000000000E+00  0.00000000000E+00 -0.15540718622E+04  0.15540718622E+04  0.50400001928E-02 0.  1.
    10030    2    1    2    0    0  0.00000000000E+00  0.00000000000E+00 -0.47074456439E+03  0.26373991600E+04  0.25950479541E+04 0.  0.
        1    1    3    3  502    0 -0.15140300918E+03  0.90546071003E+03 -0.11672809291E+04  0.14850342542E+04  0.50400001928E-02 0.  1.
       -1    1    3    3    0  502  0.15140300918E+03 -0.90546071003E+03  0.69653636474E+03  0.11523649058E+04  0.50400001928E-02 0. -1.
</event>
<event>
 5   0  0.5036452E-05  0.2390570E+04  0.7818609E-02  0.8443042E-01
        2   -1    0    0  501    0  0.00000000000E+00  0.00000000000E+00  0.16988287171E+04  0.16988287171E+04  0.25500000920E-02 0.  1.
       -2   -1    0    0    0  501  0.00000000000E+00  0.00000000000E+00 -0.84099505106E+03  0.84099505106E+03  0.25500000920E-02 0. -1.
    10030    2    1    2    0    0  0.00000000000E+00  0.00000000000E+00  0.85783366601E+03  0.25398237681E+04  0.23905702614E+04 0.  0.
        2    1    3    3  502    0  0.81503046331E+03 -0.57897864748E+03  0.11249658529E+04  0.15050046846E+04  0.25500000920E-02 0.  1.
       -2    1    3    3    0  502 -0.81503046331E+03  0.57897864748E+03 -0.26713218693E+03  0.10348190835E+04  0.25500000920E-02 0. -1.
</event>
<event>
 5   0  0.4955675E-05  0.2531012E+04  0.7818609E-02  0.8392020E-01
       -2   -1    0    0    0  501  0.00000000000E+00  0.00000000000E+00  0.99411903551E+03  0.99411903552E+03  0.25500000920E-02 0. -1.
        2   -1    0    0  501    0  0.00000000000E+00  0.00000000000E+00 -0.16109795580E+04  0.16109795580E+04  0.25500000920E-02 0.  1.
    10030    2    1    2    0    0  0.00000000000E+00  0.00000000000E+00 -0.61686052246E+03  0.26050985935E+04  0.25310120066E+04 0.  0.
        5    1    3    3  502    0 -0.29147837252E+03  0.33242599825E+03 -0.15288948798E+04  0.15915427514E+04  0.46999998093E+01 0.  1.
       -5    1    3    3    0  502  0.29147837252E+03 -0.33242599825E+03  0.91203435739E+03  0.10135558421E+04  0.46999998093E+01 0. -1.
</event>
<event>
 5   0  0.2159405E-05  0.2613344E+04  0.7818609E-02  0.8363683E-01
       -1   -1    0    0    0  501  0.00000000000E+00  0.00000000000E+00  0.12908255729E+04  0.12908255729E+04  0.50400001928E-02 0.  1.
        1   -1    0    0  501    0  0.00000000000E+00  0.00000000000E+00 -0.13227130024E+04  0.13227130024E+04  0.50400001928E-02 0. -1.
    10030    2    1    2    0    0  0.00000000000E+00  0.00000000000E+00 -0.31887429516E+02  0.26135385753E+04  0.26133440410E+04 0.  0.
        3    1    3    3  502    0 -0.36026130087E+03  0.16762161443E+03  0.12289407152E+04  0.12915806217E+04  0.10100000352E+00 0.  1.
       -3    1    3    3    0  502  0.36026130087E+03 -0.16762161443E+03 -0.12608281447E+04  0.13219579537E+04  0.10100000352E+00 0. -1.
</event>
<event>
 5   0  0.2163800E-05  0.2548544E+04  0.7818609E-02  0.8385893E-01
       -1   -1    0    0    0  501  0.00000000000E+00  0.00000000000E+00  0.11957688499E+04  0.11957688499E+04  0.50400001928E-02 0.  1.
        1   -1    0    0  501    0  0.00000000000E+00  0.00000000000E+00 -0.13579292131E+04  0.13579292131E+04  0.50400001928E-02 0. -1.
    10030    2    1    2    0    0  0.00000000000E+00  0.00000000000E+00 -0.16216036317E+03  0.25536980631E+04  0.25485442539E+04 0.  0.
        1    1    3    3  502    0 -0.25931617319E+03 -0.88998002821E+03  0.79502204976E+03  0.12212163559E+04  0.50400001928E-02 0.  1.
       -1    1    3    3    0  502  0.25931617319E+03  0.88998002821E+03 -0.95718241292E+03  0.13324817072E+04  0.50400001928E-02 0. -1.
</event>
<event>
 5   0  0.1993815E-05  0.2627153E+04  0.7818609E-02  0.8359036E-01
       -1   -1    0    0    0  501  0.00000000000E+00  0.00000000000E+00  0.76766957609E+03  0.76766957611E+03  0.50400001928E-02 0.  1.
        1   -1    0    0  501    0  0.00000000000E+00  0.00000000000E+00 -0.22476904383E+04  0.22476904383E+04  0.50400001928E-02 0. -1.
    10030    2    1    2    0    0  0.00000000000E+00  0.00000000000E+00 -0.14800208622E+04  0.30153600144E+04  0.26271532624E+04 0.  0.
        5    1    3    3  502    0  0.90220178094E+03  0.95471463978E+03 -0.74420866184E+03  0.15097406133E+04  0.46999998093E+01 0.  1.
       -5    1    3    3    0  502 -0.90220178094E+03 -0.95471463978E+03 -0.73581220037E+03  0.15056194012E+04  0.46999998093E+01 0. -1.
</event>
<event>
 5   0  0.1698625E-05  0.2867545E+04  0.7818609E-02  0.8282600E-01
       -3   -1    0    0    0  501  0.00000000000E+00  0.00000000000E+00  0.82145196944E+03  0.82145197565E+03  0.10100000352E+00 0.  1.
        3   -1    0    0  501    0  0.00000000000E+00  0.00000000000E+00 -0.25025245734E+04  0.25025245754E+04  0.10100000352E+00 0. -1.
    10030    2    1    2    0    0  0.00000000000E+00  0.00000000000E+00 -0.16810726039E+04  0.33239765510E+04  0.28675451195E+04 0.  0.
        5    1    3    3  502    0  0.52731808514E+03 -0.12829992744E+04 -0.42013856571E+03  0.14493757296E+04  0.46999998093E+01 0.  1.
       -5    1    3    3    0  502 -0.52731808514E+03  0.12829992744E+04 -0.12609340382E+04  0.18746008215E+04  0.46999998093E+01 0. -1.
</event>
<event>
 5   0  0.2159405E-05  0.1975746E+04  0.7818609E-02  0.8618045E-01
        1   -1    0    0  501    0  0.00000000000E+00  0.00000000000E+00  0.26690733805E+04  0.26690733805E+04  0.50400001928E-02 0. -1.
       -1   -1    0    0    0  501  0.00000000000E+00  0.00000000000E+00 -0.36563001401E+03  0.36563001405E+03  0.50400001928E-02 0.  1.
    10030    2    1    2    0    0  0.00000000000E+00  0.00000000000E+00  0.23034433665E+04  0.30347033945E+04  0.19757462768E+04 0.  0.
        3    1    3    3  502    0  0.81801378060E+03 -0.27697630310E+03  0.41504287532E+03  0.95818735970E+03  0.10100000352E+00 0.  1.
       -3    1    3    3    0  502 -0.81801378060E+03  0.27697630310E+03  0.18884004911E+04  0.20765160348E+04  0.10100000352E+00 0. -1.
</event>
<event>
 5   0  0.4955675E-05  0.2485676E+04  0.7818609E-02  0.8408107E-01
       -2   -1    0    0    0  501  0.00000000000E+00  0.00000000000E+00  0.55316917539E+03  0.55316917539E+03  0.25500000920E-02 0. -1.
        2   -1    0    0  501    0  0.00000000000E+00  0.00000000000E+00 -0.27923568380E+04  0.27923568380E+04  0.25500000920E-02 0.  1.
    10030    2    1    2    0    0  0.00000000000E+00  0.00000000000E+00 -0.22391876626E+04  0.33455260134E+04  0.24856755456E+04 0.  0.
        5    1    3    3  502    0  0.60531035167E+03 -0.13831806053E+03  0.32944079302E+03  0.70291239412E+03  0.46999998093E+01 0. -1.
       -5    1    3    3    0  502 -0.60531035167E+03  0.13831806053E+03 -0.25686284556E+04  0.26426136193E+04  0.46999998093E+01 0.  1.
</event>
<event>
 5   0  0.1698625E-05  0.2530447E+04  0.7818609E-02  0.8392218E-01
        3   -1    0    0  501    0  0.00000000000E+00  0.00000000000E+00  0.78414121757E+03  0.78414122408E+03  0.10100000352E+00 0. -1.
       -3   -1    0    0    0  501  0.00000000000E+00  0.00000000000E+00 -0.20414572612E+04  0.20414572637E+04  0.10100000352E+00 0.  1.
    10030    2    1    2    0    0  0.00000000000E+00  0.00000000000E+00 -0.12573160436E+04  0.28255984878E+04  0.25304472294E+04 0.  0.
        5    1    3    3  502    0  0.10662966693E+04 -0.63621995146E+03 -0.35741725418E+03  0.12921043291E+04  0.46999998093E+01 0. -1.
       -5    1    3    3    0  502 -0.10662966693E+04  0.63621995146E+03 -0.89989878947E+03  0.15334941587E+04  0.46999998093E+01 0.  1.
</event>
<event>
 5   0  0.4955675E-05  0.2596972E+04  0.7818609E-02  0.8369230E-01
        2   -1    0    0  501    0  0.00000000000E+00  0.00000000000E+00  0.12033468602E+04  0.12033468602E+04  0.25500000920E-02 0. -1.
       -2   -1    0    0    0  501  0.00000000000E+00  0.00000000000E+00 -0.14011473426E+04  0.14011473426E+04  0.25500000920E-02 0.  1.
    10030    2    1    2    0    0  0.00000000000E+00  0.00000000000E+00 -0.19780048248E+03  0.26044942028E+04  0.25969722797E+04 0.  0.
        5    1    3    3  502    0 -0.22941103032E+03 -0.90671776080E+03  0.80441811617E+03  0.12336438360E+04  0.46999998093E+01 0. -1.
       -5    1    3    3    0  502  0.22941103032E+03  0.90671776080E+03 -0.10022185987E+04  0.13708503668E+04  0.46999998093E+01 0.  1.
</event>
<event>
 5   0  0.2163800E-05  0.2132441E+04  0.7818609E-02  0.8547086E-01
       -1   -1    0    0    0  501  0.00000000000E+00  0.00000000000E+00  0.72957848994E+03  0.72957848996E+03  0.50400001928E-02 0.  1.
        1   -1    0    0  501    0  0.00000000000E+00  0.00000000000E+00 -0.15581957916E+04  0.15581957916E+04  0.50400001928E-02 0. -1.
    10030    2    1    2    0    0  0.00000000000E+00  0.00000000000E+00 -0.82861730169E+03  0.22877742816E+04  0.21324409795E+04 0.  0.
        1    1    3    3  502    0 -0.10182582208E+04  0.56055917370E+02 -0.74815776635E+03  0.12648051682E+04  0.50400001928E-02 0.  1.
       -1    1    3    3    0  502  0.10182582208E+04 -0.56055917370E+02 -0.80459535341E+02  0.10229691134E+04  0.50400001928E-02 0. -1.
</event>
<event>
 5   0  0.1993815E-05  0.1395750E+04  0.7818609E-02  0.8956901E-01
        1   -1    0    0  501    0  0.00000000000E+00  0.00000000000E+00  0.11765874456E+04  0.11765874456E+04  0.50400001928E-02 0.  1.
       -1   -1    0    0    0  501  0.00000000000E+00  0.00000000000E+00 -0.41393383701E+03  0.41393383704E+03  0.50400001928E-02 0. -1.
    10030    2    1    2    0    0  0.00000000000E+00  0.00000000000E+00  0.76265360859E+03  0.15905212826E+04  0.13957497712E+04 0.  0.
        5    1    3    3  502    0  0.13280183733E+03  0.68404116344E+03  0.42484828873E+03  0.81612915626E+03  0.46999998093E+01 0.  1.
       -5    1    3    3    0  502 -0.13280183733E+03 -0.68404116344E+03  0.33780531986E+03  0.77439212638E+03  0.46999998093E+01 0. -1.
</event>
<event>
 5   0  0.5182179E-05  0.2576737E+04  0.7818609E-02  0.8376146E-01
        2   -1    0    0  501    0  0.00000000000E+00  0.00000000000E+00  0.89368696970E+03  0.89368696970E+03  0.25500000920E-02 0. -1.
       -2   -1    0    0    0  501  0.00000000000E+00  0.00000000000E+00 -0.18573548584E+04  0.18573548584E+04  0.25500000920E-02 0.  1.
    10030    2    1    2    0    0  0.00000000000E+00  0.00000000000E+00 -0.96366788874E+03  0.27510418281E+04  0.25767373441E+04 0.  0.
        3    1    3    3  502    0 -0.11900933037E+04  0.41911611598E+03 -0.76006454288E+03  0.14729828613E+04  0.10100000352E+00 0.  1.
       -3    1    3    3    0  502  0.11900933037E+04 -0.41911611598E+03 -0.20360334586E+03  0.12780589669E+04  0.10100000352E+00 0. -1.
</event>
<event>
 5   0  0.4955675E-05  0.2530316E+04  0.7818609E-02  0.8392264E-01
       -2   -1    0    0    0  501  0.00000000000E+00  0.00000000000E+00  0.78765575679E+03  0.78765575679E+03  0.25500000920E-02 0. -1.
        2   -1    0    0  501    0  0.00000000000E+00  0.00000000000E+00 -0.20321374785E+04  0.20321374785E+04  0.25500000920E-02 0.  1.
    10030    2    1    2    0    0  0.00000000000E+00  0.00000000000E+00 -0.12444817217E+04  0.28197932353E+04  0.25303160147E+04 0.  0.
        5    1    3    3  502    0  0.53810532473E+02  0.65048570166E+03 -0.18300073178E+04  0.19429297709E+04  0.46999998093E+01 0.  1.
       -5    1    3    3    0  502 -0.53810532473E+02 -0.65048570166E+03  0.58552559610E+03  0.87686346437E+03  0.46999998093E+01 0. -1.
</event>
<event>
 5   0  0.5049803E-05  0.2559416E+04  0.7818609E-02  0.8382119E-01
       -2   -1    0    0    0  501  0.00000000000E+00  0.00000000000E+00  0.10459832025E+04  0.10459832025E+04  0.25500000920E-02 0. -1.
        2   -1    0    0  501    0  0.00000000000E+00  0.00000000000E+00 -0.15656581045E+04  0.15656581045E+04  0.25500000920E-02 0.  1.
    10030    2    1    2    0    0  0.00000000000E+00  0.00000000000E+00 -0.51967490198E+03  0.26116413070E+04  0.25594156193E+04 0.  0.
        4    1    3    3  502    0  0.12398898710E+03  0.74837324135E+03 -0.13115059468E+04  0.15150858849E+04  0.12699999809E+01 0.  1.
       -4    1    3    3    0  502 -0.12398898710E+03 -0.74837324135E+03  0.79183104479E+03  0.10965554221E+04  0.12699999809E+01 0. -1.
</event>
<event>
 5   0  0.2159405E-05  0.1840899E+04  0.7818609E-02  0.8684847E-01
        1   -1    0    0  501    0  0.00000000000E+00  0.00000000000E+00  0.13550362576E+04  0.13550362576E+04  0.50400001928E-02 0. -1.
       -1   -1    0    0    0  501  0.00000000000E+00  0.00000000000E+00 -0.62524326660E+03  0.62524326662E+03  0.50400001928E-02 0.  1.
    10030    2    1    2    0    0  0.00000000000E+00  0.00000000000E+00  0.72979299098E+03  0.19802795242E+04  0.18408990152E+04 0.  0.
        3    1    3    3  502    0  0.29465487057E+03  0.87102483261E+03  0.40952931760E+03  0.10065883091E+04  0.10100000352E+00 0.  1.
       -3    1    3    3    0  502 -0.29465487057E+03 -0.87102483261E+03  0.32026367338E+03  0.97369121515E+03  0.10100000352E+00 0. -1.
</event>
<event>
 5   0  0.1954502E-05  0.2435416E+04  0.7818609E-02  0.8426362E-01
       -1   -1    0    0    0  501  0.00000000000E+00  0.00000000000E+00  0.87176630715E+03  0.87176630717E+03  0.50400001928E-02 0. -1.
        1   -1    0    0  501    0  0.00000000000E+00  0.00000000000E+00 -0.17009296354E+04  0.17009296354E+04  0.50400001928E-02 0.  1.
    10030    2    1    2    0    0  0.00000000000E+00  0.00000000000E+00 -0.82916332828E+03  0.25726959426E+04  0.24354163069E+04 0.  0.
        4    1    3    3  502    0 -0.11257746786E+04 -0.40169942286E+03 -0.66024227311E+03  0.13655228030E+04  0.12699999809E+01 0. -1.
       -4    1    3    3    0  502  0.11257746786E+04  0.40169942286E+03 -0.16892105517E+03  0.12071731396E+04  0.12699999809E+01 0.  1.
</event>
<event>
 5   0  0.1954502E-05  0.2599471E+04  0.7818609E-02  0.8368381E-01
       -1   -1    0    0    0  501  0.00000000000E+00  0.00000000000E+00  0.81792459798E+03  0.81792459800E+03  0.50400001928E-02 0. -1.
        1   -1    0    0  501    0  0.00000000000E+00  0.00000000000E+00 -0.20653651776E+04  0.20653651776E+04  0.50400001928E-02 0.  1.
    10030    2    1    2    0    0  0.00000000000E+00  0.00000000000E+00 -0.12474405796E+04  0.28832897756E+04  0.25994714713E+04 0.  0.
        4    1    3    3  502    0  0.64154259940E+03  0.11207935031E+04 -0.46086899554E+03  0.13711881080E+04  0.12699999809E+01 0.  1.
       -4    1    3    3    0  502 -0.64154259940E+03 -0.11207935031E+04 -0.78657158405E+03  0.15121016676E+04  0.12699999809E+01 0. -1.
</event>
<event>
 5   0  0.1954502E-05  0.2488734E+04  0.7818609E-02  0.8407010E-01
       -1   -1    0    0    0  501  0.00000000000E+00  0.00000000000E+00  0.52157017569E+03  0.52157017572E+03  0.50400001928E-02 0. -1.
        1   -1    0    0  501    0  0.00000000000E+00  0.00000000000E+00 -0.29688229786E+04  0.29688229786E+04  0.50400001928E-02 0.  1.
    10030    2    1    2    0    0  0.00000000000E+00  0.00000000000E+00 -0.24472528029E+04  0.34903931543E+04  0.24887342346E+04 0.  0.
        4    1    3    3  502    0 -0.19756537845E+03  0.87838966634E+03 -0.18925849609E+02  0.90053333385E+03  0.12699999809E+01 0. -1.
       -4    1    3    3    0  502  0.19756537845E+03 -0.87838966634E+03 -0.24283269533E+04  0.25898598205E+04  0.12699999809E+01 0.  1.
</event>
<event>
 5   0  0.2163800E-05  0.2094758E+04  0.7818609E-02  0.8563556E-01
       -1   -1    0    0    0  501  0.00000000000E+00  0.00000000000E+00  0.93285696977E+03  0.93285696978E+03  0.50400001928E-02 0. -1.
        1   -1    0    0  501    0  0.00000000000E+00  0.00000000000E+00 -0.11759598387E+04  0.11759598387E+04  0.50400001928E-02 0.  1.
    10030    2    1    2    0    0  0.00000000000E+00  0.00000000000E+00 -0.24310286889E+03  0.21088168084E+04  0.20947575818E+04 0.  0.
        1    1    3    3  502    0 -0.25223702090E+03  0.10150541247E+04 -0.66009221086E+02  0.10480055382E+04  0.50400001928E-02 0.  1.
       -1    1    3    3    0  502  0.25223702090E+03 -0.10150541247E+04 -0.17709364780E+03  0.10608112702E+04  0.50400001928E-02 0. -1.
</event>
<event>
 5   0  0.1993815E-05  0.2589718E+04  0.7818609E-02  0.8371702E-01
       -1   -1    0    0    0  501  0.00000000000E+00  0.00000000000E+00  0.11588181636E+04  0.11588181636E+04  0.50400001928E-02 0. -1.
        1   -1    0    0  501    0  0.00000000000E+00  0.00000000000E+00 -0.14468700673E+04  0.14468700673E+04  0.50400001928E-02 0.  1.
    10030    2    1    2    0    0  0.00000000000E+00  0.00000000000E+00 -0.28805190373E+03  0.26056882309E+04  0.25897176018E+04 0.  0.
        5    1    3    3  502    0  0.43543607364E+03 -0.23110865203E+03  0.10606972834E+04  0.11696651659E+04  0.46999998093E+01 0. -1.
       -5    1    3    3    0  502 -0.43543607364E+03  0.23110865203E+03 -0.13487491871E+04  0.14360230650E+04  0.46999998093E+01 0.  1.
</event>
<event>
 5   0  0.5049803E-05  0.1461043E+04  0.7818609E-02  0.8910780E-01
        2   -1    0    0  501    0  0.00000000000E+00  0.00000000000E+00  0.86120900931E+03  0.86120900931E+03  0.25500000920E-02 0. -1.
       -2   -1    0    0    0  501  0.00000000000E+00  0.00000000000E+00 -0.61966577722E+03  0.61966577722E+03  0.25500000920E-02 0.  1.
    10030    2    1    2    0    0  0.00000000000E+00  0.00000000000E+00  0.24154323209E+03  0.14808747865E+04  0.14610431207E+04 0.  0.
        4    1    3    3  502    0 -0.14009444690E+02 -0.52992150384E+03 -0.38869113947E+03  0.65733969877E+03  0.12699999809E+01 0. -1.
       -4    1    3    3    0  502  0.14009444690E+02  0.52992150384E+03  0.63023437156E+03  0.82353508776E+03  0.12699999809E+01 0.  1.
</event>
<event>
 5   0  0.1993815E-05  0.2605241E+04  0.7818609E-02  0.8366423E-01
        1   -1    0    0  501    0  0.00000000000E+00  0.00000000000E+00  0.23609540745E+04  0.23609540745E+04  0.50400001928E-02 0.  1.
       -1   -1    0    0    0  501  0.00000000000E+00  0.00000000000E+00 -0.71870125221E+03  0.71870125222E+03  0.50400001928E-02 0. -1.
    10030    2    1    2    0    0  0.00000000000E+00  0.00000000000E+00  0.16422528223E+04  0.30796553268E+04  0.26052413706E+04 0.  0.
        5    1    3    3  502    0  0.68309684147E+03  0.33641729798E+03  0.20704670393E+04  0.22060493522E+04  0.46999998093E+01 0.  1.
       -5    1    3    3    0  502 -0.68309684147E+03 -0.33641729798E+03 -0.42821421701E+03  0.87360597460E+03  0.46999998093E+01 0. -1.
</event>
<event>
 5   0  0.5049803E-05  0.2029903E+04  0.7818609E-02  0.8592766E-01
        2   -1    0    0  501    0  0.00000000000E+00  0.00000000000E+00  0.11844536574E+04  0.11844536574E+04  0.25500000920E-02 0.  1.
       -2   -1    0    0    0  501  0.00000000000E+00  0.00000000000E+00 -0.86970619712E+03  0.86970619712E+03  0.25500000920E-02 0. -1.
    10030    2    1    2    0    0  0.00000000000E+00  0.00000000000E+00  0.31474746024E+03  0.20541598545E+04  0.20299031366E+04 0.  0.
        4    1    3    3  502    0  0.98965412828E+03  0.17137640376E+03  0.95462440905E+01  0.10044291459E+04  0.12699999809E+01 0.  1.
       -4    1    3    3    0  502 -0.98965412828E+03 -0.17137640376E+03  0.30520121615E+03  0.10497307086E+04  0.12699999809E+01 0. -1.
</event>
<event>
 5   0  0.2163800E-05  0.2676048E+04  0.7818609E-02  0.8342819E-01
        1   -1    0    0  501    0  0.00000000000E+00  0.00000000000E+00  0.17557278064E+04  0.17557278064E+04  0.50400001928E-02 0. -1.
       -1   -1    0    0    0  501  0.00000000000E+00  0.00000000000E+00 -0.10196957981E+04  0.10196957981E+04  0.50400001928E-02 0.  1.
    10030    2    1    2    0    0  0.00000000000E+00  0.00000000000E+00  0.73603200833E+03  0.27754236045E+04  0.26760480316E+04 0.  0.
        1    1    3    3  502    0 -0.10731860671E+04 -0.70739387730E+03  0.75353721606E+03  0.14899505925E+04  0.50400001928E-02 0. -1.
       -1    1    3    3    0  502  0.10731860671E+04  0.70739387730E+03 -0.17505207734E+02  0.12854730120E+04  0.50400001928E-02 0.  1.
</event>
<event>
 5   0  0.5170532E-05  0.2490518E+04  0.7818609E-02  0.8406371E-01
        2   -1    0    0  501    0  0.00000000000E+00  0.00000000000E+00  0.13882868717E+04  0.13882868717E+04  0.25500000920E-02 0. -1.
       -2   -1    0    0    0  501  0.00000000000E+00  0.00000000000E+00 -0.11169661841E+04  0.11169661841E+04  0.25500000920E-02 0.  1.
    10030    2    1    2    0    0  0.00000000000E+00  0.00000000000E+00  0.27132068765E+03  0.25052530558E+04  0.24905176084E+04 0.  0.
        1    1    3    3  502    0  0.16824087270E+03 -0.14995984203E+02  0.13767102010E+04  0.13870331100E+04  0.50400001928E-02 0. -1.
       -1    1    3    3    0  502 -0.16824087270E+03  0.14995984203E+02 -0.11053895133E+04  0.11182199457E+04  0.50400001928E-02 0.  1.
</event>
<event>
 5   0  0.2159405E-05  0.2563442E+04  0.7818609E-02  0.8380726E-01
        1   -1    0    0  501    0  0.00000000000E+00  0.00000000000E+00  0.11364665329E+04  0.11364665329E+04  0.50400001928E-02 0. -1.
       -1   -1    0    0    0  501  0.00000000000E+00  0.00000000000E+00 -0.14455407275E+04  0.14455407275E+04  0.50400001928E-02 0.  1.
    10030    2    1    2    0    0  0.00000000000E+00  0.00000000000E+00 -0.30907419462E+03  0.25820072604E+04  0.25634419508E+04 0.  0.
        3    1    3    3  502    0 -0.93056889936E+03  0.11408715701E+03 -0.10348428664E+04  0.13963789329E+04  0.10100000352E+00 0. -1.
       -3    1    3    3    0  502  0.93056889936E+03 -0.11408715701E+03  0.72576867179E+03  0.11856283275E+04  0.10100000352E+00 0.  1.
</event>
<event>
 5   0  0.5036452E-05  0.2406855E+04  0.7818609E-02  0.8436942E-01
       -2   -1    0    0    0  501  0.00000000000E+00  0.00000000000E+00  0.92241992093E+03  0.92241992093E+03  0.25500000920E-02 0. -1.
        2   -1    0    0  501    0  0.00000000000E+00  0.00000000000E+00 -0.15700420479E+04  0.15700420479E+04  0.25500000920E-02 0.  1.
    10030    2    1    2    0    0  0.00000000000E+00  0.00000000000E+00 -0.64762212700E+03  0.24924619689E+04  0.24068552609E+04 0.  0.
        2    1    3    3  502    0 -0.77060259035E+03  0.91178355051E+03 -0.16655311348E+03  0.12053702895E+04  0.25500000920E-02 0. -1.
       -2    1    3    3    0  502  0.77060259035E+03 -0.91178355051E+03 -0.48106901351E+03  0.12870916793E+04  0.25500000920E-02 0.  1.
</event>
<event>
 5   0  0.2163800E-05  0.2463085E+04  0.7818609E-02  0.8416256E-01
        1   -1    0    0  501    0  0.00000000000E+00  0.00000000000E+00  0.12004844682E+04  0.12004844682E+04  0.50400001928E-02 0.  1.
       -1   -1    0    0    0  501  0.00000000000E+00  0.00000000000E+00 -0.12634038074E+04  0.12634038074E+04  0.50400001928E-02 0. -1.
    10030    2    1    2    0    0  0.00000000000E+00  0.00000000000E+00 -0.62919339177E+02  0.24638882757E+04  0.24630847715E+04 0.  0.
        1    1    3    3  502    0 -0.32386763613E+03 -0.49739715750E+03  0.10479671660E+04  0.12043792422E+04  0.50400001928E-02 0.  1.
       -1    1    3    3    0  502  0.32386763613E+03  0.49739715750E+03 -0.11108865052E+04  0.12595090335E+04  0.50400001928E-02 0. -1.
</event>
<event>
 5   0  0.1993815E-05  0.2643918E+04  0.7818609E-02  0.8353434E-01
       -1   -1    0    0    0  501  0.00000000000E+00  0.00000000000E+00  0.92484541268E+03  0.92484541269E+03  0.50400001928E-02 0.  1.
        1   -1    0    0  501    0  0.00000000000E+00  0.00000000000E+00 -0.18895869960E+04  0.18895869960E+04  0.50400001928E-02 0. -1.
    10030    2    1    2    0    0  0.00000000000E+00  0.00000000000E+00 -0.96474158333E+03  0.28144324087E+04  0.26439182023E+04 0.  0.
        5    1    3    3  502    0 -0.36926884872E+03  0.12324995728E+04 -0.80549149127E+03  0.15179767166E+04  0.46999998093E+01 0. -1.
       -5    1    3    3    0  502  0.36926884872E+03 -0.12324995728E+04 -0.15925009206E+03  0.12964556921E+04  0.46999998093E+01 0.  1.
</event>
<event>
 5   0  0.2163800E-05  0.2558093E+04  0.7818609E-02  0.8382577E-01
       -1   -1    0    0    0  501  0.00000000000E+00  0.00000000000E+00  0.16513143880E+04  0.16513143880E+04  0.50400001928E-02 0. -1.
        1   -1    0    0  501    0  0.00000000000E+00  0.00000000000E+00 -0.99070159068E+03  0.99070159070E+03  0.50400001928E-02 0.  1.
    10030    2    1    2    0    0  0.00000000000E+00  0.00000000000E+00  0.66061279735E+03  0.26420159787E+04  0.25580928763E+04 0.  0.
        1    1    3    3  502    0 -0.66241996213E+03  0.95923169261E+03 -0.21330152857E+03  0.11850836209E+04  0.50400001928E-02 0.  1.
       -1    1    3    3    0  502  0.66241996213E+03 -0.95923169261E+03  0.87391432592E+03  0.14569323579E+04  0.50400001928E-02 0. -1.
</event>
<event>
 5   0  0.4955675E-05  0.2072913E+04  0.7818609E-02  0.8573270E-01
       -2   -1    0    0    0  501  0.00000000000E+00  0.00000000000E+00  0.11379084660E+04  0.11379084660E+04  0.25500000920E-02 0. -1.
        2   -1    0    0  501    0  0.00000000000E+00  0.00000000000E+00 -0.94404970769E+03  0.94404970769E+03  0.25500000920E-02 0.  1.
    10030    2    1    2    0    0  0.00000000000E+00  0.00000000000E+00  0.19385875833E+03  0.20819581737E+04  0.20729130756E+04 0.  0.
        5    1    3    3  502    0 -0.50846557591E+02 -0.42295027365E+03  0.10459055200E+04  0.11293417344E+04  0.46999998093E+01 0. -1.
       -5    1    3    3    0  502  0.50846557591E+02  0.42295027365E+03 -0.85204676164E+03  0.95261643930E+03  0.46999998093E+01 0.  1.
</event>
<event>
 5   0  0.5182179E-05  0.2557936E+04  0.7818609E-02  0.8382631E-01
        2   -1    0    0  501    0  0.00000000000E+00  0.00000000000E+00  0.18985062392E+04  0.18985062392E+04  0.25500000920E-02 0.  1.
       -2   -1    0    0    0  501  0.00000000000E+00  0.00000000000E+00 -0.86160332644E+03  0.86160332644E+03  0.25500000920E-02 0. -1.
    10030    2    1    2    0    0  0.00000000000E+00  0.00000000000E+00  0.10369029128E+04  0.27601095657E+04  0.25579361141E+04 0.  0.
        3    1    3    3  502    0 -0.10187699429E+04  0.60723487949E+02  0.13502067033E+04  0.16925240590E+04  0.10100000352E+00 0.  1.
       -3    1    3    3    0  502  0.10187699429E+04 -0.60723487949E+02 -0.31330379048E+03  0.10675855066E+04  0.10100000352E+00 0. -1.
</event>
<event>
 5   0  0.5170532E-05  0.2501625E+04  0.7818609E-02  0.8402407E-01
        2   -1    0    0  501    0  0.00000000000E+00  0.00000000000E+00  0.12487163293E+04  0.12487163293E+04  0.25500000920E-02 0. -1.
       -2   -1    0    0    0  501  0.00000000000E+00  0.00000000000E+00 -0.12529116939E+04  0.12529116939E+04  0.25500000920E-02 0.  1.
    10030    2    1    2    0    0  0.00000000000E+00  0.00000000000E+00 -0.41953646171E+01  0.25016280232E+04  0.25016245052E+04 0.  0.
        1    1    3    3  502    0  0.95517785311E+03 -0.75591137818E+03 -0.28628912426E+03  0.12512906159E+04  0.50400001928E-02 0. -1.
       -1    1    3    3    0  502 -0.95517785311E+03  0.75591137818E+03  0.28209375965E+03  0.12503374073E+04  0.50400001928E-02 0.  1.
</event>
<event>
 5   0  0.2072710E-05  0.2577700E+04  0.7818609E-02  0.8375816E-01
       -1   -1    0    0    0  501  0.00000000000E+00  0.00000000000E+00  0.94035174237E+03  0.94035174238E+03  0.50400001928E-02 0. -1.
        1   -1    0    0  501    0  0.00000000000E+00  0.00000000000E+00 -0.17665032009E+04  0.17665032009E+04  0.50400001928E-02 0.  1.
    10030    2    1    2    0    0  0.00000000000E+00  0.00000000000E+00 -0.82615145849E+03  0.27068549432E+04  0.25777000313E+04 0.  0.
        2    1    3    3  502    0  0.65963057058E+03  0.10962843058E+04 -0.24977653246E+03  0.13035873906E+04  0.25500000920E-02 0.  1.
       -2    1    3    3    0  502 -0.65963057058E+03 -0.10962843058E+04 -0.57637492603E+03  0.14032675526E+04  0.25500000920E-02 0. -1.
</event>
<event>
 5   0  0.2163800E-05  0.1898811E+04  0.7818609E-02  0.8655448E-01
        1   -1    0    0  501    0  0.00000000000E+00  0.00000000000E+00  0.11159825135E+04  0.11159825135E+04  0.50400001928E-02 0. -1.
       -1   -1    0    0    0  501  0.00000000000E+00  0.00000000000E+00 -0.80769288116E+03  0.80769288118E+03  0.50400001928E-02 0.  1.
    10030    2    1    2    0    0  0.00000000000E+00  0.00000000000E+00  0.30828963235E+03  0.19236753947E+04  0.18988113458E+04 0.  0.
        1    1    3    3  502    0 -0.51588025109E+03 -0.81735190192E+02  0.95734291310E+03  0.10905588146E+04  0.50400001928E-02 0. -1.
       -1    1    3    3    0  502  0.51588025109E+03  0.81735190192E+02 -0.64905328076E+03  0.83311658012E+03  0.50400001928E-02 0.  1.
</event>
<event>
 5   0  0.4955675E-05  0.2642931E+04  0.7818609E-02  0.8353763E-01
       -2   -1    0    0    0  501  0.00000000000E+00  0.00000000000E+00  0.11239208048E+04  0.11239208048E+04  0.25500000920E-02 0.  1.
        2   -1    0    0  501    0  0.00000000000E+00  0.00000000000E+00 -0.15537317723E+04  0.15537317723E+04  0.25500000920E-02 0. -1.
    10030    2    1    2    0    0  0.00000000000E+00  0.00000000000E+00 -0.42981096758E+03  0.26776525771E+04  0.26429312999E+04 0.  0.
        5    1    3    3  502    0 -0.96487429190E+03  0.32568895914E+02  0.69928262191E+03  0.11920828023E+04  0.46999998093E+01 0.  1.
       -5    1    3    3    0  502  0.96487429190E+03 -0.32568895914E+02 -0.11290935895E+04  0.14855697749E+04  0.46999998093E+01 0. -1.
</event>
<event>
 5   0  0.1993815E-05  0.2641695E+04  0.7818609E-02  0.8354175E-01
       -1   -1    0    0    0  501  0.00000000000E+00  0.00000000000E+00  0.11456121202E+04  0.11456121202E+04  0.50400001928E-02 0.  1.
        1   -1    0    0  501    0  0.00000000000E+00  0.00000000000E+00 -0.15228873610E+04  0.15228873610E+04  0.50400001928E-02 0. -1.
    10030    2    1    2    0    0  0.00000000000E+00  0.00000000000E+00 -0.37727524075E+03  0.26684994812E+04  0.26416950759E+04 0.  0.
        5    1    3    3  502    0  0.28065728233E+03 -0.60215819043E+03  0.96454695482E+03  0.11712113022E+04  0.46999998093E+01 0.  1.
       -5    1    3    3    0  502 -0.28065728233E+03  0.60215819043E+03 -0.13418221956E+04  0.14972881790E+04  0.46999998093E+01 0. -1.
</event>
<event>
 5   0  0.1954502E-05  0.2324931E+04  0.7818609E-02  0.8468155E-01
       -1   -1    0    0    0  501  0.00000000000E+00  0.00000000000E+00  0.10841620711E+04  0.10841620711E+04  0.50400001928E-02 0.  1.
        1   -1    0    0  501    0  0.00000000000E+00  0.00000000000E+00 -0.12464246136E+04  0.12464246136E+04  0.50400001928E-02 0. -1.
    10030    2    1    2    0    0  0.00000000000E+00  0.00000000000E+00 -0.16226254251E+03  0.23305866846E+04  0.23249312166E+04 0.  0.
        4    1    3    3  502    0  0.99695434048E+03 -0.56504895696E+03 -0.27686606565E+03  0.11789209948E+04  0.12699999809E+01 0.  1.
       -4    1    3    3    0  502 -0.99695434048E+03  0.56504895696E+03  0.11460352314E+03  0.11516656898E+04  0.12699999809E+01 0. -1.
</event>
<event>
 5   0  0.4955675E-05  0.2650862E+04  0.7818609E-02  0.8351127E-01
        2   -1    0    0  501    0  0.00000000000E+00  0.00000000000E+00  0.17138965000E+04  0.17138965000E+04  0.25500000920E-02 0. -1.
       -2   -1    0    0    0  501  0.00000000000E+00  0.00000000000E+00 -0.10250133070E+04  0.10250133070E+04  0.25500000920E-02 0.  1.
    10030    2    1    2    0    0  0.00000000000E+00  0.00000000000E+00  0.68888319301E+03  0.27389098070E+04  0.26508615349E+04 0.  0.
        5    1    3    3  502    0  0.33147667802E+03  0.40742608907E+02  0.16697015609E+04  0.17027807083E+04  0.46999998093E+01 0. -1.
       -5    1    3    3    0  502 -0.33147667802E+03 -0.40742608907E+02 -0.98081836789E+03  0.10361290986E+04  0.46999998093E+01 0.  1.
</event>
<event>
 5   0  0.1698625E-05  0.2391581E+04  0.7818609E-02  0.8442662E-01
       -3   -1    0    0    0  501  0.00000000000E+00  0.00000000000E+00  0.92314465799E+03  0.92314466352E+03  0.10100000352E+00 0.  1.
        3   -1    0    0  501    0  0.00000000000E+00  0.00000000000E+00 -0.15489608434E+04  0.15489608467E+04  0.10100000352E+00 0. -1.
    10030    2    1    2    0    0  0.00000000000E+00  0.00000000000E+00 -0.62581618540E+03  0.24721055102E+04  0.23915810159E+04 0.  0.
        1    1    3    3  502    0 -0.99306079930E+02 -0.27211433210E+03 -0.15121466122E+04  0.15396412842E+04  0.50400001928E-02 0. -1.
       -1    1    3    3    0  502  0.99306079930E+02  0.27211433210E+03  0.88633042680E+03  0.93246422599E+03  0.50400001928E-02 0.  1.
</event>
<event>
 5   0  0.4955675E-05  0.2532204E+04  0.7818609E-02  0.8391602E-01
       -2   -1    0    0    0  501  0.00000000000E+00  0.00000000000E+00  0.76813614455E+03  0.76813614456E+03  0.25500000920E-02 0. -1.
        2   -1    0    0  501    0  0.00000000000E+00  0.00000000000E+00 -0.20868885107E+04  0.20868885107E+04  0.25500000920E-02 0.  1.
    10030    2    1    2    0    0  0.00000000000E+00  0.00000000000E+00 -0.13187523662E+04  0.28550246553E+04  0.25322041740E+04 0.  0.
        5    1    3    3  502    0 -0.12275127010E+04  0.30066162296E+03 -0.74529891506E+03  0.14672005334E+04  0.46999998093E+01 0.  1.
       -5    1    3    3    0  502  0.12275127010E+04 -0.30066162296E+03 -0.57345345110E+03  0.13878241218E+04  0.46999998093E+01 0. -1.
</event>
<event>
 5   0  0.5049803E-05  0.2591666E+04  0.7818609E-02  0.8371038E-01
        2   -1    0    0  501    0  0.00000000000E+00  0.00000000000E+00  0.17731901034E+04  0.17731901034E+04  0.25500000920E-02 0.  1.
       -2   -1    0    0    0  501  0.00000000000E+00  0.00000000000E+00 -0.94698443290E+03  0.94698443290E+03  0.25500000920E-02 0. -1.
    10030    2    1    2    0    0  0.00000000000E+00  0.00000000000E+00  0.82620567048E+03  0.27201745363E+04  0.25916662011E+04 0.  0.
        4    1    3    3  502    0 -0.80619642187E+03  0.84170193340E+03  0.10075490207E+04  0.15406399506E+04  0.12699999809E+01 0.  1.
       -4    1    3    3    0  502  0.80619642187E+03 -0.84170193340E+03 -0.18134335021E+03  0.11795345857E+04  0.12699999809E+01 0. -1.
</event>
<event>
 5   0  0.5170532E-05  0.2513013E+04  0.7818609E-02  0.8398364E-01
        2   -1    0    0  501    0  0.00000000000E+00  0.00000000000E+00  0.15789226682E+04  0.15789226683E+04  0.25500000920E-02 0. -1.
       -2   -1    0    0    0  501  0.00000000000E+00  0.00000000000E+00 -0.99992773053E+03  0.99992773053E+03  0.25500000920E-02 0.  1.
    10030    2    1    2    0    0  0.00000000000E+00  0.00000000000E+00  0.57899493772E+03  0.25788503988E+04  0.25130129807E+04 0.  0.
        1    1    3    3  502    0  0.32596319643E+03 -0.68818081102E+03 -0.73616928044E+03  0.10591459029E+04  0.50400001928E-02 0.  1.
       -1    1    3    3    0  502 -0.32596319643E+03  0.68818081102E+03  0.13151642182E+04  0.15197044959E+04  0.50400001928E-02 0. -1.
</event>
<event>
 5   0  0.5170532E-05  0.2605913E+04  0.7818609E-02  0.8366195E-01
        2   -1    0    0  501    0  0.00000000000E+00  0.00000000000E+00  0.14569144112E+04  0.14569144112E+04  0.25500000920E-02 0.  1.
       -2   -1    0    0    0  501  0.00000000000E+00  0.00000000000E+00 -0.11652683564E+04  0.11652683564E+04  0.25500000920E-02 0. -1.
    10030    2    1    2    0    0  0.00000000000E+00  0.00000000000E+00  0.29164605482E+03  0.26221827677E+04  0.26059134763E+04 0.  0.
        1    1    3    3  502    0 -0.74582685062E+03 -0.94190864348E+03 -0.36155377888E+03  0.12546596028E+04  0.50400001928E-02 0. -1.
       -1    1    3    3    0  502  0.74582685062E+03  0.94190864348E+03  0.65319983370E+03  0.13675231649E+04  0.50400001928E-02 0.  1.
</event>
<event>
 5   0  0.2072710E-05  0.2601931E+04  0.7818609E-02  0.8367546E-01
       -1   -1    0    0    0  501  0.00000000000E+00  0.00000000000E+00  0.18031841991E+04  0.18031841992E+04  0.50400001928E-02 0. -1.
        1   -1    0    0  501    0  0.00000000000E+00  0.00000000000E+00 -0.93862361663E+03  0.93862361664E+03  0.50400001928E-02 0.  1.
    10030    2    1    2    0    0  0.00000000000E+00  0.00000000000E+00  0.86456058252E+03  0.27418078158E+04  0.26019310325E+04 0.  0.
        2    1    3    3  502    0 -0.12828641698E+02 -0.12351511721E+03  0.17969247205E+04  0.18012104290E+04  0.25500000920E-02 0. -1.
       -2    1    3    3    0  502  0.12828641698E+02  0.12351511721E+03 -0.93236413801E+03  0.94059738681E+03  0.25500000920E-02 0.  1.
</event>
<event>
 5   0  0.5170532E-05  0.2575349E+04  0.7818609E-02  0.8376623E-01
        2   -1    0    0  501    0  0.00000000000E+00  0.00000000000E+00  0.16611522032E+04  0.16611522032E+04  0.25500000920E-02 0.  1.
       -2   -1    0    0    0  501  0.00000000000E+00  0.00000000000E+00 -0.99816591190E+03  0.99816591190E+03  0.25500000920E-02 0. -1.
    10030    2    1    2    0    0  0.00000000000E+00  0.00000000000E+00  0.66298629128E+03  0.26593181151E+04  0.25753489113E+04 0.  0.
        1    1    3    3  502    0 -0.10911977088E+03  0.32583709773E+03  0.16129341127E+04  0.16491311017E+04  0.50400001928E-02 0.  1.
       -1    1    3    3    0  502  0.10911977088E+03 -0.32583709773E+03 -0.94994782139E+03  0.10101870134E+04  0.50400001928E-02 0. -1.
</event>
<event>
 5   0  0.1993815E-05  0.2403795E+04  0.7818609E-02  0.8438084E-01
       -1   -1    0    0    0  501  0.00000000000E+00  0.00000000000E+00  0.14145693874E+04  0.14145693874E+04  0.50400001928E-02 0.  1.
        1   -1    0    0  501    0  0.00000000000E+00  0.00000000000E+00 -0.10211992987E+04  0.10211992988E+04  0.50400001928E-02 0. -1.
    10030    2    1    2    0    0  0.00000000000E+00  0.00000000000E+00  0.39337008867E+03  0.24357686862E+04  0.24037947221E+04 0.  0.
        5    1    3    3  502    0  0.90317177088E+03 -0.22160972062E+03 -0.57482611368E+03  0.10932873671E+04  0.46999998093E+01 0. -1.
       -5    1    3    3    0  502 -0.90317177088E+03  0.22160972062E+03  0.96819620235E+03  0.13424813191E+04  0.46999998093E+01 0.  1.
</event>
<event>
 5   0  0.2159405E-05  0.2639309E+04  0.7818609E-02  0.8354970E-01
        1   -1    0    0  501    0  0.00000000000E+00  0.00000000000E+00  0.21100401250E+04  0.21100401250E+04  0.50400001928E-02 0.  1.
       -1   -1    0    0    0  501  0.00000000000E+00  0.00000000000E+00 -0.82533392505E+03  0.82533392506E+03  0.50400001928E-02 0. -1.
    10030    2    1    2    0    0  0.00000000000E+00  0.00000000000E+00  0.12847062000E+04  0.29353740501E+04  0.26393087720E+04 0.  0.
        3    1    3    3  502    0  0.82898490542E+03  0.76582850746E+02  0.17811287184E+04  0.19660875943E+04  0.10100000352E+00 0.  1.
       -3    1    3    3    0  502 -0.82898490542E+03 -0.76582850746E+02 -0.49642251846E+03  0.96928645584E+03  0.10100000352E+00 0. -1.
</event>
<event>
 5   0  0.5049803E-05  0.1720587E+04  0.7818609E-02  0.8749709E-01
       -2   -1    0    0    0  501  0.00000000000E+00  0.00000000000E+00  0.68527097645E+03  0.68527097645E+03  0.25500000920E-02 0.  1.
        2   -1    0    0  501    0  0.00000000000E+00  0.00000000000E+00 -0.10800175684E+04  0.10800175684E+04  0.25500000920E-02 0. -1.
    10030    2    1    2    0    0  0.00000000000E+00  0.00000000000E+00 -0.39474659192E+03  0.17652885448E+04  0.17205867530E+04 0.  0.
        4    1    3    3  502    0  0.41992432920E+03  0.45120015565E+03 -0.81311982783E+03  0.10203349891E+04  0.12699999809E+01 0. -1.
       -4    1    3    3    0  502 -0.41992432920E+03 -0.45120015565E+03  0.41837323592E+03  0.74495355570E+03  0.12699999809E+01 0.  1.
</event>
<event>
 5   0  0.2163800E-05  0.2601293E+04  0.7818609E-02  0.8367762E-01
        1   -1    0    0  501    0  0.00000000000E+00  0.00000000000E+00  0.23504632508E+04  0.23504632508E+04  0.50400001928E-02 0.  1.
       -1   -1    0    0    0  501  0.00000000000E+00  0.00000000000E+00 -0.71972240550E+03  0.71972240552E+03  0.50400001928E-02 0. -1.
    10030    2    1    2    0    0  0.00000000000E+00  0.00000000000E+00  0.16307408453E+04  0.30701856563E+04  0.26012928055E+04 0.  0.
        1    1    3    3  502    0  0.31931067679E+03  0.13774903690E+03 -0.66383507556E+03  0.74940717441E+03  0.50400001928E-02 0. -1.
       -1    1    3    3    0  502 -0.31931067679E+03 -0.13774903690E+03  0.22945759208E+04  0.23207784819E+04  0.50400001928E-02 0.  1.
</event>
<event>
 5   0  0.5182179E-05  0.2544858E+04  0.7818609E-02  0.8387177E-01
        2   -1    0    0  501    0  0.00000000000E+00  0.00000000000E+00  0.11204979955E+04  0.11204979955E+04  0.25500000920E-02 0.  1.
       -2   -1    0    0    0  501  0.00000000000E+00  0.00000000000E+00 -0.14449604359E+04  0.14449604359E+04  0.25500000920E-02 0. -1.
    10030    2    1    2    0    0  0.00000000000E+00  0.00000000000E+00 -0.32446244046E+03  0.25654584314E+04  0.25448577737E+04 0.  0.
        3    1    3    3  502    0  0.58940884690E+03 -0.76588736470E+03  0.67217007443E+03  0.11771995852E+04  0.10100000352E+00 0.  1.
       -3    1    3    3    0  502 -0.58940884690E+03  0.76588736470E+03 -0.99663251489E+03  0.13882588462E+04  0.10100000352E+00 0. -1.
</event>
<event>
 5   0  0.5182179E-05  0.2595688E+04  0.7818609E-02  0.8369667E-01
        2   -1    0    0  501    0  0.00000000000E+00  0.00000000000E+00  0.12901233021E+04  0.12901233021E+04  0.25500000920E-02 0. -1.
       -2   -1    0    0    0  501  0.00000000000E+00  0.00000000000E+00 -0.13056110480E+04  0.13056110480E+04  0.25500000920E-02 0.  1.
    10030    2    1    2    0    0  0.00000000000E+00  0.00000000000E+00 -0.15487745944E+02  0.25957343501E+04  0.25956881449E+04 0.  0.
        3    1    3    3  502    0  0.11373901049E+04 -0.44458002926E+02  0.61577862252E+03  0.12941468567E+04  0.10100000352E+00 0.  1.
       -3    1    3    3    0  502 -0.11373901049E+04  0.44458002926E+02 -0.63126636846E+03  0.13015874933E+04  0.10100000352E+00 0. -1.
</event>
<event>
 5   0  0.5182179E-05  0.2614721E+04  0.7818609E-02  0.8363218E-01
       -2   -1    0    0    0  501  0.00000000000E+00  0.00000000000E+00  0.97179190216E+03  0.97179190216E+03  0.25500000920E-02 0.  1.
        2   -1    0    0  501    0  0.00000000000E+00  0.00000000000E+00 -0.17588038236E+04  0.17588038236E+04  0.25500000920E-02 0. -1.
    10030    2    1    2    0    0  0.00000000000E+00  0.00000000000E+00 -0.78701192146E+03  0.27305957258E+04  0.26147208748E+04 0.  0.
        3    1    3    3  502    0  0.90487730938E+03  0.68387239758E+03 -0.10724777678E+04  0.15609910230E+04  0.10100000352E+00 0. -1.
       -3    1    3    3    0  502 -0.90487730938E+03 -0.68387239758E+03  0.28546584633E+03  0.11696047028E+04  0.10100000352E+00 0.  1.
</event>
<event>
 5   0  0.2072710E-05  0.2555693E+04  0.7818609E-02  0.8383409E-01
       -1   -1    0    0    0  501  0.00000000000E+00  0.00000000000E+00  0.18368818785E+04  0.18368818785E+04  0.50400001928E-02 0. -1.
        1   -1    0    0  501    0  0.00000000000E+00  0.00000000000E+00 -0.88894732333E+03  0.88894732335E+03  0.50400001928E-02 0.  1.
    10030    2    1    2    0    0  0.00000000000E+00  0.00000000000E+00  0.94793455513E+03  0.27258292018E+04  0.25556926491E+04 0.  0.
        2    1    3    3  502    0 -0.59041595173E+03 -0.10829752227E+04  0.11787784813E+03  0.12390809159E+04  0.25500000920E-02 0.  1.
       -2    1    3    3    0  502  0.59041595173E+03  0.10829752227E+04  0.83005670700E+03  0.14867482860E+04  0.25500000920E-02 0. -1.
</event>
<event>
 5   0  0.4955675E-05  0.2615651E+04  0.7818609E-02  0.8362904E-01
        2   -1    0    0  501    0  0.00000000000E+00  0.00000000000E+00  0.13890430361E+04  0.13890430361E+04  0.25500000920E-02 0.  1.
       -2   -1    0    0    0  501  0.00000000000E+00  0.00000000000E+00 -0.12313563681E+04  0.12313563681E+04  0.25500000920E-02 0. -1.
    10030    2    1    2    0    0  0.00000000000E+00  0.00000000000E+00  0.15768666800E+03  0.26203994041E+04  0.26156505791E+04 0.  0.
        5    1    3    3  502    0 -0.19813723887E+02  0.47457380142E+03 -0.11418811432E+04  0.12367406809E+04  0.46999998093E+01 0. -1.
       -5    1    3    3    0  502  0.19813723887E+02 -0.47457380142E+03  0.12995678112E+04  0.13836587233E+04  0.46999998093E+01 0.  1.
</event>
<event>
 5   0  0.4955675E-05  0.2479005E+04  0.7818609E-02  0.8410504E-01
       -2   -1    0    0    0  501  0.00000000000E+00  0.00000000000E+00  0.13272644727E+04  0.13272644727E+04  0.25500000920E-02 0. -1.
        2   -1    0    0  501    0  0.00000000000E+00  0.00000000000E+00 -0.11575431862E+04  0.11575431862E+04  0.25500000920E-02 0.  1.
    10030    2    1    2    0    0  0.00000000000E+00  0.00000000000E+00  0.16972128648E+03  0.24848076589E+04  0.24790045959E+04 0.  0.
        5    1    3    3  502    0 -0.66034877649E+03  0.85684852911E+03  0.69133399096E+03  0.12838281371E+04  0.46999998093E+01 0. -1.
       -5    1    3    3    0  502  0.66034877649E+03 -0.85684852911E+03 -0.52161270447E+03  0.12009795219E+04  0.46999998093E+01 0.  1.
</event>
<event>
 5   0  0.5049803E-05  0.2537915E+04  0.7818609E-02  0.8389601E-01
        2   -1    0    0  501    0  0.00000000000E+00  0.00000000000E+00  0.19798672634E+04  0.19798672634E+04  0.25500000920E-02 0. -1.
       -2   -1    0    0    0  501  0.00000000000E+00  0.00000000000E+00 -0.81331390100E+03  0.81331390100E+03  0.25500000920E-02 0.  1.
    10030    2    1    2    0    0  0.00000000000E+00  0.00000000000E+00  0.11665533624E+04  0.27931811644E+04  0.25379153394E+04 0.  0.
        4    1    3    3  502    0  0.38773904296E+03 -0.23065782023E+03  0.18886173045E+04  0.19417573307E+04  0.12699999809E+01 0. -1.
       -4    1    3    3    0  502 -0.38773904296E+03  0.23065782023E+03 -0.72206394203E+03  0.85142383379E+03  0.12699999809E+01 0.  1.
</event>
<event>
 5   0  0.5049803E-05  0.2638010E+04  0.7818609E-02  0.8355404E-01
        2   -1    0    0  501    0  0.00000000000E+00  0.00000000000E+00  0.14458343979E+04  0.14458343979E+04  0.25500000920E-02 0.  1.
       -2   -1    0    0    0  501  0.00000000000E+00  0.00000000000E+00 -0.12033011620E+04  0.12033011620E+04  0.25500000920E-02 0. -1.
    10030    2    1    2    0    0  0.00000000000E+00  0.00000000000E+00  0.24253323584E+03  0.26491355599E+04  0.26380100160E+04 0.  0.
        4    1    3    3  502    0 -0.33728957489E+03 -0.12573177843E+04  0.33467245602E+03  0.13441054772E+04  0.12699999809E+01 0. -1.
       -4    1    3    3    0  502  0.33728957489E+03  0.12573177843E+04 -0.92139220175E+02  0.13050300827E+04  0.12699999809E+01 0.  1.
</event>
<event>
 5   0  0.1954502E-05  0.2713768E+04  0.7818609E-02  0.8330551E-01
        1   -1    0    0  501    0  0.00000000000E+00  0.00000000000E+00  0.14603984124E+04  0.14603984125E+04  0.50400001928E-02 0.  1.
       -1   -1    0    0    0  501  0.00000000000E+00  0.00000000000E+00 -0.12607069980E+04  0.12607069980E+04  0.50400001928E-02 0. -1.
    10030    2    1    2    0    0  0.00000000000E+00  0.00000000000E+00  0.19969141444E+03  0.27211054105E+04  0.27137682277E+04 0.  0.
        4    1    3    3  502    0  0.40642447036E+01 -0.48179328572E+03  0.13717355537E+04  0.14538917878E+04  0.12699999809E+01 0.  1.
       -4    1    3    3    0  502 -0.40642447036E+01  0.48179328572E+03 -0.11720441393E+04  0.12672136227E+04  0.12699999809E+01 0. -1.
</event>
<event>
 5   0  0.5182179E-05  0.1977227E+04  0.7818609E-02  0.8617342E-01
       -2   -1    0    0    0  501  0.00000000000E+00  0.00000000000E+00  0.12705509598E+04  0.12705509598E+04  0.25500000920E-02 0.  1.
        2   -1    0    0  501    0  0.00000000000E+00  0.00000000000E+00 -0.76923865937E+03  0.76923865937E+03  0.25500000920E-02 0. -1.
    10030    2    1    2    0    0  0.00000000000E+00  0.00000000000E+00  0.50131230048E+03  0.20397896192E+04  0.19772272677E+04 0.  0.
        3    1    3    3  502    0  0.51213800843E+03  0.50099182461E+03 -0.45213232590E+03  0.84717282672E+03  0.10100000352E+00 0. -1.
       -3    1    3    3    0  502 -0.51213800843E+03 -0.50099182461E+03  0.95344462638E+03  0.11926167925E+04  0.10100000352E+00 0.  1.
</event>
<event>
 5   0  0.1954502E-05  0.2553265E+04  0.7818609E-02  0.8384252E-01
       -1   -1    0    0    0  501  0.00000000000E+00  0.00000000000E+00  0.12195630720E+04  0.12195630721E+04  0.50400001928E-02 0. -1.
        1   -1    0    0  501    0  0.00000000000E+00  0.00000000000E+00 -0.13363723830E+04  0.13363723830E+04  0.50400001928E-02 0.  1.
    10030    2    1    2    0    0  0.00000000000E+00  0.00000000000E+00 -0.11680931097E+03  0.25559354551E+04  0.25532648972E+04 0.  0.
        4    1    3    3  502    0  0.29319763636E+03  0.10926871530E+04 -0.65051188548E+03  0.13050277370E+04  0.12699999809E+01 0.  1.
       -4    1    3    3    0  502 -0.29319763636E+03 -0.10926871530E+04  0.53370257451E+03  0.12509077181E+04  0.12699999809E+01 0. -1.
</event>
<event>
 5   0  0.5170532E-05  0.2519423E+04  0.7818609E-02  0.8396098E-01
       -2   -1    0    0    0  501  0.00000000000E+00  0.00000000000E+00  0.87433616547E+03  0.87433616547E+03  0.25500000920E-02 0.  1.
        2   -1    0    0  501    0  0.00000000000E+00  0.00000000000E+00 -0.18149465355E+04  0.18149465355E+04  0.25500000920E-02 0. -1.
    10030    2    1    2    0    0  0.00000000000E+00  0.00000000000E+00 -0.94061037002E+03  0.26892827010E+04  0.25194232629E+04 0.  0.
        1    1    3    3  502    0  0.41029241383E+03 -0.43595488325E+02  0.80016358714E+03  0.90027895547E+03  0.50400001928E-02 0.  1.
       -1    1    3    3    0  502 -0.41029241383E+03  0.43595488325E+02 -0.17407739572E+04  0.17890037455E+04  0.50400001928E-02 0. -1.
</event>
<event>
 5   0  0.5036452E-05  0.2572118E+04  0.7818609E-02  0.8377734E-01
        2   -1    0    0  501    0  0.00000000000E+00  0.00000000000E+00  0.10404367330E+04  0.10404367330E+04  0.25500000920E-02 0.  1.
       -2   -1    0    0    0  501  0.00000000000E+00  0.00000000000E+00 -0.15896663152E+04  0.15896663152E+04  0.25500000920E-02 0. -1.
    10030    2    1    2    0    0  0.00000000000E+00  0.00000000000E+00 -0.54922958220E+03  0.26301030482E+04  0.25721175926E+04 0.  0.
        2    1    3    3  502    0 -0.75501849796E+03 -0.62354581095E+03 -0.11271275295E+04  0.14930769499E+04  0.25500000920E-02 0. -1.
       -2    1    3    3    0  502  0.75501849796E+03  0.62354581095E+03  0.57789794732E+03  0.11370260983E+04  0.25500000920E-02 0.  1.
</event>
<event>
 5   0  0.2163800E-05  0.2581527E+04  0.7818609E-02  0.8374503E-01
        1   -1    0    0  501    0  0.00000000000E+00  0.00000000000E+00  0.13129854135E+04  0.13129854135E+04  0.50400001928E-02 0. -1.
       -1   -1    0    0    0  501  0.00000000000E+00  0.00000000000E+00 -0.12689174149E+04  0.12689174149E+04  0.50400001928E-02 0.  1.
    10030    2    1    2    0    0  0.00000000000E+00  0.00000000000E+00  0.44067998584E+02  0.25819028284E+04  0.25815267240E+04 0.  0.
        1    1    3    3  502    0  0.43001256280E+03 -0.55021568566E+02  0.12379955986E+04  0.13117054850E+04  0.50400001928E-02 0. -1.
       -1    1    3    3    0  502 -0.43001256280E+03  0.55021568566E+02 -0.11939276000E+04  0.12701973434E+04  0.50400001928E-02 0.  1.
</event>
<event>
 5   0  0.2072710E-05  0.1280311E+04  0.7818609E-02  0.9045326E-01
        1   -1    0    0  501    0  0.00000000000E+00  0.00000000000E+00  0.14100352782E+04  0.14100352782E+04  0.50400001928E-02 0.  1.
       -1   -1    0    0    0  501  0.00000000000E+00  0.00000000000E+00 -0.29063047158E+03  0.29063047162E+03  0.50400001928E-02 0. -1.
    10030    2    1    2    0    0  0.00000000000E+00  0.00000000000E+00  0.11194048066E+04  0.17006657498E+04  0.12803112401E+04 0.  0.
        2    1    3    3  502    0  0.22355793081E+03  0.55735052648E+03  0.26512182116E+03  0.65643532648E+03  0.25500000920E-02 0. -1.
       -2    1    3    3    0  502 -0.22355793081E+03 -0.55735052648E+03  0.85428298542E+03  0.10442304233E+04  0.25500000920E-02 0.  1.
</event>
<event>
 5   0  0.5049803E-05  0.1707488E+04  0.7818609E-02  0.8757105E-01
        2   -1    0    0  501    0  0.00000000000E+00  0.00000000000E+00  0.32029588665E+03  0.32029588666E+03  0.25500000920E-02 0.  1.
       -2   -1    0    0    0  501  0.00000000000E+00  0.00000000000E+00 -0.22756410681E+04  0.22756410681E+04  0.25500000920E-02 0. -1.
    10030    2    1    2    0    0  0.00000000000E+00  0.00000000000E+00 -0.19553451815E+04  0.25959369548E+04  0.17074875972E+04 0.  0.
        4    1    3    3  502    0 -0.28503082928E+03 -0.70169616960E+03 -0.15767209186E+04  0.17491914007E+04  0.12699999809E+01 0. -1.
       -4    1    3    3    0  502  0.28503082928E+03  0.70169616960E+03 -0.37862426283E+03  0.84674555409E+03  0.12699999809E+01 0.  1.
</event>
<event>
 5   0  0.5049803E-05  0.2608942E+04  0.7818609E-02  0.8365170E-01
        2   -1    0    0  501    0  0.00000000000E+00  0.00000000000E+00  0.20004962912E+04  0.20004962912E+04  0.25500000920E-02 0. -1.
       -2   -1    0    0    0  501  0.00000000000E+00  0.00000000000E+00 -0.85061136750E+03  0.85061136750E+03  0.25500000920E-02 0.  1.
    10030    2    1    2    0    0  0.00000000000E+00  0.00000000000E+00  0.11498849237E+04  0.28511076587E+04  0.26089422270E+04 0.  0.
        4    1    3    3  502    0 -0.40146924954E+03  0.97740102639E+03  0.14108992976E+04  0.17627049570E+04  0.12699999809E+01 0. -1.
       -4    1    3    3    0  502  0.40146924954E+03 -0.97740102639E+03 -0.26101437390E+03  0.10884027017E+04  0.12699999809E+01 0.  1.
</event>
<event>
 5   0  0.1954502E-05  0.1339886E+04  0.7818609E-02  0.8998520E-01
       -1   -1    0    0    0  501  0.00000000000E+00  0.00000000000E+00  0.80033820559E+03  0.80033820561E+03  0.50400001928E-02 0. -1.
        1   -1    0    0  501    0  0.00000000000E+00  0.00000000000E+00 -0.56079271856E+03  0.56079271858E+03  0.50400001928E-02 0.  1.
    10030    2    1    2    0    0  0.00000000000E+00  0.00000000000E+00  0.23954548703E+03  0.13611309242E+04  0.13398863207E+04 0.  0.
        4    1    3    3  502    0  0.90717358530E+02  0.61707650474E+03 -0.12866401132E+03  0.63684306745E+03  0.12699999809E+01 0. -1.
       -4    1    3    3    0  502 -0.90717358530E+02 -0.61707650474E+03  0.36820949836E+03  0.72428785674E+03  0.12699999809E+01 0.  1.
</event>
<event>
 5   0  0.2072710E-05  0.1734896E+04  0.7818609E-02  0.8741709E-01
       -1   -1    0    0    0  501  0.00000000000E+00  0.00000000000E+00  0.57513390058E+03  0.57513390060E+03  0.50400001928E-02 0.  1.
        1   -1    0    0  501    0  0.00000000000E+00  0.00000000000E+00 -0.13083314195E+04  0.13083314195E+04  0.50400001928E-02 0. -1.
    10030    2    1    2    0    0  0.00000000000E+00  0.00000000000E+00 -0.73319751889E+03  0.18834653201E+04  0.17348956770E+04 0.  0.
        2    1    3    3  502    0  0.79424149929E+03 -0.50115426805E+02  0.81181459116E+01  0.79586243755E+03  0.25500000920E-02 0. -1.
       -2    1    3    3    0  502 -0.79424149929E+03  0.50115426805E+02 -0.74131566481E+03  0.10876028825E+04  0.25500000920E-02 0.  1.
</event>
<event>
 5   0  0.4955675E-05  0.2589733E+04  0.7818609E-02  0.8371697E-01
        2   -1    0    0  501    0  0.00000000000E+00  0.00000000000E+00  0.23363305006E+04  0.23363305006E+04  0.25500000920E-02 0.  1.
       -2   -1    0    0    0  501  0.00000000000E+00  0.00000000000E+00 -0.71765492148E+03  0.71765492149E+03  0.25500000920E-02 0. -1.
    10030    2    1    2    0    0  0.00000000000E+00  0.00000000000E+00  0.16186755791E+04  0.30539854221E+04  0.25897328681E+04 0.  0.
        5    1    3    3  502    0  0.11149648886E+04  0.44541530336E+03  0.13811489379E+04  0.18300644726E+04  0.46999998093E+01 0.  1.
       -5    1    3    3    0  502 -0.11149648886E+04 -0.44541530336E+03  0.23752664122E+03  0.12239209495E+04  0.46999998093E+01 0. -1.
</event>
<event>
 5   0  0.2072710E-05  0.2644993E+04  0.7818609E-02  0.8353077E-01
        1   -1    0    0  501    0  0.00000000000E+00  0.00000000000E+00  0.93305259314E+03  0.93305259315E+03  0.50400001928E-02 0. -1.
       -1   -1    0    0    0  501  0.00000000000E+00  0.00000000000E+00 -0.18744895534E+04  0.18744895534E+04  0.50400001928E-02 0.  1.
    10030    2    1    2    0    0  0.00000000000E+00  0.00000000000E+00 -0.94143696024E+03  0.28075421465E+04  0.26449932617E+04 0.  0.
        2    1    3    3  502    0 -0.46976557208E+03  0.35644410843E+02 -0.17823985929E+04  0.18436092213E+04  0.25500000920E-02 0.  1.
       -2    1    3    3    0  502  0.46976557208E+03 -0.35644410843E+02  0.84096163269E+03  0.96393292525E+03  0.25500000920E-02 0. -1.
</event>
<event>
 5   0  0.1993815E-05  0.2720412E+04  0.7818609E-02  0.8328412E-01
        1   -1    0    0  501    0  0.00000000000E+00  0.00000000000E+00  0.97598938187E+03  0.97598938188E+03  0.50400001928E-02 0. -1.
       -1   -1    0    0    0  501  0.00000000000E+00  0.00000000000E+00 -0.18956774048E+04  0.18956774048E+04  0.50400001928E-02 0.  1.
    10030    2    1    2    0    0  0.00000000000E+00  0.00000000000E+00 -0.91968802293E+03  0.28716667867E+04  0.27204124824E+04 0.  0.
        5    1    3    3  502    0  0.10570756977E+04  0.37119879068E+03 -0.12740538871E+04  0.16965945214E+04  0.46999998093E+01 0.  1.
       -5    1    3    3    0  502 -0.10570756977E+04 -0.37119879068E+03  0.35436586414E+03  0.11750722653E+04  0.46999998093E+01 0. -1.
</event>
<event>
 5   0  0.5036452E-05  0.2634963E+04  0.7818609E-02  0.8356421E-01
       -2   -1    0    0    0  501  0.00000000000E+00  0.00000000000E+00  0.85348184763E+03  0.85348184764E+03  0.25500000920E-02 0. -1.
        2   -1    0    0  501    0  0.00000000000E+00  0.00000000000E+00 -0.20337365368E+04  0.20337365368E+04  0.25500000920E-02 0.  1.
    10030    2    1    2    0    0  0.00000000000E+00  0.00000000000E+00 -0.11802546891E+04  0.28872183844E+04  0.26349627830E+04 0.  0.
        2    1    3    3  502    0 -0.27236569991E+03  0.45797780173E+03 -0.19103984028E+04  0.19833176243E+04  0.25500000920E-02 0.  1.
       -2    1    3    3    0  502  0.27236569991E+03 -0.45797780173E+03  0.73014371372E+03  0.90390076007E+03  0.25500000920E-02 0. -1.
</event>
<event>
 5   0  0.1954502E-05  0.2501325E+04  0.7818609E-02  0.8402514E-01
       -1   -1    0    0    0  501  0.00000000000E+00  0.00000000000E+00  0.24346192681E+04  0.24346192681E+04  0.50400001928E-02 0.  1.
        1   -1    0    0  501    0  0.00000000000E+00  0.00000000000E+00 -0.64246441533E+03  0.64246441535E+03  0.50400001928E-02 0. -1.
    10030    2    1    2    0    0  0.00000000000E+00  0.00000000000E+00  0.17921548527E+04  0.30770836834E+04  0.25013246448E+04 0.  0.
        4    1    3    3  502    0  0.96266071259E+03 -0.58645895425E+03  0.22961310024E+03  0.11503797379E+04  0.12699999809E+01 0. -1.
       -4    1    3    3    0  502 -0.96266071259E+03  0.58645895425E+03  0.15625417525E+04  0.19267039456E+04  0.12699999809E+01 0.  1.
</event>
<event>
 5   0  0.5182179E-05  0.2586216E+04  0.7818609E-02  0.8372898E-01
        2   -1    0    0  501    0  0.00000000000E+00  0.00000000000E+00  0.15422863745E+04  0.15422863745E+04  0.25500000920E-02 0.  1.
       -2   -1    0    0    0  501  0.00000000000E+00  0.00000000000E+00 -0.10841882515E+04  0.10841882515E+04  0.25500000920E-02 0. -1.
    10030    2    1    2    0    0  0.00000000000E+00  0.00000000000E+00  0.45809812303E+03  0.26264746260E+04  0.25862163620E+04 0.  0.
        3    1    3    3  502    0 -0.58618699225E+03  0.65796328394E+03 -0.73204276547E+03  0.11456079144E+04  0.10100000352E+00 0. -1.
       -3    1    3    3    0  502  0.58618699225E+03 -0.65796328394E+03  0.11901408885E+04  0.14808667116E+04  0.10100000352E+00 0.  1.
</event>
<event>
 5   0  0.2072710E-05  0.2526854E+04  0.7818609E-02  0.8393481E-01
        1   -1    0    0  501    0  0.00000000000E+00  0.00000000000E+00  0.15941134234E+04  0.15941134234E+04  0.50400001928E-02 0.  1.
       -1   -1    0    0    0  501  0.00000000000E+00  0.00000000000E+00 -0.10013385337E+04  0.10013385337E+04  0.50400001928E-02 0. -1.
    10030    2    1    2    0    0  0.00000000000E+00  0.00000000000E+00  0.59277488969E+03  0.25954519570E+04  0.25268535358E+04 0.  0.
        2    1    3    3  502    0  0.65293523886E+03 -0.10427482273E+04  0.11849165195E+01  0.12303047166E+04  0.25500000920E-02 0. -1.
       -2    1    3    3    0  502 -0.65293523886E+03  0.10427482273E+04  0.59158997317E+03  0.13651472404E+04  0.25500000920E-02 0.  1.
</event>
<event>
 5   0  0.5036452E-05  0.2385042E+04  0.7818609E-02  0.8445125E-01
        2   -1    0    0  501    0  0.00000000000E+00  0.00000000000E+00  0.14012624727E+04  0.14012624727E+04  0.25500000920E-02 0.  1.
       -2   -1    0    0    0  501  0.00000000000E+00  0.00000000000E+00 -0.10148749106E+04  0.10148749106E+04  0.25500000920E-02 0. -1.
    10030    2    1    2    0    0  0.00000000000E+00  0.00000000000E+00  0.38638756215E+03  0.24161373833E+04  0.23850418249E+04 0.  0.
        2    1    3    3  502    0 -0.27699598392E+03  0.28692284675E+03  0.13317033718E+04  0.13901386138E+04  0.25500000920E-02 0.  1.
       -2    1    3    3    0  502  0.27699598392E+03 -0.28692284675E+03 -0.94531580962E+03  0.10259987695E+04  0.25500000920E-02 0. -1.
</event>
<event>
 5   0  0.2159405E-05  0.1808403E+04  0.7818609E-02  0.8701844E-01
        1   -1    0    0  501    0  0.00000000000E+00  0.00000000000E+00  0.20843586346E+04  0.20843586346E+04  0.50400001928E-02 0.  1.
       -1   -1    0    0    0  501  0.00000000000E+00  0.00000000000E+00 -0.39224554444E+03  0.39224554447E+03  0.50400001928E-02 0. -1.
    10030    2    1    2    0    0  0.00000000000E+00  0.00000000000E+00  0.16921130901E+04  0.24766041791E+04  0.18084030386E+04 0.  0.
        3    1    3    3  502    0 -0.84016183550E+03 -0.15400008783E+03  0.12522978276E+04  0.15158620637E+04  0.10100000352E+00 0.  1.
       -3    1    3    3    0  502  0.84016183550E+03  0.15400008783E+03  0.43981526252E+03  0.96074211536E+03  0.10100000352E+00 0. -1.
</event>
<event>
 5   0  0.5036452E-05  0.1962240E+04  0.7818609E-02  0.8624481E-01
       -2   -1    0    0    0  501  0.00000000000E+00  0.00000000000E+00  0.10682148522E+04  0.10682148522E+04  0.25500000920E-02 0. -1.
        2   -1    0    0  501    0  0.00000000000E+00  0.00000000000E+00 -0.90112654906E+03  0.90112654906E+03  0.25500000920E-02 0.  1.
    10030    2    1    2    0    0  0.00000000000E+00  0.00000000000E+00  0.16708830312E+03  0.19693414013E+04  0.19622403150E+04 0.  0.
        2    1    3    3  502    0 -0.33288194540E+03 -0.92168405805E+03  0.13151745850E+03  0.98874098445E+03  0.25500000920E-02 0.  1.
       -2    1    3    3    0  502  0.33288194540E+03  0.92168405805E+03  0.35570844627E+02  0.98060041680E+03  0.25500000920E-02 0. -1.
</event>
<event>
 5   0  0.1993815E-05  0.3061589E+04  0.7818609E-02  0.8226359E-01
        1   -1    0    0  501    0  0.00000000000E+00  0.00000000000E+00  0.13963186907E+04  0.13963186907E+04  0.50400001928E-02 0. -1.
       -1   -1    0    0    0  501  0.00000000000E+00  0.00000000000E+00 -0.16782215839E+04  0.16782215839E+04  0.50400001928E-02 0.  1.
    10030    2    1    2    0    0  0.00000000000E+00  0.00000000000E+00 -0.28190289322E+03  0.30745402746E+04  0.30615892375E+04 0.  0.
        5    1    3    3  502    0  0.33820859698E+03  0.43162686269E+03  0.12942980446E+04  0.14056729072E+04  0.46999998093E+01 0. -1.
       -5    1    3    3    0  502 -0.33820859698E+03 -0.43162686269E+03 -0.15762009379E+04  0.16688673675E+04  0.46999998093E+01 0.  1.
</event>
<event>
 5   0  0.1954502E-05  0.1278820E+04  0.7818609E-02  0.9046532E-01
        1   -1    0    0  501    0  0.00000000000E+00  0.00000000000E+00  0.12574770016E+04  0.12574770017E+04  0.50400001928E-02 0. -1.
       -1   -1    0    0    0  501  0.00000000000E+00  0.00000000000E+00 -0.32513106745E+03  0.32513106749E+03  0.50400001928E-02 0.  1.
    10030    2    1    2    0    0  0.00000000000E+00  0.00000000000E+00  0.93234593419E+03  0.15826080691E+04  0.12788195180E+04 0.  0.
        4    1    3    3  502    0 -0.36598365781E+03 -0.12188010313E+03  0.10972580246E+04  0.11630888112E+04  0.12699999809E+01 0. -1.
       -4    1    3    3    0  502  0.36598365781E+03  0.12188010313E+03 -0.16491209039E+03  0.41951925794E+03  0.12699999809E+01 0.  1.
</event>
<event>
 5   0  0.5182179E-05  0.2618459E+04  0.7818609E-02  0.8361958E-01
       -2   -1    0    0    0  501  0.00000000000E+00  0.00000000000E+00  0.14776314650E+04  0.14776314650E+04  0.25500000920E-02 0. -1.
        2   -1    0    0  501    0  0.00000000000E+00  0.00000000000E+00 -0.11600199021E+04  0.11600199021E+04  0.25500000920E-02 0.  1.
    10030    2    1    2    0    0  0.00000000000E+00  0.00000000000E+00  0.31761156289E+03  0.26376513671E+04  0.26184590181E+04 0.  0.
        3    1    3    3  502    0  0.19644544521E+02  0.77627377341E+03 -0.90300519593E+03  0.11909682084E+04  0.10100000352E+00 0.  1.
       -3    1    3    3    0  502 -0.19644544521E+02 -0.77627377341E+03  0.12206167588E+04  0.14466831587E+04  0.10100000352E+00 0. -1.
</event>
<event>
 5   0  0.2159405E-05  0.2560429E+04  0.7818609E-02  0.8381768E-01
        1   -1    0    0  501    0  0.00000000000E+00  0.00000000000E+00  0.17007185110E+04  0.17007185110E+04  0.50400001928E-02 0.  1.
       -1   -1    0    0    0  501  0.00000000000E+00  0.00000000000E+00 -0.96368079404E+03  0.96368079405E+03  0.50400001928E-02 0. -1.
    10030    2    1    2    0    0  0.00000000000E+00  0.00000000000E+00  0.73703771696E+03  0.26643993051E+04  0.25604294680E+04 0.  0.
        3    1    3    3  502    0 -0.12095319719E+04  0.26254841718E+03  0.28047306940E+02  0.12380169320E+04  0.10100000352E+00 0.  1.
       -3    1    3    3    0  502  0.12095319719E+04 -0.26254841718E+03  0.70899041002E+03  0.14263823730E+04  0.10100000352E+00 0. -1.
</event>
<event>
 5   0  0.2072710E-05  0.1753617E+04  0.7818609E-02  0.8731362E-01
        1   -1    0    0  501    0  0.00000000000E+00  0.00000000000E+00  0.55798006610E+03  0.55798006612E+03  0.50400001928E-02 0.  1.
       -1   -1    0    0    0  501  0.00000000000E+00  0.00000000000E+00 -0.13778149341E+04  0.13778149341E+04  0.50400001928E-02 0. -1.
    10030    2    1    2    0    0  0.00000000000E+00  0.00000000000E+00 -0.81983486800E+03  0.19357950002E+04  0.17536171395E+04 0.  0.
        2    1    3    3  502    0 -0.46833698802E+02  0.65109151396E+03 -0.10561201509E+04  0.12415729250E+04  0.25500000920E-02 0. -1.
       -2    1    3    3    0  502  0.46833698802E+02 -0.65109151396E+03  0.23628528287E+03  0.69422207528E+03  0.25500000920E-02 0.  1.
</event>
<event>
 5   0  0.2072710E-05  0.2568682E+04  0.7818609E-02  0.8378918E-01
       -1   -1    0    0    0  501  0.00000000000E+00  0.00000000000E+00  0.85395157818E+03  0.85395157819E+03  0.50400001928E-02 0. -1.
        1   -1    0    0  501    0  0.00000000000E+00  0.00000000000E+00 -0.19316456706E+04  0.19316456706E+04  0.50400001928E-02 0.  1.
    10030    2    1    2    0    0  0.00000000000E+00  0.00000000000E+00 -0.10776940925E+04  0.27855972488E+04  0.25686820504E+04 0.  0.
        2    1    3    3  502    0  0.72071021150E+03 -0.43922417813E+03  0.51099020308E+03  0.98663674940E+03  0.25500000920E-02 0. -1.
       -2    1    3    3    0  502 -0.72071021150E+03  0.43922417813E+03 -0.15886842955E+04  0.17989604994E+04  0.25500000920E-02 0.  1.
</event>
<event>
 5   0  0.5049803E-05  0.2474791E+04  0.7818609E-02  0.8412022E-01
       -2   -1    0    0    0  501  0.00000000000E+00  0.00000000000E+00  0.88516270917E+03  0.88516270918E+03  0.25500000920E-02 0.  1.
        2   -1    0    0  501    0  0.00000000000E+00  0.00000000000E+00 -0.17297927485E+04  0.17297927485E+04  0.25500000920E-02 0. -1.
    10030    2    1    2    0    0  0.00000000000E+00  0.00000000000E+00 -0.84463003931E+03  0.26149554577E+04  0.24747913331E+04 0.  0.
        4    1    3    3  502    0 -0.22898494964E+03 -0.34737086773E+03 -0.16536689953E+04  0.17052047929E+04  0.12699999809E+01 0. -1.
       -4    1    3    3    0  502  0.22898494964E+03  0.34737086773E+03  0.80903895595E+03  0.90975066477E+03  0.12699999809E+01 0.  1.
</event>
<event>
 5   0  0.2163800E-05  0.2659746E+04  0.7818609E-02  0.8348185E-01
       -1   -1    0    0    0  501  0.00000000000E+00  0.00000000000E+00  0.30366217069E+04  0.30366217069E+04  0.50400001928E-02 0.  1.
        1   -1    0    0  501    0  0.00000000000E+00  0.00000000000E+00 -0.58241098676E+03  0.58241098678E+03  0.50400001928E-02 0. -1.
    10030    2    1    2    0    0  0.00000000000E+00  0.00000000000E+00  0.24542107202E+04  0.36190326937E+04  0.26597457358E+04 0.  0.
        1    1    3    3  502    0 -0.32427339827E+03 -0.10146689356E+04  0.14380836886E+03  0.10748893584E+04  0.50400001928E-02 0. -1.
       -1    1    3    3    0  502  0.32427339827E+03  0.10146689356E+04  0.23104023513E+04  0.25441433353E+04  0.50400001928E-02 0.  1.
</event>
<event>
 5   0  0.2163800E-05  0.2580722E+04  0.7818609E-02  0.8374779E-01
        1   -1    0    0  501    0  0.00000000000E+00  0.00000000000E+00  0.11794707755E+04  0.11794707755E+04  0.50400001928E-02 0. -1.
       -1   -1    0    0    0  501  0.00000000000E+00  0.00000000000E+00 -0.14116765357E+04  0.14116765357E+04  0.50400001928E-02 0.  1.
    10030    2    1    2    0    0  0.00000000000E+00  0.00000000000E+00 -0.23220576019E+03  0.25911473112E+04  0.25807217737E+04 0.  0.
        1    1    3    3  502    0 -0.66188451100E+03 -0.34150479692E+03 -0.11740743118E+04  0.13903838038E+04  0.50400001928E-02 0.  1.
       -1    1    3    3    0  502  0.66188451100E+03  0.34150479692E+03  0.94186855162E+03  0.12007635074E+04  0.50400001928E-02 0. -1.
</event>
<event>
 5   0  0.4955675E-05  0.1560393E+04  0.7818609E-02  0.8845257E-01
        2   -1    0    0  501    0  0.00000000000E+00  0.00000000000E+00  0.12720739964E+04  0.12720739964E+04  0.25500000920E-02 0. -1.
       -2   -1    0    0    0  501  0.00000000000E+00  0.00000000000E+00 -0.47851500184E+03  0.47851500185E+03  0.25500000920E-02 0.  1.
    10030    2    1    2    0    0  0.00000000000E+00  0.00000000000E+00  0.79355899451E+03  0.17505889982E+04  0.15603928873E+04 0.  0.
        5    1    3    3  502    0  0.15960084421E+03 -0.60644936152E+03 -0.12394076316E+03  0.63924694785E+03  0.46999998093E+01 0.  1.
       -5    1    3    3    0  502 -0.15960084421E+03  0.60644936152E+03  0.91749975767E+03  0.11113420504E+04  0.46999998093E+01 0. -1.
</event>
<event>
 5   0  0.5170532E-05  0.1653106E+04  0.7818609E-02  0.8788571E-01
        2   -1    0    0  501    0  0.00000000000E+00  0.00000000000E+00  0.73291446062E+03  0.73291446062E+03  0.25500000920E-02 0.  1.
       -2   -1    0    0    0  501  0.00000000000E+00  0.00000000000E+00 -0.93215553822E+03  0.93215553822E+03  0.25500000920E-02 0. -1.
    10030    2    1    2    0    0  0.00000000000E+00  0.00000000000E+00 -0.19924107760E+03  0.16650699988E+04  0.16531064981E+04 0.  0.
        1    1    3    3  502    0 -0.41086545460E+03 -0.66981948460E+03  0.15859720929E+03  0.80163684954E+03  0.50400001928E-02 0. -1.
       -1    1    3    3    0  502  0.41086545460E+03  0.66981948460E+03 -0.35783828689E+03  0.86343314930E+03  0.50400001928E-02 0.  1.
</event>
<event>
 5   0  0.5170532E-05  0.2536584E+04  0.7818609E-02  0.8390067E-01
        2   -1    0    0  501    0  0.00000000000E+00  0.00000000000E+00  0.15256079447E+04  0.15256079447E+04  0.25500000920E-02 0.  1.
       -2   -1    0    0    0  501  0.00000000000E+00  0.00000000000E+00 -0.10543759631E+04  0.10543759631E+04  0.25500000920E-02 0. -1.
    10030    2    1    2    0    0  0.00000000000E+00  0.00000000000E+00  0.47123198159E+03  0.25799839078E+04  0.25365838019E+04 0.  0.
        1    1    3    3  502    0  0.15586277610E+03  0.26355401825E+03  0.14874505138E+04  0.15186385207E+04  0.50400001928E-02 0.  1.
       -1    1    3    3    0  502 -0.15586277610E+03 -0.26355401825E+03 -0.10162185322E+04  0.10613453871E+04  0.50400001928E-02 0. -1.
</event>
<event>
 5   0  0.2159405E-05  0.2663215E+04  0.7818609E-02  0.8347040E-01
        1   -1    0    0  501    0  0.00000000000E+00  0.00000000000E+00  0.83604333752E+03  0.83604333753E+03  0.50400001928E-02 0. -1.
       -1   -1    0    0    0  501  0.00000000000E+00  0.00000000000E+00 -0.21209167348E+04  0.21209167348E+04  0.50400001928E-02 0.  1.
    10030    2    1    2    0    0  0.00000000000E+00  0.00000000000E+00 -0.12848733972E+04  0.29569600723E+04  0.26632148284E+04 0.  0.
        3    1    3    3  502    0  0.85338067916E+03 -0.91874292867E+03 -0.14486600855E+03  0.12622730779E+04  0.10100000352E+00 0. -1.
       -3    1    3    3    0  502 -0.85338067916E+03  0.91874292867E+03 -0.11400073887E+04  0.16946869944E+04  0.10100000352E+00 0.  1.
</event>
<event>
 5   0  0.4955675E-05  0.2596549E+04  0.7818609E-02  0.8369374E-01
        2   -1    0    0  501    0  0.00000000000E+00  0.00000000000E+00  0.18932335518E+04  0.18932335518E+04  0.25500000920E-02 0. -1.
       -2   -1    0    0    0  501  0.00000000000E+00  0.00000000000E+00 -0.89028490600E+03  0.89028490601E+03  0.25500000920E-02 0.  1.
    10030    2    1    2    0    0  0.00000000000E+00  0.00000000000E+00  0.10029486458E+04  0.27835184579E+04  0.25965494447E+04 0.  0.
        5    1    3    3  502    0  0.98064886207E+03 -0.35203159263E+02  0.14127328227E+04  0.17201010352E+04  0.46999998093E+01 0. -1.
       -5    1    3    3    0  502 -0.98064886207E+03  0.35203159263E+02 -0.40978417687E+03  0.10634174226E+04  0.46999998093E+01 0.  1.
</event>
<event>
 5   0  0.5036452E-05  0.2431899E+04  0.7818609E-02  0.8427657E-01
        2   -1    0    0  501    0  0.00000000000E+00  0.00000000000E+00  0.14328138125E+04  0.14328138125E+04  0.25500000920E-02 0. -1.
       -2   -1    0    0    0  501  0.00000000000E+00  0.00000000000E+00 -0.10319089345E+04  0.10319089345E+04  0.25500000920E-02 0.  1.
    10030    2    1    2    0    0  0.00000000000E+00  0.00000000000E+00  0.40090487797E+03  0.24647227470E+04  0.24318991546E+04 0.  0.
        2    1    3    3  502    0 -0.11338281503E+04 -0.42746104619E+03  0.30303193559E+03  0.12490466662E+04  0.25500000920E-02 0. -1.
       -2    1    3    3    0  502  0.11338281503E+04  0.42746104619E+03  0.97872942378E+02  0.12156760808E+04  0.25500000920E-02 0.  1.
</event>
<event>
 5   0  0.1993815E-05  0.2579033E+04  0.7818609E-02  0.8375358E-01
       -1   -1    0    0    0  501  0.00000000000E+00  0.00000000000E+00  0.11528126056E+04  0.11528126056E+04  0.50400001928E-02 0. -1.
        1   -1    0    0  501    0  0.00000000000E+00  0.00000000000E+00 -0.14424311543E+04  0.14424311543E+04  0.50400001928E-02 0.  1.
    10030    2    1    2    0    0  0.00000000000E+00  0.00000000000E+00 -0.28961854875E+03  0.25952437599E+04  0.25790330105E+04 0.  0.
        5    1    3    3  502    0 -0.14727553257E+03  0.36862169973E+03 -0.13794108466E+04  0.14353983467E+04  0.46999998093E+01 0.  1.
       -5    1    3    3    0  502  0.14727553257E+03 -0.36862169973E+03  0.10897922979E+04  0.11598454132E+04  0.46999998093E+01 0. -1.
</event>
<event>
 5   0  0.5170532E-05  0.2573777E+04  0.7818609E-02  0.8377164E-01
        2   -1    0    0  501    0  0.00000000000E+00  0.00000000000E+00  0.20370680465E+04  0.20370680465E+04  0.25500000920E-02 0. -1.
       -2   -1    0    0    0  501  0.00000000000E+00  0.00000000000E+00 -0.81297303461E+03  0.81297303461E+03  0.25500000920E-02 0.  1.
    10030    2    1    2    0    0  0.00000000000E+00  0.00000000000E+00  0.12240950119E+04  0.28500410811E+04  0.25737765183E+04 0.  0.
        1    1    3    3  502    0 -0.83666492239E+03  0.60851870446E+03  0.14595615098E+04  0.17890285093E+04  0.50400001928E-02 0. -1.
       -1    1    3    3    0  502  0.83666492239E+03 -0.60851870446E+03 -0.23546649788E+03  0.10610125719E+04  0.50400001928E-02 0.  1.
</event>
<event>
 5   0  0.5049803E-05  0.1543340E+04  0.7818609E-02  0.8856133E-01
       -2   -1    0    0    0  501  0.00000000000E+00  0.00000000000E+00  0.41124910985E+03  0.41124910986E+03  0.25500000920E-02 0.  1.
        2   -1    0    0  501    0  0.00000000000E+00  0.00000000000E+00 -0.14479659301E+04  0.14479659301E+04  0.25500000920E-02 0. -1.
    10030    2    1    2    0    0  0.00000000000E+00  0.00000000000E+00 -0.10367168202E+04  0.18592150400E+04  0.15433401438E+04 0.  0.
        4    1    3    3  502    0  0.35713928281E+03  0.56482603566E+03 -0.98320508973E+03  0.11888106574E+04  0.12699999809E+01 0. -1.
       -4    1    3    3    0  502 -0.35713928281E+03 -0.56482603566E+03 -0.53511730516E+02  0.67040438251E+03  0.12699999809E+01 0.  1.
</event>
<event>
 5   0  0.5170532E-05  0.1628671E+04  0.7818609E-02  0.8803125E-01
       -2   -1    0    0    0  501  0.00000000000E+00  0.00000000000E+00  0.59799437432E+03  0.59799437433E+03  0.25500000920E-02 0. -1.
        2   -1    0    0  501    0  0.00000000000E+00  0.00000000000E+00 -0.11089442658E+04  0.11089442658E+04  0.25500000920E-02 0.  1.
    10030    2    1    2    0    0  0.00000000000E+00  0.00000000000E+00 -0.51094989150E+03  0.17069386402E+04  0.16286711545E+04 0.  0.
        1    1    3    3  502    0 -0.23595127357E+03  0.71345632164E+03 -0.58431997054E+03  0.95190480322E+03  0.50400001928E-02 0.  1.
       -1    1    3    3    0  502  0.23595127357E+03 -0.71345632164E+03  0.73370079039E+02  0.75503383694E+03  0.50400001928E-02 0. -1.
</event>
<event>
 5   0  0.5036452E-05  0.2593407E+04  0.7818609E-02  0.8370444E-01
       -2   -1    0    0    0  501  0.00000000000E+00  0.00000000000E+00  0.98176788646E+03  0.98176788647E+03  0.25500000920E-02 0. -1.
        2   -1    0    0  501    0  0.00000000000E+00  0.00000000000E+00 -0.17126650164E+04  0.17126650164E+04  0.25500000920E-02 0.  1.
    10030    2    1    2    0    0  0.00000000000E+00  0.00000000000E+00 -0.73089712998E+03  0.26944329029E+04  0.25934066503E+04 0.  0.
        2    1    3    3  502    0 -0.10517918261E+03 -0.19538233228E+03 -0.16927934645E+04  0.17072746205E+04  0.25500000920E-02 0.  1.
       -2    1    3    3    0  502  0.10517918261E+03  0.19538233228E+03  0.96189633452E+03  0.98715828244E+03  0.25500000920E-02 0. -1.
</event>
<event>
 5   0  0.2072710E-05  0.2646972E+04  0.7818609E-02  0.8352419E-01
       -1   -1    0    0    0  501  0.00000000000E+00  0.00000000000E+00  0.14544641809E+04  0.14544641809E+04  0.50400001928E-02 0.  1.
        1   -1    0    0  501    0  0.00000000000E+00  0.00000000000E+00 -0.12043027199E+04  0.12043027199E+04  0.50400001928E-02 0. -1.
    10030    2    1    2    0    0  0.00000000000E+00  0.00000000000E+00  0.25016146100E+03  0.26587669009E+04  0.26469719826E+04 0.  0.
        2    1    3    3  502    0 -0.84277106067E+03 -0.49201563158E+03 -0.77292356921E+03  0.12448908732E+04  0.25500000920E-02 0. -1.
       -2    1    3    3    0  502  0.84277106067E+03  0.49201563158E+03  0.10230850302E+04  0.14138760276E+04  0.25500000920E-02 0.  1.
</event>
<event>
 5   0  0.2072710E-05  0.2518950E+04  0.7818609E-02  0.8396266E-01
       -1   -1    0    0    0  501  0.00000000000E+00  0.00000000000E+00  0.93403058749E+03  0.93403058751E+03  0.50400001928E-02 0.  1.
        1   -1    0    0  501    0  0.00000000000E+00  0.00000000000E+00 -0.16983138243E+04  0.16983138243E+04  0.50400001928E-02 0. -1.
    10030    2    1    2    0    0  0.00000000000E+00  0.00000000000E+00 -0.76428323678E+03  0.26323444118E+04  0.25189498280E+04 0.  0.
        2    1    3    3  502    0 -0.51567959101E+03 -0.82025908145E+03  0.45877322770E+03  0.10720183188E+04  0.25500000920E-02 0.  1.
       -2    1    3    3    0  502  0.51567959101E+03  0.82025908145E+03 -0.12230564645E+04  0.15603260930E+04  0.25500000920E-02 0. -1.
</event>
<event>
 5   0  0.5170532E-05  0.2532972E+04  0.7818609E-02  0.8391332E-01
       -2   -1    0    0    0  501  0.00000000000E+00  0.00000000000E+00  0.15142142692E+04  0.15142142692E+04  0.25500000920E-02 0.  1.
        2   -1    0    0  501    0  0.00000000000E+00  0.00000000000E+00 -0.10592866037E+04  0.10592866037E+04  0.25500000920E-02 0. -1.
    10030    2    1    2    0    0  0.00000000000E+00  0.00000000000E+00  0.45492766551E+03  0.25735008730E+04  0.25329720808E+04 0.  0.
        1    1    3    3  502    0  0.30223356255E+03 -0.78775737330E+02  0.14744719518E+04  0.15071888666E+04  0.50400001928E-02 0.  1.
       -1    1    3    3    0  502 -0.30223356255E+03  0.78775737330E+02 -0.10195442863E+04  0.10663120063E+04  0.50400001928E-02 0. -1.
</event>
<event>
 5   0  0.2159405E-05  0.2731327E+04  0.7818609E-02  0.8324911E-01
        1   -1    0    0  501    0  0.00000000000E+00  0.00000000000E+00  0.13883669686E+04  0.13883669686E+04  0.50400001928E-02 0.  1.
       -1   -1    0    0    0  501  0.00000000000E+00  0.00000000000E+00 -0.13433312478E+04  0.13433312478E+04  0.50400001928E-02 0. -1.
    10030    2    1    2    0    0  0.00000000000E+00  0.00000000000E+00  0.45035720790E+02  0.27316982164E+04  0.27313269539E+04 0.  0.
        3    1    3    3  502    0 -0.11241918506E+04 -0.20618867756E+03 -0.72505657362E+03  0.13535243377E+04  0.10100000352E+00 0. -1.
       -3    1    3    3    0  502  0.11241918506E+04  0.20618867756E+03  0.77009229441E+03  0.13781738787E+04  0.10100000352E+00 0.  1.
</event>
<event>
 5   0  0.1993815E-05  0.2658264E+04  0.7818609E-02  0.8348675E-01
        1   -1    0    0  501    0  0.00000000000E+00  0.00000000000E+00  0.13637073543E+04  0.13637073543E+04  0.50400001928E-02 0. -1.
       -1   -1    0    0    0  501  0.00000000000E+00  0.00000000000E+00 -0.12954329344E+04  0.12954329344E+04  0.50400001928E-02 0.  1.
    10030    2    1    2    0    0  0.00000000000E+00  0.00000000000E+00  0.68274419862E+02  0.26591402887E+04  0.26582636586E+04 0.  0.
        5    1    3    3  502    0  0.15811806565E+03 -0.58483431415E+03 -0.11492731373E+04  0.12991856418E+04  0.46999998093E+01 0.  1.
       -5    1    3    3    0  502 -0.15811806565E+03  0.58483431415E+03  0.12175475572E+04  0.13599546469E+04  0.46999998093E+01 0. -1.
</event>
<event>
 5   0  0.5182179E-05  0.2523116E+04  0.7818609E-02  0.8394796E-01
       -2   -1    0    0    0  501  0.00000000000E+00  0.00000000000E+00  0.11038997667E+04  0.11038997667E+04  0.25500000920E-02 0.  1.
        2   -1    0    0  501    0  0.00000000000E+00  0.00000000000E+00 -0.14417330060E+04  0.14417330060E+04  0.25500000920E-02 0. -1.
    10030    2    1    2    0    0  0.00000000000E+00  0.00000000000E+00 -0.33783323929E+03  0.25456327728E+04  0.25231161123E+04 0.  0.
        3    1    3    3  502    0  0.10882811306E+04 -0.61040797664E+03  0.18686312378E+02  0.12479194308E+04  0.10100000352E+00 0. -1.
       -3    1    3    3    0  502 -0.10882811306E+04  0.61040797664E+03 -0.35651955167E+03  0.12977133420E+04  0.10100000352E+00 0.  1.
</event>
<event>
 5   0  0.1954502E-05  0.2660484E+04  0.7818609E-02  0.8347942E-01
       -1   -1    0    0    0  501  0.00000000000E+00  0.00000000000E+00  0.12829661035E+04  0.12829661036E+04  0.50400001928E-02 0.  1.
        1   -1    0    0  501    0  0.00000000000E+00  0.00000000000E+00 -0.13792595801E+04  0.13792595801E+04  0.50400001928E-02 0. -1.
    10030    2    1    2    0    0  0.00000000000E+00  0.00000000000E+00 -0.96293476544E+02  0.26622256837E+04  0.26604836322E+04 0.  0.
        4    1    3    3  502    0  0.95561546985E+03  0.63116901712E+03 -0.72532201818E+03  0.13556064685E+04  0.12699999809E+01 0. -1.
       -4    1    3    3    0  502 -0.95561546985E+03 -0.63116901712E+03  0.62902854164E+03  0.13066192152E+04  0.12699999809E+01 0.  1.
</event>
<event>
 5   0  0.5036452E-05  0.2605537E+04  0.7818609E-02  0.8366323E-01
       -2   -1    0    0    0  501  0.00000000000E+00  0.00000000000E+00  0.76740864524E+03  0.76740864525E+03  0.25500000920E-02 0.  1.
        2   -1    0    0  501    0  0.00000000000E+00  0.00000000000E+00 -0.22116068147E+04  0.22116068148E+04  0.25500000920E-02 0. -1.
    10030    2    1    2    0    0  0.00000000000E+00  0.00000000000E+00 -0.14441981695E+04  0.29790154600E+04  0.26055373262E+04 0.  0.
        2    1    3    3  502    0 -0.98147722637E+03 -0.26769861915E+03 -0.16525322027E+04  0.19405727962E+04  0.25500000920E-02 0. -1.
       -2    1    3    3    0  502  0.98147722637E+03  0.26769861915E+03  0.20833403316E+03  0.10384426638E+04  0.25500000920E-02 0.  1.
</event>
<event>
 5   0  0.2163800E-05  0.2592132E+04  0.7818609E-02  0.8370879E-01
        1   -1    0    0  501    0  0.00000000000E+00  0.00000000000E+00  0.24038190194E+04  0.24038190195E+04  0.50400001928E-02 0.  1.
       -1   -1    0    0    0  501  0.00000000000E+00  0.00000000000E+00 -0.69879914880E+03  0.69879914881E+03  0.50400001928E-02 0. -1.
    10030    2    1    2    0    0  0.00000000000E+00  0.00000000000E+00  0.17050198707E+04  0.31026181683E+04  0.25921316978E+04 0.  0.
        1    1    3    3  502    0  0.45530176745E+03  0.12122483542E+04  0.78759982489E+03  0.15156382339E+04  0.50400001928E-02 0. -1.
       -1    1    3    3    0  502 -0.45530176745E+03 -0.12122483542E+04  0.91742004576E+03  0.15869799344E+04  0.50400001928E-02 0.  1.
</event>
<event>
 5   0  0.2163800E-05  0.2715215E+04  0.7818609E-02  0.8330085E-01
        1   -1    0    0  501    0  0.00000000000E+00  0.00000000000E+00  0.19332743672E+04  0.19332743672E+04  0.50400001928E-02 0.  1.
       -1   -1    0    0    0  501  0.00000000000E+00  0.00000000000E+00 -0.95335588757E+03  0.95335588759E+03  0.50400001928E-02 0. -1.
    10030    2    1    2    0    0  0.00000000000E+00  0.00000000000E+00  0.97991847963E+03  0.28866302548E+04  0.27152152771E+04 0.  0.
        1    1    3    3  502    0 -0.20539396985E+03  0.10894564368E+04 -0.34308839318E+03  0.11605221481E+04  0.50400001928E-02 0. -1.
       -1    1    3    3    0  502  0.20539396985E+03 -0.10894564368E+04  0.13230068728E+04  0.17261081067E+04  0.50400001928E-02 0.  1.
</event>
<event>
 5   0  0.4955675E-05  0.2618019E+04  0.7818609E-02  0.8362106E-01
        2   -1    0    0  501    0  0.00000000000E+00  0.00000000000E+00  0.10219701192E+04  0.10219701192E+04  0.25500000920E-02 0. -1.
       -2   -1    0    0    0  501  0.00000000000E+00  0.00000000000E+00 -0.16766691303E+04  0.16766691303E+04  0.25500000920E-02 0.  1.
    10030    2    1    2    0    0  0.00000000000E+00  0.00000000000E+00 -0.65469901105E+03  0.26986392495E+04  0.26180189082E+04 0.  0.
        5    1    3    3  502    0  0.13797187915E+03  0.41565103311E+03  0.94420199298E+03  0.10408369297E+04  0.46999998093E+01 0. -1.
       -5    1    3    3    0  502 -0.13797187915E+03 -0.41565103311E+03 -0.15989010040E+04  0.16578023198E+04  0.46999998093E+01 0.  1.
</event>
<event>
 5   0  0.2159405E-05  0.2588838E+04  0.7818609E-02  0.8372003E-01
        1   -1    0    0  501    0  0.00000000000E+00  0.00000000000E+00  0.13986885601E+04  0.13986885601E+04  0.50400001928E-02 0. -1.
       -1   -1    0    0    0  501  0.00000000000E+00  0.00000000000E+00 -0.11979222584E+04  0.11979222584E+04  0.50400001928E-02 0.  1.
    10030    2    1    2    0    0  0.00000000000E+00  0.00000000000E+00  0.20076630177E+03  0.25966108185E+04  0.25888376996E+04 0.  0.
        3    1    3    3  502    0  0.35264649646E+03  0.10809314208E+04  0.72090692292E+03  0.13462834358E+04  0.10100000352E+00 0. -1.
       -3    1    3    3    0  502 -0.35264649646E+03 -0.10809314208E+04 -0.52014062115E+03  0.12503273827E+04  0.10100000352E+00 0.  1.
</event>
<event>
 5   0  0.1993815E-05  0.2569084E+04  0.7818609E-02  0.8378779E-01
       -1   -1    0    0    0  501  0.00000000000E+00  0.00000000000E+00  0.91901965414E+03  0.91901965416E+03  0.50400001928E-02 0.  1.
        1   -1    0    0  501    0  0.00000000000E+00  0.00000000000E+00 -0.17954437219E+04  0.17954437219E+04  0.50400001928E-02 0. -1.
    10030    2    1    2    0    0  0.00000000000E+00  0.00000000000E+00 -0.87642406775E+03  0.27144633761E+04  0.25690839366E+04 0.  0.
        5    1    3    3  502    0 -0.26758782396E+03  0.57235257940E+03  0.74348392487E+03  0.97569521635E+03  0.46999998093E+01 0.  1.
       -5    1    3    3    0  502  0.26758782396E+03 -0.57235257940E+03 -0.16199079926E+04  0.17387681597E+04  0.46999998093E+01 0. -1.
</event>
<event>
 5   0  0.5036452E-05  0.2630478E+04  0.7818609E-02  0.8357922E-01
        2   -1    0    0  501    0  0.00000000000E+00  0.00000000000E+00  0.88702760347E+03  0.88702760347E+03  0.25500000920E-02 0. -1.
       -2   -1    0    0    0  501  0.00000000000E+00  0.00000000000E+00 -0.19501688174E+04  0.19501688174E+04  0.25500000920E-02 0.  1.
    10030    2    1    2    0    0  0.00000000000E+00  0.00000000000E+00 -0.10631412139E+04  0.28371964208E+04  0.26304779584E+04 0.  0.
        2    1    3    3  502    0 -0.52334258472E+03  0.82019687227E+03 -0.14861302151E+04  0.17762864033E+04  0.25500000920E-02 0.  1.
       -2    1    3    3    0  502  0.52334258472E+03 -0.82019687227E+03  0.42298900118E+03  0.10609100176E+04  0.25500000920E-02 0. -1.
</event>
<event>
 5   0  0.5049803E-05  0.2657359E+04  0.7818609E-02  0.8348975E-01
       -2   -1    0    0    0  501  0.00000000000E+00  0.00000000000E+00  0.85411945803E+03  0.85411945804E+03  0.25500000920E-02 0.  1.
        2   -1    0    0  501    0  0.00000000000E+00  0.00000000000E+00 -0.20669115345E+04  0.20669115345E+04  0.25500000920E-02 0. -1.
    10030    2    1    2    0    0  0.00000000000E+00  0.00000000000E+00 -0.12127920764E+04  0.29210309925E+04  0.26573591098E+04 0.  0.
        4    1    3    3  502    0 -0.83551161050E+03 -0.36532391178E+03  0.45584646013E+03  0.10194796810E+04  0.12699999809E+01 0.  1.
       -4    1    3    3    0  502  0.83551161050E+03  0.36532391178E+03 -0.16686385366E+04  0.19015513115E+04  0.12699999809E+01 0. -1.
</event>
<event>
 5   0  0.2159405E-05  0.1978615E+04  0.7818609E-02  0.8616684E-01
       -1   -1    0    0    0  501  0.00000000000E+00  0.00000000000E+00  0.61357564421E+03  0.61357564423E+03  0.50400001928E-02 0.  1.
        1   -1    0    0  501    0  0.00000000000E+00  0.00000000000E+00 -0.15951246068E+04  0.15951246068E+04  0.50400001928E-02 0. -1.
    10030    2    1    2    0    0  0.00000000000E+00  0.00000000000E+00 -0.98154896257E+03  0.22087002510E+04  0.19786152817E+04 0.  0.
        3    1    3    3  502    0  0.90315918925E+03  0.17171543196E+03 -0.82838224441E+02  0.92306277811E+03  0.10100000352E+00 0.  1.
       -3    1    3    3    0  502 -0.90315918925E+03 -0.17171543196E+03 -0.89871073813E+03  0.12856374729E+04  0.10100000352E+00 0. -1.
</event>
<event>
 5   0  0.5036452E-05  0.2459184E+04  0.7818609E-02  0.8417673E-01
        2   -1    0    0  501    0  0.00000000000E+00  0.00000000000E+00  0.17238631067E+04  0.17238631067E+04  0.25500000920E-02 0. -1.
       -2   -1    0    0    0  501  0.00000000000E+00  0.00000000000E+00 -0.87703955234E+03  0.87703955235E+03  0.25500000920E-02 0.  1.
    10030    2    1    2    0    0  0.00000000000E+00  0.00000000000E+00  0.84682355440E+03  0.26009026591E+04  0.24591837080E+04 0.  0.
        2    1    3    3  502    0 -0.56031389521E+03 -0.10930160875E+04  0.48380133056E+03  0.13201134634E+04  0.25500000920E-02 0. -1.
       -2    1    3    3    0  502  0.56031389521E+03  0.10930160875E+04  0.36302222384E+03  0.12807891957E+04  0.25500000920E-02 0.  1.
</event>
<event>
 5   0  0.5049803E-05  0.2493346E+04  0.7818609E-02  0.8405360E-01
        2   -1    0    0  501    0  0.00000000000E+00  0.00000000000E+00  0.16746998014E+04  0.16746998014E+04  0.25500000920E-02 0.  1.
       -2   -1    0    0    0  501  0.00000000000E+00  0.00000000000E+00 -0.92804296352E+03  0.92804296352E+03  0.25500000920E-02 0. -1.
    10030    2    1    2    0    0  0.00000000000E+00  0.00000000000E+00  0.74665683793E+03  0.26027427650E+04  0.24933458378E+04 0.  0.
        4    1    3    3  502    0  0.36084656593E+03  0.34794329616E+03 -0.81820738668E+03  0.95955183393E+03  0.12699999809E+01 0. -1.
       -4    1    3    3    0  502 -0.36084656593E+03 -0.34794329616E+03  0.15648642246E+04  0.16431909310E+04  0.12699999809E+01 0.  1.
</event>
<event>
 5   0  0.5182179E-05  0.2468243E+04  0.7818609E-02  0.8414387E-01
        2   -1    0    0  501    0  0.00000000000E+00  0.00000000000E+00  0.14064990468E+04  0.14064990468E+04  0.25500000920E-02 0.  1.
       -2   -1    0    0    0  501  0.00000000000E+00  0.00000000000E+00 -0.10828700416E+04  0.10828700416E+04  0.25500000920E-02 0. -1.
    10030    2    1    2    0    0  0.00000000000E+00  0.00000000000E+00  0.32362900518E+03  0.24893690885E+04  0.24682428417E+04 0.  0.
        3    1    3    3  502    0  0.80715866779E+03  0.87738788877E+03  0.48351335491E+03  0.12865068196E+04  0.10100000352E+00 0.  1.
       -3    1    3    3    0  502 -0.80715866779E+03 -0.87738788877E+03 -0.15988434973E+03  0.12028622689E+04  0.10100000352E+00 0. -1.
</event>
<event>
 5   0  0.1993815E-05  0.2480609E+04  0.7818609E-02  0.8409927E-01
        1   -1    0    0  501    0  0.00000000000E+00  0.00000000000E+00  0.84867533813E+03  0.84867533814E+03  0.50400001928E-02 0. -1.
       -1   -1    0    0    0  501  0.00000000000E+00  0.00000000000E+00 -0.18126539764E+04  0.18126539764E+04  0.50400001928E-02 0.  1.
    10030    2    1    2    0    0  0.00000000000E+00  0.00000000000E+00 -0.96397863824E+03  0.26613293145E+04  0.24806085756E+04 0.  0.
        5    1    3    3  502    0 -0.43125830805E+03  0.70441653261E+03 -0.14746809445E+04  0.16902344091E+04  0.46999998093E+01 0.  1.
       -5    1    3    3    0  502  0.43125830805E+03 -0.70441653261E+03  0.51070230627E+03  0.97109490540E+03  0.46999998093E+01 0. -1.
</event>
<event>
 5   0  0.5036452E-05  0.2589571E+04  0.7818609E-02  0.8371752E-01
        2   -1    0    0  501    0  0.00000000000E+00  0.00000000000E+00  0.10187794148E+04  0.10187794148E+04  0.25500000920E-02 0. -1.
       -2   -1    0    0    0  501  0.00000000000E+00  0.00000000000E+00 -0.16455666885E+04  0.16455666885E+04  0.25500000920E-02 0.  1.
    10030    2    1    2    0    0  0.00000000000E+00  0.00000000000E+00 -0.62678727375E+03  0.26643461033E+04  0.25895709822E+04 0.  0.
        2    1    3    3  502    0 -0.17951906191E+03  0.46293838550E+03 -0.15437198396E+04  0.16216072229E+04  0.25500000920E-02 0.  1.
       -2    1    3    3    0  502  0.17951906191E+03 -0.46293838550E+03  0.91693256583E+03  0.10427388804E+04  0.25500000920E-02 0. -1.
</event>
<event>
 5   0  0.1698625E-05  0.2588541E+04  0.7818609E-02  0.8372104E-01
       -3   -1    0    0    0  501  0.00000000000E+00  0.00000000000E+00  0.11329861307E+04  0.11329861352E+04  0.10100000352E+00 0. -1.
        3   -1    0    0  501    0  0.00000000000E+00  0.00000000000E+00 -0.14785141108E+04  0.14785141142E+04  0.10100000352E+00 0.  1.
    10030    2    1    2    0    0  0.00000000000E+00  0.00000000000E+00 -0.34552798008E+03  0.26115002494E+04  0.25885408955E+04 0.  0.
        3    1    3    3  502    0 -0.10954083779E+04  0.32763621795E+03  0.43913932122E+03  0.12247891081E+04  0.10100000352E+00 0. -1.
       -3    1    3    3    0  502  0.10954083779E+04 -0.32763621795E+03 -0.78466730130E+03  0.13867111414E+04  0.10100000352E+00 0.  1.
</event>
<event>
 5   0  0.1954502E-05  0.2684888E+04  0.7818609E-02  0.8339925E-01
        1   -1    0    0  501    0  0.00000000000E+00  0.00000000000E+00  0.85322444076E+03  0.85322444077E+03  0.50400001928E-02 0.  1.
       -1   -1    0    0    0  501  0.00000000000E+00  0.00000000000E+00 -0.21121701928E+04  0.21121701928E+04  0.50400001928E-02 0. -1.
    10030    2    1    2    0    0  0.00000000000E+00  0.00000000000E+00 -0.12589457520E+04  0.29653946336E+04  0.26848875072E+04 0.  0.
        4    1    3    3  502    0  0.13184043019E+04 -0.17364808027E+03 -0.83255858870E+03  0.15689164973E+04  0.12699999809E+01 0.  1.
       -4    1    3    3    0  502 -0.13184043019E+04  0.17364808027E+03 -0.42638716334E+03  0.13964781363E+04  0.12699999809E+01 0. -1.
</event>
<event>
 5   0  0.5036452E-05  0.2541336E+04  0.7818609E-02  0.8388405E-01
       -2   -1    0    0    0  501  0.00000000000E+00  0.00000000000E+00  0.70242752747E+03  0.70242752748E+03  0.25500000920E-02 0. -1.
        2   -1    0    0  501    0  0.00000000000E+00  0.00000000000E+00 -0.22985966912E+04  0.22985966912E+04  0.25500000920E-02 0.  1.
    10030    2    1    2    0    0  0.00000000000E+00  0.00000000000E+00 -0.15961691638E+04  0.30010242187E+04  0.25413363339E+04 0.  0.
        2    1    3    3  502    0  0.60019376296E+03 -0.99708592408E+03 -0.19573553194E+03  0.11801378274E+04  0.25500000920E-02 0. -1.
       -2    1    3    3    0  502 -0.60019376296E+03  0.99708592408E+03 -0.14004336318E+04  0.18208863914E+04  0.25500000920E-02 0.  1.
</event>
<event>
 5   0  0.1993815E-05  0.2705973E+04  0.7818609E-02  0.8333070E-01
       -1   -1    0    0    0  501  0.00000000000E+00  0.00000000000E+00  0.12141438977E+04  0.12141438977E+04  0.50400001928E-02 0.  1.
        1   -1    0    0  501    0  0.00000000000E+00  0.00000000000E+00 -0.15077064858E+04  0.15077064858E+04  0.50400001928E-02 0. -1.
    10030    2    1    2    0    0  0.00000000000E+00  0.00000000000E+00 -0.29356258808E+03  0.27218503835E+04  0.27059731183E+04 0.  0.
        5    1    3    3  502    0 -0.90676720904E+02  0.32273497258E+03  0.11716997450E+04  0.12187216715E+04  0.46999998093E+01 0.  1.
       -5    1    3    3    0  502  0.90676720904E+02 -0.32273497258E+03 -0.14652623330E+04  0.15031287120E+04  0.46999998093E+01 0. -1.
</event>
<event>
 5   0  0.1993815E-05  0.2616272E+04  0.7818609E-02  0.8362695E-01
        1   -1    0    0  501    0  0.00000000000E+00  0.00000000000E+00  0.15776555745E+04  0.15776555745E+04  0.50400001928E-02 0.  1.
       -1   -1    0    0    0  501  0.00000000000E+00  0.00000000000E+00 -0.10846598968E+04  0.10846598968E+04  0.50400001928E-02 0. -1.
    10030    2    1    2    0    0  0.00000000000E+00  0.00000000000E+00  0.49299567771E+03  0.26623154713E+04  0.26162719527E+04 0.  0.
        5    1    3    3  502    0  0.40418563414E+02 -0.16027159819E+03  0.15669777928E+04  0.15756783106E+04  0.46999998093E+01 0.  1.
       -5    1    3    3    0  502 -0.40418563414E+02  0.16027159819E+03 -0.10739821151E+04  0.10866371607E+04  0.46999998093E+01 0. -1.
</event>
<event>
 5   0  0.2159405E-05  0.2679002E+04  0.7818609E-02  0.8341850E-01
        1   -1    0    0  501    0  0.00000000000E+00  0.00000000000E+00  0.26740279734E+04  0.26740279734E+04  0.50400001928E-02 0.  1.
       -1   -1    0    0    0  501  0.00000000000E+00  0.00000000000E+00 -0.67099653345E+03  0.67099653347E+03  0.50400001928E-02 0. -1.
    10030    2    1    2    0    0  0.00000000000E+00  0.00000000000E+00  0.20030314400E+04  0.33450245069E+04  0.26790024267E+04 0.  0.
        3    1    3    3  502    0  0.11824165170E+04  0.54971279351E+03  0.13842717148E+04  0.19017100635E+04  0.10100000352E+00 0.  1.
       -3    1    3    3    0  502 -0.11824165170E+04 -0.54971279351E+03  0.61875972519E+03  0.14433144434E+04  0.10100000352E+00 0. -1.
</event>
<event>
 5   0  0.2072710E-05  0.2553535E+04  0.7818609E-02  0.8384158E-01
        1   -1    0    0  501    0  0.00000000000E+00  0.00000000000E+00  0.18717462491E+04  0.18717462491E+04  0.50400001928E-02 0. -1.
       -1   -1    0    0    0  501  0.00000000000E+00  0.00000000000E+00 -0.87091657254E+03  0.87091657255E+03  0.50400001928E-02 0.  1.
    10030    2    1    2    0    0  0.00000000000E+00  0.00000000000E+00  0.10008296766E+04  0.27426628217E+04  0.25535346702E+04 0.  0.
        2    1    3    3  502    0 -0.84238814594E+02 -0.70566992651E+03 -0.63883811633E+03  0.95560471009E+03  0.25500000920E-02 0.  1.
       -2    1    3    3    0  502  0.84238814594E+02  0.70566992651E+03  0.16396677929E+04  0.17870581116E+04  0.25500000920E-02 0. -1.
</event>
<event>
 5   0  0.4955675E-05  0.2557873E+04  0.7818609E-02  0.8382653E-01
       -2   -1    0    0    0  501  0.00000000000E+00  0.00000000000E+00  0.20277833587E+04  0.20277833587E+04  0.25500000920E-02 0.  1.
        2   -1    0    0  501    0  0.00000000000E+00  0.00000000000E+00 -0.80663379633E+03  0.80663379634E+03  0.25500000920E-02 0. -1.
    10030    2    1    2    0    0  0.00000000000E+00  0.00000000000E+00  0.12211495623E+04  0.28344171550E+04  0.25578730139E+04 0.  0.
        5    1    3    3  502    0  0.69312064201E+03  0.43913551472E+03 -0.47650810020E+03  0.94886157274E+03  0.46999998093E+01 0. -1.
       -5    1    3    3    0  502 -0.69312064201E+03 -0.43913551472E+03  0.16976576625E+04  0.18855555823E+04  0.46999998093E+01 0.  1.
</event>
<event>
 5   0  0.1954502E-05  0.1545593E+04  0.7818609E-02  0.8854688E-01
       -1   -1    0    0    0  501  0.00000000000E+00  0.00000000000E+00  0.11106932945E+04  0.11106932945E+04  0.50400001928E-02 0.  1.
        1   -1    0    0  501    0  0.00000000000E+00  0.00000000000E+00 -0.53769501202E+03  0.53769501205E+03  0.50400001928E-02 0. -1.
    10030    2    1    2    0    0  0.00000000000E+00  0.00000000000E+00  0.57299828244E+03  0.16483883065E+04  0.15455927592E+04 0.  0.
        4    1    3    3  502    0 -0.13469071724E+03  0.70032148461E+03  0.60399088155E+03  0.93455784680E+03  0.12699999809E+01 0.  1.
       -4    1    3    3    0  502  0.13469071724E+03 -0.70032148461E+03 -0.30992599115E+02  0.71383045972E+03  0.12699999809E+01 0. -1.
</event>
<event>
 5   0  0.1993815E-05  0.2551272E+04  0.7818609E-02  0.8384944E-01
       -1   -1    0    0    0  501  0.00000000000E+00  0.00000000000E+00  0.10395202358E+04  0.10395202358E+04  0.50400001928E-02 0.  1.
        1   -1    0    0  501    0  0.00000000000E+00  0.00000000000E+00 -0.15653827609E+04  0.15653827609E+04  0.50400001928E-02 0. -1.
    10030    2    1    2    0    0  0.00000000000E+00  0.00000000000E+00 -0.52586252506E+03  0.26049029967E+04  0.25512718842E+04 0.  0.
        5    1    3    3  502    0  0.37877325031E+03 -0.10466423110E+04  0.37330157900E+03  0.11740125473E+04  0.46999998093E+01 0.  1.
       -5    1    3    3    0  502 -0.37877325031E+03  0.10466423110E+04 -0.89916410407E+03  0.14308904494E+04  0.46999998093E+01 0. -1.
</event>
<event>
 5   0  0.5036452E-05  0.2395271E+04  0.7818609E-02  0.8441276E-01
       -2   -1    0    0    0  501  0.00000000000E+00  0.00000000000E+00  0.54889605670E+03  0.54889605671E+03  0.25500000920E-02 0.  1.
        2   -1    0    0  501    0  0.00000000000E+00  0.00000000000E+00 -0.26131193886E+04  0.26131193886E+04  0.25500000920E-02 0. -1.
    10030    2    1    2    0    0  0.00000000000E+00  0.00000000000E+00 -0.20642233319E+04  0.31620154453E+04  0.23952711146E+04 0.  0.
        2    1    3    3  502    0 -0.37162385229E+03  0.10026065496E+04 -0.31997911234E+03  0.11161141578E+04  0.25500000920E-02 0. -1.
       -2    1    3    3    0  502  0.37162385229E+03 -0.10026065496E+04 -0.17442442195E+04  0.20459012875E+04  0.25500000920E-02 0.  1.
</event>
<event>
 5   0  0.2072710E-05  0.2559708E+04  0.7818609E-02  0.8382018E-01
       -1   -1    0    0    0  501  0.00000000000E+00  0.00000000000E+00  0.11616792685E+04  0.11616792686E+04  0.50400001928E-02 0.  1.
        1   -1    0    0  501    0  0.00000000000E+00  0.00000000000E+00 -0.14100498332E+04  0.14100498332E+04  0.50400001928E-02 0. -1.
    10030    2    1    2    0    0  0.00000000000E+00  0.00000000000E+00 -0.24837056469E+03  0.25717291018E+04  0.25597075293E+04 0.  0.
        2    1    3    3  502    0 -0.46842468968E+03  0.92113753690E+02 -0.13172465853E+04  0.14010871493E+04  0.25500000920E-02 0. -1.
       -2    1    3    3    0  502  0.46842468968E+03 -0.92113753690E+02  0.10688760206E+04  0.11706419525E+04  0.25500000920E-02 0.  1.
</event>
<event>
 5   0  0.4955675E-05  0.2572762E+04  0.7818609E-02  0.8377513E-01
        2   -1    0    0  501    0  0.00000000000E+00  0.00000000000E+00  0.20224554094E+04  0.20224554094E+04  0.25500000920E-02 0. -1.
       -2   -1    0    0    0  501  0.00000000000E+00  0.00000000000E+00 -0.81820152639E+03  0.81820152639E+03  0.25500000920E-02 0.  1.
    10030    2    1    2    0    0  0.00000000000E+00  0.00000000000E+00  0.12042538830E+04  0.28406569358E+04  0.25727620201E+04 0.  0.
        5    1    3    3  502    0  0.12291345364E+04 -0.18561289684E+03  0.96754165186E+03  0.15752405512E+04  0.46999998093E+01 0. -1.
       -5    1    3    3    0  502 -0.12291345364E+04  0.18561289684E+03  0.23671223112E+03  0.12654163846E+04  0.46999998093E+01 0.  1.
</event>
<event>
 5   0  0.2163800E-05  0.2601019E+04  0.7818609E-02  0.8367855E-01
       -1   -1    0    0    0  501  0.00000000000E+00  0.00000000000E+00  0.92627611511E+03  0.92627611512E+03  0.50400001928E-02 0. -1.
        1   -1    0    0  501    0  0.00000000000E+00  0.00000000000E+00 -0.18259403498E+04  0.18259403498E+04  0.50400001928E-02 0.  1.
    10030    2    1    2    0    0  0.00000000000E+00  0.00000000000E+00 -0.89966423470E+03  0.27522164649E+04  0.26010189801E+04 0.  0.
        1    1    3    3  502    0 -0.65675663216E+03  0.10787613458E+04 -0.77814180114E+03  0.14834284539E+04  0.50400001928E-02 0.  1.
       -1    1    3    3    0  502  0.65675663216E+03 -0.10787613458E+04 -0.12152243356E+03  0.12687880111E+04  0.50400001928E-02 0. -1.
</event>
<event>
 5   0  0.5182179E-05  0.2709049E+04  0.7818609E-02  0.8332075E-01
        2   -1    0    0  501    0  0.00000000000E+00  0.00000000000E+00  0.17012239168E+04  0.17012239168E+04  0.25500000920E-02 0.  1.
       -2   -1    0    0    0  501  0.00000000000E+00  0.00000000000E+00 -0.10784802712E+04  0.10784802712E+04  0.25500000920E-02 0. -1.
    10030    2    1    2    0    0  0.00000000000E+00  0.00000000000E+00  0.62274364554E+03  0.27797041880E+04  0.27090488598E+04 0.  0.
        3    1    3    3  502    0 -0.29756061453E+03  0.10940113817E+04 -0.44912896178E+03  0.12194753204E+04  0.10100000352E+00 0.  1.
       -3    1    3    3    0  502  0.29756061453E+03 -0.10940113817E+04  0.10718726073E+04  0.15602288676E+04  0.10100000352E+00 0. -1.
</event>
<event>
 5   0  0.4955675E-05  0.2612019E+04  0.7818609E-02  0.8364130E-01
       -2   -1    0    0    0  501  0.00000000000E+00  0.00000000000E+00  0.61529689341E+03  0.61529689341E+03  0.25500000920E-02 0.  1.
        2   -1    0    0  501    0  0.00000000000E+00  0.00000000000E+00 -0.27720944888E+04  0.27720944888E+04  0.25500000920E-02 0. -1.
    10030    2    1    2    0    0  0.00000000000E+00  0.00000000000E+00 -0.21567975954E+04  0.33873913822E+04  0.26120192398E+04 0.  0.
        5    1    3    3  502    0  0.11415132089E+04  0.41727041400E+03 -0.16982758077E+04  0.20883797101E+04  0.46999998093E+01 0. -1.
       -5    1    3    3    0  502 -0.11415132089E+04 -0.41727041400E+03 -0.45852178765E+03  0.12990116721E+04  0.46999998093E+01 0.  1.
</event>
<event>
 5   0  0.2163800E-05  0.2281573E+04  0.7818609E-02  0.8485222E-01
       -1   -1    0    0    0  501  0.00000000000E+00  0.00000000000E+00  0.14257669461E+04  0.14257669461E+04  0.50400001928E-02 0. -1.
        1   -1    0    0  501    0  0.00000000000E+00  0.00000000000E+00 -0.91276769426E+03  0.91276769428E+03  0.50400001928E-02 0.  1.
    10030    2    1    2    0    0  0.00000000000E+00  0.00000000000E+00  0.51299925180E+03  0.23385346403E+04  0.22815731485E+04 0.  0.
        1    1    3    3  502    0 -0.47611171259E+03  0.50452720570E+03 -0.67173923608E+03  0.96564158230E+03  0.50400001928E-02 0.  1.
       -1    1    3    3    0  502  0.47611171259E+03 -0.50452720570E+03  0.11847384879E+04  0.13728930580E+04  0.50400001928E-02 0. -1.
</event>
<event>
 5   0  0.5036452E-05  0.2631095E+04  0.7818609E-02  0.8357715E-01
       -2   -1    0    0    0  501  0.00000000000E+00  0.00000000000E+00  0.11051141507E+04  0.11051141507E+04  0.25500000920E-02 0. -1.
        2   -1    0    0  501    0  0.00000000000E+00  0.00000000000E+00 -0.15660506910E+04  0.15660506910E+04  0.25500000920E-02 0.  1.
    10030    2    1    2    0    0  0.00000000000E+00  0.00000000000E+00 -0.46093654035E+03  0.26711648417E+04  0.26310946614E+04 0.  0.
        2    1    3    3  502    0 -0.40642785826E+03 -0.50537438248E+03  0.93154952300E+03  0.11350644846E+04  0.25500000920E-02 0. -1.
       -2    1    3    3    0  502  0.40642785826E+03  0.50537438248E+03 -0.13924860634E+04  0.15361003571E+04  0.25500000920E-02 0.  1.
</event>
<event>
 5   0  0.4955675E-05  0.2560174E+04  0.7818609E-02  0.8381856E-01
       -2   -1    0    0    0  501  0.00000000000E+00  0.00000000000E+00  0.88142235775E+03  0.88142235776E+03  0.25500000920E-02 0.  1.
        2   -1    0    0  501    0  0.00000000000E+00  0.00000000000E+00 -0.18590664965E+04  0.18590664965E+04  0.25500000920E-02 0. -1.
    10030    2    1    2    0    0  0.00000000000E+00  0.00000000000E+00 -0.97764413871E+03  0.27404888542E+04  0.25601740367E+04 0.  0.
        5    1    3    3  502    0  0.89276284622E+03 -0.69264401155E+03 -0.11327014396E+04  0.15999424576E+04  0.46999998093E+01 0. -1.
       -5    1    3    3    0  502 -0.89276284622E+03  0.69264401155E+03  0.15505730088E+03  0.11405463966E+04  0.46999998093E+01 0.  1.
</event>
<event>
 5   0  0.1954502E-05  0.2575251E+04  0.7818609E-02  0.8376657E-01
        1   -1    0    0  501    0  0.00000000000E+00  0.00000000000E+00  0.11688545348E+04  0.11688545348E+04  0.50400001928E-02 0. -1.
       -1   -1    0    0    0  501  0.00000000000E+00  0.00000000000E+00 -0.14184656645E+04  0.14184656645E+04  0.50400001928E-02 0.  1.
    10030    2    1    2    0    0  0.00000000000E+00  0.00000000000E+00 -0.24961112971E+03  0.25873201993E+04  0.25752514630E+04 0.  0.
        4    1    3    3  502    0  0.75339944755E+03 -0.54463719993E+03  0.77028942034E+03  0.12073060139E+04  0.12699999809E+01 0. -1.
       -4    1    3    3    0  502 -0.75339944755E+03  0.54463719993E+03 -0.10199005500E+04  0.13800141854E+04  0.12699999809E+01 0.  1.
</event>
<event>
 5   0  0.4955675E-05  0.2789038E+04  0.7818609E-02  0.8306680E-01
        2   -1    0    0  501    0  0.00000000000E+00  0.00000000000E+00  0.13797762163E+04  0.13797762163E+04  0.25500000920E-02 0.  1.
       -2   -1    0    0    0  501  0.00000000000E+00  0.00000000000E+00 -0.14094194352E+04  0.14094194352E+04  0.25500000920E-02 0. -1.
    10030    2    1    2    0    0  0.00000000000E+00  0.00000000000E+00 -0.29643218908E+02  0.27891956515E+04  0.27890381248E+04 0.  0.
        5    1    3    3  502    0  0.13192294319E+04 -0.24883636650E+03 -0.39216969482E+03  0.13986082335E+04  0.46999998093E+01 0. -1.
       -5    1    3    3    0  502 -0.13192294319E+04  0.24883636650E+03  0.36252647591E+03  0.13905874180E+04  0.46999998093E+01 0.  1.
</event>
<event>
 5   0  0.1954502E-05  0.2617325E+04  0.7818609E-02  0.8362340E-01
        1   -1    0    0  501    0  0.00000000000E+00  0.00000000000E+00  0.20181394242E+04  0.20181394242E+04  0.50400001928E-02 0.  1.
       -1   -1    0    0    0  501  0.00000000000E+00  0.00000000000E+00 -0.84860190865E+03  0.84860190866E+03  0.50400001928E-02 0. -1.
    10030    2    1    2    0    0  0.00000000000E+00  0.00000000000E+00  0.11695375155E+04  0.28667413328E+04  0.26173245632E+04 0.  0.
        4    1    3    3  502    0  0.12721575935E+04 -0.28785975748E+03  0.46809458249E+03  0.13857713858E+04  0.12699999809E+01 0. -1.
       -4    1    3    3    0  502 -0.12721575935E+04  0.28785975748E+03  0.70144293304E+03  0.14809699470E+04  0.12699999809E+01 0.  1.
</event>
<event>
 5   0  0.1993815E-05  0.2438582E+04  0.7818609E-02  0.8425199E-01
        1   -1    0    0  501    0  0.00000000000E+00  0.00000000000E+00  0.80859322747E+03  0.80859322749E+03  0.50400001928E-02 0. -1.
       -1   -1    0    0    0  501  0.00000000000E+00  0.00000000000E+00 -0.18385895047E+04  0.18385895047E+04  0.50400001928E-02 0.  1.
    10030    2    1    2    0    0  0.00000000000E+00  0.00000000000E+00 -0.10299962772E+04  0.26471827322E+04  0.24385823928E+04 0.  0.
        5    1    3    3  502    0 -0.11925725120E+04 -0.24890813359E+02 -0.24080445329E+03  0.12169049361E+04  0.46999998093E+01 0. -1.
       -5    1    3    3    0  502  0.11925725120E+04  0.24890813359E+02 -0.78919182392E+03  0.14302777960E+04  0.46999998093E+01 0.  1.
</event>
<event>
 5   0  0.1993815E-05  0.2653165E+04  0.7818609E-02  0.8350363E-01
       -1   -1    0    0    0  501  0.00000000000E+00  0.00000000000E+00  0.26113387456E+04  0.26113387456E+04  0.50400001928E-02 0.  1.
        1   -1    0    0  501    0  0.00000000000E+00  0.00000000000E+00 -0.67391537800E+03  0.67391537802E+03  0.50400001928E-02 0. -1.
    10030    2    1    2    0    0  0.00000000000E+00  0.00000000000E+00  0.19374233676E+04  0.32852541236E+04  0.26531651572E+04 0.  0.
        5    1    3    3  502    0  0.48540676656E+03 -0.96959670480E+03  0.22400296600E+02  0.10845558364E+04  0.46999998093E+01 0. -1.
       -5    1    3    3    0  502 -0.48540676656E+03  0.96959670480E+03  0.19150230710E+04  0.22006982873E+04  0.46999998093E+01 0.  1.
</event>
<event>
 5   0  0.1698625E-05  0.2387721E+04  0.7818609E-02  0.8444115E-01
       -3   -1    0    0    0  501  0.00000000000E+00  0.00000000000E+00  0.78134935395E+03  0.78134936048E+03  0.10100000352E+00 0.  1.
        3   -1    0    0  501    0  0.00000000000E+00  0.00000000000E+00 -0.18241551312E+04  0.18241551340E+04  0.10100000352E+00 0. -1.
    10030    2    1    2    0    0  0.00000000000E+00  0.00000000000E+00 -0.10428057772E+04  0.26055044944E+04  0.23877206247E+04 0.  0.
        5    1    3    3  502    0  0.14741622524E+02  0.11830402967E+04 -0.34722343766E+03  0.12330400905E+04  0.46999998093E+01 0.  1.
       -5    1    3    3    0  502 -0.14741622524E+02 -0.11830402967E+04 -0.69558233956E+03  0.13724644040E+04  0.46999998093E+01 0. -1.
</event>
<event>
 5   0  0.4955675E-05  0.2577893E+04  0.7818609E-02  0.8375749E-01
        2   -1    0    0  501    0  0.00000000000E+00  0.00000000000E+00  0.99323839633E+03  0.99323839633E+03  0.25500000920E-02 0. -1.
       -2   -1    0    0    0  501  0.00000000000E+00  0.00000000000E+00 -0.16726933532E+04  0.16726933532E+04  0.25500000920E-02 0.  1.
    10030    2    1    2    0    0  0.00000000000E+00  0.00000000000E+00 -0.67945495689E+03  0.26659317496E+04  0.25778931426E+04 0.  0.
        5    1    3    3  502    0  0.56910823776E+03  0.50232765207E+03  0.73755050901E+03  0.10584045066E+04  0.46999998093E+01 0. -1.
       -5    1    3    3    0  502 -0.56910823776E+03 -0.50232765207E+03 -0.14170054659E+04  0.16075272429E+04  0.46999998093E+01 0.  1.
</event>
<event>
 5   0  0.1993815E-05  0.2648481E+04  0.7818609E-02  0.8351917E-01
       -1   -1    0    0    0  501  0.00000000000E+00  0.00000000000E+00  0.10348516079E+04  0.10348516079E+04  0.50400001928E-02 0.  1.
        1   -1    0    0  501    0  0.00000000000E+00  0.00000000000E+00 -0.16945546769E+04  0.16945546769E+04  0.50400001928E-02 0. -1.
    10030    2    1    2    0    0  0.00000000000E+00  0.00000000000E+00 -0.65970306903E+03  0.27294062849E+04  0.26484807963E+04 0.  0.
        5    1    3    3  502    0 -0.76169968721E+03  0.10824741607E+04 -0.28794174523E+03  0.13545734608E+04  0.46999998093E+01 0. -1.
       -5    1    3    3    0  502  0.76169968721E+03 -0.10824741607E+04 -0.37176132380E+03  0.13748328240E+04  0.46999998093E+01 0.  1.
</event>
<event>
 5   0  0.1993815E-05  0.2546718E+04  0.7818609E-02  0.8386528E-01
       -1   -1    0    0    0  501  0.00000000000E+00  0.00000000000E+00  0.15122476172E+04  0.15122476172E+04  0.50400001928E-02 0. -1.
        1   -1    0    0  501    0  0.00000000000E+00  0.00000000000E+00 -0.10722074816E+04  0.10722074816E+04  0.50400001928E-02 0.  1.
    10030    2    1    2    0    0  0.00000000000E+00  0.00000000000E+00  0.44004013566E+03  0.25844550988E+04  0.25467180521E+04 0.  0.
        5    1    3    3  502    0 -0.29789361461E+03 -0.12273391359E+04  0.38465581120E+03  0.13202591197E+04  0.46999998093E+01 0. -1.
       -5    1    3    3    0  502  0.29789361461E+03  0.12273391359E+04  0.55384324457E+02  0.12641959791E+04  0.46999998093E+01 0.  1.
</event>
<event>
 5   0  0.5182179E-05  0.2527058E+04  0.7818609E-02  0.8393409E-01
        2   -1    0    0  501    0  0.00000000000E+00  0.00000000000E+00  0.98961326783E+03  0.98961326783E+03  0.25500000920E-02 0. -1.
       -2   -1    0    0    0  501  0.00000000000E+00  0.00000000000E+00 -0.16132621745E+04  0.16132621745E+04  0.25500000920E-02 0.  1.
    10030    2    1    2    0    0  0.00000000000E+00  0.00000000000E+00 -0.62364890664E+03  0.26028754423E+04  0.25270580938E+04 0.  0.
        3    1    3    3  502    0 -0.95382528499E+03 -0.71709264095E+02 -0.11621726946E+04  0.15051811437E+04  0.10100000352E+00 0.  1.
       -3    1    3    3    0  502  0.95382528499E+03  0.71709264095E+02  0.53852378800E+03  0.10976942987E+04  0.10100000352E+00 0. -1.
</event>
<event>
 5   0  0.5170532E-05  0.2602062E+04  0.7818609E-02  0.8367501E-01
        2   -1    0    0  501    0  0.00000000000E+00  0.00000000000E+00  0.11885898991E+04  0.11885898991E+04  0.25500000920E-02 0.  1.
       -2   -1    0    0    0  501  0.00000000000E+00  0.00000000000E+00 -0.14241086926E+04  0.14241086926E+04  0.25500000920E-02 0. -1.
    10030    2    1    2    0    0  0.00000000000E+00  0.00000000000E+00 -0.23551879344E+03  0.26126985917E+04  0.26020616498E+04 0.  0.
        1    1    3    3  502    0  0.89796133741E+03  0.44648156772E+03  0.71448401824E+03  0.12313276437E+04  0.50400001928E-02 0.  1.
       -1    1    3    3    0  502 -0.89796133741E+03 -0.44648156772E+03 -0.95000281168E+03  0.13813709480E+04  0.50400001928E-02 0. -1.
</event>
<event>
 5   0  0.5049803E-05  0.2653849E+04  0.7818609E-02  0.8350136E-01
        2   -1    0    0  501    0  0.00000000000E+00  0.00000000000E+00  0.15698642840E+04  0.15698642840E+04  0.25500000920E-02 0.  1.
       -2   -1    0    0    0  501  0.00000000000E+00  0.00000000000E+00 -0.11215804605E+04  0.11215804605E+04  0.25500000920E-02 0. -1.
    10030    2    1    2    0    0  0.00000000000E+00  0.00000000000E+00  0.44828382353E+03  0.26914447445E+04  0.26538493602E+04 0.  0.
        4    1    3    3  502    0 -0.67449603656E+02  0.13199456745E+04  0.34380263088E+03  0.13656529188E+04  0.12699999809E+01 0. -1.
       -4    1    3    3    0  502  0.67449603656E+02 -0.13199456745E+04  0.10448119265E+03  0.13257918258E+04  0.12699999809E+01 0.  1.
</event>
<event>
 5   0  0.2072710E-05  0.2033345E+04  0.7818609E-02  0.8591187E-01
       -1   -1    0    0    0  501  0.00000000000E+00  0.00000000000E+00  0.62667742092E+03  0.62667742094E+03  0.50400001928E-02 0. -1.
        1   -1    0    0  501    0  0.00000000000E+00  0.00000000000E+00 -0.16493707059E+04  0.16493707059E+04  0.50400001928E-02 0.  1.
    10030    2    1    2    0    0  0.00000000000E+00  0.00000000000E+00 -0.10226932850E+04  0.22760481269E+04  0.20333454012E+04 0.  0.
        2    1    3    3  502    0 -0.72396735828E+03  0.67455524473E+03 -0.77259191307E+03  0.12554090083E+04  0.25500000920E-02 0.  1.
       -2    1    3    3    0  502  0.72396735828E+03 -0.67455524473E+03 -0.25010137194E+03  0.10206391185E+04  0.25500000920E-02 0. -1.
</event>
<event>
 5   0  0.1698625E-05  0.2093174E+04  0.7818609E-02  0.8564256E-01
        4   -1    0    0  501    0  0.00000000000E+00  0.00000000000E+00  0.76595330352E+03  0.76595435639E+03  0.12699999809E+01 0. -1.
       -4   -1    0    0    0  501  0.00000000000E+00  0.00000000000E+00 -0.14300378590E+04  0.14300384229E+04  0.12699999809E+01 0.  1.
    10030    2    1    2    0    0  0.00000000000E+00  0.00000000000E+00 -0.66408455549E+03  0.21959927793E+04  0.20931736646E+04 0.  0.
        1    1    3    3  502    0  0.41924217120E+03 -0.61556074220E+03 -0.11034602678E+04  0.13312789295E+04  0.50400001928E-02 0.  1.
       -1    1    3    3    0  502 -0.41924217120E+03  0.61556074220E+03  0.43937571234E+03  0.86471384982E+03  0.50400001928E-02 0. -1.
</event>
<event>
 5   0  0.1954502E-05  0.2728056E+04  0.7818609E-02  0.8325959E-01
        1   -1    0    0  501    0  0.00000000000E+00  0.00000000000E+00  0.20209516342E+04  0.20209516342E+04  0.50400001928E-02 0. -1.
       -1   -1    0    0    0  501  0.00000000000E+00  0.00000000000E+00 -0.92064143261E+03  0.92064143262E+03  0.50400001928E-02 0.  1.
    10030    2    1    2    0    0  0.00000000000E+00  0.00000000000E+00  0.11003102016E+04  0.29415930668E+04  0.27280555770E+04 0.  0.
        4    1    3    3  502    0 -0.38918949111E+03  0.18576565659E+03 -0.84519759767E+03  0.94886138669E+03  0.12699999809E+01 0.  1.
       -4    1    3    3    0  502  0.38918949111E+03 -0.18576565659E+03  0.19455077993E+04  0.19927316801E+04  0.12699999809E+01 0. -1.
</event>
<event>
 5   0  0.5170532E-05  0.2825583E+04  0.7818609E-02  0.8295369E-01
        2   -1    0    0  501    0  0.00000000000E+00  0.00000000000E+00  0.10967514574E+04  0.10967514574E+04  0.25500000920E-02 0.  1.
       -2   -1    0    0    0  501  0.00000000000E+00  0.00000000000E+00 -0.18199022129E+04  0.18199022129E+04  0.25500000920E-02 0. -1.
    10030    2    1    2    0    0  0.00000000000E+00  0.00000000000E+00 -0.72315075545E+03  0.29166536703E+04  0.28255834118E+04 0.  0.
        1    1    3    3  502    0 -0.12636276174E+04 -0.31799827080E+03  0.20201000541E+03  0.13185923169E+04  0.50400001928E-02 0.  1.
       -1    1    3    3    0  502  0.12636276174E+04  0.31799827080E+03 -0.92516076086E+03  0.15980613534E+04  0.50400001928E-02 0. -1.
</event>
<event>
 5   0  0.1698625E-05  0.2291962E+04  0.7818609E-02  0.8481097E-01
       -4   -1    0    0    0  501  0.00000000000E+00  0.00000000000E+00  0.13342424671E+04  0.13342430716E+04  0.12699999809E+01 0.  1.
        4   -1    0    0  501    0  0.00000000000E+00  0.00000000000E+00 -0.98428178663E+03  0.98428260596E+03  0.12699999809E+01 0. -1.
    10030    2    1    2    0    0  0.00000000000E+00  0.00000000000E+00  0.34996068052E+03  0.23185256775E+04  0.22919617884E+04 0.  0.
        5    1    3    3  502    0  0.88449511151E+03 -0.62593797027E+03  0.55229145160E+03  0.12162145709E+04  0.46999998093E+01 0.  1.
       -5    1    3    3    0  502 -0.88449511151E+03  0.62593797027E+03 -0.20233077108E+03  0.11023111066E+04  0.46999998093E+01 0. -1.
</event>
<event>
 5   0  0.5036452E-05  0.1754658E+04  0.7818609E-02  0.8730791E-01
       -2   -1    0    0    0  501  0.00000000000E+00  0.00000000000E+00  0.48210341149E+03  0.48210341149E+03  0.25500000920E-02 0. -1.
        2   -1    0    0  501    0  0.00000000000E+00  0.00000000000E+00 -0.15965573306E+04  0.15965573306E+04  0.25500000920E-02 0.  1.
    10030    2    1    2    0    0  0.00000000000E+00  0.00000000000E+00 -0.11144539191E+04  0.20786607421E+04  0.17546575002E+04 0.  0.
        2    1    3    3  502    0 -0.72449819277E+03 -0.39285502951E+03 -0.20089824183E+03  0.84828816396E+03  0.25500000920E-02 0. -1.
       -2    1    3    3    0  502  0.72449819277E+03  0.39285502951E+03 -0.91355567730E+03  0.12303725782E+04  0.25500000920E-02 0.  1.
</event>
<event>
 5   0  0.2163800E-05  0.2428935E+04  0.7818609E-02  0.8428749E-01
        1   -1    0    0  501    0  0.00000000000E+00  0.00000000000E+00  0.15405532207E+04  0.15405532207E+04  0.50400001928E-02 0.  1.
       -1   -1    0    0    0  501  0.00000000000E+00  0.00000000000E+00 -0.95740381789E+03  0.95740381791E+03  0.50400001928E-02 0. -1.
    10030    2    1    2    0    0  0.00000000000E+00  0.00000000000E+00  0.58314940281E+03  0.24979570386E+04  0.24289351866E+04 0.  0.
        1    1    3    3  502    0 -0.31534820470E+03  0.60898474375E+03 -0.73921708314E+03  0.10083396275E+04  0.50400001928E-02 0. -1.
       -1    1    3    3    0  502  0.31534820470E+03 -0.60898474375E+03  0.13223664860E+04  0.14896174111E+04  0.50400001928E-02 0.  1.
</event>
<event>
 5   0  0.1954502E-05  0.2590346E+04  0.7818609E-02  0.8371488E-01
        1   -1    0    0  501    0  0.00000000000E+00  0.00000000000E+00  0.24958975809E+04  0.24958975809E+04  0.50400001928E-02 0. -1.
       -1   -1    0    0    0  501  0.00000000000E+00  0.00000000000E+00 -0.67209208417E+03  0.67209208419E+03  0.50400001928E-02 0.  1.
    10030    2    1    2    0    0  0.00000000000E+00  0.00000000000E+00  0.18238054968E+04  0.31679896651E+04  0.25903459283E+04 0.  0.
        4    1    3    3  502    0 -0.31353004700E+03 -0.11154736386E+04  0.16196469896E+04  0.19914418175E+04  0.12699999809E+01 0. -1.
       -4    1    3    3    0  502  0.31353004700E+03  0.11154736386E+04  0.20415850718E+03  0.11765478476E+04  0.12699999809E+01 0.  1.
</event>
<event>
 5   0  0.5036452E-05  0.2715844E+04  0.7818609E-02  0.8329882E-01
        2   -1    0    0  501    0  0.00000000000E+00  0.00000000000E+00  0.16167022196E+04  0.16167022196E+04  0.25500000920E-02 0.  1.
       -2   -1    0    0    0  501  0.00000000000E+00  0.00000000000E+00 -0.11405642004E+04  0.11405642004E+04  0.25500000920E-02 0. -1.
    10030    2    1    2    0    0  0.00000000000E+00  0.00000000000E+00  0.47613801919E+03  0.27572664200E+04  0.27158443803E+04 0.  0.
        2    1    3    3  502    0 -0.73227802172E+03 -0.29841454429E+03 -0.88270221027E+03  0.11850930484E+04  0.25500000920E-02 0. -1.
       -2    1    3    3    0  502  0.73227802172E+03  0.29841454429E+03  0.13588402295E+04  0.15721733717E+04  0.25500000920E-02 0.  1.
</event>
<event>
 5   0  0.4955675E-05  0.2126743E+04  0.7818609E-02  0.8549553E-01
        2   -1    0    0  501    0  0.00000000000E+00  0.00000000000E+00  0.13619099947E+04  0.13619099947E+04  0.25500000920E-02 0. -1.
       -2   -1    0    0    0  501  0.00000000000E+00  0.00000000000E+00 -0.83027474045E+03  0.83027474045E+03  0.25500000920E-02 0.  1.
    10030    2    1    2    0    0  0.00000000000E+00  0.00000000000E+00  0.53163525425E+03  0.21921847352E+04  0.21267434893E+04 0.  0.
        5    1    3    3  502    0  0.72200756303E+03  0.52126426805E+03 -0.33320647629E+03  0.95082070027E+03  0.46999998093E+01 0.  1.
       -5    1    3    3    0  502 -0.72200756303E+03 -0.52126426805E+03  0.86484173054E+03  0.12413640349E+04  0.46999998093E+01 0. -1.
</event>
<event>
 5   0  0.2163800E-05  0.2442210E+04  0.7818609E-02  0.8423868E-01
        1   -1    0    0  501    0  0.00000000000E+00  0.00000000000E+00  0.12906356984E+04  0.12906356984E+04  0.50400001928E-02 0. -1.
       -1   -1    0    0    0  501  0.00000000000E+00  0.00000000000E+00 -0.11553204735E+04  0.11553204736E+04  0.50400001928E-02 0.  1.
    10030    2    1    2    0    0  0.00000000000E+00  0.00000000000E+00  0.13531522483E+03  0.24459561720E+04  0.24422103482E+04 0.  0.
        1    1    3    3  502    0  0.17999472248E+03  0.94195014701E+03  0.82474671587E+03  0.12648617810E+04  0.50400001928E-02 0. -1.
       -1    1    3    3    0  502 -0.17999472248E+03 -0.94195014701E+03 -0.68943149104E+03  0.11810943910E+04  0.50400001928E-02 0.  1.
</event>
<event>
 5   0  0.2072710E-05  0.2936176E+04  0.7818609E-02  0.8262195E-01
       -1   -1    0    0    0  501  0.00000000000E+00  0.00000000000E+00  0.15146467048E+04  0.15146467048E+04  0.50400001928E-02 0. -1.
        1   -1    0    0  501    0  0.00000000000E+00  0.00000000000E+00 -0.14229607211E+04  0.14229607211E+04  0.50400001928E-02 0.  1.
    10030    2    1    2    0    0  0.00000000000E+00  0.00000000000E+00  0.91685983687E+02  0.29376074260E+04  0.29361762668E+04 0.  0.
        2    1    3    3  502    0  0.10788926362E+04  0.14457927847E+03 -0.93971089854E+03  0.14380434837E+04  0.25500000920E-02 0.  1.
       -2    1    3    3    0  502 -0.10788926362E+04 -0.14457927847E+03  0.10313968822E+04  0.14995639423E+04  0.25500000920E-02 0. -1.
</event>
<event>
 5   0  0.5049803E-05  0.2599837E+04  0.7818609E-02  0.8368256E-01
        2   -1    0    0  501    0  0.00000000000E+00  0.00000000000E+00  0.12439785815E+04  0.12439785815E+04  0.25500000920E-02 0.  1.
       -2   -1    0    0    0  501  0.00000000000E+00  0.00000000000E+00 -0.13583744092E+04  0.13583744092E+04  0.25500000920E-02 0. -1.
    10030    2    1    2    0    0  0.00000000000E+00  0.00000000000E+00 -0.11439582769E+03  0.26023529907E+04  0.25998374339E+04 0.  0.
        4    1    3    3  502    0 -0.41516085440E+03  0.58285561189E+02  0.11744524560E+04  0.12470348535E+04  0.12699999809E+01 0.  1.
       -4    1    3    3    0  502  0.41516085440E+03 -0.58285561189E+02 -0.12888482837E+04  0.13553181371E+04  0.12699999809E+01 0. -1.
</event>
<event>
 5   0  0.1698625E-05  0.2653749E+04  0.7818609E-02  0.8350170E-01
        3   -1    0    0  501    0  0.00000000000E+00  0.00000000000E+00  0.18811610021E+04  0.18811610048E+04  0.10100000352E+00 0. -1.
       -3   -1    0    0    0  501  0.00000000000E+00  0.00000000000E+00 -0.93590903264E+03  0.93590903809E+03  0.10100000352E+00 0.  1.
    10030    2    1    2    0    0  0.00000000000E+00  0.00000000000E+00  0.94525196950E+03  0.28170700429E+04  0.26537487336E+04 0.  0.
        1    1    3    3  502    0 -0.37203285293E+03  0.40148817631E+02 -0.87873831485E+03  0.95509235010E+03  0.50400001928E-02 0.  1.
       -1    1    3    3    0  502  0.37203285293E+03 -0.40148817631E+02  0.18239902843E+04  0.18619776928E+04  0.50400001928E-02 0. -1.
</event>
<event>
 5   0  0.5049803E-05  0.2640259E+04  0.7818609E-02  0.8354653E-01
       -2   -1    0    0    0  501  0.00000000000E+00  0.00000000000E+00  0.99151007364E+03  0.99151007365E+03  0.25500000920E-02 0.  1.
        2   -1    0    0  501    0  0.00000000000E+00  0.00000000000E+00 -0.17576637701E+04  0.17576637701E+04  0.25500000920E-02 0. -1.
    10030    2    1    2    0    0  0.00000000000E+00  0.00000000000E+00 -0.76615369645E+03  0.27491738437E+04  0.26402585738E+04 0.  0.
        4    1    3    3  502    0  0.77274894453E+03  0.22960295122E+03  0.70545774204E+03  0.10712285868E+04  0.12699999809E+01 0.  1.
       -4    1    3    3    0  502 -0.77274894453E+03 -0.22960295122E+03 -0.14716114385E+04  0.16779452569E+04  0.12699999809E+01 0. -1.
</event>
<event>
 5   0  0.5049803E-05  0.2581744E+04  0.7818609E-02  0.8374429E-01
        2   -1    0    0  501    0  0.00000000000E+00  0.00000000000E+00  0.81328774854E+03  0.81328774854E+03  0.25500000920E-02 0. -1.
       -2   -1    0    0    0  501  0.00000000000E+00  0.00000000000E+00 -0.20489068127E+04  0.20489068128E+04  0.25500000920E-02 0.  1.
    10030    2    1    2    0    0  0.00000000000E+00  0.00000000000E+00 -0.12356190642E+04  0.28621945613E+04  0.25817442234E+04 0.  0.
        4    1    3    3  502    0 -0.11491634295E+04 -0.14897885091E+03 -0.12484406126E+04  0.17033428492E+04  0.12699999809E+01 0.  1.
       -4    1    3    3    0  502  0.11491634295E+04  0.14897885091E+03  0.12821548430E+02  0.11588517121E+04  0.12699999809E+01 0. -1.
</event>
<event>
 5   0  0.4955675E-05  0.1892752E+04  0.7818609E-02  0.8658473E-01
        2   -1    0    0  501    0  0.00000000000E+00  0.00000000000E+00  0.59551964424E+03  0.59551964425E+03  0.25500000920E-02 0. -1.
       -2   -1    0    0    0  501  0.00000000000E+00  0.00000000000E+00 -0.15039428938E+04  0.15039428938E+04  0.25500000920E-02 0.  1.
    10030    2    1    2    0    0  0.00000000000E+00  0.00000000000E+00 -0.90842324958E+03  0.20994625381E+04  0.18927520039E+04 0.  0.
        5    1    3    3  502    0  0.20141555709E+03  0.33757216716E+03 -0.14090890398E+04  0.14629002723E+04  0.46999998093E+01 0.  1.
       -5    1    3    3    0  502 -0.20141555709E+03 -0.33757216716E+03  0.50066579022E+03  0.63656226575E+03  0.46999998093E+01 0. -1.
</event>
<event>
 5   0  0.2072710E-05  0.2641020E+04  0.7818609E-02  0.8354400E-01
       -1   -1    0    0    0  501  0.00000000000E+00  0.00000000000E+00  0.62140898040E+03  0.62140898042E+03  0.50400001928E-02 0. -1.
        1   -1    0    0  501    0  0.00000000000E+00  0.00000000000E+00 -0.28061173575E+04  0.28061173575E+04  0.50400001928E-02 0.  1.
    10030    2    1    2    0    0  0.00000000000E+00  0.00000000000E+00 -0.21847083771E+04  0.34275263379E+04  0.26410198985E+04 0.  0.
        2    1    3    3  502    0 -0.13152834756E+04 -0.96078590842E+02 -0.10048624679E+04  0.16579958673E+04  0.25500000920E-02 0.  1.
       -2    1    3    3    0  502  0.13152834756E+04  0.96078590842E+02 -0.11798459092E+04  0.17695304706E+04  0.25500000920E-02 0. -1.
</event>
<event>
 5   0  0.2163800E-05  0.2502876E+04  0.7818609E-02  0.8401962E-01
       -1   -1    0    0    0  501  0.00000000000E+00  0.00000000000E+00  0.33027160903E+04  0.33027160903E+04  0.50400001928E-02 0. -1.
        1   -1    0    0  501    0  0.00000000000E+00  0.00000000000E+00 -0.47418456916E+03  0.47418456918E+03  0.50400001928E-02 0.  1.
    10030    2    1    2    0    0  0.00000000000E+00  0.00000000000E+00  0.28285315212E+04  0.37769006595E+04  0.25028759509E+04 0.  0.
        1    1    3    3  502    0  0.10955292775E+04 -0.60304564820E+03  0.14858220735E+04  0.19420390536E+04  0.50400001928E-02 0.  1.
       -1    1    3    3    0  502 -0.10955292775E+04  0.60304564820E+03  0.13427094477E+04  0.18348616059E+04  0.50400001928E-02 0. -1.
</event>
<event>
 5   0  0.1698625E-05  0.1936997E+04  0.7818609E-02  0.8636657E-01
        3   -1    0    0  501    0  0.00000000000E+00  0.00000000000E+00  0.12371960201E+04  0.12371960242E+04  0.10100000352E+00 0.  1.
       -3   -1    0    0    0  501  0.00000000000E+00  0.00000000000E+00 -0.75815707150E+03  0.75815707823E+03  0.10100000352E+00 0. -1.
    10030    2    1    2    0    0  0.00000000000E+00  0.00000000000E+00  0.47903894861E+03  0.19953531025E+04  0.19369965641E+04 0.  0.
        2    1    3    3  502    0 -0.88992790504E+02 -0.38225637909E+03  0.11516035834E+04  0.12166472247E+04  0.25500000920E-02 0.  1.
       -2    1    3    3    0  502  0.88992790504E+02  0.38225637909E+03 -0.67256463476E+03  0.77870587776E+03  0.25500000920E-02 0. -1.
</event>
<event>
 5   0  0.5170532E-05  0.2525452E+04  0.7818609E-02  0.8393974E-01
       -2   -1    0    0    0  501  0.00000000000E+00  0.00000000000E+00  0.21154595851E+04  0.21154595851E+04  0.25500000920E-02 0. -1.
        2   -1    0    0  501    0  0.00000000000E+00  0.00000000000E+00 -0.75372621061E+03  0.75372621062E+03  0.25500000920E-02 0.  1.
    10030    2    1    2    0    0  0.00000000000E+00  0.00000000000E+00  0.13617333745E+04  0.28691857958E+04  0.25254523055E+04 0.  0.
        1    1    3    3  502    0 -0.11245547185E+04 -0.56971137182E+03  0.59828974999E+03  0.13954013713E+04  0.50400001928E-02 0.  1.
       -1    1    3    3    0  502  0.11245547185E+04  0.56971137182E+03  0.76344362454E+03  0.14737844245E+04  0.50400001928E-02 0. -1.
</event>
<event>
 5   0  0.1698625E-05  0.2588474E+04  0.7818609E-02  0.8372127E-01
        4   -1    0    0  501    0  0.00000000000E+00  0.00000000000E+00  0.11702713042E+04  0.11702719933E+04  0.12699999809E+01 0. -1.
       -4   -1    0    0    0  501  0.00000000000E+00  0.00000000000E+00 -0.14313331297E+04  0.14313336931E+04  0.12699999809E+01 0.  1.
    10030    2    1    2    0    0  0.00000000000E+00  0.00000000000E+00 -0.26106182552E+03  0.26016056864E+04  0.25884742361E+04 0.  0.
        3    1    3    3  502    0  0.21086196919E+03  0.89367775637E+03 -0.10472583665E+04  0.13927931644E+04  0.10100000352E+00 0.  1.
       -3    1    3    3    0  502 -0.21086196919E+03 -0.89367775637E+03  0.78619654097E+03  0.12088125221E+04  0.10100000352E+00 0. -1.
</event>
<event>
 5   0  0.5049803E-05  0.2394329E+04  0.7818609E-02  0.8441630E-01
        2   -1    0    0  501    0  0.00000000000E+00  0.00000000000E+00  0.19046830327E+04  0.19046830327E+04  0.25500000920E-02 0. -1.
       -2   -1    0    0    0  501  0.00000000000E+00  0.00000000000E+00 -0.75246273302E+03  0.75246273303E+03  0.25500000920E-02 0.  1.
    10030    2    1    2    0    0  0.00000000000E+00  0.00000000000E+00  0.11522202997E+04  0.26571457658E+04  0.23943291339E+04 0.  0.
        4    1    3    3  502    0 -0.26209167849E+03  0.90915200762E+03 -0.23785025540E+03  0.97561456415E+03  0.12699999809E+01 0.  1.
       -4    1    3    3    0  502  0.26209167849E+03 -0.90915200762E+03  0.13900705551E+04  0.16815312016E+04  0.12699999809E+01 0. -1.
</event>
<event>
 5   0  0.1993815E-05  0.2590338E+04  0.7818609E-02  0.8371491E-01
       -1   -1    0    0    0  501  0.00000000000E+00  0.00000000000E+00  0.11269518805E+04  0.11269518805E+04  0.50400001928E-02 0. -1.
        1   -1    0    0  501    0  0.00000000000E+00  0.00000000000E+00 -0.14884950555E+04  0.14884950555E+04  0.50400001928E-02 0.  1.
    10030    2    1    2    0    0  0.00000000000E+00  0.00000000000E+00 -0.36154317507E+03  0.26154469360E+04  0.25903376628E+04 0.  0.
        5    1    3    3  502    0 -0.80416795490E+03  0.29336860980E+03 -0.11621442493E+04  0.14433823427E+04  0.46999998093E+01 0.  1.
       -5    1    3    3    0  502  0.80416795490E+03 -0.29336860980E+03  0.80060107423E+03  0.11720645933E+04  0.46999998093E+01 0. -1.
</event>
<event>
 5   0  0.2159405E-05  0.2515846E+04  0.7818609E-02  0.8397362E-01
        1   -1    0    0  501    0  0.00000000000E+00  0.00000000000E+00  0.21476094263E+04  0.21476094263E+04  0.50400001928E-02 0. -1.
       -1   -1    0    0    0  501  0.00000000000E+00  0.00000000000E+00 -0.73680531865E+03  0.73680531867E+03  0.50400001928E-02 0.  1.
    10030    2    1    2    0    0  0.00000000000E+00  0.00000000000E+00  0.14108041077E+04  0.28844147450E+04  0.25158458202E+04 0.  0.
        3    1    3    3  502    0  0.76616720564E+03  0.39453133702E+03 -0.34519578830E+03  0.92834654379E+03  0.10100000352E+00 0.  1.
       -3    1    3    3    0  502 -0.76616720564E+03 -0.39453133702E+03  0.17559998960E+04  0.19560682012E+04  0.10100000352E+00 0. -1.
</event>
<event>
 5   0  0.2072710E-05  0.2284657E+04  0.7818609E-02  0.8483995E-01
        1   -1    0    0  501    0  0.00000000000E+00  0.00000000000E+00  0.96715958639E+03  0.96715958641E+03  0.50400001928E-02 0. -1.
       -1   -1    0    0    0  501  0.00000000000E+00  0.00000000000E+00 -0.13492230803E+04  0.13492230803E+04  0.50400001928E-02 0.  1.
    10030    2    1    2    0    0  0.00000000000E+00  0.00000000000E+00 -0.38206349389E+03  0.23163826667E+04  0.22846566799E+04 0.  0.
        2    1    3    3  502    0 -0.74117638652E+03  0.84777992218E+03  0.35732146499E+01  0.11260932467E+04  0.25500000920E-02 0. -1.
       -2    1    3    3    0  502  0.74117638652E+03 -0.84777992218E+03 -0.38563670854E+03  0.11902894200E+04  0.25500000920E-02 0.  1.
</event>
<event>
 5   0  0.2072710E-05  0.2714131E+04  0.7818609E-02  0.8330434E-01
       -1   -1    0    0    0  501  0.00000000000E+00  0.00000000000E+00  0.11995367052E+04  0.11995367052E+04  0.50400001928E-02 0.  1.
        1   -1    0    0  501    0  0.00000000000E+00  0.00000000000E+00 -0.15352819798E+04  0.15352819798E+04  0.50400001928E-02 0. -1.
    10030    2    1    2    0    0  0.00000000000E+00  0.00000000000E+00 -0.33574527455E+03  0.27348186850E+04  0.27141312331E+04 0.  0.
        2    1    3    3  502    0  0.11123934394E+03  0.12079734456E+04 -0.78082918705E+03  0.14426601320E+04  0.25500000920E-02 0. -1.
       -2    1    3    3    0  502 -0.11123934394E+03 -0.12079734456E+04  0.44508391251E+03  0.12921585530E+04  0.25500000920E-02 0.  1.
</event>
<event>
 5   0  0.1993815E-05  0.2634410E+04  0.7818609E-02  0.8356606E-01
        1   -1    0    0  501    0  0.00000000000E+00  0.00000000000E+00  0.12629628111E+04  0.12629628112E+04  0.50400001928E-02 0. -1.
       -1   -1    0    0    0  501  0.00000000000E+00  0.00000000000E+00 -0.13737772426E+04  0.13737772427E+04  0.50400001928E-02 0.  1.
    10030    2    1    2    0    0  0.00000000000E+00  0.00000000000E+00 -0.11081443150E+03  0.26367400538E+04  0.26344104223E+04 0.  0.
        5    1    3    3  502    0  0.10364544129E+04 -0.23931877016E+03  0.72212997313E+03  0.12856924251E+04  0.46999998093E+01 0. -1.
       -5    1    3    3    0  502 -0.10364544129E+04  0.23931877016E+03 -0.83294440463E+03  0.13510476287E+04  0.46999998093E+01 0.  1.
</event>
<event>
 5   0  0.5170532E-05  0.2601151E+04  0.7818609E-02  0.8367810E-01
        2   -1    0    0  501    0  0.00000000000E+00  0.00000000000E+00  0.19329616241E+04  0.19329616241E+04  0.25500000920E-02 0.  1.
       -2   -1    0    0    0  501  0.00000000000E+00  0.00000000000E+00 -0.87508023633E+03  0.87508023634E+03  0.25500000920E-02 0. -1.
    10030    2    1    2    0    0  0.00000000000E+00  0.00000000000E+00  0.10578813877E+04  0.28080418604E+04  0.26011509105E+04 0.  0.
        1    1    3    3  502    0  0.73277210242E+03  0.10709084232E+04  0.43423183846E+03  0.13683410008E+04  0.50400001928E-02 0.  1.
       -1    1    3    3    0  502 -0.73277210242E+03 -0.10709084232E+04  0.62364954928E+03  0.14397008596E+04  0.50400001928E-02 0. -1.
</event>
<event>
 5   0  0.1954502E-05  0.2574437E+04  0.7818609E-02  0.8376937E-01
        1   -1    0    0  501    0  0.00000000000E+00  0.00000000000E+00  0.98078214885E+03  0.98078214886E+03  0.50400001928E-02 0.  1.
       -1   -1    0    0    0  501  0.00000000000E+00  0.00000000000E+00 -0.16893978793E+04  0.16893978793E+04  0.50400001928E-02 0. -1.
    10030    2    1    2    0    0  0.00000000000E+00  0.00000000000E+00 -0.70861573040E+03  0.26701800281E+04  0.25744368567E+04 0.  0.
        4    1    3    3  502    0  0.53930364654E+03  0.89666027854E+03 -0.11319109590E+04  0.15414513000E+04  0.12699999809E+01 0. -1.
       -4    1    3    3    0  502 -0.53930364654E+03 -0.89666027854E+03  0.42329522858E+03  0.11287287281E+04  0.12699999809E+01 0.  1.
</event>
<event>
 5   0  0.2163800E-05  0.2616335E+04  0.7818609E-02  0.8362674E-01
       -1   -1    0    0    0  501  0.00000000000E+00  0.00000000000E+00  0.17085760013E+04  0.17085760013E+04  0.50400001928E-02 0. -1.
        1   -1    0    0  501    0  0.00000000000E+00  0.00000000000E+00 -0.10015959619E+04  0.10015959619E+04  0.50400001928E-02 0.  1.
    10030    2    1    2    0    0  0.00000000000E+00  0.00000000000E+00  0.70698003947E+03  0.27101719632E+04  0.26163354704E+04 0.  0.
        1    1    3    3  502    0 -0.33788735641E+03  0.20048656917E+03  0.16460162648E+04  0.16922565627E+04  0.50400001928E-02 0. -1.
       -1    1    3    3    0  502  0.33788735641E+03 -0.20048656917E+03 -0.93903622533E+03  0.10179154005E+04  0.50400001928E-02 0.  1.
</event>
<event>
 5   0  0.5049803E-05  0.2600528E+04  0.7818609E-02  0.8368022E-01
       -2   -1    0    0    0  501  0.00000000000E+00  0.00000000000E+00  0.18391993085E+04  0.18391993085E+04  0.25500000920E-02 0.  1.
        2   -1    0    0  501    0  0.00000000000E+00  0.00000000000E+00 -0.91925165627E+03  0.91925165627E+03  0.25500000920E-02 0. -1.
    10030    2    1    2    0    0  0.00000000000E+00  0.00000000000E+00  0.91994765220E+03  0.27584509648E+04  0.26005284159E+04 0.  0.
        4    1    3    3  502    0  0.12877749200E+04  0.20824692734E+02  0.64938857841E+03  0.14423955945E+04  0.12699999809E+01 0. -1.
       -4    1    3    3    0  502 -0.12877749200E+04 -0.20824692734E+02  0.27055907379E+03  0.13160553703E+04  0.12699999809E+01 0.  1.
</event>
<event>
 5   0  0.1993815E-05  0.2138464E+04  0.7818609E-02  0.8544487E-01
        1   -1    0    0  501    0  0.00000000000E+00  0.00000000000E+00  0.12952239710E+04  0.12952239710E+04  0.50400001928E-02 0. -1.
       -1   -1    0    0    0  501  0.00000000000E+00  0.00000000000E+00 -0.88267099373E+03  0.88267099375E+03  0.50400001928E-02 0.  1.
    10030    2    1    2    0    0  0.00000000000E+00  0.00000000000E+00  0.41255297722E+03  0.21778949647E+04  0.21384635883E+04 0.  0.
        5    1    3    3  502    0 -0.55083037248E+03 -0.31694503799E+03  0.10819957294E+04  0.12548326999E+04  0.46999998093E+01 0. -1.
       -5    1    3    3    0  502  0.55083037248E+03  0.31694503799E+03 -0.66944275214E+03  0.92306226483E+03  0.46999998093E+01 0.  1.
</event>
<event>
 5   0  0.1698625E-05  0.2687340E+04  0.7818609E-02  0.8339124E-01
        3   -1    0    0  501    0  0.00000000000E+00  0.00000000000E+00  0.14053164240E+04  0.14053164277E+04  0.10100000352E+00 0.  1.
       -3   -1    0    0    0  501  0.00000000000E+00  0.00000000000E+00 -0.12847279022E+04  0.12847279061E+04  0.10100000352E+00 0. -1.
    10030    2    1    2    0    0  0.00000000000E+00  0.00000000000E+00  0.12058852189E+03  0.26900443338E+04  0.26873401210E+04 0.  0.
        2    1    3    3  502    0  0.86681399265E+03  0.62492195670E+03 -0.75511446880E+03  0.13084692625E+04  0.25500000920E-02 0. -1.
       -2    1    3    3    0  502 -0.86681399265E+03 -0.62492195670E+03  0.87570299069E+03  0.13815750713E+04  0.25500000920E-02 0.  1.
</event>
<event>
 5   0  0.1954502E-05  0.2666891E+04  0.7818609E-02  0.8345828E-01
       -1   -1    0    0    0  501  0.00000000000E+00  0.00000000000E+00  0.10745435152E+04  0.10745435152E+04  0.50400001928E-02 0.  1.
        1   -1    0    0  501    0  0.00000000000E+00  0.00000000000E+00 -0.16547281172E+04  0.16547281172E+04  0.50400001928E-02 0. -1.
    10030    2    1    2    0    0  0.00000000000E+00  0.00000000000E+00 -0.58018460195E+03  0.27292716324E+04  0.26668913497E+04 0.  0.
        4    1    3    3  502    0  0.20138832178E+03  0.94840468498E+03 -0.12269543356E+04  0.15637925876E+04  0.12699999809E+01 0. -1.
       -4    1    3    3    0  502 -0.20138832178E+03 -0.94840468498E+03  0.64676973362E+03  0.11654790448E+04  0.12699999809E+01 0.  1.
</event>
<event>
 5   0  0.5170532E-05  0.2256395E+04  0.7818609E-02  0.8495315E-01
       -2   -1    0    0    0  501  0.00000000000E+00  0.00000000000E+00  0.62905653974E+03  0.62905653975E+03  0.25500000920E-02 0.  1.
        2   -1    0    0  501    0  0.00000000000E+00  0.00000000000E+00 -0.20233944712E+04  0.20233944712E+04  0.25500000920E-02 0. -1.
    10030    2    1    2    0    0  0.00000000000E+00  0.00000000000E+00 -0.13943379315E+04  0.26524510110E+04  0.22563949340E+04 0.  0.
        1    1    3    3  502    0  0.80002338755E+03  0.74619055532E+03 -0.10212215614E+04  0.14965731666E+04  0.50400001928E-02 0.  1.
       -1    1    3    3    0  502 -0.80002338755E+03 -0.74619055532E+03 -0.37311637008E+03  0.11558778444E+04  0.50400001928E-02 0. -1.
</event>
<event>
 5   0  0.1954502E-05  0.2616298E+04  0.7818609E-02  0.8362686E-01
       -1   -1    0    0    0  501  0.00000000000E+00  0.00000000000E+00  0.11419022844E+04  0.11419022845E+04  0.50400001928E-02 0.  1.
        1   -1    0    0  501    0  0.00000000000E+00  0.00000000000E+00 -0.14985988520E+04  0.14985988520E+04  0.50400001928E-02 0. -1.
    10030    2    1    2    0    0  0.00000000000E+00  0.00000000000E+00 -0.35669656753E+03  0.26405011364E+04  0.26162977297E+04 0.  0.
        4    1    3    3  502    0 -0.11224751104E+03  0.11715133403E+04 -0.75477891415E+03  0.13981186761E+04  0.12699999809E+01 0. -1.
       -4    1    3    3    0  502  0.11224751104E+03 -0.11715133403E+04  0.39808234661E+03  0.12423824604E+04  0.12699999809E+01 0.  1.
</event>
<event>
 5   0  0.5170532E-05  0.1840390E+04  0.7818609E-02  0.8685110E-01
       -2   -1    0    0    0  501  0.00000000000E+00  0.00000000000E+00  0.29186161052E+03  0.29186161053E+03  0.25500000920E-02 0. -1.
        2   -1    0    0  501    0  0.00000000000E+00  0.00000000000E+00 -0.29012352755E+04  0.29012352755E+04  0.25500000920E-02 0.  1.
    10030    2    1    2    0    0  0.00000000000E+00  0.00000000000E+00 -0.26093736650E+04  0.31930968860E+04  0.18403903934E+04 0.  0.
        1    1    3    3  502    0  0.18548509435E+02  0.80051510353E+03 -0.51799635320E+03  0.95367116981E+03  0.50400001928E-02 0. -1.
       -1    1    3    3    0  502 -0.18548509435E+02 -0.80051510353E+03 -0.20913773118E+04  0.22394257162E+04  0.50400001928E-02 0.  1.
</event>
<event>
 5   0  0.5182179E-05  0.2544188E+04  0.7818609E-02  0.8387410E-01
        2   -1    0    0  501    0  0.00000000000E+00  0.00000000000E+00  0.14730340025E+04  0.14730340025E+04  0.25500000920E-02 0. -1.
       -2   -1    0    0    0  501  0.00000000000E+00  0.00000000000E+00 -0.10985650976E+04  0.10985650976E+04  0.25500000920E-02 0.  1.
    10030    2    1    2    0    0  0.00000000000E+00  0.00000000000E+00  0.37446890491E+03  0.25715991001E+04  0.25441884700E+04 0.  0.
        3    1    3    3  502    0  0.45916017988E+03 -0.11777543693E+04  0.33121316891E+03  0.13067653189E+04  0.10100000352E+00 0. -1.
       -3    1    3    3    0  502 -0.45916017988E+03  0.11777543693E+04  0.43255736001E+02  0.12648337812E+04  0.10100000352E+00 0.  1.
</event>
<event>
 5   0  0.5182179E-05  0.2584793E+04  0.7818609E-02  0.8373385E-01
       -2   -1    0    0    0  501  0.00000000000E+00  0.00000000000E+00  0.14786959971E+04  0.14786959971E+04  0.25500000920E-02 0.  1.
        2   -1    0    0  501    0  0.00000000000E+00  0.00000000000E+00 -0.11295691229E+04  0.11295691229E+04  0.25500000920E-02 0. -1.
    10030    2    1    2    0    0  0.00000000000E+00  0.00000000000E+00  0.34912687425E+03  0.26082651200E+04  0.25847934854E+04 0.  0.
        3    1    3    3  502    0  0.11654591888E+03 -0.56285501374E+03  0.13426154336E+04  0.14604810613E+04  0.10100000352E+00 0.  1.
       -3    1    3    3    0  502 -0.11654591888E+03  0.56285501374E+03 -0.99348855935E+03  0.11477840587E+04  0.10100000352E+00 0. -1.
</event>
<event>
 5   0  0.2163800E-05  0.2547506E+04  0.7818609E-02  0.8386254E-01
        1   -1    0    0  501    0  0.00000000000E+00  0.00000000000E+00  0.23436739856E+04  0.23436739856E+04  0.50400001928E-02 0. -1.
       -1   -1    0    0    0  501  0.00000000000E+00  0.00000000000E+00 -0.69226619073E+03  0.69226619075E+03  0.50400001928E-02 0.  1.
    10030    2    1    2    0    0  0.00000000000E+00  0.00000000000E+00  0.16514077949E+04  0.30359401764E+04  0.25475056525E+04 0.  0.
        1    1    3    3  502    0 -0.10611989612E+04 -0.37305957925E+02  0.16640854909E+04  0.19740100027E+04  0.50400001928E-02 0. -1.
       -1    1    3    3    0  502  0.10611989612E+04  0.37305957925E+02 -0.12677695997E+02  0.10619301737E+04  0.50400001928E-02 0.  1.
</event>
<event>
 5   0  0.1993815E-05  0.2583025E+04  0.7818609E-02  0.8373990E-01
        1   -1    0    0  501    0  0.00000000000E+00  0.00000000000E+00  0.21952500867E+04  0.21952500867E+04  0.50400001928E-02 0. -1.
       -1   -1    0    0    0  501  0.00000000000E+00  0.00000000000E+00 -0.75982425807E+03  0.75982425809E+03  0.50400001928E-02 0.  1.
    10030    2    1    2    0    0  0.00000000000E+00  0.00000000000E+00  0.14354258286E+04  0.29550743448E+04  0.25830247916E+04 0.  0.
        5    1    3    3  502    0 -0.77602629911E+03  0.94293022249E+03  0.23688004658E+03  0.12439728566E+04  0.46999998093E+01 0.  1.
       -5    1    3    3    0  502  0.77602629911E+03 -0.94293022249E+03  0.11985457821E+04  0.17111014883E+04  0.46999998093E+01 0. -1.
</event>
<event>
 5   0  0.5182179E-05  0.2356040E+04  0.7818609E-02  0.8456147E-01
       -2   -1    0    0    0  501  0.00000000000E+00  0.00000000000E+00  0.84553064881E+03  0.84553064881E+03  0.25500000920E-02 0.  1.
        2   -1    0    0  501    0  0.00000000000E+00  0.00000000000E+00 -0.16412552314E+04  0.16412552314E+04  0.25500000920E-02 0. -1.
    10030    2    1    2    0    0  0.00000000000E+00  0.00000000000E+00 -0.79572458260E+03  0.24867858802E+04  0.23560404077E+04 0.  0.
        3    1    3    3  502    0 -0.47632845046E+03 -0.70163137268E+03 -0.12608897689E+04  0.15195454568E+04  0.10100000352E+00 0. -1.
       -3    1    3    3    0  502  0.47632845046E+03  0.70163137268E+03  0.46516518632E+03  0.96724042337E+03  0.10100000352E+00 0.  1.
</event>
<event>
 5   0  0.1993815E-05  0.2609875E+04  0.7818609E-02  0.8364855E-01
        1   -1    0    0  501    0  0.00000000000E+00  0.00000000000E+00  0.11883678945E+04  0.11883678945E+04  0.50400001928E-02 0.  1.
       -1   -1    0    0    0  501  0.00000000000E+00  0.00000000000E+00 -0.14329414925E+04  0.14329414925E+04  0.50400001928E-02 0. -1.
    10030    2    1    2    0    0  0.00000000000E+00  0.00000000000E+00 -0.24457359795E+03  0.26213093870E+04  0.26098748356E+04 0.  0.
        5    1    3    3  502    0 -0.65003672949E+02  0.21808944642E+03 -0.14128487561E+04  0.14310667985E+04  0.46999998093E+01 0. -1.
       -5    1    3    3    0  502  0.65003672949E+02 -0.21808944642E+03  0.11682751582E+04  0.11902425885E+04  0.46999998093E+01 0.  1.
</event>
<event>
 5   0  0.5036452E-05  0.2603163E+04  0.7818609E-02  0.8367127E-01
       -2   -1    0    0    0  501  0.00000000000E+00  0.00000000000E+00  0.16630023742E+04  0.16630023742E+04  0.25500000920E-02 0. -1.
        2   -1    0    0  501    0  0.00000000000E+00  0.00000000000E+00 -0.10187086694E+04  0.10187086694E+04  0.25500000920E-02 0.  1.
    10030    2    1    2    0    0  0.00000000000E+00  0.00000000000E+00  0.64429370481E+03  0.26817110436E+04  0.26031634108E+04 0.  0.
        2    1    3    3  502    0 -0.99037964578E+03  0.83532498148E+03  0.45038289290E+03  0.13716648343E+04  0.25500000920E-02 0. -1.
       -2    1    3    3    0  502  0.99037964578E+03 -0.83532498148E+03  0.19391081190E+03  0.13100462093E+04  0.25500000920E-02 0.  1.
</event>
<event>
 5   0  0.2159405E-05  0.2553673E+04  0.7818609E-02  0.8384110E-01
        1   -1    0    0  501    0  0.00000000000E+00  0.00000000000E+00  0.15474106395E+04  0.15474106395E+04  0.50400001928E-02 0. -1.
       -1   -1    0    0    0  501  0.00000000000E+00  0.00000000000E+00 -0.10535735383E+04  0.10535735383E+04  0.50400001928E-02 0.  1.
    10030    2    1    2    0    0  0.00000000000E+00  0.00000000000E+00  0.49383710117E+03  0.26009841778E+04  0.25536725731E+04 0.  0.
        3    1    3    3  502    0  0.17752858085E+03 -0.83910018336E+03  0.12103315945E+04  0.14834109659E+04  0.10100000352E+00 0. -1.
       -3    1    3    3    0  502 -0.17752858085E+03  0.83910018336E+03 -0.71649449336E+03  0.11175732119E+04  0.10100000352E+00 0.  1.
</event>
<event>
 5   0  0.2159405E-05  0.2645727E+04  0.7818609E-02  0.8352833E-01
        1   -1    0    0  501    0  0.00000000000E+00  0.00000000000E+00  0.18406507891E+04  0.18406507891E+04  0.50400001928E-02 0. -1.
       -1   -1    0    0    0  501  0.00000000000E+00  0.00000000000E+00 -0.95073318599E+03  0.95073318601E+03  0.50400001928E-02 0.  1.
    10030    2    1    2    0    0  0.00000000000E+00  0.00000000000E+00  0.88991760307E+03  0.27913839751E+04  0.26457269617E+04 0.  0.
        3    1    3    3  502    0 -0.12141304882E+04  0.52295116680E+03  0.49639754976E+03  0.14120911100E+04  0.10100000352E+00 0.  1.
       -3    1    3    3    0  502  0.12141304882E+04 -0.52295116680E+03  0.39352005331E+03  0.13792928651E+04  0.10100000352E+00 0. -1.
</event>
<event>
 5   0  0.1954502E-05  0.2425304E+04  0.7818609E-02  0.8430091E-01
       -1   -1    0    0    0  501  0.00000000000E+00  0.00000000000E+00  0.12120663484E+04  0.12120663484E+04  0.50400001928E-02 0.  1.
        1   -1    0    0  501    0  0.00000000000E+00  0.00000000000E+00 -0.12132376956E+04  0.12132376956E+04  0.50400001928E-02 0. -1.
    10030    2    1    2    0    0  0.00000000000E+00  0.00000000000E+00 -0.11713472630E+01  0.24253040440E+04  0.24253037611E+04 0.  0.
        4    1    3    3  502    0  0.33479892398E+03 -0.60858744430E+03 -0.99459483061E+03  0.12131320979E+04  0.12699999809E+01 0. -1.
       -4    1    3    3    0  502 -0.33479892398E+03  0.60858744430E+03  0.99342348335E+03  0.12121719461E+04  0.12699999809E+01 0.  1.
</event>
<event>
 5   0  0.5049803E-05  0.2593849E+04  0.7818609E-02  0.8370293E-01
       -2   -1    0    0    0  501  0.00000000000E+00  0.00000000000E+00  0.20556682214E+04  0.20556682214E+04  0.25500000920E-02 0. -1.
        2   -1    0    0  501    0  0.00000000000E+00  0.00000000000E+00 -0.81823205655E+03  0.81823205655E+03  0.25500000920E-02 0.  1.
    10030    2    1    2    0    0  0.00000000000E+00  0.00000000000E+00  0.12374361648E+04  0.28739002779E+04  0.25938493683E+04 0.  0.
        4    1    3    3  502    0 -0.14103599000E+03 -0.35630816740E+03 -0.75407323616E+03  0.84585738693E+03  0.12699999809E+01 0.  1.
       -4    1    3    3    0  502  0.14103599000E+03  0.35630816740E+03  0.19915094010E+04  0.20280428910E+04  0.12699999809E+01 0. -1.
</event>
<event>
 5   0  0.2159405E-05  0.2615124E+04  0.7818609E-02  0.8363082E-01
        1   -1    0    0  501    0  0.00000000000E+00  0.00000000000E+00  0.14148822018E+04  0.14148822018E+04  0.50400001928E-02 0.  1.
       -1   -1    0    0    0  501  0.00000000000E+00  0.00000000000E+00 -0.12083821501E+04  0.12083821501E+04  0.50400001928E-02 0. -1.
    10030    2    1    2    0    0  0.00000000000E+00  0.00000000000E+00  0.20650005169E+03  0.26232643518E+04  0.26151240101E+04 0.  0.
        3    1    3    3  502    0 -0.60574055151E+03 -0.62700565511E+03 -0.87428875958E+03  0.12346815592E+04  0.10100000352E+00 0. -1.
       -3    1    3    3    0  502  0.60574055151E+03  0.62700565511E+03  0.10807888113E+04  0.13885827927E+04  0.10100000352E+00 0.  1.
</event>
<event>
 5   0  0.1993815E-05  0.2703623E+04  0.7818609E-02  0.8333830E-01
       -1   -1    0    0    0  501  0.00000000000E+00  0.00000000000E+00  0.16452918267E+04  0.16452918267E+04  0.50400001928E-02 0. -1.
        1   -1    0    0  501    0  0.00000000000E+00  0.00000000000E+00 -0.11106809558E+04  0.11106809558E+04  0.50400001928E-02 0.  1.
    10030    2    1    2    0    0  0.00000000000E+00  0.00000000000E+00  0.53461087089E+03  0.27559727825E+04  0.27036229757E+04 0.  0.
        5    1    3    3  502    0  0.39867294600E+03 -0.81855178612E+03 -0.75124416650E+03  0.11804054524E+04  0.46999998093E+01 0.  1.
       -5    1    3    3    0  502 -0.39867294600E+03  0.81855178612E+03  0.12858550374E+04  0.15755673301E+04  0.46999998093E+01 0. -1.
</event>
<event>
 5   0  0.1954502E-05  0.2471253E+04  0.7818609E-02  0.8413299E-01
        1   -1    0    0  501    0  0.00000000000E+00  0.00000000000E+00  0.11548576254E+04  0.11548576254E+04  0.50400001928E-02 0.  1.
       -1   -1    0    0    0  501  0.00000000000E+00  0.00000000000E+00 -0.13220437547E+04  0.13220437547E+04  0.50400001928E-02 0. -1.
    10030    2    1    2    0    0  0.00000000000E+00  0.00000000000E+00 -0.16718612934E+03  0.24769013801E+04  0.24712525660E+04 0.  0.
        4    1    3    3  502    0 -0.12655835802E+03 -0.64000169519E+03  0.96816323335E+03  0.11674591415E+04  0.12699999809E+01 0.  1.
       -4    1    3    3    0  502  0.12655835802E+03  0.64000169519E+03 -0.11353493627E+04  0.13094422385E+04  0.12699999809E+01 0. -1.
</event>
<event>
 5   0  0.5036452E-05  0.2634500E+04  0.7818609E-02  0.8356576E-01
       -2   -1    0    0    0  501  0.00000000000E+00  0.00000000000E+00  0.93676368972E+03  0.93676368972E+03  0.25500000920E-02 0. -1.
        2   -1    0    0  501    0  0.00000000000E+00  0.00000000000E+00 -0.18522784717E+04  0.18522784717E+04  0.25500000920E-02 0.  1.
    10030    2    1    2    0    0  0.00000000000E+00  0.00000000000E+00 -0.91551478195E+03  0.27890421614E+04  0.26344997366E+04 0.  0.
        2    1    3    3  502    0 -0.49467999880E+03 -0.97819068139E+03 -0.12310742292E+04  0.16483655748E+04  0.25500000920E-02 0. -1.
       -2    1    3    3    0  502  0.49467999880E+03  0.97819068139E+03  0.31555944729E+03  0.11406765866E+04  0.25500000920E-02 0.  1.
</event>
<event>
 5   0  0.5049803E-05  0.2460724E+04  0.7818609E-02  0.8417113E-01
        2   -1    0    0  501    0  0.00000000000E+00  0.00000000000E+00  0.26014449081E+04  0.26014449081E+04  0.25500000920E-02 0. -1.
       -2   -1    0    0    0  501  0.00000000000E+00  0.00000000000E+00 -0.58190387098E+03  0.58190387099E+03  0.25500000920E-02 0.  1.
    10030    2    1    2    0    0  0.00000000000E+00  0.00000000000E+00  0.20195410372E+04  0.31833487791E+04  0.24607241716E+04 0.  0.
        4    1    3    3  502    0  0.76249115671E+03  0.58821588357E+03  0.20004147984E+04  0.22201467673E+04  0.12699999809E+01 0.  1.
       -4    1    3    3    0  502 -0.76249115671E+03 -0.58821588357E+03  0.19126238785E+02  0.96320201186E+03  0.12699999809E+01 0. -1.
</event>
<event>
 5   0  0.5049803E-05  0.2607483E+04  0.7818609E-02  0.8365664E-01
       -2   -1    0    0    0  501  0.00000000000E+00  0.00000000000E+00  0.12936159113E+04  0.12936159113E+04  0.25500000920E-02 0. -1.
        2   -1    0    0  501    0  0.00000000000E+00  0.00000000000E+00 -0.13139466233E+04  0.13139466233E+04  0.25500000920E-02 0.  1.
    10030    2    1    2    0    0  0.00000000000E+00  0.00000000000E+00 -0.20330711956E+02  0.26075625346E+04  0.26074832758E+04 0.  0.
        4    1    3    3  502    0 -0.11046554052E+03 -0.10128870266E+04 -0.82357675409E+03  0.13101232946E+04  0.12699999809E+01 0.  1.
       -4    1    3    3    0  502  0.11046554052E+03  0.10128870266E+04  0.80324604213E+03  0.12974392400E+04  0.12699999809E+01 0. -1.
</event>
<event>
 5   0  0.1954502E-05  0.2597792E+04  0.7818609E-02  0.8368952E-01
       -1   -1    0    0    0  501  0.00000000000E+00  0.00000000000E+00  0.95150314848E+03  0.95150314849E+03  0.50400001928E-02 0.  1.
        1   -1    0    0  501    0  0.00000000000E+00  0.00000000000E+00 -0.17731218601E+04  0.17731218601E+04  0.50400001928E-02 0. -1.
    10030    2    1    2    0    0  0.00000000000E+00  0.00000000000E+00 -0.82161871162E+03  0.27246250086E+04  0.25977921645E+04 0.  0.
        4    1    3    3  502    0 -0.79618139754E+03 -0.10261697949E+04 -0.42564766383E+03  0.13667870399E+04  0.12699999809E+01 0.  1.
       -4    1    3    3    0  502  0.79618139754E+03  0.10261697949E+04 -0.39597104779E+03  0.13578379687E+04  0.12699999809E+01 0. -1.
</event>
<event>
 5   0  0.5036452E-05  0.2417974E+04  0.7818609E-02  0.8432805E-01
        2   -1    0    0  501    0  0.00000000000E+00  0.00000000000E+00  0.20108219947E+04  0.20108219947E+04  0.25500000920E-02 0.  1.
       -2   -1    0    0    0  501  0.00000000000E+00  0.00000000000E+00 -0.72689173775E+03  0.72689173776E+03  0.25500000920E-02 0. -1.
    10030    2    1    2    0    0  0.00000000000E+00  0.00000000000E+00  0.12839302569E+04  0.27377137324E+04  0.24179742712E+04 0.  0.
        2    1    3    3  502    0 -0.95632362126E+03  0.36898008732E+03  0.13677872081E+04  0.17092521815E+04  0.25500000920E-02 0. -1.
       -2    1    3    3    0  502  0.95632362126E+03 -0.36898008732E+03 -0.83856951167E+02  0.10284615509E+04  0.25500000920E-02 0.  1.
</event>
<event>
 5   0  0.5049803E-05  0.2556590E+04  0.7818609E-02  0.8383098E-01
       -2   -1    0    0    0  501  0.00000000000E+00  0.00000000000E+00  0.81851730373E+03  0.81851730373E+03  0.25500000920E-02 0. -1.
        2   -1    0    0  501    0  0.00000000000E+00  0.00000000000E+00 -0.19963388262E+04  0.19963388262E+04  0.25500000920E-02 0.  1.
    10030    2    1    2    0    0  0.00000000000E+00  0.00000000000E+00 -0.11778215225E+04  0.28148561299E+04  0.25565898172E+04 0.  0.
        4    1    3    3  502    0  0.26855336808E+02  0.29155719870E+03  0.78110016293E+03  0.83417377486E+03  0.12699999809E+01 0. -1.
       -4    1    3    3    0  502 -0.26855336808E+02 -0.29155719870E+03 -0.19589216854E+04  0.19806823551E+04  0.12699999809E+01 0.  1.
</event>
<event>
 5   0  0.4955675E-05  0.1391180E+04  0.7818609E-02  0.8960228E-01
       -2   -1    0    0    0  501  0.00000000000E+00  0.00000000000E+00  0.26575670756E+03  0.26575670757E+03  0.25500000920E-02 0.  1.
        2   -1    0    0  501    0  0.00000000000E+00  0.00000000000E+00 -0.18206328415E+04  0.18206328415E+04  0.25500000920E-02 0. -1.
    10030    2    1    2    0    0  0.00000000000E+00  0.00000000000E+00 -0.15548761339E+04  0.20863895490E+04  0.13911799159E+04 0.  0.
        5    1    3    3  502    0  0.42685430411E+03  0.52030569002E+03 -0.10410688984E+04  0.12396649343E+04  0.46999998093E+01 0.  1.
       -5    1    3    3    0  502 -0.42685430411E+03 -0.52030569002E+03 -0.51380723545E+03  0.84672461474E+03  0.46999998093E+01 0. -1.
</event>
<event>
 5   0  0.2072710E-05  0.2574242E+04  0.7818609E-02  0.8377004E-01
       -1   -1    0    0    0  501  0.00000000000E+00  0.00000000000E+00  0.10134090175E+04  0.10134090175E+04  0.50400001928E-02 0. -1.
        1   -1    0    0  501    0  0.00000000000E+00  0.00000000000E+00 -0.16347600598E+04  0.16347600598E+04  0.50400001928E-02 0.  1.
    10030    2    1    2    0    0  0.00000000000E+00  0.00000000000E+00 -0.62135104234E+03  0.26481690773E+04  0.25742420912E+04 0.  0.
        2    1    3    3  502    0 -0.86773263896E+03 -0.92512357649E+03 -0.53574392210E+03  0.13768932837E+04  0.25500000920E-02 0.  1.
       -2    1    3    3    0  502  0.86773263896E+03  0.92512357649E+03 -0.85607120247E+02  0.12712757937E+04  0.25500000920E-02 0. -1.
</event>
<event>
 5   0  0.4955675E-05  0.2624864E+04  0.7818609E-02  0.8359804E-01
       -2   -1    0    0    0  501  0.00000000000E+00  0.00000000000E+00  0.11935370719E+04  0.11935370719E+04  0.25500000920E-02 0.  1.
        2   -1    0    0  501    0  0.00000000000E+00  0.00000000000E+00 -0.14431712603E+04  0.14431712603E+04  0.25500000920E-02 0. -1.
    10030    2    1    2    0    0  0.00000000000E+00  0.00000000000E+00 -0.24963418841E+03  0.26367083322E+04  0.26248644920E+04 0.  0.
        5    1    3    3  502    0 -0.11104127074E+04 -0.52997101915E+03 -0.58357313847E+03  0.13617875605E+04  0.46999998093E+01 0. -1.
       -5    1    3    3    0  502  0.11104127074E+04  0.52997101915E+03  0.33393895005E+03  0.12749207718E+04  0.46999998093E+01 0.  1.
</event>
<event>
 5   0  0.1698625E-05  0.2905031E+04  0.7818609E-02  0.8271382E-01
       -3   -1    0    0    0  501  0.00000000000E+00  0.00000000000E+00  0.13215249091E+04  0.13215249130E+04  0.10100000352E+00 0. -1.
        3   -1    0    0  501    0  0.00000000000E+00  0.00000000000E+00 -0.15964900111E+04  0.15964900143E+04  0.10100000352E+00 0.  1.
    10030    2    1    2    0    0  0.00000000000E+00  0.00000000000E+00 -0.27496510203E+03  0.29180149273E+04  0.29050310340E+04 0.  0.
        4    1    3    3  502    0 -0.11908813082E+04  0.21976548589E+03 -0.94313001858E+03  0.15349237779E+04  0.12699999809E+01 0.  1.
       -4    1    3    3    0  502  0.11908813082E+04 -0.21976548589E+03  0.66816491655E+03  0.13830911494E+04  0.12699999809E+01 0. -1.
</event>
<event>
 5   0  0.2072710E-05  0.2645900E+04  0.7818609E-02  0.8352775E-01
       -1   -1    0    0    0  501  0.00000000000E+00  0.00000000000E+00  0.11031677396E+04  0.11031677396E+04  0.50400001928E-02 0. -1.
        1   -1    0    0  501    0  0.00000000000E+00  0.00000000000E+00 -0.15865193552E+04  0.15865193552E+04  0.50400001928E-02 0.  1.
    10030    2    1    2    0    0  0.00000000000E+00  0.00000000000E+00 -0.48335161558E+03  0.26896870948E+04  0.26459002029E+04 0.  0.
        2    1    3    3  502    0  0.24521185108E+03 -0.11857963720E+04 -0.78336868293E+03  0.14421887467E+04  0.25500000920E-02 0. -1.
       -2    1    3    3    0  502 -0.24521185108E+03  0.11857963720E+04  0.30001706735E+03  0.12474983481E+04  0.25500000920E-02 0.  1.
</event>
<event>
 5   0  0.5170532E-05  0.2605967E+04  0.7818609E-02  0.8366177E-01
        2   -1    0    0  501    0  0.00000000000E+00  0.00000000000E+00  0.15152506557E+04  0.15152506557E+04  0.25500000920E-02 0.  1.
       -2   -1    0    0    0  501  0.00000000000E+00  0.00000000000E+00 -0.11204523835E+04  0.11204523835E+04  0.25500000920E-02 0. -1.
    10030    2    1    2    0    0  0.00000000000E+00  0.00000000000E+00  0.39479827225E+03  0.26357030392E+04  0.26059671593E+04 0.  0.
        1    1    3    3  502    0 -0.74338524101E+02  0.11120189544E+04  0.88012295563E+03  0.14201157658E+04  0.50400001928E-02 0.  1.
       -1    1    3    3    0  502  0.74338524101E+02 -0.11120189544E+04 -0.48532468339E+03  0.12155872735E+04  0.50400001928E-02 0. -1.
</event>
<event>
 5   0  0.1954502E-05  0.2561280E+04  0.7818609E-02  0.8381474E-01
        1   -1    0    0  501    0  0.00000000000E+00  0.00000000000E+00  0.14255664526E+04  0.14255664526E+04  0.50400001928E-02 0.  1.
       -1   -1    0    0    0  501  0.00000000000E+00  0.00000000000E+00 -0.11504473209E+04  0.11504473209E+04  0.50400001928E-02 0. -1.
    10030    2    1    2    0    0  0.00000000000E+00  0.00000000000E+00  0.27511913166E+03  0.25760137735E+04  0.25612802315E+04 0.  0.
        4    1    3    3  502    0  0.92154407488E+03  0.88460250838E+03  0.46083558850E+02  0.12782372186E+04  0.12699999809E+01 0.  1.
       -4    1    3    3    0  502 -0.92154407488E+03 -0.88460250838E+03  0.22903557281E+03  0.12977765548E+04  0.12699999809E+01 0. -1.
</event>
<event>
 5   0  0.4955675E-05  0.2782369E+04  0.7818609E-02  0.8308763E-01
       -2   -1    0    0    0  501  0.00000000000E+00  0.00000000000E+00  0.82393849073E+03  0.82393849073E+03  0.25500000920E-02 0. -1.
        2   -1    0    0  501    0  0.00000000000E+00  0.00000000000E+00 -0.23489554157E+04  0.23489554157E+04  0.25500000920E-02 0.  1.
    10030    2    1    2    0    0  0.00000000000E+00  0.00000000000E+00 -0.15250169250E+04  0.31728939064E+04  0.27823693357E+04 0.  0.
        5    1    3    3  502    0 -0.28086526662E+02 -0.13842943425E+04 -0.91682790353E+03  0.16606189131E+04  0.46999998093E+01 0. -1.
       -5    1    3    3    0  502  0.28086526662E+02  0.13842943425E+04 -0.60818902145E+03  0.15122749934E+04  0.46999998093E+01 0.  1.
</event>
<event>
 5   0  0.1993815E-05  0.2607250E+04  0.7818609E-02  0.8365743E-01
       -1   -1    0    0    0  501  0.00000000000E+00  0.00000000000E+00  0.85432354564E+03  0.85432354566E+03  0.50400001928E-02 0. -1.
        1   -1    0    0  501    0  0.00000000000E+00  0.00000000000E+00 -0.19892214367E+04  0.19892214367E+04  0.50400001928E-02 0.  1.
    10030    2    1    2    0    0  0.00000000000E+00  0.00000000000E+00 -0.11348978911E+04  0.28435449824E+04  0.26072504375E+04 0.  0.
        5    1    3    3  502    0 -0.85610717407E+03 -0.81469561088E+03 -0.11675611725E+04  0.16612855304E+04  0.46999998093E+01 0.  1.
       -5    1    3    3    0  502  0.85610717407E+03  0.81469561088E+03  0.32663281446E+02  0.11822594520E+04  0.46999998093E+01 0. -1.
</event>
<event>
 5   0  0.2159405E-05  0.2589956E+04  0.7818609E-02  0.8371621E-01
        1   -1    0    0  501    0  0.00000000000E+00  0.00000000000E+00  0.17329364078E+04  0.17329364078E+04  0.50400001928E-02 0.  1.
       -1   -1    0    0    0  501  0.00000000000E+00  0.00000000000E+00 -0.96770285569E+03  0.96770285571E+03  0.50400001928E-02 0. -1.
    10030    2    1    2    0    0  0.00000000000E+00  0.00000000000E+00  0.76523355207E+03  0.27006392635E+04  0.25899556062E+04 0.  0.
        3    1    3    3  502    0 -0.92629652160E+03 -0.33793144106E+03  0.12579837037E+04  0.15983572547E+04  0.10100000352E+00 0.  1.
       -3    1    3    3    0  502  0.92629652160E+03  0.33793144106E+03 -0.49275015158E+03  0.11022820088E+04  0.10100000352E+00 0. -1.
</event>
<event>
 5   0  0.1698625E-05  0.2693431E+04  0.7818609E-02  0.8337139E-01
       -3   -1    0    0    0  501  0.00000000000E+00  0.00000000000E+00  0.21373845145E+04  0.21373845169E+04  0.10100000352E+00 0. -1.
        3   -1    0    0  501    0  0.00000000000E+00  0.00000000000E+00 -0.84853372811E+03  0.84853373412E+03  0.10100000352E+00 0.  1.
    10030    2    1    2    0    0  0.00000000000E+00  0.00000000000E+00  0.12888507864E+04  0.29859182511E+04  0.26934311672E+04 0.  0.
        5    1    3    3  502    0 -0.80368470127E+03 -0.20934075024E+03  0.18196843595E+04  0.20002514610E+04  0.46999998093E+01 0. -1.
       -5    1    3    3    0  502  0.80368470127E+03  0.20934075024E+03 -0.53083357309E+03  0.98566679009E+03  0.46999998093E+01 0.  1.
</event>
<event>
 5   0  0.5036452E-05  0.2565687E+04  0.7818609E-02  0.8379951E-01
        2   -1    0    0  501    0  0.00000000000E+00  0.00000000000E+00  0.24018687514E+04  0.24018687514E+04  0.25500000920E-02 0.  1.
       -2   -1    0    0    0  501  0.00000000000E+00  0.00000000000E+00 -0.68516962719E+03  0.68516962719E+03  0.25500000920E-02 0. -1.
    10030    2    1    2    0    0  0.00000000000E+00  0.00000000000E+00  0.17166991243E+04  0.30870383786E+04  0.25656870557E+04 0.  0.
        2    1    3    3  502    0 -0.19418994387E+02 -0.88996180169E+02 -0.68127356340E+03  0.68733622458E+03  0.25500000920E-02 0. -1.
       -2    1    3    3    0  502  0.19418994387E+02  0.88996180169E+02  0.23979726877E+04  0.23997021541E+04  0.25500000920E-02 0.  1.
</event>
<event>
 5   0  0.4955675E-05  0.2764738E+04  0.7818609E-02  0.8314300E-01
       -2   -1    0    0    0  501  0.00000000000E+00  0.00000000000E+00  0.11204423140E+04  0.11204423140E+04  0.25500000920E-02 0.  1.
        2   -1    0    0  501    0  0.00000000000E+00  0.00000000000E+00 -0.17055265477E+04  0.17055265477E+04  0.25500000920E-02 0. -1.
    10030    2    1    2    0    0  0.00000000000E+00  0.00000000000E+00 -0.58508423369E+03  0.28259688618E+04  0.27647380431E+04 0.  0.
        5    1    3    3  502    0 -0.12223176282E+04 -0.40390303949E+03  0.22232378982E+03  0.13063873878E+04  0.46999998093E+01 0.  1.
       -5    1    3    3    0  502  0.12223176282E+04  0.40390303949E+03 -0.80740802351E+03  0.15195814739E+04  0.46999998093E+01 0. -1.
</event>
<event>
 5   0  0.1954502E-05  0.2579914E+04  0.7818609E-02  0.8375056E-01
        1   -1    0    0  501    0  0.00000000000E+00  0.00000000000E+00  0.14981112699E+04  0.14981112699E+04  0.50400001928E-02 0. -1.
       -1   -1    0    0    0  501  0.00000000000E+00  0.00000000000E+00 -0.11107250060E+04  0.11107250060E+04  0.50400001928E-02 0.  1.
    10030    2    1    2    0    0  0.00000000000E+00  0.00000000000E+00  0.38738626392E+03  0.26088362760E+04  0.25799144554E+04 0.  0.
        4    1    3    3  502    0  0.20539543586E+03 -0.62085062985E+03  0.13180687012E+04  0.14713767375E+04  0.12699999809E+01 0. -1.
       -4    1    3    3    0  502 -0.20539543586E+03  0.62085062985E+03 -0.93068243730E+03  0.11374595385E+04  0.12699999809E+01 0.  1.
</event>
<event>
 5   0  0.5049803E-05  0.2444526E+04  0.7818609E-02  0.8423019E-01
       -2   -1    0    0    0  501  0.00000000000E+00  0.00000000000E+00  0.26332747433E+04  0.26332747433E+04  0.25500000920E-02 0. -1.
        2   -1    0    0  501    0  0.00000000000E+00  0.00000000000E+00 -0.56732678132E+03  0.56732678132E+03  0.25500000920E-02 0.  1.
    10030    2    1    2    0    0  0.00000000000E+00  0.00000000000E+00  0.20659479620E+04  0.32006015246E+04  0.24445263627E+04 0.  0.
        4    1    3    3  502    0 -0.17102540767E+03  0.87606756517E+03  0.21261997037E+04  0.23059641936E+04  0.12699999809E+01 0. -1.
       -4    1    3    3    0  502  0.17102540767E+03 -0.87606756517E+03 -0.60251741787E+02  0.89463733105E+03  0.12699999809E+01 0.  1.
</event>
<event>
 5   0  0.1993815E-05  0.2591943E+04  0.7818609E-02  0.8370943E-01
       -1   -1    0    0    0  501  0.00000000000E+00  0.00000000000E+00  0.91232187421E+03  0.91232187422E+03  0.50400001928E-02 0.  1.
        1   -1    0    0  501    0  0.00000000000E+00  0.00000000000E+00 -0.18409528480E+04  0.18409528480E+04  0.50400001928E-02 0. -1.
    10030    2    1    2    0    0  0.00000000000E+00  0.00000000000E+00 -0.92863097380E+03  0.27532747222E+04  0.25919425554E+04 0.  0.
        5    1    3    3  502    0  0.89944208949E+03  0.84317659786E+03 -0.39980540593E+02  0.12335166724E+04  0.46999998093E+01 0.  1.
       -5    1    3    3    0  502 -0.89944208949E+03 -0.84317659786E+03 -0.88865043320E+03  0.15197580498E+04  0.46999998093E+01 0. -1.
</event>
<event>
 5   0  0.5036452E-05  0.1297664E+04  0.7818609E-02  0.9031420E-01
       -2   -1    0    0    0  501  0.00000000000E+00  0.00000000000E+00  0.47187890404E+03  0.47187890405E+03  0.25500000920E-02 0.  1.
        2   -1    0    0  501    0  0.00000000000E+00  0.00000000000E+00 -0.89214135968E+03  0.89214135968E+03  0.25500000920E-02 0. -1.
    10030    2    1    2    0    0  0.00000000000E+00  0.00000000000E+00 -0.42026245563E+03  0.13640202637E+04  0.12976635728E+04 0.  0.
        2    1    3    3  502    0  0.27751216828E+02  0.85222768266E+02  0.46534061932E+03  0.47389338702E+03  0.25500000920E-02 0.  1.
       -2    1    3    3    0  502 -0.27751216828E+02 -0.85222768266E+02 -0.88560307496E+03  0.89012687671E+03  0.25500000920E-02 0. -1.
</event>
<event>
 5   0  0.5182179E-05  0.2476295E+04  0.7818609E-02  0.8411480E-01
        2   -1    0    0  501    0  0.00000000000E+00  0.00000000000E+00  0.13796069165E+04  0.13796069165E+04  0.25500000920E-02 0.  1.
       -2   -1    0    0    0  501  0.00000000000E+00  0.00000000000E+00 -0.11111925231E+04  0.11111925231E+04  0.25500000920E-02 0. -1.
    10030    2    1    2    0    0  0.00000000000E+00  0.00000000000E+00  0.26841439335E+03  0.24907994396E+04  0.24762947244E+04 0.  0.
        3    1    3    3  502    0  0.87403929795E+03  0.16056348185E+03  0.10013960538E+04  0.13388500263E+04  0.10100000352E+00 0.  1.
       -3    1    3    3    0  502 -0.87403929795E+03 -0.16056348185E+03 -0.73298166049E+03  0.11519494133E+04  0.10100000352E+00 0. -1.
</event>
<event>
 5   0  0.1954502E-05  0.2549188E+04  0.7818609E-02  0.8385669E-01
       -1   -1    0    0    0  501  0.00000000000E+00  0.00000000000E+00  0.87247865125E+03  0.87247865127E+03  0.50400001928E-02 0.  1.
        1   -1    0    0  501    0  0.00000000000E+00  0.00000000000E+00 -0.18620390847E+04  0.18620390847E+04  0.50400001928E-02 0. -1.
    10030    2    1    2    0    0  0.00000000000E+00  0.00000000000E+00 -0.98956043341E+03  0.27345177359E+04  0.25491875955E+04 0.  0.
        4    1    3    3  502    0 -0.83491128625E+03 -0.77234564592E+03 -0.11119269116E+04  0.15905903691E+04  0.12699999809E+01 0.  1.
       -4    1    3    3    0  502  0.83491128625E+03  0.77234564592E+03  0.12236647820E+03  0.11439273668E+04  0.12699999809E+01 0. -1.
</event>
<event>
 5   0  0.1993815E-05  0.2643819E+04  0.7818609E-02  0.8353467E-01
        1   -1    0    0  501    0  0.00000000000E+00  0.00000000000E+00  0.13734331621E+04  0.13734331621E+04  0.50400001928E-02 0.  1.
       -1   -1    0    0    0  501  0.00000000000E+00  0.00000000000E+00 -0.12723189846E+04  0.12723189846E+04  0.50400001928E-02 0. -1.
    10030    2    1    2    0    0  0.00000000000E+00  0.00000000000E+00  0.10111417752E+03  0.26457521468E+04  0.26438192724E+04 0.  0.
        5    1    3    3  502    0  0.11602962120E+04 -0.48901538924E+03 -0.35222896567E+03  0.13074825753E+04  0.46999998093E+01 0. -1.
       -5    1    3    3    0  502 -0.11602962120E+04  0.48901538924E+03  0.45334314319E+03  0.13382695715E+04  0.46999998093E+01 0.  1.
</event>
<event>
 5   0  0.5182179E-05  0.2699726E+04  0.7818609E-02  0.8335094E-01
        2   -1    0    0  501    0  0.00000000000E+00  0.00000000000E+00  0.14068990913E+04  0.14068990913E+04  0.25500000920E-02 0.  1.
       -2   -1    0    0    0  501  0.00000000000E+00  0.00000000000E+00 -0.12951388838E+04  0.12951388839E+04  0.25500000920E-02 0. -1.
    10030    2    1    2    0    0  0.00000000000E+00  0.00000000000E+00  0.11176020748E+03  0.27020379752E+04  0.26997257037E+04 0.  0.
        3    1    3    3  502    0  0.25093910938E+03 -0.10681689303E+04 -0.73103397961E+03  0.13184710804E+04  0.10100000352E+00 0. -1.
       -3    1    3    3    0  502 -0.25093910938E+03  0.10681689303E+04  0.84279418710E+03  0.13835668948E+04  0.10100000352E+00 0.  1.
</event>
<event>
 5   0  0.5182179E-05  0.1868193E+04  0.7818609E-02  0.8670853E-01
        2   -1    0    0  501    0  0.00000000000E+00  0.00000000000E+00  0.10394444578E+04  0.10394444578E+04  0.25500000920E-02 0.  1.
       -2   -1    0    0    0  501  0.00000000000E+00  0.00000000000E+00 -0.83942563398E+03  0.83942563399E+03  0.25500000920E-02 0. -1.
    10030    2    1    2    0    0  0.00000000000E+00  0.00000000000E+00  0.20001882377E+03  0.18788700917E+04  0.18681930553E+04 0.  0.
        3    1    3    3  502    0 -0.87622788825E+03  0.34247657192E+02 -0.22368107111E+03  0.90497593667E+03  0.10100000352E+00 0. -1.
       -3    1    3    3    0  502  0.87622788825E+03 -0.34247657192E+02  0.42369989489E+03  0.97389415508E+03  0.10100000352E+00 0.  1.
</event>
<event>
 5   0  0.5036452E-05  0.1971103E+04  0.7818609E-02  0.8620252E-01
       -2   -1    0    0    0  501  0.00000000000E+00  0.00000000000E+00  0.56709896189E+03  0.56709896189E+03  0.25500000920E-02 0. -1.
        2   -1    0    0  501    0  0.00000000000E+00  0.00000000000E+00 -0.17127724251E+04  0.17127724251E+04  0.25500000920E-02 0.  1.
    10030    2    1    2    0    0  0.00000000000E+00  0.00000000000E+00 -0.11456734632E+04  0.22798713870E+04  0.19711027008E+04 0.  0.
        2    1    3    3  502    0 -0.74386013679E+03 -0.52657607075E+03 -0.13897634372E+03  0.92191359981E+03  0.25500000920E-02 0. -1.
       -2    1    3    3    0  502  0.74386013679E+03  0.52657607075E+03 -0.10066971195E+04  0.13579577872E+04  0.25500000920E-02 0.  1.
</event>
<event>
 5   0  0.2163800E-05  0.2621236E+04  0.7818609E-02  0.8361023E-01
       -1   -1    0    0    0  501  0.00000000000E+00  0.00000000000E+00  0.77154162004E+03  0.77154162006E+03  0.50400001928E-02 0. -1.
        1   -1    0    0  501    0  0.00000000000E+00  0.00000000000E+00 -0.22263471827E+04  0.22263471827E+04  0.50400001928E-02 0.  1.
    10030    2    1    2    0    0  0.00000000000E+00  0.00000000000E+00 -0.14548055626E+04  0.29978888027E+04  0.26212359773E+04 0.  0.
        1    1    3    3  502    0 -0.10267423087E+04 -0.21960821790E+03 -0.16245217201E+04  0.19342953127E+04  0.50400001928E-02 0.  1.
       -1    1    3    3    0  502  0.10267423087E+04  0.21960821790E+03  0.16971615747E+03  0.10635934900E+04  0.50400001928E-02 0. -1.
</event>
<event>
 5   0  0.5049803E-05  0.2600190E+04  0.7818609E-02  0.8368137E-01
       -2   -1    0    0    0  501  0.00000000000E+00  0.00000000000E+00  0.14904973449E+04  0.14904973449E+04  0.25500000920E-02 0. -1.
        2   -1    0    0  501    0  0.00000000000E+00  0.00000000000E+00 -0.11340152259E+04  0.11340152259E+04  0.25500000920E-02 0.  1.
    10030    2    1    2    0    0  0.00000000000E+00  0.00000000000E+00  0.35648211906E+03  0.26245125708E+04  0.26001897494E+04 0.  0.
        4    1    3    3  502    0 -0.81424497946E+03  0.64743226340E+03  0.96533136580E+03  0.14191651352E+04  0.12699999809E+01 0. -1.
       -4    1    3    3    0  502  0.81424497946E+03 -0.64743226340E+03 -0.60884924675E+03  0.12053474356E+04  0.12699999809E+01 0.  1.
</event>
<event>
 5   0  0.5182179E-05  0.2549925E+04  0.7818609E-02  0.8385412E-01
        2   -1    0    0  501    0  0.00000000000E+00  0.00000000000E+00  0.16693013670E+04  0.16693013670E+04  0.25500000920E-02 0.  1.
       -2   -1    0    0    0  501  0.00000000000E+00  0.00000000000E+00 -0.97377807129E+03  0.97377807129E+03  0.25500000920E-02 0. -1.
    10030    2    1    2    0    0  0.00000000000E+00  0.00000000000E+00  0.69552329569E+03  0.26430794383E+04  0.25499247562E+04 0.  0.
        3    1    3    3  502    0 -0.10508186667E+04  0.59494423887E+03  0.77179147503E+03  0.14331226775E+04  0.10100000352E+00 0. -1.
       -3    1    3    3    0  502  0.10508186667E+04 -0.59494423887E+03 -0.76268179341E+02  0.12099567608E+04  0.10100000352E+00 0.  1.
</event>
<event>
 5   0  0.2072710E-05  0.2462282E+04  0.7818609E-02  0.8416547E-01
        1   -1    0    0  501    0  0.00000000000E+00  0.00000000000E+00  0.18899002409E+04  0.18899002409E+04  0.50400001928E-02 0.  1.
       -1   -1    0    0    0  501  0.00000000000E+00  0.00000000000E+00 -0.80200462902E+03  0.80200462903E+03  0.50400001928E-02 0. -1.
    10030    2    1    2    0    0  0.00000000000E+00  0.00000000000E+00  0.10878956119E+04  0.26919048699E+04  0.24622824709E+04 0.  0.
        2    1    3    3  502    0 -0.10545046132E+04  0.50764764372E+03  0.96171267979E+03  0.15147862515E+04  0.25500000920E-02 0.  1.
       -2    1    3    3    0  502  0.10545046132E+04 -0.50764764372E+03  0.12618293210E+03  0.11771186184E+04  0.25500000920E-02 0. -1.
</event>
<event>
 5   0  0.2163800E-05  0.2180006E+04  0.7818609E-02  0.8526797E-01
       -1   -1    0    0    0  501  0.00000000000E+00  0.00000000000E+00  0.14681233045E+04  0.14681233046E+04  0.50400001928E-02 0. -1.
        1   -1    0    0  501    0  0.00000000000E+00  0.00000000000E+00 -0.80926865146E+03  0.80926865147E+03  0.50400001928E-02 0.  1.
    10030    2    1    2    0    0  0.00000000000E+00  0.00000000000E+00  0.65885465309E+03  0.22773919560E+04  0.21800056577E+04 0.  0.
        1    1    3    3  502    0 -0.25819258264E+03  0.99455661496E+03  0.70940660547E+03  0.12486248444E+04  0.50400001928E-02 0.  1.
       -1    1    3    3    0  502  0.25819258264E+03 -0.99455661496E+03 -0.50551952383E+02  0.10287671116E+04  0.50400001928E-02 0. -1.
</event>
<event>
 5   0  0.5170532E-05  0.1677546E+04  0.7818609E-02  0.8774275E-01
        2   -1    0    0  501    0  0.00000000000E+00  0.00000000000E+00  0.75464931026E+03  0.75464931026E+03  0.25500000920E-02 0.  1.
       -2   -1    0    0    0  501  0.00000000000E+00  0.00000000000E+00 -0.93227453161E+03  0.93227453161E+03  0.25500000920E-02 0. -1.
    10030    2    1    2    0    0  0.00000000000E+00  0.00000000000E+00 -0.17762522135E+03  0.16869238419E+04  0.16775462226E+04 0.  0.
        1    1    3    3  502    0  0.20138412444E+02 -0.54570210921E+03 -0.72903793241E+03  0.91087466458E+03  0.50400001928E-02 0. -1.
       -1    1    3    3    0  502 -0.20138412444E+02  0.54570210921E+03  0.55141271105E+03  0.77604917730E+03  0.50400001928E-02 0.  1.
</event>
<event>
 5   0  0.1993815E-05  0.2630146E+04  0.7818609E-02  0.8358033E-01
        1   -1    0    0  501    0  0.00000000000E+00  0.00000000000E+00  0.18222355390E+04  0.18222355390E+04  0.50400001928E-02 0. -1.
       -1   -1    0    0    0  501  0.00000000000E+00  0.00000000000E+00 -0.94906313326E+03  0.94906313328E+03  0.50400001928E-02 0.  1.
    10030    2    1    2    0    0  0.00000000000E+00  0.00000000000E+00  0.87317240571E+03  0.27712986723E+04  0.26301456767E+04 0.  0.
        5    1    3    3  502    0 -0.88106701405E+03  0.97247092987E+03  0.34585028430E+03  0.13570605373E+04  0.46999998093E+01 0.  1.
       -5    1    3    3    0  502  0.88106701405E+03 -0.97247092987E+03  0.52732212141E+03  0.14142381350E+04  0.46999998093E+01 0. -1.
</event>
<event>
 5   0  0.2163800E-05  0.2298966E+04  0.7818609E-02  0.8478329E-01
       -1   -1    0    0    0  501  0.00000000000E+00  0.00000000000E+00  0.88698009548E+03  0.88698009549E+03  0.50400001928E-02 0.  1.
        1   -1    0    0  501    0  0.00000000000E+00  0.00000000000E+00 -0.14896744552E+04  0.14896744552E+04  0.50400001928E-02 0. -1.
    10030    2    1    2    0    0  0.00000000000E+00  0.00000000000E+00 -0.60269435972E+03  0.23766545507E+04  0.22989663682E+04 0.  0.
        1    1    3    3  502    0  0.42239759492E+03  0.65395991675E+03 -0.11756377316E+04  0.14100380764E+04  0.50400001928E-02 0. -1.
       -1    1    3    3    0  502 -0.42239759492E+03 -0.65395991675E+03  0.57294337191E+03  0.96661647428E+03  0.50400001928E-02 0.  1.
</event>
<event>
 5   0  0.5182179E-05  0.2025049E+04  0.7818609E-02  0.8594998E-01
        2   -1    0    0  501    0  0.00000000000E+00  0.00000000000E+00  0.11357089260E+04  0.11357089260E+04  0.25500000920E-02 0.  1.
       -2   -1    0    0    0  501  0.00000000000E+00  0.00000000000E+00 -0.90270142299E+03  0.90270142299E+03  0.25500000920E-02 0. -1.
    10030    2    1    2    0    0  0.00000000000E+00  0.00000000000E+00  0.23300750304E+03  0.20384103490E+04  0.20250491981E+04 0.  0.
        3    1    3    3  502    0 -0.79332905873E+03 -0.57663153499E+03 -0.13681343642E+03  0.99024888243E+03  0.10100000352E+00 0. -1.
       -3    1    3    3    0  502  0.79332905873E+03  0.57663153499E+03  0.36982093946E+03  0.10481614666E+04  0.10100000352E+00 0.  1.
</event>
<event>
 5   0  0.2163800E-05  0.2810489E+04  0.7818609E-02  0.8300019E-01
       -1   -1    0    0    0  501  0.00000000000E+00  0.00000000000E+00  0.93622877587E+03  0.93622877589E+03  0.50400001928E-02 0. -1.
        1   -1    0    0  501    0  0.00000000000E+00  0.00000000000E+00 -0.21092201594E+04  0.21092201594E+04  0.50400001928E-02 0.  1.
    10030    2    1    2    0    0  0.00000000000E+00  0.00000000000E+00 -0.11729913835E+04  0.30454489352E+04  0.28104893580E+04 0.  0.
        1    1    3    3  502    0  0.13711537340E+04 -0.23447449886E+03 -0.37066655024E+03  0.14395952710E+04  0.50400001928E-02 0. -1.
       -1    1    3    3    0  502 -0.13711537340E+04  0.23447449886E+03 -0.80232483324E+03  0.16058536642E+04  0.50400001928E-02 0.  1.
</event>
<event>
 5   0  0.2163800E-05  0.2562717E+04  0.7818609E-02  0.8380977E-01
        1   -1    0    0  501    0  0.00000000000E+00  0.00000000000E+00  0.24381346604E+04  0.24381346604E+04  0.50400001928E-02 0. -1.
       -1   -1    0    0    0  501  0.00000000000E+00  0.00000000000E+00 -0.67341618323E+03  0.67341618325E+03  0.50400001928E-02 0.  1.
    10030    2    1    2    0    0  0.00000000000E+00  0.00000000000E+00  0.17647184772E+04  0.31115508437E+04  0.25627167906E+04 0.  0.
        1    1    3    3  502    0  0.29918884185E+03  0.11497683737E+04  0.14651540779E+04  0.18863079675E+04  0.50400001928E-02 0. -1.
       -1    1    3    3    0  502 -0.29918884185E+03 -0.11497683737E+04  0.29956439927E+03  0.12252428762E+04  0.50400001928E-02 0.  1.
</event>
<event>
 5   0  0.2072710E-05  0.2530210E+04  0.7818609E-02  0.8392301E-01
       -1   -1    0    0    0  501  0.00000000000E+00  0.00000000000E+00  0.85005773528E+03  0.85005773530E+03  0.50400001928E-02 0. -1.
        1   -1    0    0  501    0  0.00000000000E+00  0.00000000000E+00 -0.18828025082E+04  0.18828025082E+04  0.50400001928E-02 0.  1.
    10030    2    1    2    0    0  0.00000000000E+00  0.00000000000E+00 -0.10327447729E+04  0.27328602435E+04  0.25302101384E+04 0.  0.
        2    1    3    3  502    0  0.22872832965E+03  0.44290877835E+03  0.73951338709E+03  0.89183231855E+03  0.25500000920E-02 0. -1.
       -2    1    3    3    0  502 -0.22872832965E+03 -0.44290877835E+03 -0.17722581600E+04  0.18410279249E+04  0.25500000920E-02 0.  1.
</event>
<event>
 5   0  0.5170532E-05  0.2273780E+04  0.7818609E-02  0.8488332E-01
        2   -1    0    0  501    0  0.00000000000E+00  0.00000000000E+00  0.10034266247E+04  0.10034266247E+04  0.25500000920E-02 0. -1.
       -2   -1    0    0    0  501  0.00000000000E+00  0.00000000000E+00 -0.12881052501E+04  0.12881052501E+04  0.25500000920E-02 0.  1.
    10030    2    1    2    0    0  0.00000000000E+00  0.00000000000E+00 -0.28467862532E+03  0.22915318748E+04  0.22737802034E+04 0.  0.
        1    1    3    3  502    0 -0.51570058967E+03  0.73213064106E+03  0.56352632507E+03  0.10580757500E+04  0.50400001928E-02 0. -1.
       -1    1    3    3    0  502  0.51570058967E+03 -0.73213064106E+03 -0.84820495039E+03  0.12334561247E+04  0.50400001928E-02 0.  1.
</event>
<event>
 5   0  0.1698625E-05  0.2583979E+04  0.7818609E-02  0.8373663E-01
       -3   -1    0    0    0  501  0.00000000000E+00  0.00000000000E+00  0.11474728758E+04  0.11474728803E+04  0.10100000352E+00 0. -1.
        3   -1    0    0  501    0  0.00000000000E+00  0.00000000000E+00 -0.14547075898E+04  0.14547075933E+04  0.10100000352E+00 0.  1.
    10030    2    1    2    0    0  0.00000000000E+00  0.00000000000E+00 -0.30723471398E+03  0.26021804736E+04  0.25839794983E+04 0.  0.
        5    1    3    3  502    0 -0.56171605818E+03 -0.38506358929E+03  0.95203073389E+03  0.11705483784E+04  0.46999998093E+01 0. -1.
       -5    1    3    3    0  502  0.56171605818E+03  0.38506358929E+03 -0.12592654479E+04  0.14316320952E+04  0.46999998093E+01 0.  1.
</event>
<event>
 5   0  0.5182179E-05  0.2649752E+04  0.7818609E-02  0.8351495E-01
       -2   -1    0    0    0  501  0.00000000000E+00  0.00000000000E+00  0.20924018083E+04  0.20924018083E+04  0.25500000920E-02 0.  1.
        2   -1    0    0  501    0  0.00000000000E+00  0.00000000000E+00 -0.83889067922E+03  0.83889067922E+03  0.25500000920E-02 0. -1.
    10030    2    1    2    0    0  0.00000000000E+00  0.00000000000E+00  0.12535111290E+04  0.29312924875E+04  0.26497519689E+04 0.  0.
        3    1    3    3  502    0 -0.10471406641E+03 -0.82934786008E+03  0.17638366820E+04  0.19518972205E+04  0.10100000352E+00 0.  1.
       -3    1    3    3    0  502  0.10471406641E+03  0.82934786008E+03 -0.51032555293E+03  0.97939526694E+03  0.10100000352E+00 0. -1.
</event>
<event>
 5   0  0.5036452E-05  0.2726924E+04  0.7818609E-02  0.8326322E-01
        2   -1    0    0  501    0  0.00000000000E+00  0.00000000000E+00  0.26717753457E+04  0.26717753457E+04  0.25500000920E-02 0. -1.
       -2   -1    0    0    0  501  0.00000000000E+00  0.00000000000E+00 -0.69580265852E+03  0.69580265853E+03  0.25500000920E-02 0.  1.
    10030    2    1    2    0    0  0.00000000000E+00  0.00000000000E+00  0.19759726872E+04  0.33675780043E+04  0.27269238263E+04 0.  0.
        2    1    3    3  502    0 -0.51553023506E+03 -0.31922315500E+03  0.24961030910E+04  0.25686972354E+04  0.25500000920E-02 0. -1.
       -2    1    3    3    0  502  0.51553023506E+03  0.31922315500E+03 -0.52013040381E+03  0.79888076890E+03  0.25500000920E-02 0.  1.
</event>
<event>
 5   0  0.5170532E-05  0.2727807E+04  0.7818609E-02  0.8326039E-01
        2   -1    0    0  501    0  0.00000000000E+00  0.00000000000E+00  0.22364580687E+04  0.22364580687E+04  0.25500000920E-02 0. -1.
       -2   -1    0    0    0  501  0.00000000000E+00  0.00000000000E+00 -0.83177602512E+03  0.83177602512E+03  0.25500000920E-02 0.  1.
    10030    2    1    2    0    0  0.00000000000E+00  0.00000000000E+00  0.14046820435E+04  0.30682340938E+04  0.27278065934E+04 0.  0.
        1    1    3    3  502    0  0.27372482715E+03 -0.69752031608E+03  0.19842034856E+04  0.21209722640E+04  0.50400001928E-02 0. -1.
       -1    1    3    3    0  502 -0.27372482715E+03  0.69752031608E+03 -0.57952144206E+03  0.94726182979E+03  0.50400001928E-02 0.  1.
</event>
<event>
 5   0  0.5182179E-05  0.2584262E+04  0.7818609E-02  0.8373567E-01
        2   -1    0    0  501    0  0.00000000000E+00  0.00000000000E+00  0.23533538101E+04  0.23533538101E+04  0.25500000920E-02 0.  1.
       -2   -1    0    0    0  501  0.00000000000E+00  0.00000000000E+00 -0.70945645541E+03  0.70945645541E+03  0.25500000920E-02 0. -1.
    10030    2    1    2    0    0  0.00000000000E+00  0.00000000000E+00  0.16438973547E+04  0.30628102655E+04  0.25842616373E+04 0.  0.
        3    1    3    3  502    0 -0.38128870701E+03  0.55763356072E+03 -0.48350536382E+03  0.83073083076E+03  0.10100000352E+00 0. -1.
       -3    1    3    3    0  502  0.38128870701E+03 -0.55763356072E+03  0.21274027185E+04  0.22320794348E+04  0.10100000352E+00 0.  1.
</event>
<event>
 5   0  0.2159405E-05  0.2449312E+04  0.7818609E-02  0.8421269E-01
       -1   -1    0    0    0  501  0.00000000000E+00  0.00000000000E+00  0.98749811142E+03  0.98749811144E+03  0.50400001928E-02 0.  1.
        1   -1    0    0  501    0  0.00000000000E+00  0.00000000000E+00 -0.15187701863E+04  0.15187701863E+04  0.50400001928E-02 0. -1.
    10030    2    1    2    0    0  0.00000000000E+00  0.00000000000E+00 -0.53127207490E+03  0.25062682978E+04  0.24493123041E+04 0.  0.
        3    1    3    3  502    0  0.86066243574E+02 -0.34322553178E+03 -0.14653205897E+04  0.15074400833E+04  0.10100000352E+00 0. -1.
       -3    1    3    3    0  502 -0.86066243574E+02  0.34322553178E+03  0.93404851477E+03  0.99882821450E+03  0.10100000352E+00 0.  1.
</event>
<event>
 5   0  0.1698625E-05  0.3035279E+04  0.7818609E-02  0.8233728E-01
       -3   -1    0    0    0  501  0.00000000000E+00  0.00000000000E+00  0.15003510290E+04  0.15003510324E+04  0.10100000352E+00 0.  1.
        3   -1    0    0  501    0  0.00000000000E+00  0.00000000000E+00 -0.15351274283E+04  0.15351274316E+04  0.10100000352E+00 0. -1.
    10030    2    1    2    0    0  0.00000000000E+00  0.00000000000E+00 -0.34776399235E+02  0.30354784640E+04  0.30352792471E+04 0.  0.
        3    1    3    3  502    0 -0.11935675618E+04 -0.56396033675E+03  0.73137666230E+03  0.15091608988E+04  0.10100000352E+00 0.  1.
       -3    1    3    3    0  502  0.11935675618E+04  0.56396033675E+03 -0.76615306153E+03  0.15263175652E+04  0.10100000352E+00 0. -1.
</event>
<event>
 5   0  0.5049803E-05  0.2582175E+04  0.7818609E-02  0.8374281E-01
       -2   -1    0    0    0  501  0.00000000000E+00  0.00000000000E+00  0.14913761285E+04  0.14913761285E+04  0.25500000920E-02 0.  1.
        2   -1    0    0  501    0  0.00000000000E+00  0.00000000000E+00 -0.11176970976E+04  0.11176970976E+04  0.25500000920E-02 0. -1.
    10030    2    1    2    0    0  0.00000000000E+00  0.00000000000E+00  0.37367903088E+03  0.26090732261E+04  0.25821748742E+04 0.  0.
        4    1    3    3  502    0  0.71026588404E+03 -0.39206599142E+03  0.12016481777E+04  0.14498804515E+04  0.12699999809E+01 0.  1.
       -4    1    3    3    0  502 -0.71026588404E+03  0.39206599142E+03 -0.82796914687E+03  0.11591927746E+04  0.12699999809E+01 0. -1.
</event>
<event>
 5   0  0.5036452E-05  0.2622348E+04  0.7818609E-02  0.8360649E-01
        2   -1    0    0  501    0  0.00000000000E+00  0.00000000000E+00  0.21582365747E+04  0.21582365747E+04  0.25500000920E-02 0.  1.
       -2   -1    0    0    0  501  0.00000000000E+00  0.00000000000E+00 -0.79656578297E+03  0.79656578298E+03  0.25500000920E-02 0. -1.
    10030    2    1    2    0    0  0.00000000000E+00  0.00000000000E+00  0.13616707917E+04  0.29548023577E+04  0.26223481134E+04 0.  0.
        2    1    3    3  502    0  0.33546970250E+02  0.10151854194E+04  0.16150762017E+04  0.19079302849E+04  0.25500000920E-02 0.  1.
       -2    1    3    3    0  502 -0.33546970250E+02 -0.10151854194E+04 -0.25340540997E+03  0.10468720727E+04  0.25500000920E-02 0. -1.
</event>
<event>
 5   0  0.2072710E-05  0.2552756E+04  0.7818609E-02  0.8384428E-01
        1   -1    0    0  501    0  0.00000000000E+00  0.00000000000E+00  0.15532386546E+04  0.15532386546E+04  0.50400001928E-02 0.  1.
       -1   -1    0    0    0  501  0.00000000000E+00  0.00000000000E+00 -0.10488669072E+04  0.10488669073E+04  0.50400001928E-02 0. -1.
    10030    2    1    2    0    0  0.00000000000E+00  0.00000000000E+00  0.50437174731E+03  0.26021055618E+04  0.25527558629E+04 0.  0.
        2    1    3    3  502    0 -0.80200602484E+02 -0.59846161691E+03  0.13984481660E+04  0.15232352795E+04  0.25500000920E-02 0.  1.
       -2    1    3    3    0  502  0.80200602484E+02  0.59846161691E+03 -0.89407641873E+03  0.10788702823E+04  0.25500000920E-02 0. -1.
</event>
<event>
 5   0  0.2072710E-05  0.2625717E+04  0.7818609E-02  0.8359518E-01
        1   -1    0    0  501    0  0.00000000000E+00  0.00000000000E+00  0.12544059884E+04  0.12544059884E+04  0.50400001928E-02 0. -1.
       -1   -1    0    0    0  501  0.00000000000E+00  0.00000000000E+00 -0.13740352269E+04  0.13740352269E+04  0.50400001928E-02 0.  1.
    10030    2    1    2    0    0  0.00000000000E+00  0.00000000000E+00 -0.11962923851E+03  0.26284412154E+04  0.26257174387E+04 0.  0.
        2    1    3    3  502    0  0.10636046654E+03 -0.35502443713E+03 -0.13205825555E+04  0.13716024153E+04  0.25500000920E-02 0.  1.
       -2    1    3    3    0  502 -0.10636046654E+03  0.35502443713E+03  0.12009533170E+04  0.12568388001E+04  0.25500000920E-02 0. -1.
</event>
<event>
 5   0  0.5170532E-05  0.2379328E+04  0.7818609E-02  0.8447284E-01
        2   -1    0    0  501    0  0.00000000000E+00  0.00000000000E+00  0.99309782841E+03  0.99309782841E+03  0.25500000920E-02 0. -1.
       -2   -1    0    0    0  501  0.00000000000E+00  0.00000000000E+00 -0.14251372887E+04  0.14251372887E+04  0.25500000920E-02 0.  1.
    10030    2    1    2    0    0  0.00000000000E+00  0.00000000000E+00 -0.43203946030E+03  0.24182351171E+04  0.23793282637E+04 0.  0.
        1    1    3    3  502    0 -0.98206509426E+03  0.67064331190E+03 -0.24951998551E+03  0.12151026806E+04  0.50400001928E-02 0. -1.
       -1    1    3    3    0  502  0.98206509426E+03 -0.67064331190E+03 -0.18251947479E+03  0.12031324365E+04  0.50400001928E-02 0.  1.
</event>
<event>
 5   0  0.2163800E-05  0.2643030E+04  0.7818609E-02  0.8353730E-01
       -1   -1    0    0    0  501  0.00000000000E+00  0.00000000000E+00  0.15092040280E+04  0.15092040281E+04  0.50400001928E-02 0. -1.
        1   -1    0    0  501    0  0.00000000000E+00  0.00000000000E+00 -0.11571676941E+04  0.11571676941E+04  0.50400001928E-02 0.  1.
    10030    2    1    2    0    0  0.00000000000E+00  0.00000000000E+00  0.35203633394E+03  0.26663717222E+04  0.26430301891E+04 0.  0.
        1    1    3    3  502    0  0.42196041647E+03  0.11206623711E+04  0.73994262308E+03  0.14076398078E+04  0.50400001928E-02 0. -1.
       -1    1    3    3    0  502 -0.42196041647E+03 -0.11206623711E+04 -0.38790628914E+03  0.12587319144E+04  0.50400001928E-02 0.  1.
</event>
<event>
 5   0  0.1993815E-05  0.2027337E+04  0.7818609E-02  0.8593945E-01
        1   -1    0    0  501    0  0.00000000000E+00  0.00000000000E+00  0.12665990406E+04  0.12665990406E+04  0.50400001928E-02 0.  1.
       -1   -1    0    0    0  501  0.00000000000E+00  0.00000000000E+00 -0.81124667495E+03  0.81124667496E+03  0.50400001928E-02 0. -1.
    10030    2    1    2    0    0  0.00000000000E+00  0.00000000000E+00  0.45535236565E+03  0.20778457156E+04  0.20273374265E+04 0.  0.
        5    1    3    3  502    0  0.57403083528E+03 -0.76039438872E+03  0.58240756849E+03  0.11166609566E+04  0.46999998093E+01 0.  1.
       -5    1    3    3    0  502 -0.57403083528E+03  0.76039438872E+03 -0.12705520284E+03  0.96118475893E+03  0.46999998093E+01 0. -1.
</event>
<event>
 5   0  0.2163800E-05  0.2521032E+04  0.7818609E-02  0.8395531E-01
       -1   -1    0    0    0  501  0.00000000000E+00  0.00000000000E+00  0.95961854175E+03  0.95961854176E+03  0.50400001928E-02 0. -1.
        1   -1    0    0  501    0  0.00000000000E+00  0.00000000000E+00 -0.16557632334E+04  0.16557632334E+04  0.50400001928E-02 0.  1.
    10030    2    1    2    0    0  0.00000000000E+00  0.00000000000E+00 -0.69614469165E+03  0.26153817752E+04  0.25210324072E+04 0.  0.
        1    1    3    3  502    0 -0.77295196489E+03 -0.53347082990E+03  0.52413934489E+03  0.10755314590E+04  0.50400001928E-02 0. -1.
       -1    1    3    3    0  502  0.77295196489E+03  0.53347082990E+03 -0.12202840365E+04  0.15398503162E+04  0.50400001928E-02 0.  1.
</event>
<event>
 5   0  0.2159405E-05  0.2690599E+04  0.7818609E-02  0.8338062E-01
        1   -1    0    0  501    0  0.00000000000E+00  0.00000000000E+00  0.18600343410E+04  0.18600343410E+04  0.50400001928E-02 0. -1.
       -1   -1    0    0    0  501  0.00000000000E+00  0.00000000000E+00 -0.97300966782E+03  0.97300966783E+03  0.50400001928E-02 0.  1.
    10030    2    1    2    0    0  0.00000000000E+00  0.00000000000E+00  0.88702467317E+03  0.28330440088E+04  0.26905994843E+04 0.  0.
        3    1    3    3  502    0  0.12281202339E+04 -0.54913557956E+03  0.44195328268E+03  0.14160338654E+04  0.10100000352E+00 0.  1.
       -3    1    3    3    0  502 -0.12281202339E+04  0.54913557956E+03  0.44507139049E+03  0.14170101434E+04  0.10100000352E+00 0. -1.
</event>
<event>
 5   0  0.5182179E-05  0.2578083E+04  0.7818609E-02  0.8375684E-01
        2   -1    0    0  501    0  0.00000000000E+00  0.00000000000E+00  0.94110364869E+03  0.94110364869E+03  0.25500000920E-02 0. -1.
       -2   -1    0    0    0  501  0.00000000000E+00  0.00000000000E+00 -0.17656162350E+04  0.17656162350E+04  0.25500000920E-02 0.  1.
    10030    2    1    2    0    0  0.00000000000E+00  0.00000000000E+00 -0.82451258630E+03  0.27067198837E+04  0.25780829164E+04 0.  0.
        3    1    3    3  502    0  0.71744665939E+03 -0.40835094793E+03 -0.14516789690E+04  0.16699856422E+04  0.10100000352E+00 0.  1.
       -3    1    3    3    0  502 -0.71744665939E+03  0.40835094793E+03  0.62716638271E+03  0.10367342415E+04  0.10100000352E+00 0. -1.
</event>
<event>
 5   0  0.5170532E-05  0.2387274E+04  0.7818609E-02  0.8444283E-01
       -2   -1    0    0    0  501  0.00000000000E+00  0.00000000000E+00  0.10173469910E+04  0.10173469910E+04  0.25500000920E-02 0. -1.
        2   -1    0    0  501    0  0.00000000000E+00  0.00000000000E+00 -0.14004751295E+04  0.14004751295E+04  0.25500000920E-02 0.  1.
    10030    2    1    2    0    0  0.00000000000E+00  0.00000000000E+00 -0.38312813852E+03  0.24178221205E+04  0.23872738920E+04 0.  0.
        1    1    3    3  502    0 -0.39224774735E+03 -0.10999464967E+04 -0.44176486578E+03  0.12485578831E+04  0.50400001928E-02 0.  1.
       -1    1    3    3    0  502  0.39224774735E+03  0.10999464967E+04  0.58636727255E+02  0.11692642373E+04  0.50400001928E-02 0. -1.
</event>
<event>
 5   0  0.5049803E-05  0.2581404E+04  0.7818609E-02  0.8374545E-01
       -2   -1    0    0    0  501  0.00000000000E+00  0.00000000000E+00  0.16948282721E+04  0.16948282721E+04  0.25500000920E-02 0. -1.
        2   -1    0    0  501    0  0.00000000000E+00  0.00000000000E+00 -0.98293822663E+03  0.98293822663E+03  0.25500000920E-02 0.  1.
    10030    2    1    2    0    0  0.00000000000E+00  0.00000000000E+00  0.71189004550E+03  0.26777664988E+04  0.25814038787E+04 0.  0.
        4    1    3    3  502    0  0.12212234959E+04 -0.12850514445E+03  0.76828773508E+03  0.14485054559E+04  0.12699999809E+01 0. -1.
       -4    1    3    3    0  502 -0.12212234959E+04  0.12850514445E+03 -0.56397689580E+02  0.12292610428E+04  0.12699999809E+01 0.  1.
</event>
<event>
 5   0  0.2072710E-05  0.2604687E+04  0.7818609E-02  0.8366611E-01
        1   -1    0    0  501    0  0.00000000000E+00  0.00000000000E+00  0.13280802104E+04  0.13280802104E+04  0.50400001928E-02 0.  1.
       -1   -1    0    0    0  501  0.00000000000E+00  0.00000000000E+00 -0.12771051527E+04  0.12771051527E+04  0.50400001928E-02 0. -1.
    10030    2    1    2    0    0  0.00000000000E+00  0.00000000000E+00  0.50975057685E+02  0.26051853631E+04  0.26046866068E+04 0.  0.
        2    1    3    3  502    0  0.12451447751E+04 -0.30967776683E+03 -0.19774178841E+03  0.12982248053E+04  0.25500000920E-02 0.  1.
       -2    1    3    3    0  502 -0.12451447751E+04  0.30967776683E+03  0.24871684609E+03  0.13069605578E+04  0.25500000920E-02 0. -1.
</event>
<event>
 5   0  0.4955675E-05  0.2682535E+04  0.7818609E-02  0.8340694E-01
       -2   -1    0    0    0  501  0.00000000000E+00  0.00000000000E+00  0.12792422209E+04  0.12792422209E+04  0.25500000920E-02 0.  1.
        2   -1    0    0  501    0  0.00000000000E+00  0.00000000000E+00 -0.14063005885E+04  0.14063005885E+04  0.25500000920E-02 0. -1.
    10030    2    1    2    0    0  0.00000000000E+00  0.00000000000E+00 -0.12705836759E+03  0.26855428094E+04  0.26825354336E+04 0.  0.
        5    1    3    3  502    0  0.12344376030E+04 -0.47733028225E+03  0.15419245377E+03  0.13324705613E+04  0.46999998093E+01 0. -1.
       -5    1    3    3    0  502 -0.12344376030E+04  0.47733028225E+03 -0.28125082136E+03  0.13530722481E+04  0.46999998093E+01 0.  1.
</event>
<event>
 5   0  0.4955675E-05  0.2591908E+04  0.7818609E-02  0.8370955E-01
       -2   -1    0    0    0  501  0.00000000000E+00  0.00000000000E+00  0.17143387247E+04  0.17143387247E+04  0.25500000920E-02 0. -1.
        2   -1    0    0  501    0  0.00000000000E+00  0.00000000000E+00 -0.97967598830E+03  0.97967598830E+03  0.25500000920E-02 0.  1.
    10030    2    1    2    0    0  0.00000000000E+00  0.00000000000E+00  0.73466273642E+03  0.26940147130E+04  0.25919077795E+04 0.  0.
        5    1    3    3  502    0 -0.13359209698E+02  0.67489146492E+03  0.15171748730E+04  0.16605717820E+04  0.46999998093E+01 0. -1.
       -5    1    3    3    0  502  0.13359209698E+02 -0.67489146492E+03 -0.78251213654E+03  0.10334429311E+04  0.46999998093E+01 0.  1.
</event>
<event>
 5   0  0.5182179E-05  0.2551786E+04  0.7818609E-02  0.8384765E-01
       -2   -1    0    0    0  501  0.00000000000E+00  0.00000000000E+00  0.87561669205E+03  0.87561669205E+03  0.25500000920E-02 0. -1.
        2   -1    0    0  501    0  0.00000000000E+00  0.00000000000E+00 -0.18591500850E+04  0.18591500850E+04  0.25500000920E-02 0.  1.
    10030    2    1    2    0    0  0.00000000000E+00  0.00000000000E+00 -0.98353339296E+03  0.27347667771E+04  0.25517859216E+04 0.  0.
        3    1    3    3  502    0  0.80041028636E+03  0.19981689807E+03  0.55132929863E+03  0.99224363187E+03  0.10100000352E+00 0. -1.
       -3    1    3    3    0  502 -0.80041028636E+03 -0.19981689807E+03 -0.15348626916E+04  0.17425231452E+04  0.10100000352E+00 0.  1.
</event>
<event>
 5   0  0.4955675E-05  0.1638083E+04  0.7818609E-02  0.8797488E-01
        2   -1    0    0  501    0  0.00000000000E+00  0.00000000000E+00  0.11067820238E+04  0.11067820238E+04  0.25500000920E-02 0. -1.
       -2   -1    0    0    0  501  0.00000000000E+00  0.00000000000E+00 -0.60610757964E+03  0.60610757964E+03  0.25500000920E-02 0.  1.
    10030    2    1    2    0    0  0.00000000000E+00  0.00000000000E+00  0.50067444414E+03  0.17128896034E+04  0.16380829938E+04 0.  0.
        5    1    3    3  502    0  0.53624283774E+03 -0.31399014816E+03 -0.30756388118E+03  0.69337134724E+03  0.46999998093E+01 0. -1.
       -5    1    3    3    0  502 -0.53624283774E+03  0.31399014816E+03  0.80823832532E+03  0.10195182562E+04  0.46999998093E+01 0.  1.
</event>
<event>
 5   0  0.5036452E-05  0.2615442E+04  0.7818609E-02  0.8362975E-01
       -2   -1    0    0    0  501  0.00000000000E+00  0.00000000000E+00  0.10817647733E+04  0.10817647733E+04  0.25500000920E-02 0. -1.
        2   -1    0    0  501    0  0.00000000000E+00  0.00000000000E+00 -0.15808749172E+04  0.15808749172E+04  0.25500000920E-02 0.  1.
    10030    2    1    2    0    0  0.00000000000E+00  0.00000000000E+00 -0.49911014390E+03  0.26626396904E+04  0.26154424454E+04 0.  0.
        2    1    3    3  502    0 -0.58177137272E+01  0.52965501872E+03  0.96766587372E+03  0.11031525406E+04  0.25500000920E-02 0. -1.
       -2    1    3    3    0  502  0.58177137272E+01 -0.52965501872E+03 -0.14667760176E+04  0.15594871498E+04  0.25500000920E-02 0.  1.
</event>
<event>
 5   0  0.4955675E-05  0.2572209E+04  0.7818609E-02  0.8377703E-01
        2   -1    0    0  501    0  0.00000000000E+00  0.00000000000E+00  0.18124046866E+04  0.18124046866E+04  0.25500000920E-02 0. -1.
       -2   -1    0    0    0  501  0.00000000000E+00  0.00000000000E+00 -0.91263537505E+03  0.91263537506E+03  0.25500000920E-02 0.  1.
    10030    2    1    2    0    0  0.00000000000E+00  0.00000000000E+00  0.89976931155E+03  0.27250400617E+04  0.25722088803E+04 0.  0.
        5    1    3    3  502    0  0.29355745261E+03 -0.12083608939E+04  0.79760974091E+03  0.14773338880E+04  0.46999998093E+01 0. -1.
       -5    1    3    3    0  502 -0.29355745261E+03  0.12083608939E+04  0.10215957065E+03  0.12477061736E+04  0.46999998093E+01 0.  1.
</event>
<event>
 5   0  0.5036452E-05  0.2022271E+04  0.7818609E-02  0.8596279E-01
        2   -1    0    0  501    0  0.00000000000E+00  0.00000000000E+00  0.14190095313E+04  0.14190095313E+04  0.25500000920E-02 0.  1.
       -2   -1    0    0    0  501  0.00000000000E+00  0.00000000000E+00 -0.72049890189E+03  0.72049890189E+03  0.25500000920E-02 0. -1.
    10030    2    1    2    0    0  0.00000000000E+00  0.00000000000E+00  0.69851062943E+03  0.21395084332E+04  0.20222708118E+04 0.  0.
        2    1    3    3  502    0  0.75079339234E+03 -0.45047266640E+03  0.88432048272E+03  0.12444432720E+04  0.25500000920E-02 0.  1.
       -2    1    3    3    0  502 -0.75079339234E+03  0.45047266640E+03 -0.18580985329E+03  0.89506516117E+03  0.25500000920E-02 0. -1.
</event>
<event>
 5   0  0.5049803E-05  0.2639030E+04  0.7818609E-02  0.8355063E-01
       -2   -1    0    0    0  501  0.00000000000E+00  0.00000000000E+00  0.16041645227E+04  0.16041645227E+04  0.25500000920E-02 0.  1.
        2   -1    0    0  501    0  0.00000000000E+00  0.00000000000E+00 -0.10853746737E+04  0.10853746737E+04  0.25500000920E-02 0. -1.
    10030    2    1    2    0    0  0.00000000000E+00  0.00000000000E+00  0.51878984896E+03  0.26895391964E+04  0.26390297803E+04 0.  0.
        4    1    3    3  502    0  0.99895037751E+03  0.77916449881E+03  0.63539902238E+03  0.14172976764E+04  0.12699999809E+01 0.  1.
       -4    1    3    3    0  502 -0.99895037751E+03 -0.77916449881E+03 -0.11660917342E+03  0.12722415200E+04  0.12699999809E+01 0. -1.
</event>
<event>
 5   0  0.5170532E-05  0.2560566E+04  0.7818609E-02  0.8381721E-01
       -2   -1    0    0    0  501  0.00000000000E+00  0.00000000000E+00  0.12942165690E+04  0.12942165690E+04  0.25500000920E-02 0. -1.
        2   -1    0    0  501    0  0.00000000000E+00  0.00000000000E+00 -0.12664993191E+04  0.12664993191E+04  0.25500000920E-02 0.  1.
    10030    2    1    2    0    0  0.00000000000E+00  0.00000000000E+00  0.27717249874E+02  0.25607158882E+04  0.25605658777E+04 0.  0.
        1    1    3    3  502    0 -0.58653328358E+03  0.42179242607E+03  0.10708946533E+04  0.12917993273E+04  0.50400001928E-02 0. -1.
       -1    1    3    3    0  502  0.58653328358E+03 -0.42179242607E+03 -0.10431774034E+04  0.12689165609E+04  0.50400001928E-02 0.  1.
</event>
<event>
 5   0  0.2163800E-05  0.2582767E+04  0.7818609E-02  0.8374079E-01
        1   -1    0    0  501    0  0.00000000000E+00  0.00000000000E+00  0.21706901963E+04  0.21706901963E+04  0.50400001928E-02 0.  1.
       -1   -1    0    0    0  501  0.00000000000E+00  0.00000000000E+00 -0.76826761882E+03  0.76826761883E+03  0.50400001928E-02 0. -1.
    10030    2    1    2    0    0  0.00000000000E+00  0.00000000000E+00  0.14024225775E+04  0.29389578151E+04  0.25827667245E+04 0.  0.
        1    1    3    3  502    0  0.41599178769E+03  0.98756761028E+03 -0.11882057276E+03  0.10781731219E+04  0.50400001928E-02 0. -1.
       -1    1    3    3    0  502 -0.41599178769E+03 -0.98756761028E+03  0.15212431502E+04  0.18607846932E+04  0.50400001928E-02 0.  1.
</event>
<event>
 5   0  0.1993815E-05  0.2584044E+04  0.7818609E-02  0.8373641E-01
       -1   -1    0    0    0  501  0.00000000000E+00  0.00000000000E+00  0.99490815390E+03  0.99490815391E+03  0.50400001928E-02 0.  1.
        1   -1    0    0  501    0  0.00000000000E+00  0.00000000000E+00 -0.16778645436E+04  0.16778645436E+04  0.50400001928E-02 0. -1.
    10030    2    1    2    0    0  0.00000000000E+00  0.00000000000E+00 -0.68295638972E+03  0.26727726975E+04  0.25840442068E+04 0.  0.
        5    1    3    3  502    0 -0.13568913219E+03 -0.19019280206E+03  0.97286843893E+03  0.10005398203E+04  0.46999998093E+01 0.  1.
       -5    1    3    3    0  502  0.13568913219E+03  0.19019280206E+03 -0.16558248286E+04  0.16722328772E+04  0.46999998093E+01 0. -1.
</event>
<event>
 5   0  0.2072710E-05  0.2644969E+04  0.7818609E-02  0.8353085E-01
        1   -1    0    0  501    0  0.00000000000E+00  0.00000000000E+00  0.63278761198E+03  0.63278761200E+03  0.50400001928E-02 0. -1.
       -1   -1    0    0    0  501  0.00000000000E+00  0.00000000000E+00 -0.27639053191E+04  0.27639053191E+04  0.50400001928E-02 0.  1.
    10030    2    1    2    0    0  0.00000000000E+00  0.00000000000E+00 -0.21311177072E+04  0.33966929311E+04  0.26449688442E+04 0.  0.
        2    1    3    3  502    0  0.18322873638E+03 -0.15084380145E+03  0.60521559326E+03  0.65008656085E+03  0.25500000920E-02 0. -1.
       -2    1    3    3    0  502 -0.18322873638E+03  0.15084380145E+03 -0.27363333004E+04  0.27466063703E+04  0.25500000920E-02 0.  1.
</event>
<event>
 5   0  0.1993815E-05  0.1718730E+04  0.7818609E-02  0.8750754E-01
       -1   -1    0    0    0  501  0.00000000000E+00  0.00000000000E+00  0.86140788494E+03  0.86140788496E+03  0.50400001928E-02 0.  1.
        1   -1    0    0  501    0  0.00000000000E+00  0.00000000000E+00 -0.85732654638E+03  0.85732654640E+03  0.50400001928E-02 0. -1.
    10030    2    1    2    0    0  0.00000000000E+00  0.00000000000E+00  0.40813385603E+01  0.17187344314E+04  0.17187295855E+04 0.  0.
        5    1    3    3  502    0 -0.27665289600E+03 -0.69088005341E+02  0.81270674444E+03  0.86129223833E+03  0.46999998093E+01 0.  1.
       -5    1    3    3    0  502  0.27665289600E+03  0.69088005341E+02 -0.80862540588E+03  0.85744219302E+03  0.46999998093E+01 0. -1.
</event>
<event>
 5   0  0.5182179E-05  0.2533001E+04  0.7818609E-02  0.8391322E-01
       -2   -1    0    0    0  501  0.00000000000E+00  0.00000000000E+00  0.10226322567E+04  0.10226322567E+04  0.25500000920E-02 0.  1.
        2   -1    0    0  501    0  0.00000000000E+00  0.00000000000E+00 -0.15685241071E+04  0.15685241071E+04  0.25500000920E-02 0. -1.
    10030    2    1    2    0    0  0.00000000000E+00  0.00000000000E+00 -0.54589185044E+03  0.25911563638E+04  0.25330008664E+04 0.  0.
        3    1    3    3  502    0 -0.25681385848E+03 -0.89473216832E+03  0.60556356570E+03  0.11104982005E+04  0.10100000352E+00 0.  1.
       -3    1    3    3    0  502  0.25681385848E+03  0.89473216832E+03 -0.11514554161E+04  0.14806581633E+04  0.10100000352E+00 0. -1.
</event>
<event>
 5   0  0.5049803E-05  0.2615974E+04  0.7818609E-02  0.8362796E-01
       -2   -1    0    0    0  501  0.00000000000E+00  0.00000000000E+00  0.12127459871E+04  0.12127459871E+04  0.25500000920E-02 0. -1.
        2   -1    0    0  501    0  0.00000000000E+00  0.00000000000E+00 -0.14107070743E+04  0.14107070743E+04  0.25500000920E-02 0.  1.
    10030    2    1    2    0    0  0.00000000000E+00  0.00000000000E+00 -0.19796108715E+03  0.26234530614E+04  0.26159735040E+04 0.  0.
        4    1    3    3  502    0  0.81002920264E+03 -0.78407153777E+03 -0.76413573147E+03  0.13619179544E+04  0.12699999809E+01 0.  1.
       -4    1    3    3    0  502 -0.81002920264E+03  0.78407153777E+03  0.56617464432E+03  0.12615351070E+04  0.12699999809E+01 0. -1.
</event>
<event>
 5   0  0.1954502E-05  0.2583442E+04  0.7818609E-02  0.8373847E-01
        1   -1    0    0  501    0  0.00000000000E+00  0.00000000000E+00  0.12010190496E+04  0.12010190496E+04  0.50400001928E-02 0. -1.
       -1   -1    0    0    0  501  0.00000000000E+00  0.00000000000E+00 -0.13892727193E+04  0.13892727194E+04  0.50400001928E-02 0.  1.
    10030    2    1    2    0    0  0.00000000000E+00  0.00000000000E+00 -0.18825366979E+03  0.25902917689E+04  0.25834418910E+04 0.  0.
        4    1    3    3  502    0  0.11170342159E+04 -0.47694547527E+03  0.34669667600E+03  0.12631083184E+04  0.12699999809E+01 0. -1.
       -4    1    3    3    0  502 -0.11170342159E+04  0.47694547527E+03 -0.53495034578E+03  0.13271834505E+04  0.12699999809E+01 0.  1.
</event>
<event>
 5   0  0.2072710E-05  0.1409403E+04  0.7818609E-02  0.8947040E-01
        1   -1    0    0  501    0  0.00000000000E+00  0.00000000000E+00  0.11192340417E+04  0.11192340417E+04  0.50400001928E-02 0. -1.
       -1   -1    0    0    0  501  0.00000000000E+00  0.00000000000E+00 -0.44369987084E+03  0.44369987087E+03  0.50400001928E-02 0.  1.
    10030    2    1    2    0    0  0.00000000000E+00  0.00000000000E+00  0.67553417082E+03  0.15629339126E+04  0.14094027100E+04 0.  0.
        2    1    3    3  502    0 -0.13851808154E+03 -0.56620685625E+03  0.77691951353E+03  0.97127822661E+03  0.25500000920E-02 0. -1.
       -2    1    3    3    0  502  0.13851808154E+03  0.56620685625E+03 -0.10138534271E+03  0.59165568594E+03  0.25500000920E-02 0.  1.
</event>
<event>
 5   0  0.2072710E-05  0.2273853E+04  0.7818609E-02  0.8488303E-01
        1   -1    0    0  501    0  0.00000000000E+00  0.00000000000E+00  0.14010077213E+04  0.14010077213E+04  0.50400001928E-02 0.  1.
       -1   -1    0    0    0  501  0.00000000000E+00  0.00000000000E+00 -0.92262273570E+03  0.92262273571E+03  0.50400001928E-02 0. -1.
    10030    2    1    2    0    0  0.00000000000E+00  0.00000000000E+00  0.47838498558E+03  0.23236304570E+04  0.22738527451E+04 0.  0.
        2    1    3    3  502    0  0.37312554100E+02  0.72925656613E+03 -0.65131661372E+03  0.97847876689E+03  0.25500000920E-02 0. -1.
       -2    1    3    3    0  502 -0.37312554100E+02 -0.72925656613E+03  0.11297015993E+04  0.13451516901E+04  0.25500000920E-02 0.  1.
</event>
<event>
 5   0  0.5036452E-05  0.2731279E+04  0.7818609E-02  0.8324927E-01
       -2   -1    0    0    0  501  0.00000000000E+00  0.00000000000E+00  0.93572235413E+03  0.93572235413E+03  0.25500000920E-02 0. -1.
        2   -1    0    0  501    0  0.00000000000E+00  0.00000000000E+00 -0.19930813564E+04  0.19930813564E+04  0.25500000920E-02 0.  1.
    10030    2    1    2    0    0  0.00000000000E+00  0.00000000000E+00 -0.10573590023E+04  0.29288037105E+04  0.27312786594E+04 0.  0.
        2    1    3    3  502    0 -0.15299170200E+03  0.13427531495E+04 -0.31806135668E+03  0.13883643283E+04  0.25500000920E-02 0. -1.
       -2    1    3    3    0  502  0.15299170200E+03 -0.13427531495E+04 -0.73929764557E+03  0.15404393822E+04  0.25500000920E-02 0.  1.
</event>
<event>
 5   0  0.2163800E-05  0.2619054E+04  0.7818609E-02  0.8361758E-01
        1   -1    0    0  501    0  0.00000000000E+00  0.00000000000E+00  0.15313662143E+04  0.15313662143E+04  0.50400001928E-02 0. -1.
       -1   -1    0    0    0  501  0.00000000000E+00  0.00000000000E+00 -0.11198242154E+04  0.11198242154E+04  0.50400001928E-02 0.  1.
    10030    2    1    2    0    0  0.00000000000E+00  0.00000000000E+00  0.41154199890E+03  0.26511904297E+04  0.26190540043E+04 0.  0.
        1    1    3    3  502    0 -0.89243156850E+03 -0.40531116593E+03  0.10848446404E+04  0.14620530563E+04  0.50400001928E-02 0. -1.
       -1    1    3    3    0  502  0.89243156850E+03  0.40531116593E+03 -0.67330264147E+03  0.11891373734E+04  0.50400001928E-02 0.  1.
</event>
<event>
 5   0  0.1954502E-05  0.2573013E+04  0.7818609E-02  0.8377426E-01
       -1   -1    0    0    0  501  0.00000000000E+00  0.00000000000E+00  0.13372303534E+04  0.13372303534E+04  0.50400001928E-02 0. -1.
        1   -1    0    0  501    0  0.00000000000E+00  0.00000000000E+00 -0.12377066726E+04  0.12377066726E+04  0.50400001928E-02 0.  1.
    10030    2    1    2    0    0  0.00000000000E+00  0.00000000000E+00  0.99523680762E+02  0.25749370260E+04  0.25730129663E+04 0.  0.
        4    1    3    3  502    0  0.45071228360E+03  0.12029767496E+04  0.11911514552E+03  0.12901490819E+04  0.12699999809E+01 0. -1.
       -4    1    3    3    0  502 -0.45071228360E+03 -0.12029767496E+04 -0.19591464762E+02  0.12847879440E+04  0.12699999809E+01 0.  1.
</event>
<event>
 5   0  0.2159405E-05  0.2566576E+04  0.7818609E-02  0.8379644E-01
       -1   -1    0    0    0  501  0.00000000000E+00  0.00000000000E+00  0.72878956630E+03  0.72878956631E+03  0.50400001928E-02 0. -1.
        1   -1    0    0  501    0  0.00000000000E+00  0.00000000000E+00 -0.22596757640E+04  0.22596757641E+04  0.50400001928E-02 0.  1.
    10030    2    1    2    0    0  0.00000000000E+00  0.00000000000E+00 -0.15308861978E+04  0.29884653304E+04  0.25665760227E+04 0.  0.
        3    1    3    3  502    0 -0.19527771142E+03  0.78955580713E+03 -0.19212293575E+04  0.20863015150E+04  0.10100000352E+00 0.  1.
       -3    1    3    3    0  502  0.19527771142E+03 -0.78955580713E+03  0.39034315977E+03  0.90216381535E+03  0.10100000352E+00 0. -1.
</event>
<event>
 5   0  0.1954502E-05  0.2582733E+04  0.7818609E-02  0.8374090E-01
       -1   -1    0    0    0  501  0.00000000000E+00  0.00000000000E+00  0.15201267539E+04  0.15201267539E+04  0.50400001928E-02 0. -1.
        1   -1    0    0  501    0  0.00000000000E+00  0.00000000000E+00 -0.10970317879E+04  0.10970317879E+04  0.50400001928E-02 0.  1.
    10030    2    1    2    0    0  0.00000000000E+00  0.00000000000E+00  0.42309496605E+03  0.26171585418E+04  0.25827329484E+04 0.  0.
        4    1    3    3  502    0  0.41653506605E+03 -0.35091974519E+03 -0.97494783825E+03  0.11167681178E+04  0.12699999809E+01 0.  1.
       -4    1    3    3    0  502 -0.41653506605E+03  0.35091974519E+03  0.13980428043E+04  0.15003904240E+04  0.12699999809E+01 0. -1.
</event>
<event>
 5   0  0.5049803E-05  0.2457106E+04  0.7818609E-02  0.8418428E-01
       -2   -1    0    0    0  501  0.00000000000E+00  0.00000000000E+00  0.13049661958E+04  0.13049661958E+04  0.25500000920E-02 0.  1.
        2   -1    0    0  501    0  0.00000000000E+00  0.00000000000E+00 -0.11566144791E+04  0.11566144791E+04  0.25500000920E-02 0. -1.
    10030    2    1    2    0    0  0.00000000000E+00  0.00000000000E+00  0.14835171677E+03  0.24615806749E+04  0.24571062629E+04 0.  0.
        4    1    3    3  502    0  0.25849859825E+03  0.63088417897E+03  0.10980471295E+04  0.12924958352E+04  0.12699999809E+01 0.  1.
       -4    1    3    3    0  502 -0.25849859825E+03 -0.63088417897E+03 -0.94969541270E+03  0.11690848397E+04  0.12699999809E+01 0. -1.
</event>
<event>
 5   0  0.5036452E-05  0.2600618E+04  0.7818609E-02  0.8367991E-01
        2   -1    0    0  501    0  0.00000000000E+00  0.00000000000E+00  0.13448421212E+04  0.13448421212E+04  0.25500000920E-02 0. -1.
       -2   -1    0    0    0  501  0.00000000000E+00  0.00000000000E+00 -0.12572504642E+04  0.12572504642E+04  0.25500000920E-02 0.  1.
    10030    2    1    2    0    0  0.00000000000E+00  0.00000000000E+00  0.87591657008E+02  0.26020925855E+04  0.26006179121E+04 0.  0.
        2    1    3    3  502    0  0.62064263561E+03  0.11323092769E+04  0.19712045047E+03  0.13062075071E+04  0.25500000920E-02 0.  1.
       -2    1    3    3    0  502 -0.62064263561E+03 -0.11323092769E+04 -0.10952879346E+03  0.12958850783E+04  0.25500000920E-02 0. -1.
</event>
<event>
 5   0  0.4955675E-05  0.2596915E+04  0.7818609E-02  0.8369250E-01
        2   -1    0    0  501    0  0.00000000000E+00  0.00000000000E+00  0.21831215960E+04  0.21831215960E+04  0.25500000920E-02 0. -1.
       -2   -1    0    0    0  501  0.00000000000E+00  0.00000000000E+00 -0.77228499004E+03  0.77228499005E+03  0.25500000920E-02 0.  1.
    10030    2    1    2    0    0  0.00000000000E+00  0.00000000000E+00  0.14108366059E+04  0.29554065860E+04  0.25969151238E+04 0.  0.
        5    1    3    3  502    0 -0.11747036983E+04 -0.39884729608E+03  0.11416950000E+04  0.16859707907E+04  0.46999998093E+01 0.  1.
       -5    1    3    3    0  502  0.11747036983E+04  0.39884729608E+03  0.26914160596E+03  0.12694357953E+04  0.46999998093E+01 0. -1.
</event>
<event>
 5   0  0.5182179E-05  0.2604602E+04  0.7818609E-02  0.8366640E-01
        2   -1    0    0  501    0  0.00000000000E+00  0.00000000000E+00  0.13332558764E+04  0.13332558764E+04  0.25500000920E-02 0.  1.
       -2   -1    0    0    0  501  0.00000000000E+00  0.00000000000E+00 -0.12720647467E+04  0.12720647467E+04  0.25500000920E-02 0. -1.
    10030    2    1    2    0    0  0.00000000000E+00  0.00000000000E+00  0.61191129634E+02  0.26053206231E+04  0.26046019264E+04 0.  0.
        3    1    3    3  502    0  0.41874503737E+03  0.12135303535E+02 -0.12028274535E+04  0.12736909221E+04  0.10100000352E+00 0. -1.
       -3    1    3    3    0  502 -0.41874503737E+03 -0.12135303535E+02  0.12640185831E+04  0.13316297010E+04  0.10100000352E+00 0.  1.
</event>
<event>
 5   0  0.5170532E-05  0.2555530E+04  0.7818609E-02  0.8383465E-01
        2   -1    0    0  501    0  0.00000000000E+00  0.00000000000E+00  0.17828570168E+04  0.17828570168E+04  0.25500000920E-02 0.  1.
       -2   -1    0    0    0  501  0.00000000000E+00  0.00000000000E+00 -0.91576814826E+03  0.91576814826E+03  0.25500000920E-02 0. -1.
    10030    2    1    2    0    0  0.00000000000E+00  0.00000000000E+00  0.86708886850E+03  0.26986251650E+04  0.25555302141E+04 0.  0.
        1    1    3    3  502    0  0.43245331003E+03 -0.11994521252E+04  0.34530473906E+03  0.13209604948E+04  0.50400001928E-02 0. -1.
       -1    1    3    3    0  502 -0.43245331003E+03  0.11994521252E+04  0.52178412944E+03  0.13776646703E+04  0.50400001928E-02 0.  1.
</event>
<event>
 5   0  0.2159405E-05  0.2624631E+04  0.7818609E-02  0.8359883E-01
       -1   -1    0    0    0  501  0.00000000000E+00  0.00000000000E+00  0.93423011835E+03  0.93423011837E+03  0.50400001928E-02 0. -1.
        1   -1    0    0  501    0  0.00000000000E+00  0.00000000000E+00 -0.18434126112E+04  0.18434126112E+04  0.50400001928E-02 0.  1.
    10030    2    1    2    0    0  0.00000000000E+00  0.00000000000E+00 -0.90918249288E+03  0.27776427296E+04  0.26246307032E+04 0.  0.
        3    1    3    3  502    0  0.84326890005E+03 -0.58900620406E+02  0.60772109472E+03  0.10411035780E+04  0.10100000352E+00 0. -1.
       -3    1    3    3    0  502 -0.84326890005E+03  0.58900620406E+02 -0.15169035876E+04  0.17365391516E+04  0.10100000352E+00 0.  1.
</event>
<event>
 5   0  0.2159405E-05  0.2086071E+04  0.7818609E-02  0.8567404E-01
        1   -1    0    0  501    0  0.00000000000E+00  0.00000000000E+00  0.10558583086E+04  0.10558583086E+04  0.50400001928E-02 0.  1.
       -1   -1    0    0    0  501  0.00000000000E+00  0.00000000000E+00 -0.10303682230E+04  0.10303682230E+04  0.50400001928E-02 0. -1.
    10030    2    1    2    0    0  0.00000000000E+00  0.00000000000E+00  0.25490085559E+02  0.20862265316E+04  0.20860708034E+04 0.  0.
        3    1    3    3  502    0  0.19469702468E+03  0.70076382136E+03  0.76042774931E+03  0.10522486573E+04  0.10100000352E+00 0.  1.
       -3    1    3    3    0  502 -0.19469702468E+03 -0.70076382136E+03 -0.73493766375E+03  0.10339778743E+04  0.10100000352E+00 0. -1.
</event>
<event>
 5   0  0.4955675E-05  0.2607808E+04  0.7818609E-02  0.8365554E-01
        2   -1    0    0  501    0  0.00000000000E+00  0.00000000000E+00  0.25063753891E+04  0.25063753891E+04  0.25500000920E-02 0.  1.
       -2   -1    0    0    0  501  0.00000000000E+00  0.00000000000E+00 -0.67833622308E+03  0.67833622309E+03  0.25500000920E-02 0. -1.
    10030    2    1    2    0    0  0.00000000000E+00  0.00000000000E+00  0.18280391660E+04  0.31847116122E+04  0.26078076732E+04 0.  0.
        5    1    3    3  502    0  0.12102553925E+04  0.41495941681E+03  0.12211118097E+04  0.17686281618E+04  0.46999998093E+01 0.  1.
       -5    1    3    3    0  502 -0.12102553925E+04 -0.41495941681E+03  0.60692735627E+03  0.14160834504E+04  0.46999998093E+01 0. -1.
</event>
<event>
 5   0  0.1954502E-05  0.2624253E+04  0.7818609E-02  0.8360009E-01
        1   -1    0    0  501    0  0.00000000000E+00  0.00000000000E+00  0.14819652968E+04  0.14819652968E+04  0.50400001928E-02 0.  1.
       -1   -1    0    0    0  501  0.00000000000E+00  0.00000000000E+00 -0.11617519284E+04  0.11617519284E+04  0.50400001928E-02 0. -1.
    10030    2    1    2    0    0  0.00000000000E+00  0.00000000000E+00  0.32021336835E+03  0.26437172252E+04  0.26242530681E+04 0.  0.
        4    1    3    3  502    0  0.11038376833E+03  0.59798987454E+03  0.13314420169E+04  0.14637335563E+04  0.12699999809E+01 0.  1.
       -4    1    3    3    0  502 -0.11038376833E+03 -0.59798987454E+03 -0.10112286486E+04  0.11799836690E+04  0.12699999809E+01 0. -1.
</event>
<event>
 5   0  0.5170532E-05  0.2561088E+04  0.7818609E-02  0.8381540E-01
       -2   -1    0    0    0  501  0.00000000000E+00  0.00000000000E+00  0.77210951428E+03  0.77210951429E+03  0.25500000920E-02 0.  1.
        2   -1    0    0  501    0  0.00000000000E+00  0.00000000000E+00 -0.21237823626E+04  0.21237823626E+04  0.25500000920E-02 0. -1.
    10030    2    1    2    0    0  0.00000000000E+00  0.00000000000E+00 -0.13516728483E+04  0.28958918769E+04  0.25610877130E+04 0.  0.
        1    1    3    3  502    0  0.10221701838E+04 -0.66204521363E+03 -0.11233771293E+04  0.16568379294E+04  0.50400001928E-02 0.  1.
       -1    1    3    3    0  502 -0.10221701838E+04  0.66204521363E+03 -0.22829571899E+03  0.12390539475E+04  0.50400001928E-02 0. -1.
</event>
<event>
 5   0  0.5182179E-05  0.2284637E+04  0.7818609E-02  0.8484003E-01
        2   -1    0    0  501    0  0.00000000000E+00  0.00000000000E+00  0.94027903187E+03  0.94027903187E+03  0.25500000920E-02 0.  1.
       -2   -1    0    0    0  501  0.00000000000E+00  0.00000000000E+00 -0.13877706408E+04  0.13877706408E+04  0.25500000920E-02 0. -1.
    10030    2    1    2    0    0  0.00000000000E+00  0.00000000000E+00 -0.44749160889E+03  0.23280496726E+04  0.22846370693E+04 0.  0.
        3    1    3    3  502    0 -0.58677103502E+03  0.92598727412E+03  0.10350925203E+03  0.11011207267E+04  0.10100000352E+00 0.  1.
       -3    1    3    3    0  502  0.58677103502E+03 -0.92598727412E+03 -0.55100086092E+03  0.12269289459E+04  0.10100000352E+00 0. -1.
</event>
<event>
 5   0  0.2159405E-05  0.2604206E+04  0.7818609E-02  0.8366774E-01
       -1   -1    0    0    0  501  0.00000000000E+00  0.00000000000E+00  0.18236855301E+04  0.18236855302E+04  0.50400001928E-02 0.  1.
        1   -1    0    0  501    0  0.00000000000E+00  0.00000000000E+00 -0.92969548332E+03  0.92969548333E+03  0.50400001928E-02 0. -1.
    10030    2    1    2    0    0  0.00000000000E+00  0.00000000000E+00  0.89399004682E+03  0.27533810135E+04  0.26042059829E+04 0.  0.
        3    1    3    3  502    0  0.33119266171E+03 -0.12345731501E+04  0.18455729420E+03  0.12914800994E+04  0.10100000352E+00 0. -1.
       -3    1    3    3    0  502 -0.33119266171E+03  0.12345731501E+04  0.70943275262E+03  0.14619009141E+04  0.10100000352E+00 0.  1.
</event>
<event>
 5   0  0.5182179E-05  0.2708316E+04  0.7818609E-02  0.8332312E-01
       -2   -1    0    0    0  501  0.00000000000E+00  0.00000000000E+00  0.10155919710E+04  0.10155919710E+04  0.25500000920E-02 0.  1.
        2   -1    0    0  501    0  0.00000000000E+00  0.00000000000E+00 -0.18055915181E+04  0.18055915181E+04  0.25500000920E-02 0. -1.
    10030    2    1    2    0    0  0.00000000000E+00  0.00000000000E+00 -0.78999954712E+03  0.28211834892E+04  0.27083162657E+04 0.  0.
        3    1    3    3  502    0 -0.22478667265E+03  0.75902833387E+01  0.99599922469E+03  0.10210784134E+04  0.10100000352E+00 0.  1.
       -3    1    3    3    0  502  0.22478667265E+03 -0.75902833387E+01 -0.17859987718E+04  0.18001050757E+04  0.10100000352E+00 0. -1.
</event>
<event>
 5   0  0.5170532E-05  0.2523911E+04  0.7818609E-02  0.8394516E-01
        2   -1    0    0  501    0  0.00000000000E+00  0.00000000000E+00  0.97476885316E+03  0.97476885316E+03  0.25500000920E-02 0.  1.
       -2   -1    0    0    0  501  0.00000000000E+00  0.00000000000E+00 -0.16337526342E+04  0.16337526342E+04  0.25500000920E-02 0. -1.
    10030    2    1    2    0    0  0.00000000000E+00  0.00000000000E+00 -0.65898378108E+03  0.26085214874E+04  0.25239106019E+04 0.  0.
        1    1    3    3  502    0 -0.11433992853E+04  0.52979991533E+03 -0.39867860991E+03  0.13217391989E+04  0.50400001928E-02 0. -1.
       -1    1    3    3    0  502  0.11433992853E+04 -0.52979991533E+03 -0.26030517117E+03  0.12867822885E+04  0.50400001928E-02 0.  1.
</event>
<event>
 5   0  0.1954502E-05  0.2698634E+04  0.7818609E-02  0.8335448E-01
       -1   -1    0    0    0  501  0.00000000000E+00  0.00000000000E+00  0.11653891667E+04  0.11653891667E+04  0.50400001928E-02 0.  1.
        1   -1    0    0  501    0  0.00000000000E+00  0.00000000000E+00 -0.15622729964E+04  0.15622729964E+04  0.50400001928E-02 0. -1.
    10030    2    1    2    0    0  0.00000000000E+00  0.00000000000E+00 -0.39688382976E+03  0.27276621631E+04  0.26986337473E+04 0.  0.
        4    1    3    3  502    0  0.91996737521E+03  0.42219106439E+03  0.70338258242E+03  0.12326126466E+04  0.12699999809E+01 0.  1.
       -4    1    3    3    0  502 -0.91996737521E+03 -0.42219106439E+03 -0.11002664122E+04  0.14950495166E+04  0.12699999809E+01 0. -1.
</event>
<event>
 5   0  0.5049803E-05  0.2615577E+04  0.7818609E-02  0.8362929E-01
       -2   -1    0    0    0  501  0.00000000000E+00  0.00000000000E+00  0.95881200439E+03  0.95881200439E+03  0.25500000920E-02 0. -1.
        2   -1    0    0  501    0  0.00000000000E+00  0.00000000000E+00 -0.17837810271E+04  0.17837810271E+04  0.25500000920E-02 0.  1.
    10030    2    1    2    0    0  0.00000000000E+00  0.00000000000E+00 -0.82496902275E+03  0.27425930315E+04  0.26155769245E+04 0.  0.
        4    1    3    3  502    0 -0.44554034550E+03 -0.98948631980E+03 -0.11778048209E+04  0.16015040386E+04  0.12699999809E+01 0.  1.
       -4    1    3    3    0  502  0.44554034550E+03  0.98948631980E+03  0.35283579812E+03  0.11410889930E+04  0.12699999809E+01 0. -1.
</event>
<event>
 5   0  0.5036452E-05  0.2575509E+04  0.7818609E-02  0.8376568E-01
       -2   -1    0    0    0  501  0.00000000000E+00  0.00000000000E+00  0.12000054497E+04  0.12000054497E+04  0.25500000920E-02 0. -1.
        2   -1    0    0  501    0  0.00000000000E+00  0.00000000000E+00 -0.13819206369E+04  0.13819206369E+04  0.25500000920E-02 0.  1.
    10030    2    1    2    0    0  0.00000000000E+00  0.00000000000E+00 -0.18191518720E+03  0.25819260865E+04  0.25755094993E+04 0.  0.
        2    1    3    3  502    0  0.92265234088E+03 -0.68394433432E+03  0.49294101665E+03  0.12498232037E+04  0.25500000920E-02 0.  1.
       -2    1    3    3    0  502 -0.92265234088E+03  0.68394433432E+03 -0.67485620385E+03  0.13321028828E+04  0.25500000920E-02 0. -1.
</event>
<event>
 5   0  0.2159405E-05  0.2643716E+04  0.7818609E-02  0.8353502E-01
       -1   -1    0    0    0  501  0.00000000000E+00  0.00000000000E+00  0.10744536300E+04  0.10744536301E+04  0.50400001928E-02 0. -1.
        1   -1    0    0  501    0  0.00000000000E+00  0.00000000000E+00 -0.16262292428E+04  0.16262292428E+04  0.50400001928E-02 0.  1.
    10030    2    1    2    0    0  0.00000000000E+00  0.00000000000E+00 -0.55177561278E+03  0.27006828729E+04  0.26437155015E+04 0.  0.
        3    1    3    3  502    0 -0.60034927326E+03 -0.99675674107E+03  0.36481487054E+03  0.12194396872E+04  0.10100000352E+00 0. -1.
       -3    1    3    3    0  502  0.60034927326E+03  0.99675674107E+03 -0.91659048333E+03  0.14812431857E+04  0.10100000352E+00 0.  1.
</event>
<event>
 5   0  0.1954502E-05  0.2469603E+04  0.7818609E-02  0.8413895E-01
       -1   -1    0    0    0  501  0.00000000000E+00  0.00000000000E+00  0.10874430399E+04  0.10874430399E+04  0.50400001928E-02 0. -1.
        1   -1    0    0  501    0  0.00000000000E+00  0.00000000000E+00 -0.14021282967E+04  0.14021282967E+04  0.50400001928E-02 0.  1.
    10030    2    1    2    0    0  0.00000000000E+00  0.00000000000E+00 -0.31468525683E+03  0.24895713367E+04  0.24696029295E+04 0.  0.
        4    1    3    3  502    0  0.12456764744E+03 -0.40831871895E+02 -0.13950931537E+04  0.14012390449E+04  0.12699999809E+01 0.  1.
       -4    1    3    3    0  502 -0.12456764744E+03  0.40831871895E+02  0.10804078969E+04  0.10883322917E+04  0.12699999809E+01 0. -1.
</event>
<event>
 5   0  0.1993815E-05  0.1315251E+04  0.7818609E-02  0.9017558E-01
        1   -1    0    0  501    0  0.00000000000E+00  0.00000000000E+00  0.34933800387E+03  0.34933800391E+03  0.50400001928E-02 0.  1.
       -1   -1    0    0    0  501  0.00000000000E+00  0.00000000000E+00 -0.12379734455E+04  0.12379734455E+04  0.50400001928E-02 0. -1.
    10030    2    1    2    0    0  0.00000000000E+00  0.00000000000E+00 -0.88863544160E+03  0.15873114494E+04  0.13152508085E+04 0.  0.
        5    1    3    3  502    0 -0.30455980615E+03  0.17733935212E+03  0.22572161008E+03  0.41854301641E+03  0.46999998093E+01 0.  1.
       -5    1    3    3    0  502  0.30455980615E+03 -0.17733935212E+03 -0.11143570517E+04  0.11687684330E+04  0.46999998093E+01 0. -1.
</event>
<event>
 5   0  0.1954502E-05  0.2483305E+04  0.7818609E-02  0.8408957E-01
        1   -1    0    0  501    0  0.00000000000E+00  0.00000000000E+00  0.94943353198E+03  0.94943353199E+03  0.50400001928E-02 0. -1.
       -1   -1    0    0    0  501  0.00000000000E+00  0.00000000000E+00 -0.16238118786E+04  0.16238118786E+04  0.50400001928E-02 0.  1.
    10030    2    1    2    0    0  0.00000000000E+00  0.00000000000E+00 -0.67437834663E+03  0.25732454106E+04  0.24833054159E+04 0.  0.
        4    1    3    3  502    0 -0.47633174151E+03 -0.10974166997E+04 -0.68161977927E+03  0.13768886946E+04  0.12699999809E+01 0. -1.
       -4    1    3    3    0  502  0.47633174151E+03  0.10974166997E+04  0.72414326364E+01  0.11963567161E+04  0.12699999809E+01 0.  1.
</event>
<event>
 5   0  0.2163800E-05  0.2609337E+04  0.7818609E-02  0.8365037E-01
        1   -1    0    0  501    0  0.00000000000E+00  0.00000000000E+00  0.19061562399E+04  0.19061562399E+04  0.50400001928E-02 0.  1.
       -1   -1    0    0    0  501  0.00000000000E+00  0.00000000000E+00 -0.89297994710E+03  0.89297994711E+03  0.50400001928E-02 0. -1.
    10030    2    1    2    0    0  0.00000000000E+00  0.00000000000E+00  0.10131762928E+04  0.27991361870E+04  0.26093365427E+04 0.  0.
        1    1    3    3  502    0  0.29325249951E+03 -0.11008930997E+04  0.11885974338E+04  0.16464284087E+04  0.50400001928E-02 0.  1.
       -1    1    3    3    0  502 -0.29325249951E+03  0.11008930997E+04 -0.17542114101E+03  0.11527077783E+04  0.50400001928E-02 0. -1.
</event>
<event>
 5   0  0.4955675E-05  0.2721915E+04  0.7818609E-02  0.8327929E-01
       -2   -1    0    0    0  501  0.00000000000E+00  0.00000000000E+00  0.14166960764E+04  0.14166960764E+04  0.25500000920E-02 0. -1.
        2   -1    0    0  501    0  0.00000000000E+00  0.00000000000E+00 -0.13074119773E+04  0.13074119773E+04  0.25500000920E-02 0.  1.
    10030    2    1    2    0    0  0.00000000000E+00  0.00000000000E+00  0.10928409906E+03  0.27241080536E+04  0.27219150747E+04 0.  0.
        5    1    3    3  502    0 -0.12744558984E+04 -0.10242277279E+03 -0.41205443050E+03  0.13433313832E+04  0.46999998093E+01 0. -1.
       -5    1    3    3    0  502  0.12744558984E+04  0.10242277279E+03  0.52133852956E+03  0.13807766705E+04  0.46999998093E+01 0.  1.
</event>
<event>
 5   0  0.1954502E-05  0.2383955E+04  0.7818609E-02  0.8445535E-01
       -1   -1    0    0    0  501  0.00000000000E+00  0.00000000000E+00  0.11455953025E+04  0.11455953025E+04  0.50400001928E-02 0. -1.
        1   -1    0    0  501    0  0.00000000000E+00  0.00000000000E+00 -0.12402375958E+04  0.12402375958E+04  0.50400001928E-02 0.  1.
    10030    2    1    2    0    0  0.00000000000E+00  0.00000000000E+00 -0.94642293342E+02  0.23858328983E+04  0.23839550027E+04 0.  0.
        4    1    3    3  502    0  0.10240236214E+04  0.10922040090E+03  0.55336434822E+03  0.11690881865E+04  0.12699999809E+01 0. -1.
       -4    1    3    3    0  502 -0.10240236214E+04 -0.10922040090E+03 -0.64800664156E+03  0.12167447117E+04  0.12699999809E+01 0.  1.
</event>
<event>
 5   0  0.2072710E-05  0.2526180E+04  0.7818609E-02  0.8393718E-01
       -1   -1    0    0    0  501  0.00000000000E+00  0.00000000000E+00  0.74328577773E+03  0.74328577774E+03  0.50400001928E-02 0. -1.
        1   -1    0    0  501    0  0.00000000000E+00  0.00000000000E+00 -0.21464108964E+04  0.21464108964E+04  0.50400001928E-02 0.  1.
    10030    2    1    2    0    0  0.00000000000E+00  0.00000000000E+00 -0.14031251186E+04  0.28896966741E+04  0.25261802726E+04 0.  0.
        2    1    3    3  502    0 -0.89373096567E+03  0.76261013613E+03 -0.17107494906E+03  0.11872640384E+04  0.25500000920E-02 0. -1.
       -2    1    3    3    0  502  0.89373096567E+03 -0.76261013613E+03 -0.12320501696E+04  0.17024326357E+04  0.25500000920E-02 0.  1.
</event>
<event>
 5   0  0.5182179E-05  0.2598090E+04  0.7818609E-02  0.8368850E-01
        2   -1    0    0  501    0  0.00000000000E+00  0.00000000000E+00  0.12680391932E+04  0.12680391932E+04  0.25500000920E-02 0.  1.
       -2   -1    0    0    0  501  0.00000000000E+00  0.00000000000E+00 -0.13308092445E+04  0.13308092445E+04  0.25500000920E-02 0. -1.
    10030    2    1    2    0    0  0.00000000000E+00  0.00000000000E+00 -0.62770051292E+02  0.25988484377E+04  0.25980902838E+04 0.  0.
        3    1    3    3  502    0  0.25506745504E+03  0.92235188827E+03  0.84735061235E+03  0.12782000950E+04  0.10100000352E+00 0. -1.
       -3    1    3    3    0  502 -0.25506745504E+03 -0.92235188827E+03 -0.91012066364E+03  0.13206483427E+04  0.10100000352E+00 0.  1.
</event>
<event>
 5   0  0.5182179E-05  0.1759697E+04  0.7818609E-02  0.8728031E-01
       -2   -1    0    0    0  501  0.00000000000E+00  0.00000000000E+00  0.63258670369E+03  0.63258670369E+03  0.25500000920E-02 0.  1.
        2   -1    0    0  501    0  0.00000000000E+00  0.00000000000E+00 -0.12237585318E+04  0.12237585318E+04  0.25500000920E-02 0. -1.
    10030    2    1    2    0    0  0.00000000000E+00  0.00000000000E+00 -0.59117182809E+03  0.18563452355E+04  0.17596969918E+04 0.  0.
        3    1    3    3  502    0  0.34980207484E+03 -0.13536227407E+03  0.54402226208E+03  0.66079094170E+03  0.10100000352E+00 0.  1.
       -3    1    3    3    0  502 -0.34980207484E+03  0.13536227407E+03 -0.11351940902E+04  0.11955542938E+04  0.10100000352E+00 0. -1.
</event>
<event>
 5   0  0.1993815E-05  0.2844124E+04  0.7818609E-02  0.8289699E-01
        1   -1    0    0  501    0  0.00000000000E+00  0.00000000000E+00  0.14009870627E+04  0.14009870627E+04  0.50400001928E-02 0.  1.
       -1   -1    0    0    0  501  0.00000000000E+00  0.00000000000E+00 -0.14434539880E+04  0.14434539880E+04  0.50400001928E-02 0. -1.
    10030    2    1    2    0    0  0.00000000000E+00  0.00000000000E+00 -0.42466925296E+02  0.28444410508E+04  0.28441240218E+04 0.  0.
        5    1    3    3  502    0 -0.52539807236E+03 -0.51200294960E+03 -0.12395843909E+04  0.14404102565E+04  0.46999998093E+01 0. -1.
       -5    1    3    3    0  502  0.52539807236E+03  0.51200294960E+03  0.11971174656E+04  0.14040307943E+04  0.46999998093E+01 0.  1.
</event>
<event>
 5   0  0.4955675E-05  0.2576712E+04  0.7818609E-02  0.8376155E-01
        2   -1    0    0  501    0  0.00000000000E+00  0.00000000000E+00  0.19846603414E+04  0.19846603414E+04  0.25500000920E-02 0.  1.
       -2   -1    0    0    0  501  0.00000000000E+00  0.00000000000E+00 -0.83634516463E+03  0.83634516463E+03  0.25500000920E-02 0. -1.
    10030    2    1    2    0    0  0.00000000000E+00  0.00000000000E+00  0.11483151767E+04  0.28210055060E+04  0.25767119202E+04 0.  0.
        5    1    3    3  502    0  0.10341801112E+04 -0.26046982406E+03  0.13655047822E+04  0.17326276091E+04  0.46999998093E+01 0.  1.
       -5    1    3    3    0  502 -0.10341801112E+04  0.26046982406E+03 -0.21718960547E+03  0.10883778969E+04  0.46999998093E+01 0. -1.
</event>
<event>
 5   0  0.5182179E-05  0.2598322E+04  0.7818609E-02  0.8368771E-01
       -2   -1    0    0    0  501  0.00000000000E+00  0.00000000000E+00  0.10461900165E+04  0.10461900165E+04  0.25500000920E-02 0. -1.
        2   -1    0    0  501    0  0.00000000000E+00  0.00000000000E+00 -0.16133015152E+04  0.16133015152E+04  0.25500000920E-02 0.  1.
    10030    2    1    2    0    0  0.00000000000E+00  0.00000000000E+00 -0.56711149872E+03  0.26594915317E+04  0.25983224886E+04 0.  0.
        3    1    3    3  502    0 -0.71421783247E+03  0.63931989765E+03  0.61400509102E+03  0.11383493777E+04  0.10100000352E+00 0. -1.
       -3    1    3    3    0  502  0.71421783247E+03 -0.63931989765E+03 -0.11811165897E+04  0.15211421539E+04  0.10100000352E+00 0.  1.
</event>
<event>
 5   0  0.2159405E-05  0.2451523E+04  0.7818609E-02  0.8420462E-01
       -1   -1    0    0    0  501  0.00000000000E+00  0.00000000000E+00  0.11767810401E+04  0.11767810402E+04  0.50400001928E-02 0.  1.
        1   -1    0    0  501    0  0.00000000000E+00  0.00000000000E+00 -0.12767807685E+04  0.12767807686E+04  0.50400001928E-02 0. -1.
    10030    2    1    2    0    0  0.00000000000E+00  0.00000000000E+00 -0.99999728393E+02  0.24535618087E+04  0.24515231191E+04 0.  0.
        3    1    3    3  502    0 -0.64681637719E+02  0.51087347866E+00 -0.12750714703E+04  0.12767111027E+04  0.10100000352E+00 0. -1.
       -3    1    3    3    0  502  0.64681637719E+02 -0.51087347866E+00  0.11750717419E+04  0.11768507060E+04  0.10100000352E+00 0.  1.
</event>
<event>
 5   0  0.2159405E-05  0.2371380E+04  0.7818609E-02  0.8450297E-01
        1   -1    0    0  501    0  0.00000000000E+00  0.00000000000E+00  0.18223585818E+04  0.18223585818E+04  0.50400001928E-02 0. -1.
       -1   -1    0    0    0  501  0.00000000000E+00  0.00000000000E+00 -0.77145143597E+03  0.77145143598E+03  0.50400001928E-02 0.  1.
    10030    2    1    2    0    0  0.00000000000E+00  0.00000000000E+00  0.10509071458E+04  0.25938100178E+04  0.23713803110E+04 0.  0.
        3    1    3    3  502    0 -0.53791727785E+03 -0.63738663027E+03 -0.39635526758E+03  0.92342526638E+03  0.10100000352E+00 0.  1.
       -3    1    3    3    0  502  0.53791727785E+03  0.63738663027E+03  0.14472624134E+04  0.16703847514E+04  0.10100000352E+00 0. -1.
</event>
<event>
 5   0  0.1954502E-05  0.1543552E+04  0.7818609E-02  0.8855997E-01
        1   -1    0    0  501    0  0.00000000000E+00  0.00000000000E+00  0.21137716575E+04  0.21137716575E+04  0.50400001928E-02 0. -1.
       -1   -1    0    0    0  501  0.00000000000E+00  0.00000000000E+00 -0.28178913815E+03  0.28178913819E+03  0.50400001928E-02 0.  1.
    10030    2    1    2    0    0  0.00000000000E+00  0.00000000000E+00  0.18319825194E+04  0.23955607957E+04  0.15435516106E+04 0.  0.
        4    1    3    3  502    0  0.75546902657E+03  0.60741190662E+02  0.11420339940E+04  0.13706444465E+04  0.12699999809E+01 0.  1.
       -4    1    3    3    0  502 -0.75546902657E+03 -0.60741190662E+02  0.68994852540E+03  0.10249163492E+04  0.12699999809E+01 0. -1.
</event>
<event>
 5   0  0.5170532E-05  0.2594255E+04  0.7818609E-02  0.8370155E-01
        2   -1    0    0  501    0  0.00000000000E+00  0.00000000000E+00  0.25332690468E+04  0.25332690468E+04  0.25500000920E-02 0. -1.
       -2   -1    0    0    0  501  0.00000000000E+00  0.00000000000E+00 -0.66417724500E+03  0.66417724501E+03  0.25500000920E-02 0.  1.
    10030    2    1    2    0    0  0.00000000000E+00  0.00000000000E+00  0.18690918018E+04  0.31974462918E+04  0.25942549269E+04 0.  0.
        1    1    3    3  502    0  0.10689365914E+03  0.60113910497E+03 -0.47598957123E+03  0.77418379591E+03  0.50400001928E-02 0.  1.
       -1    1    3    3    0  502 -0.10689365914E+03 -0.60113910497E+03  0.23450813731E+04  0.24232624959E+04  0.50400001928E-02 0. -1.
</event>
<event>
 5   0  0.2072710E-05  0.2636908E+04  0.7818609E-02  0.8355771E-01
       -1   -1    0    0    0  501  0.00000000000E+00  0.00000000000E+00  0.88682100643E+03  0.88682100644E+03  0.50400001928E-02 0. -1.
        1   -1    0    0  501    0  0.00000000000E+00  0.00000000000E+00 -0.19601715572E+04  0.19601715572E+04  0.50400001928E-02 0.  1.
    10030    2    1    2    0    0  0.00000000000E+00  0.00000000000E+00 -0.10733505508E+04  0.28469925637E+04  0.26369082754E+04 0.  0.
        2    1    3    3  502    0  0.10347004255E+04  0.68746395778E+03 -0.10135789666E+04  0.16032947282E+04  0.25500000920E-02 0.  1.
       -2    1    3    3    0  502 -0.10347004255E+04 -0.68746395778E+03 -0.59771584184E+02  0.12436978355E+04  0.25500000920E-02 0. -1.
</event>
<event>
 5   0  0.5036452E-05  0.2591374E+04  0.7818609E-02  0.8371137E-01
        2   -1    0    0  501    0  0.00000000000E+00  0.00000000000E+00  0.26936924668E+04  0.26936924668E+04  0.25500000920E-02 0.  1.
       -2   -1    0    0    0  501  0.00000000000E+00  0.00000000000E+00 -0.62323575023E+03  0.62323575023E+03  0.25500000920E-02 0. -1.
    10030    2    1    2    0    0  0.00000000000E+00  0.00000000000E+00  0.20704567166E+04  0.33169282171E+04  0.25913744966E+04 0.  0.
        2    1    3    3  502    0  0.89737055432E+03  0.44060850108E+02  0.22302122626E+04  0.24043839142E+04  0.25500000920E-02 0.  1.
       -2    1    3    3    0  502 -0.89737055432E+03 -0.44060850108E+02 -0.15975554602E+03  0.91254430290E+03  0.25500000920E-02 0. -1.
</event>
<event>
 5   0  0.5182179E-05  0.2304396E+04  0.7818609E-02  0.8476190E-01
        2   -1    0    0  501    0  0.00000000000E+00  0.00000000000E+00  0.90634140943E+03  0.90634140943E+03  0.25500000920E-02 0. -1.
       -2   -1    0    0    0  501  0.00000000000E+00  0.00000000000E+00 -0.14647466587E+04  0.14647466587E+04  0.25500000920E-02 0.  1.
    10030    2    1    2    0    0  0.00000000000E+00  0.00000000000E+00 -0.55840524924E+03  0.23710880681E+04  0.23043962776E+04 0.  0.
        3    1    3    3  502    0 -0.24648070311E+03 -0.68923497396E+02 -0.14351287147E+04  0.14577714579E+04  0.10100000352E+00 0.  1.
       -3    1    3    3    0  502  0.24648070311E+03  0.68923497396E+02  0.87672346543E+03  0.91331661024E+03  0.10100000352E+00 0. -1.
</event>
<event>
 5   0  0.1954502E-05  0.2568699E+04  0.7818609E-02  0.8378912E-01
       -1   -1    0    0    0  501  0.00000000000E+00  0.00000000000E+00  0.98909230132E+03  0.98909230133E+03  0.50400001928E-02 0. -1.
        1   -1    0    0  501    0  0.00000000000E+00  0.00000000000E+00 -0.16677446526E+04  0.16677446526E+04  0.50400001928E-02 0.  1.
    10030    2    1    2    0    0  0.00000000000E+00  0.00000000000E+00 -0.67865235127E+03  0.26568369539E+04  0.25686988118E+04 0.  0.
        4    1    3    3  502    0 -0.75433928191E+03 -0.75172028227E+03 -0.10819024185E+04  0.15180993350E+04  0.12699999809E+01 0.  1.
       -4    1    3    3    0  502  0.75433928191E+03  0.75172028227E+03  0.40325006724E+03  0.11387376189E+04  0.12699999809E+01 0. -1.
</event>
<event>
 5   0  0.2163800E-05  0.2358325E+04  0.7818609E-02  0.8455273E-01
       -1   -1    0    0    0  501  0.00000000000E+00  0.00000000000E+00  0.73054611324E+03  0.73054611326E+03  0.50400001928E-02 0. -1.
        1   -1    0    0  501    0  0.00000000000E+00  0.00000000000E+00 -0.19032665202E+04  0.19032665202E+04  0.50400001928E-02 0.  1.
    10030    2    1    2    0    0  0.00000000000E+00  0.00000000000E+00 -0.11727204070E+04  0.26338126335E+04  0.23583247943E+04 0.  0.
        1    1    3    3  502    0 -0.30962915793E+03  0.36221726562E+03 -0.17909436862E+04  0.18532541245E+04  0.50400001928E-02 0.  1.
       -1    1    3    3    0  502  0.30962915793E+03 -0.36221726562E+03  0.61822327920E+03  0.78055850897E+03  0.50400001928E-02 0. -1.
</event>
<event>
 5   0  0.5182179E-05  0.2587062E+04  0.7818609E-02  0.8372609E-01
        2   -1    0    0  501    0  0.00000000000E+00  0.00000000000E+00  0.21514767922E+04  0.21514767922E+04  0.25500000920E-02 0. -1.
       -2   -1    0    0    0  501  0.00000000000E+00  0.00000000000E+00 -0.77770861438E+03  0.77770861438E+03  0.25500000920E-02 0.  1.
    10030    2    1    2    0    0  0.00000000000E+00  0.00000000000E+00  0.13737681779E+04  0.29291854066E+04  0.25870616807E+04 0.  0.
        3    1    3    3  502    0  0.10967164591E+04 -0.59812833480E+03  0.30681833926E+03  0.12863444329E+04  0.10100000352E+00 0.  1.
       -3    1    3    3    0  502 -0.10967164591E+04  0.59812833480E+03  0.10669498386E+04  0.16428409737E+04  0.10100000352E+00 0. -1.
</event>
<event>
 5   0  0.4955675E-05  0.2624071E+04  0.7818609E-02  0.8360071E-01
       -2   -1    0    0    0  501  0.00000000000E+00  0.00000000000E+00  0.24373968568E+04  0.24373968568E+04  0.25500000920E-02 0. -1.
        2   -1    0    0  501    0  0.00000000000E+00  0.00000000000E+00 -0.70626035184E+03  0.70626035184E+03  0.25500000920E-02 0.  1.
    10030    2    1    2    0    0  0.00000000000E+00  0.00000000000E+00  0.17311365050E+04  0.31436572087E+04  0.26240707016E+04 0.  0.
        5    1    3    3  502    0 -0.85429636860E+03 -0.98911843915E+03  0.72773434439E+03  0.14959267823E+04  0.46999998093E+01 0. -1.
       -5    1    3    3    0  502  0.85429636860E+03  0.98911843915E+03  0.10034021606E+04  0.16477304264E+04  0.46999998093E+01 0.  1.
</event>
<event>
 5   0  0.2159405E-05  0.2671020E+04  0.7818609E-02  0.8344470E-01
        1   -1    0    0  501    0  0.00000000000E+00  0.00000000000E+00  0.17357511426E+04  0.17357511426E+04  0.50400001928E-02 0.  1.
       -1   -1    0    0    0  501  0.00000000000E+00  0.00000000000E+00 -0.10275588083E+04  0.10275588083E+04  0.50400001928E-02 0. -1.
    10030    2    1    2    0    0  0.00000000000E+00  0.00000000000E+00  0.70819233432E+03  0.27633099509E+04  0.26710195624E+04 0.  0.
        3    1    3    3  502    0  0.55000799597E+03 -0.10863007555E+04  0.92171415614E+03  0.15271264266E+04  0.10100000352E+00 0.  1.
       -3    1    3    3    0  502 -0.55000799597E+03  0.10863007555E+04 -0.21352182183E+03  0.12361835243E+04  0.10100000352E+00 0. -1.
</event>
<event>
 5   0  0.1954502E-05  0.1979639E+04  0.7818609E-02  0.8616199E-01
        1   -1    0    0  501    0  0.00000000000E+00  0.00000000000E+00  0.92841867576E+03  0.92841867577E+03  0.50400001928E-02 0.  1.
       -1   -1    0    0    0  501  0.00000000000E+00  0.00000000000E+00 -0.10552815554E+04  0.10552815554E+04  0.50400001928E-02 0. -1.
    10030    2    1    2    0    0  0.00000000000E+00  0.00000000000E+00 -0.12686287967E+03  0.19837002312E+04  0.19796394664E+04 0.  0.
        4    1    3    3  502    0 -0.61272103886E+03  0.57073742280E+03  0.46545157288E+03  0.95802664725E+03  0.12699999809E+01 0. -1.
       -4    1    3    3    0  502  0.61272103886E+03 -0.57073742280E+03 -0.59231445255E+03  0.10256735840E+04  0.12699999809E+01 0.  1.
</event>
<event>
 5   0  0.2072710E-05  0.2678783E+04  0.7818609E-02  0.8341922E-01
       -1   -1    0    0    0  501  0.00000000000E+00  0.00000000000E+00  0.74371206866E+03  0.74371206868E+03  0.50400001928E-02 0.  1.
        1   -1    0    0  501    0  0.00000000000E+00  0.00000000000E+00 -0.24121828164E+04  0.24121828164E+04  0.50400001928E-02 0. -1.
    10030    2    1    2    0    0  0.00000000000E+00  0.00000000000E+00 -0.16684707478E+04  0.31558948851E+04  0.26787829120E+04 0.  0.
        2    1    3    3  502    0  0.39936647274E+03  0.92452274168E+03  0.20606350921E+03  0.10279581943E+04  0.25500000920E-02 0.  1.
       -2    1    3    3    0  502 -0.39936647274E+03 -0.92452274168E+03 -0.18745342570E+04  0.21279366908E+04  0.25500000920E-02 0. -1.
</event>
<event>
 5   0  0.5049803E-05  0.2565531E+04  0.7818609E-02  0.8380005E-01
       -2   -1    0    0    0  501  0.00000000000E+00  0.00000000000E+00  0.15479196473E+04  0.15479196473E+04  0.25500000920E-02 0. -1.
        2   -1    0    0  501    0  0.00000000000E+00  0.00000000000E+00 -0.10630317005E+04  0.10630317005E+04  0.25500000920E-02 0.  1.
    10030    2    1    2    0    0  0.00000000000E+00  0.00000000000E+00  0.48488794678E+03  0.26109513478E+04  0.25655312548E+04 0.  0.
        4    1    3    3  502    0  0.12610439085E+04  0.22192786665E+03  0.32129025491E+03  0.13201184636E+04  0.12699999809E+01 0.  1.
       -4    1    3    3    0  502 -0.12610439085E+04 -0.22192786665E+03  0.16359769186E+03  0.12908328842E+04  0.12699999809E+01 0. -1.
</event>
<event>
 5   0  0.1993815E-05  0.2622635E+04  0.7818609E-02  0.8360553E-01
        1   -1    0    0  501    0  0.00000000000E+00  0.00000000000E+00  0.21491734633E+04  0.21491734633E+04  0.50400001928E-02 0.  1.
       -1   -1    0    0    0  501  0.00000000000E+00  0.00000000000E+00 -0.80010006412E+03  0.80010006413E+03  0.50400001928E-02 0. -1.
    10030    2    1    2    0    0  0.00000000000E+00  0.00000000000E+00  0.13490733992E+04  0.29492735274E+04  0.26226351830E+04 0.  0.
        5    1    3    3  502    0 -0.93752217040E+03 -0.63601714239E+03  0.14171339514E+04  0.18143198041E+04  0.46999998093E+01 0.  1.
       -5    1    3    3    0  502  0.93752217040E+03  0.63601714239E+03 -0.68060552173E+02  0.11349537234E+04  0.46999998093E+01 0. -1.
</event>
<event>
 5   0  0.4955675E-05  0.2679191E+04  0.7818609E-02  0.8341789E-01
       -2   -1    0    0    0  501  0.00000000000E+00  0.00000000000E+00  0.24661571410E+04  0.24661571410E+04  0.25500000920E-02 0.  1.
        2   -1    0    0  501    0  0.00000000000E+00  0.00000000000E+00 -0.72765661377E+03  0.72765661377E+03  0.25500000920E-02 0. -1.
    10030    2    1    2    0    0  0.00000000000E+00  0.00000000000E+00  0.17385005272E+04  0.31938137547E+04  0.26791905899E+04 0.  0.
        5    1    3    3  502    0  0.76014658687E+03  0.10975725245E+04  0.73863606517E+03  0.15258091646E+04  0.46999998093E+01 0. -1.
       -5    1    3    3    0  502 -0.76014658687E+03 -0.10975725245E+04  0.99986446202E+03  0.16680045901E+04  0.46999998093E+01 0.  1.
</event>
<event>
 5   0  0.2072710E-05  0.1869948E+04  0.7818609E-02  0.8669961E-01
        1   -1    0    0  501    0  0.00000000000E+00  0.00000000000E+00  0.98702507721E+03  0.98702507722E+03  0.50400001928E-02 0. -1.
       -1   -1    0    0    0  501  0.00000000000E+00  0.00000000000E+00 -0.88566807015E+03  0.88566807017E+03  0.50400001928E-02 0.  1.
    10030    2    1    2    0    0  0.00000000000E+00  0.00000000000E+00  0.10135700705E+03  0.18726931474E+04  0.18699482296E+04 0.  0.
        2    1    3    3  502    0  0.18805760904E+02  0.62992831436E+03  0.74235379688E+03  0.97378257205E+03  0.25500000920E-02 0. -1.
       -2    1    3    3    0  502 -0.18805760904E+02 -0.62992831436E+03 -0.64099678983E+03  0.89891057534E+03  0.25500000920E-02 0.  1.
</event>
<event>
 5   0  0.5170532E-05  0.2633233E+04  0.7818609E-02  0.8357000E-01
       -2   -1    0    0    0  501  0.00000000000E+00  0.00000000000E+00  0.10153798282E+04  0.10153798282E+04  0.25500000920E-02 0. -1.
        2   -1    0    0  501    0  0.00000000000E+00  0.00000000000E+00 -0.17072218167E+04  0.17072218167E+04  0.25500000920E-02 0.  1.
    10030    2    1    2    0    0  0.00000000000E+00  0.00000000000E+00 -0.69184198852E+03  0.27226016450E+04  0.26332326863E+04 0.  0.
        1    1    3    3  502    0 -0.66894346231E+03  0.70328237854E+03 -0.12657124232E+04  0.15950295916E+04  0.50400001928E-02 0.  1.
       -1    1    3    3    0  502  0.66894346231E+03 -0.70328237854E+03  0.57387043470E+03  0.11275720534E+04  0.50400001928E-02 0. -1.
</event>
<event>
 5   0  0.1993815E-05  0.2597183E+04  0.7818609E-02  0.8369159E-01
       -1   -1    0    0    0  501  0.00000000000E+00  0.00000000000E+00  0.17470740779E+04  0.17470740779E+04  0.50400001928E-02 0.  1.
        1   -1    0    0  501    0  0.00000000000E+00  0.00000000000E+00 -0.96523692958E+03  0.96523692959E+03  0.50400001928E-02 0. -1.
    10030    2    1    2    0    0  0.00000000000E+00  0.00000000000E+00  0.78183714832E+03  0.27123110075E+04  0.25971834119E+04 0.  0.
        5    1    3    3  502    0  0.22799781984E+03  0.48930331036E+03 -0.84250186817E+03  0.10006159219E+04  0.46999998093E+01 0. -1.
       -5    1    3    3    0  502 -0.22799781984E+03 -0.48930331036E+03  0.16243390165E+04  0.17116950855E+04  0.46999998093E+01 0.  1.
</event>
<event>
 5   0  0.2072710E-05  0.2544527E+04  0.7818609E-02  0.8387292E-01
       -1   -1    0    0    0  501  0.00000000000E+00  0.00000000000E+00  0.78368112869E+03  0.78368112871E+03  0.50400001928E-02 0. -1.
        1   -1    0    0  501    0  0.00000000000E+00  0.00000000000E+00 -0.20654507015E+04  0.20654507015E+04  0.50400001928E-02 0.  1.
    10030    2    1    2    0    0  0.00000000000E+00  0.00000000000E+00 -0.12817695728E+04  0.28491318302E+04  0.25445272543E+04 0.  0.
        2    1    3    3  502    0 -0.12315217900E+04 -0.19719290236E+03 -0.35956393299E+03  0.12980050778E+04  0.25500000920E-02 0. -1.
       -2    1    3    3    0  502  0.12315217900E+04  0.19719290236E+03 -0.92220563977E+03  0.15511267524E+04  0.25500000920E-02 0.  1.
</event>
<event>
 5   0  0.5036452E-05  0.2597357E+04  0.7818609E-02  0.8369100E-01
       -2   -1    0    0    0  501  0.00000000000E+00  0.00000000000E+00  0.11538377923E+04  0.11538377923E+04  0.25500000920E-02 0.  1.
        2   -1    0    0  501    0  0.00000000000E+00  0.00000000000E+00 -0.14617004607E+04  0.14617004607E+04  0.25500000920E-02 0. -1.
    10030    2    1    2    0    0  0.00000000000E+00  0.00000000000E+00 -0.30786266848E+03  0.26155382530E+04  0.25973565274E+04 0.  0.
        2    1    3    3  502    0 -0.24315400912E+03  0.12572458030E+04 -0.37171905733E+03  0.13334038919E+04  0.25500000920E-02 0. -1.
       -2    1    3    3    0  502  0.24315400912E+03 -0.12572458030E+04  0.63856388846E+02  0.12821343611E+04  0.25500000920E-02 0.  1.
</event>
<event>
 5   0  0.5036452E-05  0.2733169E+04  0.7818609E-02  0.8324322E-01
       -2   -1    0    0    0  501  0.00000000000E+00  0.00000000000E+00  0.90083026636E+03  0.90083026637E+03  0.25500000920E-02 0. -1.
        2   -1    0    0  501    0  0.00000000000E+00  0.00000000000E+00 -0.20731468503E+04  0.20731468503E+04  0.25500000920E-02 0.  1.
    10030    2    1    2    0    0  0.00000000000E+00  0.00000000000E+00 -0.11723165839E+04  0.29739771166E+04  0.27331691710E+04 0.  0.
        2    1    3    3  502    0 -0.45168278079E+02 -0.13609785273E+04 -0.71141199916E+03  0.15363625086E+04  0.25500000920E-02 0. -1.
       -2    1    3    3    0  502  0.45168278079E+02  0.13609785273E+04 -0.46090458474E+03  0.14376146081E+04  0.25500000920E-02 0.  1.
</event>
<event>
 5   0  0.5049803E-05  0.2615045E+04  0.7818609E-02  0.8363109E-01
       -2   -1    0    0    0  501  0.00000000000E+00  0.00000000000E+00  0.10533952102E+04  0.10533952102E+04  0.25500000920E-02 0. -1.
        2   -1    0    0  501    0  0.00000000000E+00  0.00000000000E+00 -0.16229572534E+04  0.16229572534E+04  0.25500000920E-02 0.  1.
    10030    2    1    2    0    0  0.00000000000E+00  0.00000000000E+00 -0.56956204319E+03  0.26763524636E+04  0.26150452363E+04 0.  0.
        4    1    3    3  502    0  0.78944703755E+03 -0.67851907847E+03  0.52496892486E+03  0.11658510839E+04  0.12699999809E+01 0. -1.
       -4    1    3    3    0  502 -0.78944703755E+03  0.67851907847E+03 -0.10945309680E+04  0.15105013796E+04  0.12699999809E+01 0.  1.
</event>
<event>
 5   0  0.5036452E-05  0.2499716E+04  0.7818609E-02  0.8403087E-01
        2   -1    0    0  501    0  0.00000000000E+00  0.00000000000E+00  0.12105641246E+04  0.12105641246E+04  0.25500000920E-02 0.  1.
       -2   -1    0    0    0  501  0.00000000000E+00  0.00000000000E+00 -0.12904276727E+04  0.12904276727E+04  0.25500000920E-02 0. -1.
    10030    2    1    2    0    0  0.00000000000E+00  0.00000000000E+00 -0.79863548083E+02  0.25009917972E+04  0.24997163406E+04 0.  0.
        2    1    3    3  502    0  0.10405508905E+04 -0.48902104865E+03  0.45047922217E+03  0.12348357264E+04  0.25500000920E-02 0. -1.
       -2    1    3    3    0  502 -0.10405508905E+04  0.48902104865E+03 -0.53034277025E+03  0.12661560708E+04  0.25500000920E-02 0.  1.
</event>
<event>
 5   0  0.5036452E-05  0.2573316E+04  0.7818609E-02  0.8377322E-01
        2   -1    0    0  501    0  0.00000000000E+00  0.00000000000E+00  0.17613092737E+04  0.17613092737E+04  0.25500000920E-02 0.  1.
       -2   -1    0    0    0  501  0.00000000000E+00  0.00000000000E+00 -0.93991962244E+03  0.93991962244E+03  0.25500000920E-02 0. -1.
    10030    2    1    2    0    0  0.00000000000E+00  0.00000000000E+00  0.82138965122E+03  0.27012288961E+04  0.25733162631E+04 0.  0.
        2    1    3    3  502    0 -0.14161012648E+02 -0.63603137462E+03  0.15846565767E+04  0.17075927236E+04  0.25500000920E-02 0.  1.
       -2    1    3    3    0  502  0.14161012648E+02  0.63603137462E+03 -0.76326692544E+03  0.99363617248E+03  0.25500000920E-02 0. -1.
</event>
<event>
 5   0  0.5182179E-05  0.2372309E+04  0.7818609E-02  0.8449944E-01
        2   -1    0    0  501    0  0.00000000000E+00  0.00000000000E+00  0.18779995558E+04  0.18779995558E+04  0.25500000920E-02 0. -1.
       -2   -1    0    0    0  501  0.00000000000E+00  0.00000000000E+00 -0.74918134624E+03  0.74918134625E+03  0.25500000920E-02 0.  1.
    10030    2    1    2    0    0  0.00000000000E+00  0.00000000000E+00  0.11288182096E+04  0.26271809020E+04  0.23723087788E+04 0.  0.
        3    1    3    3  502    0 -0.10306055430E+04 -0.16599997462E+03 -0.59362154448E+02  0.10455752734E+04  0.10100000352E+00 0.  1.
       -3    1    3    3    0  502  0.10306055430E+04  0.16599997462E+03  0.11881803640E+04  0.15816056286E+04  0.10100000352E+00 0. -1.
</event>
<event>
 5   0  0.1954502E-05  0.2418875E+04  0.7818609E-02  0.8432471E-01
       -1   -1    0    0    0  501  0.00000000000E+00  0.00000000000E+00  0.15768810693E+04  0.15768810693E+04  0.50400001928E-02 0.  1.
        1   -1    0    0  501    0  0.00000000000E+00  0.00000000000E+00 -0.92761516684E+03  0.92761516685E+03  0.50400001928E-02 0. -1.
    10030    2    1    2    0    0  0.00000000000E+00  0.00000000000E+00  0.64926590245E+03  0.25044962361E+04  0.24188747766E+04 0.  0.
        4    1    3    3  502    0 -0.11636029923E+04  0.32558872008E+03  0.37900111640E+03  0.12663425277E+04  0.12699999809E+01 0. -1.
       -4    1    3    3    0  502  0.11636029923E+04 -0.32558872008E+03  0.27026478605E+03  0.12381537085E+04  0.12699999809E+01 0.  1.
</event>
<event>
 5   0  0.2163800E-05  0.2769060E+04  0.7818609E-02  0.8312939E-01
        1   -1    0    0  501    0  0.00000000000E+00  0.00000000000E+00  0.15064549636E+04  0.15064549636E+04  0.50400001928E-02 0. -1.
       -1   -1    0    0    0  501  0.00000000000E+00  0.00000000000E+00 -0.12724726904E+04  0.12724726904E+04  0.50400001928E-02 0.  1.
    10030    2    1    2    0    0  0.00000000000E+00  0.00000000000E+00  0.23398227322E+03  0.27789276540E+04  0.27690596241E+04 0.  0.
        1    1    3    3  502    0 -0.10346359065E+04  0.91556326981E+03  0.20784131397E+03  0.13971132996E+04  0.50400001928E-02 0. -1.
       -1    1    3    3    0  502  0.10346359065E+04 -0.91556326981E+03  0.26140959249E+02  0.13818143544E+04  0.50400001928E-02 0.  1.
</event>
<event>
 5   0  0.2159405E-05  0.2611075E+04  0.7818609E-02  0.8364449E-01
       -1   -1    0    0    0  501  0.00000000000E+00  0.00000000000E+00  0.72107188854E+03  0.72107188856E+03  0.50400001928E-02 0. -1.
        1   -1    0    0  501    0  0.00000000000E+00  0.00000000000E+00 -0.23637418975E+04  0.23637418975E+04  0.50400001928E-02 0.  1.
    10030    2    1    2    0    0  0.00000000000E+00  0.00000000000E+00 -0.16426700089E+04  0.30848137860E+04  0.26110747473E+04 0.  0.
        3    1    3    3  502    0  0.48269113459E+03 -0.33413641621E+03 -0.21990061475E+04  0.22760197545E+04  0.10100000352E+00 0.  1.
       -3    1    3    3    0  502 -0.48269113459E+03  0.33413641621E+03  0.55633613860E+03  0.80879403148E+03  0.10100000352E+00 0. -1.
</event>
<event>
 5   0  0.2072710E-05  0.2435035E+04  0.7818609E-02  0.8426502E-01
       -1   -1    0    0    0  501  0.00000000000E+00  0.00000000000E+00  0.13452838270E+04  0.13452838270E+04  0.50400001928E-02 0.  1.
        1   -1    0    0  501    0  0.00000000000E+00  0.00000000000E+00 -0.11018858144E+04  0.11018858144E+04  0.50400001928E-02 0. -1.
    10030    2    1    2    0    0  0.00000000000E+00  0.00000000000E+00  0.24339801264E+03  0.24471696414E+04  0.24350352484E+04 0.  0.
        2    1    3    3  502    0 -0.26492169782E+03  0.65662219119E+03 -0.87369769204E+03  0.11245816400E+04  0.25500000920E-02 0. -1.
       -2    1    3    3    0  502  0.26492169782E+03 -0.65662219119E+03  0.11170957047E+04  0.13225880014E+04  0.25500000920E-02 0.  1.
</event>
<event>
 5   0  0.2159405E-05  0.2269522E+04  0.7818609E-02  0.8490036E-01
        1   -1    0    0  501    0  0.00000000000E+00  0.00000000000E+00  0.73822183667E+03  0.73822183669E+03  0.50400001928E-02 0.  1.
       -1   -1    0    0    0  501  0.00000000000E+00  0.00000000000E+00 -0.17443028133E+04  0.17443028133E+04  0.50400001928E-02 0. -1.
    10030    2    1    2    0    0  0.00000000000E+00  0.00000000000E+00 -0.10060809767E+04  0.24825246500E+04  0.22695219114E+04 0.  0.
        3    1    3    3  502    0 -0.46388548864E+03  0.12374835199E+03 -0.16277321008E+04  0.16970607542E+04  0.10100000352E+00 0. -1.
       -3    1    3    3    0  502  0.46388548864E+03 -0.12374835199E+03  0.62165112419E+03  0.78546389580E+03  0.10100000352E+00 0.  1.
</event>
<event>
 5   0  0.5049803E-05  0.2618488E+04  0.7818609E-02  0.8361948E-01
        2   -1    0    0  501    0  0.00000000000E+00  0.00000000000E+00  0.16910806314E+04  0.16910806314E+04  0.25500000920E-02 0. -1.
       -2   -1    0    0    0  501  0.00000000000E+00  0.00000000000E+00 -0.10136242575E+04  0.10136242575E+04  0.25500000920E-02 0.  1.
    10030    2    1    2    0    0  0.00000000000E+00  0.00000000000E+00  0.67745637390E+03  0.27047048890E+04  0.26184883803E+04 0.  0.
        4    1    3    3  502    0  0.10607795776E+04 -0.74506081274E+03  0.14896808767E+03  0.13048226052E+04  0.12699999809E+01 0. -1.
       -4    1    3    3    0  502 -0.10607795776E+04  0.74506081274E+03  0.52848828623E+03  0.13998822838E+04  0.12699999809E+01 0.  1.
</event>
<event>
 5   0  0.5049803E-05  0.2214709E+04  0.7818609E-02  0.8512331E-01
        2   -1    0    0  501    0  0.00000000000E+00  0.00000000000E+00  0.14398793541E+04  0.14398793541E+04  0.25500000920E-02 0. -1.
       -2   -1    0    0    0  501  0.00000000000E+00  0.00000000000E+00 -0.85162307548E+03  0.85162307548E+03  0.25500000920E-02 0.  1.
    10030    2    1    2    0    0  0.00000000000E+00  0.00000000000E+00  0.58825627867E+03  0.22915024296E+04  0.22147094472E+04 0.  0.
        4    1    3    3  502    0  0.77352052703E+03 -0.80721658256E+02 -0.52148310663E+03  0.93637398257E+03  0.12699999809E+01 0.  1.
       -4    1    3    3    0  502 -0.77352052703E+03  0.80721658256E+02  0.11097393853E+04  0.13551284471E+04  0.12699999809E+01 0. -1.
</event>
<event>
 5   0  0.5036452E-05  0.2607005E+04  0.7818609E-02  0.8365826E-01
        2   -1    0    0  501    0  0.00000000000E+00  0.00000000000E+00  0.21303570637E+04  0.21303570637E+04  0.25500000920E-02 0.  1.
       -2   -1    0    0    0  501  0.00000000000E+00  0.00000000000E+00 -0.79757456744E+03  0.79757456744E+03  0.25500000920E-02 0. -1.
    10030    2    1    2    0    0  0.00000000000E+00  0.00000000000E+00  0.13327824963E+04  0.29279316312E+04  0.26070048819E+04 0.  0.
        2    1    3    3  502    0 -0.45100245098E+03 -0.98951955999E+03 -0.14081066449E+03  0.10965308083E+04  0.25500000920E-02 0. -1.
       -2    1    3    3    0  502  0.45100245098E+03  0.98951955999E+03  0.14735931608E+04  0.18314008228E+04  0.25500000920E-02 0.  1.
</event>
<event>
 5   0  0.1698625E-05  0.2564815E+04  0.7818609E-02  0.8380252E-01
        3   -1    0    0  501    0  0.00000000000E+00  0.00000000000E+00  0.28303373049E+04  0.28303373067E+04  0.10100000352E+00 0. -1.
       -3   -1    0    0    0  501  0.00000000000E+00  0.00000000000E+00 -0.58105035426E+03  0.58105036304E+03  0.10100000352E+00 0.  1.
    10030    2    1    2    0    0  0.00000000000E+00  0.00000000000E+00  0.22492869507E+04  0.34113876698E+04  0.25648146223E+04 0.  0.
        3    1    3    3  502    0  0.12482139178E+04  0.49731846549E+02  0.73902066982E+03  0.14514347391E+04  0.10100000352E+00 0. -1.
       -3    1    3    3    0  502 -0.12482139178E+04 -0.49731846549E+02  0.15102662808E+04  0.19599529307E+04  0.10100000352E+00 0.  1.
</event>
<event>
 5   0  0.1954502E-05  0.2693037E+04  0.7818609E-02  0.8337268E-01
       -1   -1    0    0    0  501  0.00000000000E+00  0.00000000000E+00  0.76771057245E+03  0.76771057247E+03  0.50400001928E-02 0. -1.
        1   -1    0    0  501    0  0.00000000000E+00  0.00000000000E+00 -0.23617135945E+04  0.23617135945E+04  0.50400001928E-02 0.  1.
    10030    2    1    2    0    0  0.00000000000E+00  0.00000000000E+00 -0.15940030220E+04  0.31294241670E+04  0.26930373155E+04 0.  0.
        4    1    3    3  502    0  0.75444213797E+03 -0.33017085449E+03 -0.20349533738E+04  0.21952750577E+04  0.12699999809E+01 0.  1.
       -4    1    3    3    0  502 -0.75444213797E+03  0.33017085449E+03  0.44095035174E+03  0.93414910924E+03  0.12699999809E+01 0. -1.
</event>
<event>
 5   0  0.2159405E-05  0.2635582E+04  0.7818609E-02  0.8356214E-01
       -1   -1    0    0    0  501  0.00000000000E+00  0.00000000000E+00  0.13396702994E+04  0.13396702995E+04  0.50400001928E-02 0.  1.
        1   -1    0    0  501    0  0.00000000000E+00  0.00000000000E+00 -0.12962690266E+04  0.12962690266E+04  0.50400001928E-02 0. -1.
    10030    2    1    2    0    0  0.00000000000E+00  0.00000000000E+00  0.43401272846E+02  0.26359393261E+04  0.26355819965E+04 0.  0.
        3    1    3    3  502    0  0.41153409735E+03 -0.68688218527E+03  0.10684588240E+04  0.13352047478E+04  0.10100000352E+00 0.  1.
       -3    1    3    3    0  502 -0.41153409735E+03  0.68688218527E+03 -0.10250575512E+04  0.13007345783E+04  0.10100000352E+00 0. -1.
</event>
<event>
 5   0  0.1954502E-05  0.2718630E+04  0.7818609E-02  0.8328985E-01
       -1   -1    0    0    0  501  0.00000000000E+00  0.00000000000E+00  0.70364120671E+03  0.70364120673E+03  0.50400001928E-02 0. -1.
        1   -1    0    0  501    0  0.00000000000E+00  0.00000000000E+00 -0.26259647781E+04  0.26259647781E+04  0.50400001928E-02 0.  1.
    10030    2    1    2    0    0  0.00000000000E+00  0.00000000000E+00 -0.19223235714E+04  0.33296059848E+04  0.27186298205E+04 0.  0.
        4    1    3    3  502    0 -0.71354829006E+03 -0.11064399751E+04 -0.54696378241E+03  0.14256688160E+04  0.12699999809E+01 0.  1.
       -4    1    3    3    0  502  0.71354829006E+03  0.11064399751E+04 -0.13753597890E+04  0.19039371688E+04  0.12699999809E+01 0. -1.
</event>
<event>
 5   0  0.1954502E-05  0.2503007E+04  0.7818609E-02  0.8401915E-01
        1   -1    0    0  501    0  0.00000000000E+00  0.00000000000E+00  0.74371451278E+03  0.74371451280E+03  0.50400001928E-02 0. -1.
       -1   -1    0    0    0  501  0.00000000000E+00  0.00000000000E+00 -0.21059970891E+04  0.21059970891E+04  0.50400001928E-02 0.  1.
    10030    2    1    2    0    0  0.00000000000E+00  0.00000000000E+00 -0.13622825763E+04  0.28497116019E+04  0.25030066712E+04 0.  0.
        4    1    3    3  502    0  0.70019393590E+03 -0.58664982548E+03  0.29282480004E+03  0.95925885037E+03  0.12699999809E+01 0. -1.
       -4    1    3    3    0  502 -0.70019393590E+03  0.58664982548E+03 -0.16551073764E+04  0.18904527515E+04  0.12699999809E+01 0.  1.
</event>
<event>
 5   0  0.5170532E-05  0.2417523E+04  0.7818609E-02  0.8432972E-01
        2   -1    0    0  501    0  0.00000000000E+00  0.00000000000E+00  0.17132431551E+04  0.17132431552E+04  0.25500000920E-02 0.  1.
       -2   -1    0    0    0  501  0.00000000000E+00  0.00000000000E+00 -0.85282955501E+03  0.85282955501E+03  0.25500000920E-02 0. -1.
    10030    2    1    2    0    0  0.00000000000E+00  0.00000000000E+00  0.86041360014E+03  0.25660727102E+04  0.24175230279E+04 0.  0.
        1    1    3    3  502    0  0.20943770930E+03  0.25328382658E+03  0.16649063417E+04  0.16970356441E+04  0.50400001928E-02 0.  1.
       -1    1    3    3    0  502 -0.20943770930E+03 -0.25328382658E+03 -0.80449274154E+03  0.86903706602E+03  0.50400001928E-02 0. -1.
</event>
<event>
 5   0  0.5036452E-05  0.1904362E+04  0.7818609E-02  0.8652688E-01
       -2   -1    0    0    0  501  0.00000000000E+00  0.00000000000E+00  0.19404123913E+04  0.19404123913E+04  0.25500000920E-02 0.  1.
        2   -1    0    0  501    0  0.00000000000E+00  0.00000000000E+00 -0.46724518282E+03  0.46724518283E+03  0.25500000920E-02 0. -1.
    10030    2    1    2    0    0  0.00000000000E+00  0.00000000000E+00  0.14731672085E+04  0.24076575741E+04  0.19043616700E+04 0.  0.
        2    1    3    3  502    0  0.44598397999E+03 -0.76943064676E+03  0.30649757006E+03  0.94067315846E+03  0.25500000920E-02 0. -1.
       -2    1    3    3    0  502 -0.44598397999E+03  0.76943064676E+03  0.11666696384E+04  0.14669844156E+04  0.25500000920E-02 0.  1.
</event>
<event>
 5   0  0.5182179E-05  0.2894471E+04  0.7818609E-02  0.8274524E-01
        2   -1    0    0  501    0  0.00000000000E+00  0.00000000000E+00  0.12117825925E+04  0.12117825925E+04  0.25500000920E-02 0. -1.
       -2   -1    0    0    0  501  0.00000000000E+00  0.00000000000E+00 -0.17284377629E+04  0.17284377629E+04  0.25500000920E-02 0.  1.
    10030    2    1    2    0    0  0.00000000000E+00  0.00000000000E+00 -0.51665517038E+03  0.29402203554E+04  0.28944711388E+04 0.  0.
        3    1    3    3  502    0  0.73566665441E+03 -0.63605240385E+03 -0.13470527400E+04  0.16614208321E+04  0.10100000352E+00 0.  1.
       -3    1    3    3    0  502 -0.73566665441E+03  0.63605240385E+03  0.83039756964E+03  0.12787995233E+04  0.10100000352E+00 0. -1.
</event>
<event>
 5   0  0.4955675E-05  0.2685530E+04  0.7818609E-02  0.8339715E-01
        2   -1    0    0  501    0  0.00000000000E+00  0.00000000000E+00  0.17233443694E+04  0.17233443694E+04  0.25500000920E-02 0.  1.
       -2   -1    0    0    0  501  0.00000000000E+00  0.00000000000E+00 -0.10462319540E+04  0.10462319540E+04  0.25500000920E-02 0. -1.
    10030    2    1    2    0    0  0.00000000000E+00  0.00000000000E+00  0.67711241544E+03  0.27695763233E+04  0.26855300757E+04 0.  0.
        5    1    3    3  502    0 -0.29930812817E+02  0.61956140794E+02  0.17215165716E+04  0.17228975052E+04  0.46999998093E+01 0.  1.
       -5    1    3    3    0  502  0.29930812817E+02 -0.61956140794E+02 -0.10444041562E+04  0.10466788182E+04  0.46999998093E+01 0. -1.
</event>
<event>
 5   0  0.1993815E-05  0.2575040E+04  0.7818609E-02  0.8376729E-01
        1   -1    0    0  501    0  0.00000000000E+00  0.00000000000E+00  0.15136161346E+04  0.15136161346E+04  0.50400001928E-02 0. -1.
       -1   -1    0    0    0  501  0.00000000000E+00  0.00000000000E+00 -0.10951969464E+04  0.10951969464E+04  0.50400001928E-02 0.  1.
    10030    2    1    2    0    0  0.00000000000E+00  0.00000000000E+00  0.41841918822E+03  0.26088130809E+04  0.25750400141E+04 0.  0.
        5    1    3    3  502    0 -0.34665418061E+03  0.10473932490E+04  0.88160389004E+03  0.14122497116E+04  0.46999998093E+01 0. -1.
       -5    1    3    3    0  502  0.34665418061E+03 -0.10473932490E+04 -0.46318470182E+03  0.11965633694E+04  0.46999998093E+01 0.  1.
</event>
<event>
 5   0  0.2072710E-05  0.2606998E+04  0.7818609E-02  0.8365828E-01
       -1   -1    0    0    0  501  0.00000000000E+00  0.00000000000E+00  0.72581228078E+03  0.72581228079E+03  0.50400001928E-02 0. -1.
        1   -1    0    0  501    0  0.00000000000E+00  0.00000000000E+00 -0.23409774208E+04  0.23409774208E+04  0.50400001928E-02 0.  1.
    10030    2    1    2    0    0  0.00000000000E+00  0.00000000000E+00 -0.16151651400E+04  0.30667897016E+04  0.26069983975E+04 0.  0.
        2    1    3    3  502    0  0.61131066574E+03  0.61334371939E+03 -0.19536928909E+04  0.21370089284E+04  0.25500000920E-02 0.  1.
       -2    1    3    3    0  502 -0.61131066574E+03 -0.61334371939E+03  0.33852775083E+03  0.92978077322E+03  0.25500000920E-02 0. -1.
</event>
<event>
 5   0  0.1993815E-05  0.2611121E+04  0.7818609E-02  0.8364434E-01
        1   -1    0    0  501    0  0.00000000000E+00  0.00000000000E+00  0.87694884965E+03  0.87694884966E+03  0.50400001928E-02 0. -1.
       -1   -1    0    0    0  501  0.00000000000E+00  0.00000000000E+00 -0.19436569145E+04  0.19436569145E+04  0.50400001928E-02 0.  1.
    10030    2    1    2    0    0  0.00000000000E+00  0.00000000000E+00 -0.10667080648E+04  0.28206057641E+04  0.26111205987E+04 0.  0.
        5    1    3    3  502    0 -0.71820298900E+03 -0.10497676321E+04 -0.21539611529E+03  0.12900562745E+04  0.46999998093E+01 0. -1.
       -5    1    3    3    0  502  0.71820298900E+03  0.10497676321E+04 -0.85131194952E+03  0.15305494896E+04  0.46999998093E+01 0.  1.
</event>
<event>
 5   0  0.5036452E-05  0.1288108E+04  0.7818609E-02  0.9039049E-01
       -2   -1    0    0    0  501  0.00000000000E+00  0.00000000000E+00  0.28450909228E+03  0.28450909229E+03  0.25500000920E-02 0.  1.
        2   -1    0    0  501    0  0.00000000000E+00  0.00000000000E+00 -0.14579695287E+04  0.14579695287E+04  0.25500000920E-02 0. -1.
    10030    2    1    2    0    0  0.00000000000E+00  0.00000000000E+00 -0.11734604364E+04  0.17424786209E+04  0.12881080501E+04 0.  0.
        2    1    3    3  502    0 -0.48157253540E+03  0.15512509518E+03 -0.11258447041E+04  0.12343023130E+04  0.25500000920E-02 0. -1.
       -2    1    3    3    0  502  0.48157253540E+03 -0.15512509518E+03 -0.47615732223E+02  0.50817630795E+03  0.25500000920E-02 0.  1.
</event>
<event>
 5   0  0.5170532E-05  0.2606566E+04  0.7818609E-02  0.8365974E-01
        2   -1    0    0  501    0  0.00000000000E+00  0.00000000000E+00  0.13254741132E+04  0.13254741132E+04  0.25500000920E-02 0.  1.
       -2   -1    0    0    0  501  0.00000000000E+00  0.00000000000E+00 -0.12814632781E+04  0.12814632781E+04  0.25500000920E-02 0. -1.
    10030    2    1    2    0    0  0.00000000000E+00  0.00000000000E+00  0.44010835116E+02  0.26069373913E+04  0.26065658650E+04 0.  0.
        1    1    3    3  502    0 -0.38885501734E+03  0.15667077945E+03  0.12561960743E+04  0.13243045476E+04  0.50400001928E-02 0.  1.
       -1    1    3    3    0  502  0.38885501734E+03 -0.15667077945E+03 -0.12121852392E+04  0.12826328437E+04  0.50400001928E-02 0. -1.
</event>
<event>
 5   0  0.5170532E-05  0.2622972E+04  0.7818609E-02  0.8360440E-01
       -2   -1    0    0    0  501  0.00000000000E+00  0.00000000000E+00  0.79973911830E+03  0.79973911831E+03  0.25500000920E-02 0. -1.
        2   -1    0    0  501    0  0.00000000000E+00  0.00000000000E+00 -0.21506952836E+04  0.21506952836E+04  0.25500000920E-02 0.  1.
    10030    2    1    2    0    0  0.00000000000E+00  0.00000000000E+00 -0.13509561653E+04  0.29504344019E+04  0.26229717115E+04 0.  0.
        1    1    3    3  502    0 -0.52201043696E+03 -0.44534785408E+03 -0.19326722412E+04  0.20508660608E+04  0.50400001928E-02 0.  1.
       -1    1    3    3    0  502  0.52201043696E+03  0.44534785408E+03  0.58171607587E+03  0.89956834114E+03  0.50400001928E-02 0. -1.
</event>
<event>
 5   0  0.5182179E-05  0.2384340E+04  0.7818609E-02  0.8445390E-01
       -2   -1    0    0    0  501  0.00000000000E+00  0.00000000000E+00  0.10887592512E+04  0.10887592512E+04  0.25500000920E-02 0. -1.
        2   -1    0    0  501    0  0.00000000000E+00  0.00000000000E+00 -0.13054026828E+04  0.13054026828E+04  0.25500000920E-02 0.  1.
    10030    2    1    2    0    0  0.00000000000E+00  0.00000000000E+00 -0.21664343164E+03  0.23941619341E+04  0.23843399485E+04 0.  0.
        3    1    3    3  502    0  0.64796710884E+03  0.33456240313E+03 -0.10553270595E+04  0.12827737869E+04  0.10100000352E+00 0.  1.
       -3    1    3    3    0  502 -0.64796710884E+03 -0.33456240313E+03  0.83868362786E+03  0.11113881471E+04  0.10100000352E+00 0. -1.
</event>
<event>
 5   0  0.1954502E-05  0.2609149E+04  0.7818609E-02  0.8365100E-01
       -1   -1    0    0    0  501  0.00000000000E+00  0.00000000000E+00  0.10328507310E+04  0.10328507310E+04  0.50400001928E-02 0. -1.
        1   -1    0    0  501    0  0.00000000000E+00  0.00000000000E+00 -0.16477832557E+04  0.16477832557E+04  0.50400001928E-02 0.  1.
    10030    2    1    2    0    0  0.00000000000E+00  0.00000000000E+00 -0.61493252474E+03  0.26806339867E+04  0.26091486276E+04 0.  0.
        4    1    3    3  502    0 -0.88099775552E+03  0.80085141351E+03  0.24042927951E+03  0.12146307600E+04  0.12699999809E+01 0. -1.
       -4    1    3    3    0  502  0.88099775552E+03 -0.80085141351E+03 -0.85536180425E+03  0.14660032267E+04  0.12699999809E+01 0.  1.
</event>
<event>
 5   0  0.5182179E-05  0.1506079E+04  0.7818609E-02  0.8880420E-01
       -2   -1    0    0    0  501  0.00000000000E+00  0.00000000000E+00  0.49669837838E+03  0.49669837839E+03  0.25500000920E-02 0.  1.
        2   -1    0    0  501    0  0.00000000000E+00  0.00000000000E+00 -0.11416762100E+04  0.11416762100E+04  0.25500000920E-02 0. -1.
    10030    2    1    2    0    0  0.00000000000E+00  0.00000000000E+00 -0.64497783166E+03  0.16383745884E+04  0.15060793102E+04 0.  0.
        3    1    3    3  502    0 -0.12005882400E+03 -0.74232690162E+03 -0.27890243192E+03  0.80202863216E+03  0.10100000352E+00 0. -1.
       -3    1    3    3    0  502  0.12005882400E+03  0.74232690162E+03 -0.36607539974E+03  0.83634595628E+03  0.10100000352E+00 0.  1.
</event>
<event>
 5   0  0.2072710E-05  0.2579022E+04  0.7818609E-02  0.8375362E-01
        1   -1    0    0  501    0  0.00000000000E+00  0.00000000000E+00  0.13503760608E+04  0.13503760608E+04  0.50400001928E-02 0. -1.
       -1   -1    0    0    0  501  0.00000000000E+00  0.00000000000E+00 -0.12313896863E+04  0.12313896863E+04  0.50400001928E-02 0.  1.
    10030    2    1    2    0    0  0.00000000000E+00  0.00000000000E+00  0.11898637454E+03  0.25817657471E+04  0.25790224148E+04 0.  0.
        2    1    3    3  502    0 -0.26791648401E+03  0.27401867632E+03  0.12920517072E+04  0.13476880542E+04  0.25500000920E-02 0. -1.
       -2    1    3    3    0  502  0.26791648401E+03 -0.27401867632E+03 -0.11730653327E+04  0.12340776929E+04  0.25500000920E-02 0.  1.
</event>
<event>
 5   0  0.2072710E-05  0.2615533E+04  0.7818609E-02  0.8362944E-01
       -1   -1    0    0    0  501  0.00000000000E+00  0.00000000000E+00  0.68674800162E+03  0.68674800164E+03  0.50400001928E-02 0.  1.
        1   -1    0    0  501    0  0.00000000000E+00  0.00000000000E+00 -0.24903659554E+04  0.24903659554E+04  0.50400001928E-02 0. -1.
    10030    2    1    2    0    0  0.00000000000E+00  0.00000000000E+00 -0.18036179537E+04  0.31771139570E+04  0.26155334776E+04 0.  0.
        2    1    3    3  502    0  0.59282834705E+02  0.11329547744E+04 -0.11163785516E+03  0.11399842043E+04  0.25500000920E-02 0.  1.
       -2    1    3    3    0  502 -0.59282834705E+02 -0.11329547744E+04 -0.16919800986E+04  0.20371297527E+04  0.25500000920E-02 0. -1.
</event>
<event>
 5   0  0.5182179E-05  0.2593112E+04  0.7818609E-02  0.8370545E-01
        2   -1    0    0  501    0  0.00000000000E+00  0.00000000000E+00  0.13573803805E+04  0.13573803805E+04  0.25500000920E-02 0.  1.
       -2   -1    0    0    0  501  0.00000000000E+00  0.00000000000E+00 -0.12384571183E+04  0.12384571183E+04  0.25500000920E-02 0. -1.
    10030    2    1    2    0    0  0.00000000000E+00  0.00000000000E+00  0.11892326217E+03  0.25958374987E+04  0.25931119485E+04 0.  0.
        3    1    3    3  502    0  0.21974414035E+03  0.70990057766E+03 -0.10041102940E+04  0.12491932637E+04  0.10100000352E+00 0. -1.
       -3    1    3    3    0  502 -0.21974414035E+03 -0.70990057766E+03  0.11230335561E+04  0.13466442351E+04  0.10100000352E+00 0.  1.
</event>
<event>
 5   0  0.2072710E-05  0.2557622E+04  0.7818609E-02  0.8382740E-01
        1   -1    0    0  501    0  0.00000000000E+00  0.00000000000E+00  0.14759875343E+04  0.14759875343E+04  0.50400001928E-02 0.  1.
       -1   -1    0    0    0  501  0.00000000000E+00  0.00000000000E+00 -0.11079756139E+04  0.11079756139E+04  0.50400001928E-02 0. -1.
    10030    2    1    2    0    0  0.00000000000E+00  0.00000000000E+00  0.36801192038E+03  0.25839631482E+04  0.25576224854E+04 0.  0.
        2    1    3    3  502    0 -0.72620301960E+03  0.25281931016E+03  0.12163266554E+04  0.14390062411E+04  0.25500000920E-02 0.  1.
       -2    1    3    3    0  502  0.72620301960E+03 -0.25281931016E+03 -0.84831473506E+03  0.11449569070E+04  0.25500000920E-02 0. -1.
</event>
<event>
 5   0  0.2072710E-05  0.2611825E+04  0.7818609E-02  0.8364196E-01
       -1   -1    0    0    0  501  0.00000000000E+00  0.00000000000E+00  0.18526892661E+04  0.18526892661E+04  0.50400001928E-02 0.  1.
        1   -1    0    0  501    0  0.00000000000E+00  0.00000000000E+00 -0.92050373618E+03  0.92050373619E+03  0.50400001928E-02 0. -1.
    10030    2    1    2    0    0  0.00000000000E+00  0.00000000000E+00  0.93218552991E+03  0.27731930023E+04  0.26118249493E+04 0.  0.
        2    1    3    3  502    0 -0.79540375932E+03 -0.42607564650E+03 -0.53626686790E+03  0.10496617315E+04  0.25500000920E-02 0. -1.
       -2    1    3    3    0  502  0.79540375932E+03  0.42607564650E+03  0.14684523978E+04  0.17235312708E+04  0.25500000920E-02 0.  1.
</event>
<event>
 5   0  0.1698625E-05  0.2561188E+04  0.7818609E-02  0.8381505E-01
       -3   -1    0    0    0  501  0.00000000000E+00  0.00000000000E+00  0.69159158434E+03  0.69159159172E+03  0.10100000352E+00 0. -1.
        3   -1    0    0  501    0  0.00000000000E+00  0.00000000000E+00 -0.23712278388E+04  0.23712278410E+04  0.10100000352E+00 0.  1.
    10030    2    1    2    0    0  0.00000000000E+00  0.00000000000E+00 -0.16796362545E+04  0.30628194327E+04  0.25611881871E+04 0.  0.
        2    1    3    3  502    0 -0.44487656576E+03  0.11961407579E+04 -0.71295920127E+03  0.14618408580E+04  0.25500000920E-02 0. -1.
       -2    1    3    3    0  502  0.44487656576E+03 -0.11961407579E+04 -0.96667705324E+03  0.16009785747E+04  0.25500000920E-02 0.  1.
</event>
<event>
 5   0  0.5036452E-05  0.2512277E+04  0.7818609E-02  0.8398625E-01
       -2   -1    0    0    0  501  0.00000000000E+00  0.00000000000E+00  0.73217034032E+03  0.73217034032E+03  0.25500000920E-02 0. -1.
        2   -1    0    0  501    0  0.00000000000E+00  0.00000000000E+00 -0.21550777723E+04  0.21550777723E+04  0.25500000920E-02 0.  1.
    10030    2    1    2    0    0  0.00000000000E+00  0.00000000000E+00 -0.14229074320E+04  0.28872481126E+04  0.25122770755E+04 0.  0.
        2    1    3    3  502    0  0.94102421729E+03  0.54264090832E+03  0.13487194172E+02  0.10863552077E+04  0.25500000920E-02 0. -1.
       -2    1    3    3    0  502 -0.94102421729E+03 -0.54264090832E+03 -0.14363946262E+04  0.18008929049E+04  0.25500000920E-02 0.  1.
</event>
<event>
 5   0  0.5036452E-05  0.1764351E+04  0.7818609E-02  0.8725490E-01
        2   -1    0    0  501    0  0.00000000000E+00  0.00000000000E+00  0.17144004138E+04  0.17144004138E+04  0.25500000920E-02 0. -1.
       -2   -1    0    0    0  501  0.00000000000E+00  0.00000000000E+00 -0.45393923979E+03  0.45393923980E+03  0.25500000920E-02 0.  1.
    10030    2    1    2    0    0  0.00000000000E+00  0.00000000000E+00  0.12604611740E+04  0.21683396536E+04  0.17643510088E+04 0.  0.
        2    1    3    3  502    0  0.36093481458E+03  0.82489945202E+02  0.16142957756E+04  0.16562093414E+04  0.25500000920E-02 0. -1.
       -2    1    3    3    0  502 -0.36093481458E+03 -0.82489945202E+02 -0.35383460155E+03  0.51213031223E+03  0.25500000920E-02 0.  1.
</event>
<event>
 5   0  0.2159405E-05  0.2617875E+04  0.7818609E-02  0.8362155E-01
        1   -1    0    0  501    0  0.00000000000E+00  0.00000000000E+00  0.86741333513E+03  0.86741333515E+03  0.50400001928E-02 0.  1.
       -1   -1    0    0    0  501  0.00000000000E+00  0.00000000000E+00 -0.19752029256E+04  0.19752029256E+04  0.50400001928E-02 0. -1.
    10030    2    1    2    0    0  0.00000000000E+00  0.00000000000E+00 -0.11077895904E+04  0.28426162607E+04  0.26178749835E+04 0.  0.
        3    1    3    3  502    0 -0.14469269419E+03 -0.36209634824E+03 -0.19106703412E+04  0.19500540773E+04  0.10100000352E+00 0. -1.
       -3    1    3    3    0  502  0.14469269419E+03  0.36209634824E+03  0.80288075079E+03  0.89256218347E+03  0.10100000352E+00 0.  1.
</event>
<event>
 5   0  0.5049803E-05  0.2659458E+04  0.7818609E-02  0.8348280E-01
       -2   -1    0    0    0  501  0.00000000000E+00  0.00000000000E+00  0.10170851075E+04  0.10170851075E+04  0.25500000920E-02 0. -1.
        2   -1    0    0  501    0  0.00000000000E+00  0.00000000000E+00 -0.17384775888E+04  0.17384775888E+04  0.25500000920E-02 0.  1.
    10030    2    1    2    0    0  0.00000000000E+00  0.00000000000E+00 -0.72139248129E+03  0.27555626963E+04  0.26594583398E+04 0.  0.
        4    1    3    3  502    0  0.79496330881E+03  0.40740846761E+02 -0.14643407995E+04  0.16667099535E+04  0.12699999809E+01 0.  1.
       -4    1    3    3    0  502 -0.79496330881E+03 -0.40740846761E+02  0.74294831825E+03  0.10888527428E+04  0.12699999809E+01 0. -1.
</event>
<event>
 5   0  0.2163800E-05  0.1477752E+04  0.7818609E-02  0.8899384E-01
       -1   -1    0    0    0  501  0.00000000000E+00  0.00000000000E+00  0.92084404622E+03  0.92084404624E+03  0.50400001928E-02 0.  1.
        1   -1    0    0  501    0  0.00000000000E+00  0.00000000000E+00 -0.59286647616E+03  0.59286647618E+03  0.50400001928E-02 0. -1.
    10030    2    1    2    0    0  0.00000000000E+00  0.00000000000E+00  0.32797757006E+03  0.15137105224E+04  0.14777517583E+04 0.  0.
        1    1    3    3  502    0 -0.97326562175E+02 -0.32012020021E+03  0.83879688513E+03  0.90306678425E+03  0.50400001928E-02 0.  1.
       -1    1    3    3    0  502  0.97326562175E+02  0.32012020021E+03 -0.51081931507E+03  0.61064373817E+03  0.50400001928E-02 0. -1.
</event>
<event>
 5   0  0.5036452E-05  0.2724119E+04  0.7818609E-02  0.8327221E-01
        2   -1    0    0  501    0  0.00000000000E+00  0.00000000000E+00  0.16382669836E+04  0.16382669836E+04  0.25500000920E-02 0.  1.
       -2   -1    0    0    0  501  0.00000000000E+00  0.00000000000E+00 -0.11324200264E+04  0.11324200264E+04  0.25500000920E-02 0. -1.
    10030    2    1    2    0    0  0.00000000000E+00  0.00000000000E+00  0.50584695727E+03  0.27706870100E+04  0.27241191903E+04 0.  0.
        2    1    3    3  502    0 -0.78002724888E+03  0.10800933836E+04  0.54089261587E+03  0.14379183037E+04  0.25500000920E-02 0. -1.
       -2    1    3    3    0  502  0.78002724888E+03 -0.10800933836E+04 -0.35045658601E+02  0.13327687063E+04  0.25500000920E-02 0.  1.
</event>
<event>
 5   0  0.1993815E-05  0.1696863E+04  0.7818609E-02  0.8763155E-01
        1   -1    0    0  501    0  0.00000000000E+00  0.00000000000E+00  0.13482537108E+04  0.13482537108E+04  0.50400001928E-02 0.  1.
       -1   -1    0    0    0  501  0.00000000000E+00  0.00000000000E+00 -0.53390256981E+03  0.53390256984E+03  0.50400001928E-02 0. -1.
    10030    2    1    2    0    0  0.00000000000E+00  0.00000000000E+00  0.81435114101E+03  0.18821562807E+04  0.16968631306E+04 0.  0.
        5    1    3    3  502    0  0.70745520466E+03 -0.22766013771E+02 -0.11166673200E+03  0.71659103191E+03  0.46999998093E+01 0. -1.
       -5    1    3    3    0  502 -0.70745520466E+03  0.22766013771E+02  0.92601787301E+03  0.11655652488E+04  0.46999998093E+01 0.  1.
</event>
<event>
 5   0  0.5170532E-05  0.2402272E+04  0.7818609E-02  0.8438653E-01
        2   -1    0    0  501    0  0.00000000000E+00  0.00000000000E+00  0.20731610419E+04  0.20731610419E+04  0.25500000920E-02 0. -1.
       -2   -1    0    0    0  501  0.00000000000E+00  0.00000000000E+00 -0.69590743251E+03  0.69590743252E+03  0.25500000920E-02 0.  1.
    10030    2    1    2    0    0  0.00000000000E+00  0.00000000000E+00  0.13772536094E+04  0.27690684744E+04  0.24022724058E+04 0.  0.
        1    1    3    3  502    0  0.77880496813E+03  0.75156869844E+03  0.88193540346E+02  0.10858963060E+04  0.50400001928E-02 0. -1.
       -1    1    3    3    0  502 -0.77880496813E+03 -0.75156869844E+03  0.12890600690E+04  0.16831721684E+04  0.50400001928E-02 0.  1.
</event>
<event>
 5   0  0.2072710E-05  0.2110169E+04  0.7818609E-02  0.8556777E-01
       -1   -1    0    0    0  501  0.00000000000E+00  0.00000000000E+00  0.10638866595E+04  0.10638866595E+04  0.50400001928E-02 0. -1.
        1   -1    0    0  501    0  0.00000000000E+00  0.00000000000E+00 -0.10463547386E+04  0.10463547386E+04  0.50400001928E-02 0.  1.
    10030    2    1    2    0    0  0.00000000000E+00  0.00000000000E+00  0.17531920914E+02  0.21102413981E+04  0.21101685691E+04 0.  0.
        2    1    3    3  502    0  0.55250488237E+03  0.17205400413E+03 -0.87349950368E+03  0.10477908228E+04  0.25500000920E-02 0.  1.
       -2    1    3    3    0  502 -0.55250488237E+03 -0.17205400413E+03  0.89103142459E+03  0.10624505753E+04  0.25500000920E-02 0. -1.
</event>
<event>
 5   0  0.2159405E-05  0.2116655E+04  0.7818609E-02  0.8553942E-01
       -1   -1    0    0    0  501  0.00000000000E+00  0.00000000000E+00  0.89880121931E+03  0.89880121933E+03  0.50400001928E-02 0.  1.
        1   -1    0    0  501    0  0.00000000000E+00  0.00000000000E+00 -0.12461682969E+04  0.12461682969E+04  0.50400001928E-02 0. -1.
    10030    2    1    2    0    0  0.00000000000E+00  0.00000000000E+00 -0.34736707755E+03  0.21449695162E+04  0.21166554606E+04 0.  0.
        3    1    3    3  502    0 -0.91098423358E+03 -0.18126512201E+03 -0.68772460289E+03  0.11557311357E+04  0.10100000352E+00 0. -1.
       -3    1    3    3    0  502  0.91098423358E+03  0.18126512201E+03  0.34035752534E+03  0.98923838055E+03  0.10100000352E+00 0.  1.
</event>
<event>
 5   0  0.1954502E-05  0.1647934E+04  0.7818609E-02  0.8791630E-01
       -1   -1    0    0    0  501  0.00000000000E+00  0.00000000000E+00  0.70895504491E+03  0.70895504493E+03  0.50400001928E-02 0.  1.
        1   -1    0    0  501    0  0.00000000000E+00  0.00000000000E+00 -0.95763702627E+03  0.95763702628E+03  0.50400001928E-02 0. -1.
    10030    2    1    2    0    0  0.00000000000E+00  0.00000000000E+00 -0.24868198136E+03  0.16665920712E+04  0.16479339805E+04 0.  0.
        4    1    3    3  502    0 -0.77544643074E+03 -0.19420324165E+03 -0.32632184679E+03  0.86343478423E+03  0.12699999809E+01 0. -1.
       -4    1    3    3    0  502  0.77544643074E+03  0.19420324165E+03  0.77639865430E+02  0.80315728698E+03  0.12699999809E+01 0.  1.
</event>
<event>
 5   0  0.1954502E-05  0.2458990E+04  0.7818609E-02  0.8417743E-01
        1   -1    0    0  501    0  0.00000000000E+00  0.00000000000E+00  0.14305385226E+04  0.14305385226E+04  0.50400001928E-02 0. -1.
       -1   -1    0    0    0  501  0.00000000000E+00  0.00000000000E+00 -0.10567053057E+04  0.10567053057E+04  0.50400001928E-02 0.  1.
    10030    2    1    2    0    0  0.00000000000E+00  0.00000000000E+00  0.37383321692E+03  0.24872438283E+04  0.24589897493E+04 0.  0.
        4    1    3    3  502    0  0.65623573364E+03  0.74430310444E+02  0.12358815181E+04  0.14012815381E+04  0.12699999809E+01 0. -1.
       -4    1    3    3    0  502 -0.65623573364E+03 -0.74430310444E+02 -0.86204830121E+03  0.10859622902E+04  0.12699999809E+01 0.  1.
</event>
<event>
 5   0  0.5036452E-05  0.2615983E+04  0.7818609E-02  0.8362792E-01
        2   -1    0    0  501    0  0.00000000000E+00  0.00000000000E+00  0.16892273766E+04  0.16892273766E+04  0.25500000920E-02 0.  1.
       -2   -1    0    0    0  501  0.00000000000E+00  0.00000000000E+00 -0.10127957495E+04  0.10127957495E+04  0.25500000920E-02 0. -1.
    10030    2    1    2    0    0  0.00000000000E+00  0.00000000000E+00  0.67643162712E+03  0.27020231262E+04  0.26159834151E+04 0.  0.
        2    1    3    3  502    0  0.15236972863E+03  0.10347704085E+04 -0.47303099916E+03  0.11479218870E+04  0.25500000920E-02 0. -1.
       -2    1    3    3    0  502 -0.15236972863E+03 -0.10347704085E+04  0.11494626263E+04  0.15541012392E+04  0.25500000920E-02 0.  1.
</event>
<event>
 5   0  0.5036452E-05  0.2122039E+04  0.7818609E-02  0.8551597E-01
        2   -1    0    0  501    0  0.00000000000E+00  0.00000000000E+00  0.10226026245E+04  0.10226026245E+04  0.25500000920E-02 0.  1.
       -2   -1    0    0    0  501  0.00000000000E+00  0.00000000000E+00 -0.11008796836E+04  0.11008796836E+04  0.25500000920E-02 0. -1.
    10030    2    1    2    0    0  0.00000000000E+00  0.00000000000E+00 -0.78277059112E+02  0.21234823080E+04  0.21220390700E+04 0.  0.
        2    1    3    3  502    0  0.25221170967E+03  0.94001228527E+03  0.38367530005E+03  0.10461551409E+04  0.25500000920E-02 0.  1.
       -2    1    3    3    0  502 -0.25221170967E+03 -0.94001228527E+03 -0.46195235916E+03  0.10773271672E+04  0.25500000920E-02 0. -1.
</event>
<event>
 5   0  0.5049803E-05  0.2570472E+04  0.7818609E-02  0.8378301E-01
       -2   -1    0    0    0  501  0.00000000000E+00  0.00000000000E+00  0.13510799674E+04  0.13510799674E+04  0.25500000920E-02 0.  1.
        2   -1    0    0  501    0  0.00000000000E+00  0.00000000000E+00 -0.12226004216E+04  0.12226004216E+04  0.25500000920E-02 0. -1.
    10030    2    1    2    0    0  0.00000000000E+00  0.00000000000E+00  0.12847954579E+03  0.25736803889E+04  0.25704715036E+04 0.  0.
        4    1    3    3  502    0 -0.60749078239E+03 -0.11276304173E+04  0.17036225708E+03  0.12921378875E+04  0.12699999809E+01 0. -1.
       -4    1    3    3    0  502  0.60749078239E+03  0.11276304173E+04 -0.41882711295E+02  0.12815425015E+04  0.12699999809E+01 0.  1.
</event>
<event>
 5   0  0.4955675E-05  0.2553673E+04  0.7818609E-02  0.8384110E-01
       -2   -1    0    0    0  501  0.00000000000E+00  0.00000000000E+00  0.11518695003E+04  0.11518695003E+04  0.25500000920E-02 0.  1.
        2   -1    0    0  501    0  0.00000000000E+00  0.00000000000E+00 -0.14153615068E+04  0.14153615068E+04  0.25500000920E-02 0. -1.
    10030    2    1    2    0    0  0.00000000000E+00  0.00000000000E+00 -0.26349200646E+03  0.25672310071E+04  0.25536732380E+04 0.  0.
        5    1    3    3  502    0 -0.69642981987E+03  0.72829927453E+03  0.65654414142E+03  0.12027080389E+04  0.46999998093E+01 0.  1.
       -5    1    3    3    0  502  0.69642981987E+03 -0.72829927453E+03 -0.92003614788E+03  0.13645229682E+04  0.46999998093E+01 0. -1.
</event>
<event>
 5   0  0.5036452E-05  0.1818577E+04  0.7818609E-02  0.8696482E-01
        2   -1    0    0  501    0  0.00000000000E+00  0.00000000000E+00  0.12674161368E+04  0.12674161368E+04  0.25500000920E-02 0.  1.
       -2   -1    0    0    0  501  0.00000000000E+00  0.00000000000E+00 -0.65235539103E+03  0.65235539103E+03  0.25500000920E-02 0. -1.
    10030    2    1    2    0    0  0.00000000000E+00  0.00000000000E+00  0.61506074576E+03  0.19197715278E+04  0.18185771906E+04 0.  0.
        2    1    3    3  502    0 -0.11245757613E+03  0.59341367484E+03 -0.41001248130E+03  0.72999776078E+03  0.25500000920E-02 0. -1.
       -2    1    3    3    0  502  0.11245757613E+03 -0.59341367484E+03  0.10250732271E+04  0.11897737670E+04  0.25500000920E-02 0.  1.
</event>
<event>
 5   0  0.5170532E-05  0.2594159E+04  0.7818609E-02  0.8370188E-01
        2   -1    0    0  501    0  0.00000000000E+00  0.00000000000E+00  0.12657777500E+04  0.12657777500E+04  0.25500000920E-02 0. -1.
       -2   -1    0    0    0  501  0.00000000000E+00  0.00000000000E+00 -0.13291550014E+04  0.13291550014E+04  0.25500000920E-02 0.  1.
    10030    2    1    2    0    0  0.00000000000E+00  0.00000000000E+00 -0.63377251413E+02  0.25949327514E+04  0.25941586899E+04 0.  0.
        1    1    3    3  502    0 -0.68726967446E+03 -0.50786052543E+03  0.94438576285E+03  0.12736272562E+04  0.50400001928E-02 0. -1.
       -1    1    3    3    0  502  0.68726967446E+03  0.50786052543E+03 -0.10077630143E+04  0.13213054952E+04  0.50400001928E-02 0.  1.
</event>
<event>
 5   0  0.5049803E-05  0.1345113E+04  0.7818609E-02  0.8994536E-01
       -2   -1    0    0    0  501  0.00000000000E+00  0.00000000000E+00  0.10784445512E+04  0.10784445512E+04  0.25500000920E-02 0.  1.
        2   -1    0    0  501    0  0.00000000000E+00  0.00000000000E+00 -0.41943038083E+03  0.41943038084E+03  0.25500000920E-02 0. -1.
    10030    2    1    2    0    0  0.00000000000E+00  0.00000000000E+00  0.65901417037E+03  0.14978749320E+04  0.13451132425E+04 0.  0.
        4    1    3    3  502    0  0.64472257590E+03  0.18686473432E+03  0.37602660412E+03  0.76940447666E+03  0.12699999809E+01 0.  1.
       -4    1    3    3    0  502 -0.64472257590E+03 -0.18686473432E+03  0.28298756625E+03  0.72847045538E+03  0.12699999809E+01 0. -1.
</event>
<event>
 5   0  0.5049803E-05  0.2596226E+04  0.7818609E-02  0.8369484E-01
        2   -1    0    0  501    0  0.00000000000E+00  0.00000000000E+00  0.16512252789E+04  0.16512252789E+04  0.25500000920E-02 0. -1.
       -2   -1    0    0    0  501  0.00000000000E+00  0.00000000000E+00 -0.10205129155E+04  0.10205129155E+04  0.25500000920E-02 0.  1.
    10030    2    1    2    0    0  0.00000000000E+00  0.00000000000E+00  0.63071236337E+03  0.26717381945E+04  0.25962255092E+04 0.  0.
        4    1    3    3  502    0  0.47461249528E+03  0.11090735559E+04  0.80866714791E+03  0.14523241174E+04  0.12699999809E+01 0.  1.
       -4    1    3    3    0  502 -0.47461249528E+03 -0.11090735559E+04 -0.17795478454E+03  0.12194140770E+04  0.12699999809E+01 0. -1.
</event>
<event>
 5   0  0.4955675E-05  0.2650195E+04  0.7818609E-02  0.8351348E-01
       -2   -1    0    0    0  501  0.00000000000E+00  0.00000000000E+00  0.71841713426E+03  0.71841713427E+03  0.25500000920E-02 0. -1.
        2   -1    0    0  501    0  0.00000000000E+00  0.00000000000E+00 -0.24440997890E+04  0.24440997890E+04  0.25500000920E-02 0.  1.
    10030    2    1    2    0    0  0.00000000000E+00  0.00000000000E+00 -0.17256826548E+04  0.31625169233E+04  0.26501948353E+04 0.  0.
        5    1    3    3  502    0  0.12129624219E+04  0.45082539804E+03 -0.12031761105E+04  0.17669680867E+04  0.46999998093E+01 0.  1.
       -5    1    3    3    0  502 -0.12129624219E+04 -0.45082539804E+03 -0.52250654424E+03  0.13955488366E+04  0.46999998093E+01 0. -1.
</event>
<event>
 5   0  0.1954502E-05  0.2594581E+04  0.7818609E-02  0.8370044E-01
       -1   -1    0    0    0  501  0.00000000000E+00  0.00000000000E+00  0.16416547269E+04  0.16416547269E+04  0.50400001928E-02 0.  1.
        1   -1    0    0  501    0  0.00000000000E+00  0.00000000000E+00 -0.10251622686E+04  0.10251622686E+04  0.50400001928E-02 0. -1.
    10030    2    1    2    0    0  0.00000000000E+00  0.00000000000E+00  0.61649245837E+03  0.26668169955E+04  0.25945808787E+04 0.  0.
        4    1    3    3  502    0 -0.78087967218E+03  0.39700906200E+03  0.12917412390E+04  0.15607646521E+04  0.12699999809E+01 0.  1.
       -4    1    3    3    0  502  0.78087967218E+03 -0.39700906200E+03 -0.67524878063E+03  0.11060523434E+04  0.12699999809E+01 0. -1.
</event>
<event>
 5   0  0.4955675E-05  0.2608254E+04  0.7818609E-02  0.8365403E-01
       -2   -1    0    0    0  501  0.00000000000E+00  0.00000000000E+00  0.17287840341E+04  0.17287840341E+04  0.25500000920E-02 0.  1.
        2   -1    0    0  501    0  0.00000000000E+00  0.00000000000E+00 -0.98378241846E+03  0.98378241846E+03  0.25500000920E-02 0. -1.
    10030    2    1    2    0    0  0.00000000000E+00  0.00000000000E+00  0.74500161560E+03  0.27125664525E+04  0.26082540812E+04 0.  0.
        5    1    3    3  502    0  0.53949977395E+03  0.51929794310E+03  0.14829071732E+04  0.16612543857E+04  0.46999998093E+01 0.  1.
       -5    1    3    3    0  502 -0.53949977395E+03 -0.51929794310E+03 -0.73790555761E+03  0.10513120668E+04  0.46999998093E+01 0. -1.
</event>
<event>
 5   0  0.5182179E-05  0.2752083E+04  0.7818609E-02  0.8318301E-01
       -2   -1    0    0    0  501  0.00000000000E+00  0.00000000000E+00  0.95208044127E+03  0.95208044127E+03  0.25500000920E-02 0.  1.
        2   -1    0    0  501    0  0.00000000000E+00  0.00000000000E+00 -0.19887917467E+04  0.19887917467E+04  0.25500000920E-02 0. -1.
    10030    2    1    2    0    0  0.00000000000E+00  0.00000000000E+00 -0.10367113054E+04  0.29408721880E+04  0.27520826469E+04 0.  0.
        3    1    3    3  502    0 -0.86227957420E+03  0.58890493964E+03  0.43931076791E+03  0.11328411420E+04  0.10100000352E+00 0.  1.
       -3    1    3    3    0  502  0.86227957420E+03 -0.58890493964E+03 -0.14760220733E+04  0.18080310460E+04  0.10100000352E+00 0. -1.
</event>
<event>
 5   0  0.2072710E-05  0.2307682E+04  0.7818609E-02  0.8474898E-01
        1   -1    0    0  501    0  0.00000000000E+00  0.00000000000E+00  0.20172386127E+04  0.20172386127E+04  0.50400001928E-02 0.  1.
       -1   -1    0    0    0  501  0.00000000000E+00  0.00000000000E+00 -0.65998612055E+03  0.65998612057E+03  0.50400001928E-02 0. -1.
    10030    2    1    2    0    0  0.00000000000E+00  0.00000000000E+00  0.13572524922E+04  0.26772247333E+04  0.23076823753E+04 0.  0.
        2    1    3    3  502    0  0.84422229664E+03 -0.54263930610E+03  0.13391712760E+04  0.16734839136E+04  0.25500000920E-02 0.  1.
       -2    1    3    3    0  502 -0.84422229664E+03  0.54263930610E+03  0.18081216144E+02  0.10037408197E+04  0.25500000920E-02 0. -1.
</event>
<event>
 5   0  0.2163800E-05  0.2228296E+04  0.7818609E-02  0.8506742E-01
        1   -1    0    0  501    0  0.00000000000E+00  0.00000000000E+00  0.10378020922E+04  0.10378020922E+04  0.50400001928E-02 0.  1.
       -1   -1    0    0    0  501  0.00000000000E+00  0.00000000000E+00 -0.11961101916E+04  0.11961101916E+04  0.50400001928E-02 0. -1.
    10030    2    1    2    0    0  0.00000000000E+00  0.00000000000E+00 -0.15830809936E+03  0.22339122838E+04  0.22282959044E+04 0.  0.
        1    1    3    3  502    0  0.57025726019E+03 -0.28801889957E+03 -0.99424024249E+03  0.11818045055E+04  0.50400001928E-02 0. -1.
       -1    1    3    3    0  502 -0.57025726019E+03  0.28801889957E+03  0.83593214313E+03  0.10521077783E+04  0.50400001928E-02 0.  1.
</event>
<event>
 5   0  0.1993815E-05  0.2129890E+04  0.7818609E-02  0.8548190E-01
        1   -1    0    0  501    0  0.00000000000E+00  0.00000000000E+00  0.17896876892E+04  0.17896876892E+04  0.50400001928E-02 0.  1.
       -1   -1    0    0    0  501  0.00000000000E+00  0.00000000000E+00 -0.63369014443E+03  0.63369014445E+03  0.50400001928E-02 0. -1.
    10030    2    1    2    0    0  0.00000000000E+00  0.00000000000E+00  0.11559975448E+04  0.24233778337E+04  0.21298896218E+04 0.  0.
        5    1    3    3  502    0  0.29832598804E+03  0.89332997787E+03  0.12469410264E+02  0.94192060212E+03  0.46999998093E+01 0. -1.
       -5    1    3    3    0  502 -0.29832598804E+03 -0.89332997787E+03  0.11435281345E+04  0.14814572316E+04  0.46999998093E+01 0.  1.
</event>
<event>
 5   0  0.1993815E-05  0.2498260E+04  0.7818609E-02  0.8403606E-01
       -1   -1    0    0    0  501  0.00000000000E+00  0.00000000000E+00  0.11927119162E+04  0.11927119162E+04  0.50400001928E-02 0. -1.
        1   -1    0    0  501    0  0.00000000000E+00  0.00000000000E+00 -0.13082166738E+04  0.13082166738E+04  0.50400001928E-02 0.  1.
    10030    2    1    2    0    0  0.00000000000E+00  0.00000000000E+00 -0.11550475763E+03  0.25009285900E+04  0.24982598871E+04 0.  0.
        5    1    3    3  502    0 -0.45107207900E+03 -0.63745467446E+03 -0.10337240996E+04  0.12955393034E+04  0.46999998093E+01 0.  1.
       -5    1    3    3    0  502  0.45107207900E+03  0.63745467446E+03  0.91821934197E+03  0.12053892867E+04  0.46999998093E+01 0. -1.
</event>
<event>
 5   0  0.5170532E-05  0.2512628E+04  0.7818609E-02  0.8398501E-01
       -2   -1    0    0    0  501  0.00000000000E+00  0.00000000000E+00  0.95185570593E+03  0.95185570593E+03  0.25500000920E-02 0.  1.
        2   -1    0    0  501    0  0.00000000000E+00  0.00000000000E+00 -0.16581549927E+04  0.16581549927E+04  0.25500000920E-02 0. -1.
    10030    2    1    2    0    0  0.00000000000E+00  0.00000000000E+00 -0.70629928679E+03  0.26100106987E+04  0.25126275420E+04 0.  0.
        1    1    3    3  502    0 -0.47448399753E+03 -0.49162431684E+03  0.74198591653E+03  0.10086489147E+04  0.50400001928E-02 0.  1.
       -1    1    3    3    0  502  0.47448399753E+03  0.49162431684E+03 -0.14482852033E+04  0.16013617839E+04  0.50400001928E-02 0. -1.
</event>
<event>
 5   0  0.5170532E-05  0.2601644E+04  0.7818609E-02  0.8367643E-01
       -2   -1    0    0    0  501  0.00000000000E+00  0.00000000000E+00  0.12215111597E+04  0.12215111597E+04  0.25500000920E-02 0.  1.
        2   -1    0    0  501    0  0.00000000000E+00  0.00000000000E+00 -0.13852819212E+04  0.13852819212E+04  0.25500000920E-02 0. -1.
    10030    2    1    2    0    0  0.00000000000E+00  0.00000000000E+00 -0.16377076148E+03  0.26067930809E+04  0.26016435775E+04 0.  0.
        1    1    3    3  502    0 -0.42356868236E+03  0.67788750195E+03 -0.11101697746E+04  0.13679981076E+04  0.50400001928E-02 0. -1.
       -1    1    3    3    0  502  0.42356868236E+03 -0.67788750195E+03  0.94639901309E+03  0.12387949733E+04  0.50400001928E-02 0.  1.
</event>
<event>
 5   0  0.1954502E-05  0.2583424E+04  0.7818609E-02  0.8373853E-01
        1   -1    0    0  501    0  0.00000000000E+00  0.00000000000E+00  0.14044029754E+04  0.14044029754E+04  0.50400001928E-02 0.  1.
       -1   -1    0    0    0  501  0.00000000000E+00  0.00000000000E+00 -0.11880637281E+04  0.11880637281E+04  0.50400001928E-02 0. -1.
    10030    2    1    2    0    0  0.00000000000E+00  0.00000000000E+00  0.21633924727E+03  0.25924667035E+04  0.25834242662E+04 0.  0.
        4    1    3    3  502    0  0.16053300291E+02  0.80742859921E+03  0.11198252061E+04  0.13806551910E+04  0.12699999809E+01 0.  1.
       -4    1    3    3    0  502 -0.16053300291E+02 -0.80742859921E+03 -0.90348595882E+03  0.12118115126E+04  0.12699999809E+01 0. -1.
</event>
<event>
 5   0  0.5036452E-05  0.2486012E+04  0.7818609E-02  0.8407986E-01
        2   -1    0    0  501    0  0.00000000000E+00  0.00000000000E+00  0.15677685815E+04  0.15677685815E+04  0.25500000920E-02 0. -1.
       -2   -1    0    0    0  501  0.00000000000E+00  0.00000000000E+00 -0.98551777880E+03  0.98551777880E+03  0.25500000920E-02 0.  1.
    10030    2    1    2    0    0  0.00000000000E+00  0.00000000000E+00  0.58225080272E+03  0.25532863603E+04  0.24860119148E+04 0.  0.
        2    1    3    3  502    0 -0.49331360060E+03  0.37975521372E+03 -0.81385664272E+03  0.10246633427E+04  0.25500000920E-02 0.  1.
       -2    1    3    3    0  502  0.49331360060E+03 -0.37975521372E+03  0.13961074454E+04  0.15286230177E+04  0.25500000920E-02 0. -1.
</event>
<event>
 5   0  0.4955675E-05  0.2620195E+04  0.7818609E-02  0.8361374E-01
        2   -1    0    0  501    0  0.00000000000E+00  0.00000000000E+00  0.14699575084E+04  0.14699575084E+04  0.25500000920E-02 0. -1.
       -2   -1    0    0    0  501  0.00000000000E+00  0.00000000000E+00 -0.11676223974E+04  0.11676223975E+04  0.25500000920E-02 0.  1.
    10030    2    1    2    0    0  0.00000000000E+00  0.00000000000E+00  0.30233511098E+03  0.26375799059E+04  0.26201948860E+04 0.  0.
        5    1    3    3  502    0 -0.50939164224E+03 -0.71702921711E+03  0.11285487120E+04  0.14308231997E+04  0.46999998093E+01 0. -1.
       -5    1    3    3    0  502  0.50939164224E+03  0.71702921711E+03 -0.82621360105E+03  0.12067567062E+04  0.46999998093E+01 0.  1.
</event>
<event>
 5   0  0.4955675E-05  0.2766867E+04  0.7818609E-02  0.8313629E-01
        2   -1    0    0  501    0  0.00000000000E+00  0.00000000000E+00  0.25086112929E+04  0.25086112929E+04  0.25500000920E-02 0.  1.
       -2   -1    0    0    0  501  0.00000000000E+00  0.00000000000E+00 -0.76292719486E+03  0.76292719487E+03  0.25500000920E-02 0. -1.
    10030    2    1    2    0    0  0.00000000000E+00  0.00000000000E+00  0.17456840980E+04  0.32715384877E+04  0.27668666586E+04 0.  0.
        5    1    3    3  502    0 -0.94515002527E+03  0.76175593361E+03  0.88273750981E+02  0.12171257198E+04  0.46999998093E+01 0. -1.
       -5    1    3    3    0  502  0.94515002527E+03 -0.76175593361E+03  0.16574103470E+04  0.20544127679E+04  0.46999998093E+01 0.  1.
</event>
<event>
 5   0  0.2163800E-05  0.2091301E+04  0.7818609E-02  0.8565085E-01
       -1   -1    0    0    0  501  0.00000000000E+00  0.00000000000E+00  0.92890065870E+03  0.92890065871E+03  0.50400001928E-02 0.  1.
        1   -1    0    0  501    0  0.00000000000E+00  0.00000000000E+00 -0.11770737550E+04  0.11770737550E+04  0.50400001928E-02 0. -1.
    10030    2    1    2    0    0  0.00000000000E+00  0.00000000000E+00 -0.24817309626E+03  0.21059744137E+04  0.20913006349E+04 0.  0.
        1    1    3    3  502    0  0.19342586302E+03  0.10271472160E+04 -0.15495482561E+03  0.10566247990E+04  0.50400001928E-02 0.  1.
       -1    1    3    3    0  502 -0.19342586302E+03 -0.10271472160E+04 -0.93218270658E+02  0.10493496147E+04  0.50400001928E-02 0. -1.
</event>
<event>
 5   0  0.1954502E-05  0.2556216E+04  0.7818609E-02  0.8383228E-01
       -1   -1    0    0    0  501  0.00000000000E+00  0.00000000000E+00  0.13371062605E+04  0.13371062605E+04  0.50400001928E-02 0.  1.
        1   -1    0    0  501    0  0.00000000000E+00  0.00000000000E+00 -0.12217125074E+04  0.12217125074E+04  0.50400001928E-02 0. -1.
    10030    2    1    2    0    0  0.00000000000E+00  0.00000000000E+00  0.11539375312E+03  0.25588187680E+04  0.25562155170E+04 0.  0.
        4    1    3    3  502    0 -0.54943332667E+03 -0.11497296066E+04 -0.41412441781E+02  0.12749399013E+04  0.12699999809E+01 0.  1.
       -4    1    3    3    0  502  0.54943332667E+03  0.11497296066E+04  0.15680619490E+03  0.12838788667E+04  0.12699999809E+01 0. -1.
</event>
<event>
 5   0  0.5182179E-05  0.2571753E+04  0.7818609E-02  0.8377860E-01
        2   -1    0    0  501    0  0.00000000000E+00  0.00000000000E+00  0.22463508255E+04  0.22463508255E+04  0.25500000920E-02 0.  1.
       -2   -1    0    0    0  501  0.00000000000E+00  0.00000000000E+00 -0.73607300825E+03  0.73607300826E+03  0.25500000920E-02 0. -1.
    10030    2    1    2    0    0  0.00000000000E+00  0.00000000000E+00  0.15102778173E+04  0.29824238338E+04  0.25717528729E+04 0.  0.
        3    1    3    3  502    0 -0.83294653370E+03  0.80518352906E+03  0.10804103607E+03  0.11635262434E+04  0.10100000352E+00 0. -1.
       -3    1    3    3    0  502  0.83294653370E+03 -0.80518352906E+03  0.14022367812E+04  0.18188975904E+04  0.10100000352E+00 0.  1.
</event>
<event>
 5   0  0.5170532E-05  0.2628722E+04  0.7818609E-02  0.8358510E-01
       -2   -1    0    0    0  501  0.00000000000E+00  0.00000000000E+00  0.11206446464E+04  0.11206446464E+04  0.25500000920E-02 0. -1.
        2   -1    0    0  501    0  0.00000000000E+00  0.00000000000E+00 -0.15415631717E+04  0.15415631717E+04  0.25500000920E-02 0.  1.
    10030    2    1    2    0    0  0.00000000000E+00  0.00000000000E+00 -0.42091852525E+03  0.26622078181E+04  0.26287217544E+04 0.  0.
        1    1    3    3  502    0  0.12248680824E+04 -0.91362893535E+02  0.26336333541E+03  0.12561883792E+04  0.50400001928E-02 0. -1.
       -1    1    3    3    0  502 -0.12248680824E+04  0.91362893535E+02 -0.68428186065E+03  0.14060194389E+04  0.50400001928E-02 0.  1.
</event>
<event>
 5   0  0.4955675E-05  0.2544092E+04  0.7818609E-02  0.8387444E-01
        2   -1    0    0  501    0  0.00000000000E+00  0.00000000000E+00  0.24425781107E+04  0.24425781107E+04  0.25500000920E-02 0.  1.
       -2   -1    0    0    0  501  0.00000000000E+00  0.00000000000E+00 -0.66245629081E+03  0.66245629081E+03  0.25500000920E-02 0. -1.
    10030    2    1    2    0    0  0.00000000000E+00  0.00000000000E+00  0.17801218198E+04  0.31050344015E+04  0.25440921644E+04 0.  0.
        5    1    3    3  502    0  0.11994349357E+04  0.40763181739E+03  0.10306624282E+04  0.16331243046E+04  0.46999998093E+01 0.  1.
       -5    1    3    3    0  502 -0.11994349357E+04 -0.40763181739E+03  0.74945939165E+03  0.14719100968E+04  0.46999998093E+01 0. -1.
</event>
<event>
 5   0  0.2072710E-05  0.1650178E+04  0.7818609E-02  0.8790301E-01
        1   -1    0    0  501    0  0.00000000000E+00  0.00000000000E+00  0.12226075117E+04  0.12226075117E+04  0.50400001928E-02 0. -1.
       -1   -1    0    0    0  501  0.00000000000E+00  0.00000000000E+00 -0.55681947316E+03  0.55681947318E+03  0.50400001928E-02 0.  1.
    10030    2    1    2    0    0  0.00000000000E+00  0.00000000000E+00  0.66578803853E+03  0.17794269849E+04  0.16501777729E+04 0.  0.
        2    1    3    3  502    0 -0.43141415970E+03  0.69919271302E+02 -0.42175188379E+03  0.60735618312E+03  0.25500000920E-02 0.  1.
       -2    1    3    3    0  502  0.43141415970E+03 -0.69919271302E+02  0.10875399223E+04  0.11720708018E+04  0.25500000920E-02 0. -1.
</event>
<event>
 5   0  0.5182179E-05  0.2475606E+04  0.7818609E-02  0.8411728E-01
       -2   -1    0    0    0  501  0.00000000000E+00  0.00000000000E+00  0.78615130262E+03  0.78615130263E+03  0.25500000920E-02 0. -1.
        2   -1    0    0  501    0  0.00000000000E+00  0.00000000000E+00 -0.19489325026E+04  0.19489325026E+04  0.25500000920E-02 0.  1.
    10030    2    1    2    0    0  0.00000000000E+00  0.00000000000E+00 -0.11627812000E+04  0.27350838052E+04  0.24756056436E+04 0.  0.
        3    1    3    3  502    0  0.95681581657E+03  0.50086400974E+03 -0.12495926299E+04  0.16516183015E+04  0.10100000352E+00 0.  1.
       -3    1    3    3    0  502 -0.95681581657E+03 -0.50086400974E+03  0.86811429927E+02  0.10834655037E+04  0.10100000352E+00 0. -1.
</event>
<event>
 5   0  0.5049803E-05  0.2389918E+04  0.7818609E-02  0.8443288E-01
        2   -1    0    0  501    0  0.00000000000E+00  0.00000000000E+00  0.11787087491E+04  0.11787087491E+04  0.25500000920E-02 0. -1.
       -2   -1    0    0    0  501  0.00000000000E+00  0.00000000000E+00 -0.12114333238E+04  0.12114333238E+04  0.25500000920E-02 0.  1.
    10030    2    1    2    0    0  0.00000000000E+00  0.00000000000E+00 -0.32724574662E+02  0.23901420730E+04  0.23899180386E+04 0.  0.
        4    1    3    3  502    0  0.99801471552E+03  0.20713393933E+03  0.60738488549E+03  0.11865310166E+04  0.12699999809E+01 0. -1.
       -4    1    3    3    0  502 -0.99801471552E+03 -0.20713393933E+03 -0.64010946015E+03  0.12036110564E+04  0.12699999809E+01 0.  1.
</event>
<event>
 5   0  0.1698625E-05  0.2558658E+04  0.7818609E-02  0.8382381E-01
       -3   -1    0    0    0  501  0.00000000000E+00  0.00000000000E+00  0.10922345003E+04  0.10922345050E+04  0.10100000352E+00 0. -1.
        3   -1    0    0  501    0  0.00000000000E+00  0.00000000000E+00 -0.14984719718E+04  0.14984719752E+04  0.10100000352E+00 0.  1.
    10030    2    1    2    0    0  0.00000000000E+00  0.00000000000E+00 -0.40623747148E+03  0.25907064801E+04  0.25586580825E+04 0.  0.
        3    1    3    3  502    0  0.10301289595E+04 -0.27483015367E+03 -0.91907198020E+03  0.14076187699E+04  0.10100000352E+00 0.  1.
       -3    1    3    3    0  502 -0.10301289595E+04  0.27483015367E+03  0.51283450871E+03  0.11830877102E+04  0.10100000352E+00 0. -1.
</event>
<event>
 5   0  0.5182179E-05  0.2410845E+04  0.7818609E-02  0.8435455E-01
       -2   -1    0    0    0  501  0.00000000000E+00  0.00000000000E+00  0.14603334885E+04  0.14603334885E+04  0.25500000920E-02 0. -1.
        2   -1    0    0  501    0  0.00000000000E+00  0.00000000000E+00 -0.99500765491E+03  0.99500765491E+03  0.25500000920E-02 0.  1.
    10030    2    1    2    0    0  0.00000000000E+00  0.00000000000E+00  0.46532583362E+03  0.24553411434E+04  0.24108446651E+04 0.  0.
        3    1    3    3  502    0  0.60820441014E+03  0.10402154401E+04  0.19915857937E+03  0.12213209719E+04  0.10100000352E+00 0.  1.
       -3    1    3    3    0  502 -0.60820441014E+03 -0.10402154401E+04  0.26616725424E+03  0.12340201716E+04  0.10100000352E+00 0. -1.
</event>
<event>
 5   0  0.5049803E-05  0.2326640E+04  0.7818609E-02  0.8467491E-01
       -2   -1    0    0    0  501  0.00000000000E+00  0.00000000000E+00  0.20902629633E+04  0.20902629633E+04  0.25500000920E-02 0.  1.
        2   -1    0    0  501    0  0.00000000000E+00  0.00000000000E+00 -0.64743697578E+03  0.64743697579E+03  0.25500000920E-02 0. -1.
    10030    2    1    2    0    0  0.00000000000E+00  0.00000000000E+00  0.14428259875E+04  0.27376999390E+04  0.23266400938E+04 0.  0.
        4    1    3    3  502    0  0.63219610943E+03 -0.95731546979E+03  0.94832252099E+03  0.14884361075E+04  0.12699999809E+01 0.  1.
       -4    1    3    3    0  502 -0.63219610943E+03  0.95731546979E+03  0.49450346648E+03  0.12492638315E+04  0.12699999809E+01 0. -1.
</event>
<event>
 5   0  0.5170532E-05  0.2629336E+04  0.7818609E-02  0.8358304E-01
        2   -1    0    0  501    0  0.00000000000E+00  0.00000000000E+00  0.24124983693E+04  0.24124983693E+04  0.25500000920E-02 0. -1.
       -2   -1    0    0    0  501  0.00000000000E+00  0.00000000000E+00 -0.71641572991E+03  0.71641572991E+03  0.25500000920E-02 0.  1.
    10030    2    1    2    0    0  0.00000000000E+00  0.00000000000E+00  0.16960826393E+04  0.31289140992E+04  0.26293358706E+04 0.  0.
        1    1    3    3  502    0 -0.68736358263E+03  0.11003388480E+04  0.11008641846E+04  0.17015041076E+04  0.50400001928E-02 0. -1.
       -1    1    3    3    0  502  0.68736358263E+03 -0.11003388480E+04  0.59521845477E+03  0.14274099916E+04  0.50400001928E-02 0.  1.
</event>
<event>
 5   0  0.1954502E-05  0.2501341E+04  0.7818609E-02  0.8402508E-01
       -1   -1    0    0    0  501  0.00000000000E+00  0.00000000000E+00  0.74210950777E+03  0.74210950779E+03  0.50400001928E-02 0.  1.
        1   -1    0    0  501    0  0.00000000000E+00  0.00000000000E+00 -0.21077430976E+04  0.21077430976E+04  0.50400001928E-02 0. -1.
    10030    2    1    2    0    0  0.00000000000E+00  0.00000000000E+00 -0.13656335898E+04  0.28498526054E+04  0.25013405947E+04 0.  0.
        4    1    3    3  502    0 -0.17095311483E+03 -0.91527668467E+03  0.26851919313E+03  0.96905136445E+03  0.12699999809E+01 0.  1.
       -4    1    3    3    0  502  0.17095311483E+03  0.91527668467E+03 -0.16341527830E+04  0.18808012409E+04  0.12699999809E+01 0. -1.
</event>
<event>
 5   0  0.5182179E-05  0.2514653E+04  0.7818609E-02  0.8397784E-01
       -2   -1    0    0    0  501  0.00000000000E+00  0.00000000000E+00  0.90068225834E+03  0.90068225835E+03  0.25500000920E-02 0.  1.
        2   -1    0    0  501    0  0.00000000000E+00  0.00000000000E+00 -0.17551918005E+04  0.17551918005E+04  0.25500000920E-02 0. -1.
    10030    2    1    2    0    0  0.00000000000E+00  0.00000000000E+00 -0.85450954214E+03  0.26558740588E+04  0.25146531488E+04 0.  0.
        3    1    3    3  502    0  0.41039660983E+03 -0.71659300512E+03 -0.14286246973E+04  0.16501210405E+04  0.10100000352E+00 0. -1.
       -3    1    3    3    0  502 -0.41039660983E+03  0.71659300512E+03  0.57411515515E+03  0.10057530183E+04  0.10100000352E+00 0.  1.
</event>
<event>
 5   0  0.4955675E-05  0.2626114E+04  0.7818609E-02  0.8359385E-01
       -2   -1    0    0    0  501  0.00000000000E+00  0.00000000000E+00  0.12866845179E+04  0.12866845179E+04  0.25500000920E-02 0. -1.
        2   -1    0    0  501    0  0.00000000000E+00  0.00000000000E+00 -0.13399700655E+04  0.13399700655E+04  0.25500000920E-02 0.  1.
    10030    2    1    2    0    0  0.00000000000E+00  0.00000000000E+00 -0.53285547542E+02  0.26266545834E+04  0.26261140399E+04 0.  0.
        5    1    3    3  502    0  0.11238486507E+04  0.67814847932E+03 -0.60935366390E+02  0.13140229673E+04  0.46999998093E+01 0.  1.
       -5    1    3    3    0  502 -0.11238486507E+04 -0.67814847932E+03  0.76498188481E+01  0.13126316161E+04  0.46999998093E+01 0. -1.
</event>
<event>
 5   0  0.2159405E-05  0.2693234E+04  0.7818609E-02  0.8337204E-01
       -1   -1    0    0    0  501  0.00000000000E+00  0.00000000000E+00  0.10289867226E+04  0.10289867226E+04  0.50400001928E-02 0.  1.
        1   -1    0    0  501    0  0.00000000000E+00  0.00000000000E+00 -0.17622936938E+04  0.17622936938E+04  0.50400001928E-02 0. -1.
    10030    2    1    2    0    0  0.00000000000E+00  0.00000000000E+00 -0.73330697125E+03  0.27912804164E+04  0.26932336046E+04 0.  0.
        3    1    3    3  502    0  0.37712420040E+03  0.39241610570E+03  0.90991956258E+03  0.10602672697E+04  0.10100000352E+00 0.  1.
       -3    1    3    3    0  502 -0.37712420040E+03 -0.39241610570E+03 -0.16432265338E+04  0.17310131468E+04  0.10100000352E+00 0. -1.
</event>
<event>
 5   0  0.1954502E-05  0.2573189E+04  0.7818609E-02  0.8377366E-01
       -1   -1    0    0    0  501  0.00000000000E+00  0.00000000000E+00  0.12785541312E+04  0.12785541312E+04  0.50400001928E-02 0.  1.
        1   -1    0    0  501    0  0.00000000000E+00  0.00000000000E+00 -0.12946850496E+04  0.12946850496E+04  0.50400001928E-02 0. -1.
    10030    2    1    2    0    0  0.00000000000E+00  0.00000000000E+00 -0.16130918349E+02  0.25732391808E+04  0.25731886202E+04 0.  0.
        4    1    3    3  502    0 -0.11843089058E+04  0.26724277717E+03  0.41775627003E+03  0.12839502328E+04  0.12699999809E+01 0. -1.
       -4    1    3    3    0  502  0.11843089058E+04 -0.26724277717E+03 -0.43388718838E+03  0.12892889480E+04  0.12699999809E+01 0.  1.
</event>
<event>
 5   0  0.5049803E-05  0.2592263E+04  0.7818609E-02  0.8370834E-01
        2   -1    0    0  501    0  0.00000000000E+00  0.00000000000E+00  0.13914710801E+04  0.13914710801E+04  0.25500000920E-02 0.  1.
       -2   -1    0    0    0  501  0.00000000000E+00  0.00000000000E+00 -0.12073244551E+04  0.12073244551E+04  0.25500000920E-02 0. -1.
    10030    2    1    2    0    0  0.00000000000E+00  0.00000000000E+00  0.18414662499E+03  0.25987955352E+04  0.25922631529E+04 0.  0.
        4    1    3    3  502    0 -0.12812547330E+03 -0.42444424147E+03 -0.11289393608E+04  0.12128787014E+04  0.12699999809E+01 0. -1.
       -4    1    3    3    0  502  0.12812547330E+03  0.42444424147E+03  0.13130859858E+04  0.13859168338E+04  0.12699999809E+01 0.  1.
</event>
<event>
 5   0  0.2159405E-05  0.2395401E+04  0.7818609E-02  0.8441227E-01
       -1   -1    0    0    0  501  0.00000000000E+00  0.00000000000E+00  0.12357624626E+04  0.12357624626E+04  0.50400001928E-02 0.  1.
        1   -1    0    0  501    0  0.00000000000E+00  0.00000000000E+00 -0.11608112420E+04  0.11608112420E+04  0.50400001928E-02 0. -1.
    10030    2    1    2    0    0  0.00000000000E+00  0.00000000000E+00  0.74951220585E+02  0.23965737045E+04  0.23954013935E+04 0.  0.
        3    1    3    3  502    0  0.10534445603E+04 -0.49174346434E+03 -0.25064079680E+03  0.11892762066E+04  0.10100000352E+00 0. -1.
       -3    1    3    3    0  502 -0.10534445603E+04  0.49174346434E+03  0.32559201739E+03  0.12072974979E+04  0.10100000352E+00 0.  1.
</event>
<event>
 5   0  0.4955675E-05  0.2441472E+04  0.7818609E-02  0.8424138E-01
       -2   -1    0    0    0  501  0.00000000000E+00  0.00000000000E+00  0.64022554482E+03  0.64022554482E+03  0.25500000920E-02 0. -1.
        2   -1    0    0  501    0  0.00000000000E+00  0.00000000000E+00 -0.23276115656E+04  0.23276115656E+04  0.25500000920E-02 0.  1.
    10030    2    1    2    0    0  0.00000000000E+00  0.00000000000E+00 -0.16873860208E+04  0.29678371104E+04  0.24414720008E+04 0.  0.
        5    1    3    3  502    0  0.42073137985E+03  0.11452344790E+04 -0.89227702211E+03  0.15115413590E+04  0.46999998093E+01 0.  1.
       -5    1    3    3    0  502 -0.42073137985E+03 -0.11452344790E+04 -0.79510899868E+03  0.14562957514E+04  0.46999998093E+01 0. -1.
</event>
<event>
 5   0  0.5036452E-05  0.2626062E+04  0.7818609E-02  0.8359402E-01
       -2   -1    0    0    0  501  0.00000000000E+00  0.00000000000E+00  0.82653964735E+03  0.82653964735E+03  0.25500000920E-02 0.  1.
        2   -1    0    0  501    0  0.00000000000E+00  0.00000000000E+00 -0.20858660290E+04  0.20858660290E+04  0.25500000920E-02 0. -1.
    10030    2    1    2    0    0  0.00000000000E+00  0.00000000000E+00 -0.12593263816E+04  0.29124056763E+04  0.26260624303E+04 0.  0.
        2    1    3    3  502    0  0.44486356851E+03  0.11498882722E+03  0.73446603752E+03  0.86635234475E+03  0.25500000920E-02 0.  1.
       -2    1    3    3    0  502 -0.44486356851E+03 -0.11498882722E+03 -0.19937924191E+04  0.20460533316E+04  0.25500000920E-02 0. -1.
</event>
<event>
 5   0  0.4955675E-05  0.2336595E+04  0.7818609E-02  0.8463631E-01
        2   -1    0    0  501    0  0.00000000000E+00  0.00000000000E+00  0.79326962246E+03  0.79326962246E+03  0.25500000920E-02 0. -1.
       -2   -1    0    0    0  501  0.00000000000E+00  0.00000000000E+00 -0.17206237512E+04  0.17206237512E+04  0.25500000920E-02 0.  1.
    10030    2    1    2    0    0  0.00000000000E+00  0.00000000000E+00 -0.92735412875E+03  0.25138933737E+04  0.23365945763E+04 0.  0.
        5    1    3    3  502    0 -0.11407941194E+04 -0.17450094888E+02 -0.73410766040E+03  0.13567062599E+04  0.46999998093E+01 0.  1.
       -5    1    3    3    0  502  0.11407941194E+04  0.17450094888E+02 -0.19324646835E+03  0.11571871137E+04  0.46999998093E+01 0. -1.
</event>
<event>
 5   0  0.1993815E-05  0.2429634E+04  0.7818609E-02  0.8428492E-01
        1   -1    0    0  501    0  0.00000000000E+00  0.00000000000E+00  0.93558060221E+03  0.93558060222E+03  0.50400001928E-02 0.  1.
       -1   -1    0    0    0  501  0.00000000000E+00  0.00000000000E+00 -0.15773952648E+04  0.15773952648E+04  0.50400001928E-02 0. -1.
    10030    2    1    2    0    0  0.00000000000E+00  0.00000000000E+00 -0.64181466257E+03  0.25129758670E+04  0.24296340562E+04 0.  0.
        5    1    3    3  502    0  0.90131766515E+03  0.22446255002E+03  0.48889340560E+03  0.10496646235E+04  0.46999998093E+01 0.  1.
       -5    1    3    3    0  502 -0.90131766515E+03 -0.22446255002E+03 -0.11307080682E+04  0.14633112435E+04  0.46999998093E+01 0. -1.
</event>
<event>
 5   0  0.1954502E-05  0.2617344E+04  0.7818609E-02  0.8362334E-01
        1   -1    0    0  501    0  0.00000000000E+00  0.00000000000E+00  0.25193815369E+04  0.25193815369E+04  0.50400001928E-02 0. -1.
       -1   -1    0    0    0  501  0.00000000000E+00  0.00000000000E+00 -0.67977890567E+03  0.67977890569E+03  0.50400001928E-02 0.  1.
    10030    2    1    2    0    0  0.00000000000E+00  0.00000000000E+00  0.18396026313E+04  0.31991604426E+04  0.26173440157E+04 0.  0.
        4    1    3    3  502    0  0.12034670958E+04 -0.22014739722E+03  0.14876386696E+04  0.19261018539E+04  0.12699999809E+01 0.  1.
       -4    1    3    3    0  502 -0.12034670958E+04  0.22014739722E+03  0.35196396161E+03  0.12730585887E+04  0.12699999809E+01 0. -1.
</event>
<event>
 5   0  0.5182179E-05  0.2291013E+04  0.7818609E-02  0.8481473E-01
        2   -1    0    0  501    0  0.00000000000E+00  0.00000000000E+00  0.15173410032E+04  0.15173410032E+04  0.25500000920E-02 0. -1.
       -2   -1    0    0    0  501  0.00000000000E+00  0.00000000000E+00 -0.86479244521E+03  0.86479244522E+03  0.25500000920E-02 0.  1.
    10030    2    1    2    0    0  0.00000000000E+00  0.00000000000E+00  0.65254855796E+03  0.23821334484E+04  0.22910129082E+04 0.  0.
        3    1    3    3  502    0 -0.22152991545E+03  0.70692288620E+03 -0.58218605382E+03  0.94220808845E+03  0.10100000352E+00 0.  1.
       -3    1    3    3    0  502  0.22152991545E+03 -0.70692288620E+03  0.12347346118E+04  0.14399253599E+04  0.10100000352E+00 0. -1.
</event>
<event>
 5   0  0.2072710E-05  0.2897991E+04  0.7818609E-02  0.8273476E-01
       -1   -1    0    0    0  501  0.00000000000E+00  0.00000000000E+00  0.12599797635E+04  0.12599797635E+04  0.50400001928E-02 0. -1.
        1   -1    0    0  501    0  0.00000000000E+00  0.00000000000E+00 -0.16663662021E+04  0.16663662021E+04  0.50400001928E-02 0.  1.
    10030    2    1    2    0    0  0.00000000000E+00  0.00000000000E+00 -0.40638643854E+03  0.29263459656E+04  0.28979908166E+04 0.  0.
        2    1    3    3  502    0 -0.13473846216E+04 -0.47717247798E+03  0.36721019764E+02  0.14298557010E+04  0.25500000920E-02 0. -1.
       -2    1    3    3    0  502  0.13473846216E+04  0.47717247798E+03 -0.44310745830E+03  0.14964902646E+04  0.25500000920E-02 0.  1.
</event>
<event>
 5   0  0.5049803E-05  0.2611448E+04  0.7818609E-02  0.8364323E-01
        2   -1    0    0  501    0  0.00000000000E+00  0.00000000000E+00  0.20198978524E+04  0.20198978524E+04  0.25500000920E-02 0.  1.
       -2   -1    0    0    0  501  0.00000000000E+00  0.00000000000E+00 -0.84406017090E+03  0.84406017090E+03  0.25500000920E-02 0. -1.
    10030    2    1    2    0    0  0.00000000000E+00  0.00000000000E+00  0.11758376815E+04  0.28639580233E+04  0.26114481243E+04 0.  0.
        4    1    3    3  502    0  0.24036348520E+03 -0.26999330924E+03 -0.78808958164E+03  0.86703967247E+03  0.12699999809E+01 0. -1.
       -4    1    3    3    0  502 -0.24036348520E+03  0.26999330924E+03  0.19639272632E+04  0.19969183509E+04  0.12699999809E+01 0.  1.
</event>
<event>
 5   0  0.1954502E-05  0.2637524E+04  0.7818609E-02  0.8355566E-01
        1   -1    0    0  501    0  0.00000000000E+00  0.00000000000E+00  0.16012736214E+04  0.16012736214E+04  0.50400001928E-02 0. -1.
       -1   -1    0    0    0  501  0.00000000000E+00  0.00000000000E+00 -0.10860934814E+04  0.10860934814E+04  0.50400001928E-02 0.  1.
    10030    2    1    2    0    0  0.00000000000E+00  0.00000000000E+00  0.51518014001E+03  0.26873671029E+04  0.26375237191E+04 0.  0.
        4    1    3    3  502    0 -0.91322537698E+02 -0.53222519153E+03  0.14834591034E+04  0.15786880581E+04  0.12699999809E+01 0. -1.
       -4    1    3    3    0  502  0.91322537698E+02  0.53222519153E+03 -0.96827896341E+03  0.11086790447E+04  0.12699999809E+01 0.  1.
</event>
<event>
 5   0  0.2163800E-05  0.2586557E+04  0.7818609E-02  0.8372782E-01
        1   -1    0    0  501    0  0.00000000000E+00  0.00000000000E+00  0.12039191135E+04  0.12039191135E+04  0.50400001928E-02 0.  1.
       -1   -1    0    0    0  501  0.00000000000E+00  0.00000000000E+00 -0.13892703680E+04  0.13892703680E+04  0.50400001928E-02 0. -1.
    10030    2    1    2    0    0  0.00000000000E+00  0.00000000000E+00 -0.18535125451E+03  0.25931894815E+04  0.25865569005E+04 0.  0.
        1    1    3    3  502    0 -0.51512904808E+03  0.45023349574E+03  0.10076362462E+04  0.12179486613E+04  0.50400001928E-02 0.  1.
       -1    1    3    3    0  502  0.51512904808E+03 -0.45023349574E+03 -0.11929875007E+04  0.13752408203E+04  0.50400001928E-02 0. -1.
</event>
<event>
 5   0  0.1993815E-05  0.2595539E+04  0.7818609E-02  0.8369718E-01
       -1   -1    0    0    0  501  0.00000000000E+00  0.00000000000E+00  0.13662392094E+04  0.13662392094E+04  0.50400001928E-02 0.  1.
        1   -1    0    0  501    0  0.00000000000E+00  0.00000000000E+00 -0.12327314050E+04  0.12327314050E+04  0.50400001928E-02 0. -1.
    10030    2    1    2    0    0  0.00000000000E+00  0.00000000000E+00  0.13350780439E+03  0.25989706144E+04  0.25955392350E+04 0.  0.
        5    1    3    3  502    0  0.75299576724E+03  0.71867801606E+03 -0.70930825088E+03  0.12596193874E+04  0.46999998093E+01 0. -1.
       -5    1    3    3    0  502 -0.75299576724E+03 -0.71867801606E+03  0.84281605527E+03  0.13393512270E+04  0.46999998093E+01 0.  1.
</event>
<event>
 5   0  0.2159405E-05  0.2540694E+04  0.7818609E-02  0.8388630E-01
       -1   -1    0    0    0  501  0.00000000000E+00  0.00000000000E+00  0.13840368578E+04  0.13840368578E+04  0.50400001928E-02 0. -1.
        1   -1    0    0  501    0  0.00000000000E+00  0.00000000000E+00 -0.11659958748E+04  0.11659958748E+04  0.50400001928E-02 0.  1.
    10030    2    1    2    0    0  0.00000000000E+00  0.00000000000E+00  0.21804098303E+03  0.25500327326E+04  0.25406938161E+04 0.  0.
        3    1    3    3  502    0 -0.28972229663E+03  0.94965256381E+03 -0.68635833636E+03  0.12070073642E+04  0.10100000352E+00 0.  1.
       -3    1    3    3    0  502  0.28972229663E+03 -0.94965256381E+03  0.90439931938E+03  0.13430253684E+04  0.10100000352E+00 0. -1.
</event>
<event>
 5   0  0.5036452E-05  0.2609852E+04  0.7818609E-02  0.8364862E-01
       -2   -1    0    0    0  501  0.00000000000E+00  0.00000000000E+00  0.16618799520E+04  0.16618799520E+04  0.25500000920E-02 0. -1.
        2   -1    0    0  501    0  0.00000000000E+00  0.00000000000E+00 -0.10246417732E+04  0.10246417732E+04  0.25500000920E-02 0.  1.
    10030    2    1    2    0    0  0.00000000000E+00  0.00000000000E+00  0.63723817875E+03  0.26865217252E+04  0.26098518125E+04 0.  0.
        2    1    3    3  502    0 -0.10358653565E+04 -0.27487111490E+03  0.10849766649E+04  0.15250395175E+04  0.25500000920E-02 0. -1.
       -2    1    3    3    0  502  0.10358653565E+04  0.27487111490E+03 -0.44773848613E+03  0.11614822076E+04  0.25500000920E-02 0.  1.
</event>
<event>
 5   0  0.1954502E-05  0.2474949E+04  0.7818609E-02  0.8411965E-01
        1   -1    0    0  501    0  0.00000000000E+00  0.00000000000E+00  0.93025048336E+03  0.93025048338E+03  0.50400001928E-02 0. -1.
       -1   -1    0    0    0  501  0.00000000000E+00  0.00000000000E+00 -0.16461627152E+04  0.16461627152E+04  0.50400001928E-02 0.  1.
    10030    2    1    2    0    0  0.00000000000E+00  0.00000000000E+00 -0.71591223181E+03  0.25764131986E+04  0.24749494229E+04 0.  0.
        4    1    3    3  502    0  0.58813239642E+03  0.46432176996E+03  0.66722580960E+03  0.10033375881E+04  0.12699999809E+01 0. -1.
       -4    1    3    3    0  502 -0.58813239642E+03 -0.46432176996E+03 -0.13831380414E+04  0.15730756105E+04  0.12699999809E+01 0.  1.
</event>
<event>
 5   0  0.4955675E-05  0.1759015E+04  0.7818609E-02  0.8728404E-01
       -2   -1    0    0    0  501  0.00000000000E+00  0.00000000000E+00  0.11435661611E+04  0.11435661611E+04  0.25500000920E-02 0. -1.
        2   -1    0    0  501    0  0.00000000000E+00  0.00000000000E+00 -0.67642182493E+03  0.67642182494E+03  0.25500000920E-02 0.  1.
    10030    2    1    2    0    0  0.00000000000E+00  0.00000000000E+00  0.46714433618E+03  0.18199879861E+04  0.17590146215E+04 0.  0.
        5    1    3    3  502    0 -0.60084126728E+03 -0.34048448676E+03  0.79703268546E+03  0.10546198869E+04  0.46999998093E+01 0. -1.
       -5    1    3    3    0  502  0.60084126728E+03  0.34048448676E+03 -0.32988834928E+03  0.76536809914E+03  0.46999998093E+01 0.  1.
</event>
<event>
 5   0  0.5049803E-05  0.1331605E+04  0.7818609E-02  0.9004871E-01
        2   -1    0    0  501    0  0.00000000000E+00  0.00000000000E+00  0.22094597934E+04  0.22094597934E+04  0.25500000920E-02 0.  1.
       -2   -1    0    0    0  501  0.00000000000E+00  0.00000000000E+00 -0.20063408838E+03  0.20063408839E+03  0.25500000920E-02 0. -1.
    10030    2    1    2    0    0  0.00000000000E+00  0.00000000000E+00  0.20088257050E+04  0.24100938818E+04  0.13316049737E+04 0.  0.
        4    1    3    3  502    0 -0.48635286196E+03  0.37977542062E+03  0.14569747399E+04  0.15822596127E+04  0.12699999809E+01 0.  1.
       -4    1    3    3    0  502  0.48635286196E+03 -0.37977542062E+03  0.55185096514E+03  0.82783426909E+03  0.12699999809E+01 0. -1.
</event>
<event>
 5   0  0.2159405E-05  0.2586461E+04  0.7818609E-02  0.8372815E-01
       -1   -1    0    0    0  501  0.00000000000E+00  0.00000000000E+00  0.14024998218E+04  0.14024998218E+04  0.50400001928E-02 0.  1.
        1   -1    0    0  501    0  0.00000000000E+00  0.00000000000E+00 -0.11924739448E+04  0.11924739448E+04  0.50400001928E-02 0. -1.
    10030    2    1    2    0    0  0.00000000000E+00  0.00000000000E+00  0.21002587694E+03  0.25949737666E+04  0.25864605120E+04 0.  0.
        3    1    3    3  502    0  0.74597586906E+03  0.31307905662E+03 -0.90724102940E+03  0.12155594550E+04  0.10100000352E+00 0. -1.
       -3    1    3    3    0  502 -0.74597586906E+03 -0.31307905662E+03  0.11172669063E+04  0.13794143116E+04  0.10100000352E+00 0.  1.
</event>
<event>
 5   0  0.4955675E-05  0.2602952E+04  0.7818609E-02  0.8367199E-01
       -2   -1    0    0    0  501  0.00000000000E+00  0.00000000000E+00  0.11009609818E+04  0.11009609818E+04  0.25500000920E-02 0. -1.
        2   -1    0    0  501    0  0.00000000000E+00  0.00000000000E+00 -0.15385106323E+04  0.15385106323E+04  0.25500000920E-02 0.  1.
    10030    2    1    2    0    0  0.00000000000E+00  0.00000000000E+00 -0.43754965055E+03  0.26394716141E+04  0.26029523055E+04 0.  0.
        5    1    3    3  502    0  0.77194651413E+03  0.78475822126E+03  0.48527983645E+03  0.12030234811E+04  0.46999998093E+01 0. -1.
       -5    1    3    3    0  502 -0.77194651413E+03 -0.78475822126E+03 -0.92282948700E+03  0.14364481329E+04  0.46999998093E+01 0.  1.
</event>
<event>
 5   0  0.5170532E-05  0.2556211E+04  0.7818609E-02  0.8383229E-01
       -2   -1    0    0    0  501  0.00000000000E+00  0.00000000000E+00  0.12097930203E+04  0.12097930203E+04  0.25500000920E-02 0.  1.
        2   -1    0    0  501    0  0.00000000000E+00  0.00000000000E+00 -0.13502756086E+04  0.13502756086E+04  0.25500000920E-02 0. -1.
    10030    2    1    2    0    0  0.00000000000E+00  0.00000000000E+00 -0.14048258835E+03  0.25600686289E+04  0.25562112641E+04 0.  0.
        1    1    3    3  502    0  0.12252303464E+04  0.36367542432E+03 -0.80493478073E+02  0.12805968983E+04  0.50400001928E-02 0.  1.
       -1    1    3    3    0  502 -0.12252303464E+04 -0.36367542432E+03 -0.59989110277E+02  0.12794717306E+04  0.50400001928E-02 0. -1.
</event>
<event>
 5   0  0.5182179E-05  0.2737230E+04  0.7818609E-02  0.8323025E-01
       -2   -1    0    0    0  501  0.00000000000E+00  0.00000000000E+00  0.19999651744E+04  0.19999651744E+04  0.25500000920E-02 0.  1.
        2   -1    0    0  501    0  0.00000000000E+00  0.00000000000E+00 -0.93657013440E+03  0.93657013440E+03  0.25500000920E-02 0. -1.
    10030    2    1    2    0    0  0.00000000000E+00  0.00000000000E+00  0.10633950400E+04  0.29365353088E+04  0.27372304632E+04 0.  0.
        3    1    3    3  502    0 -0.10540212860E+04  0.59593231041E+03  0.12161245882E+04  0.17161163172E+04  0.10100000352E+00 0.  1.
       -3    1    3    3    0  502  0.10540212860E+04 -0.59593231041E+03 -0.15272954824E+03  0.12204189916E+04  0.10100000352E+00 0. -1.
</event>
<event>
 5   0  0.2163800E-05  0.2459792E+04  0.7818609E-02  0.8417451E-01
       -1   -1    0    0    0  501  0.00000000000E+00  0.00000000000E+00  0.13421320113E+04  0.13421320114E+04  0.50400001928E-02 0. -1.
        1   -1    0    0  501    0  0.00000000000E+00  0.00000000000E+00 -0.11270458758E+04  0.11270458758E+04  0.50400001928E-02 0.  1.
    10030    2    1    2    0    0  0.00000000000E+00  0.00000000000E+00  0.21508613552E+03  0.24691778872E+04  0.24597921442E+04 0.  0.
        1    1    3    3  502    0 -0.11478819051E+04 -0.32241930500E+03 -0.19536531066E+03  0.12082030794E+04  0.50400001928E-02 0.  1.
       -1    1    3    3    0  502  0.11478819051E+04  0.32241930500E+03  0.41045144618E+03  0.12609748078E+04  0.50400001928E-02 0. -1.
</event>
<event>
 5   0  0.2072710E-05  0.2474615E+04  0.7818609E-02  0.8412085E-01
       -1   -1    0    0    0  501  0.00000000000E+00  0.00000000000E+00  0.86099740443E+03  0.86099740445E+03  0.50400001928E-02 0. -1.
        1   -1    0    0  501    0  0.00000000000E+00  0.00000000000E+00 -0.17780893879E+04  0.17780893879E+04  0.50400001928E-02 0.  1.
    10030    2    1    2    0    0  0.00000000000E+00  0.00000000000E+00 -0.91709198342E+03  0.26390867923E+04  0.24746154027E+04 0.  0.
        2    1    3    3  502    0 -0.11673437242E+04 -0.40347741116E+03 -0.53724026882E+03  0.13468899355E+04  0.25500000920E-02 0.  1.
       -2    1    3    3    0  502  0.11673437242E+04  0.40347741116E+03 -0.37985171460E+03  0.12921968569E+04  0.25500000920E-02 0. -1.
</event>
<event>
 5   0  0.5170532E-05  0.2561740E+04  0.7818609E-02  0.8381315E-01
        2   -1    0    0  501    0  0.00000000000E+00  0.00000000000E+00  0.11221825173E+04  0.11221825173E+04  0.25500000920E-02 0.  1.
       -2   -1    0    0    0  501  0.00000000000E+00  0.00000000000E+00 -0.14619974114E+04  0.14619974114E+04  0.25500000920E-02 0. -1.
    10030    2    1    2    0    0  0.00000000000E+00  0.00000000000E+00 -0.33981489410E+03  0.25841799288E+04  0.25617399833E+04 0.  0.
        1    1    3    3  502    0 -0.99580325469E+02 -0.35115089446E+03  0.10686114606E+04  0.11292270125E+04  0.50400001928E-02 0.  1.
       -1    1    3    3    0  502  0.99580325469E+02  0.35115089446E+03 -0.14084263547E+04  0.14549529163E+04  0.50400001928E-02 0. -1.
</event>
<event>
 5   0  0.5182179E-05  0.2640581E+04  0.7818609E-02  0.8354546E-01
        2   -1    0    0  501    0  0.00000000000E+00  0.00000000000E+00  0.14760220126E+04  0.14760220126E+04  0.25500000920E-02 0. -1.
       -2   -1    0    0    0  501  0.00000000000E+00  0.00000000000E+00 -0.11809896389E+04  0.11809896389E+04  0.25500000920E-02 0.  1.
    10030    2    1    2    0    0  0.00000000000E+00  0.00000000000E+00  0.29503237378E+03  0.26570116515E+04  0.26405807722E+04 0.  0.
        3    1    3    3  502    0  0.51832139429E+03  0.36374163282E+03 -0.10182270016E+04  0.11990626673E+04  0.10100000352E+00 0.  1.
       -3    1    3    3    0  502 -0.51832139429E+03 -0.36374163282E+03  0.13132593754E+04  0.14579489842E+04  0.10100000352E+00 0. -1.
</event>
<event>
 5   0  0.1993815E-05  0.2655525E+04  0.7818609E-02  0.8349582E-01
        1   -1    0    0  501    0  0.00000000000E+00  0.00000000000E+00  0.15312320742E+04  0.15312320742E+04  0.50400001928E-02 0. -1.
       -1   -1    0    0    0  501  0.00000000000E+00  0.00000000000E+00 -0.11513297201E+04  0.11513297201E+04  0.50400001928E-02 0.  1.
    10030    2    1    2    0    0  0.00000000000E+00  0.00000000000E+00  0.37990235407E+03  0.26825617943E+04  0.26555248035E+04 0.  0.
        5    1    3    3  502    0 -0.11738878378E+03  0.98722620605E+02  0.15222439828E+04  0.15299591876E+04  0.46999998093E+01 0. -1.
       -5    1    3    3    0  502  0.11738878378E+03 -0.98722620605E+02 -0.11423416287E+04  0.11526026068E+04  0.46999998093E+01 0.  1.
</event>
<event>
 5   0  0.5182179E-05  0.2622817E+04  0.7818609E-02  0.8360492E-01
       -2   -1    0    0    0  501  0.00000000000E+00  0.00000000000E+00  0.76253468246E+03  0.76253468247E+03  0.25500000920E-02 0.  1.
        2   -1    0    0  501    0  0.00000000000E+00  0.00000000000E+00 -0.22553619891E+04  0.22553619891E+04  0.25500000920E-02 0. -1.
    10030    2    1    2    0    0  0.00000000000E+00  0.00000000000E+00 -0.14928273066E+04  0.30178966715E+04  0.26228166068E+04 0.  0.
        3    1    3    3  502    0  0.50526634287E+03  0.73052953239E+03 -0.18565345723E+04  0.20580787408E+04  0.10100000352E+00 0. -1.
       -3    1    3    3    0  502 -0.50526634287E+03 -0.73052953239E+03  0.36370726567E+03  0.95981793077E+03  0.10100000352E+00 0.  1.
</event>
<event>
 5   0  0.1954502E-05  0.2534073E+04  0.7818609E-02  0.8390946E-01
       -1   -1    0    0    0  501  0.00000000000E+00  0.00000000000E+00  0.12295608015E+04  0.12295608015E+04  0.50400001928E-02 0. -1.
        1   -1    0    0  501    0  0.00000000000E+00  0.00000000000E+00 -0.13056548100E+04  0.13056548100E+04  0.50400001928E-02 0.  1.
    10030    2    1    2    0    0  0.00000000000E+00  0.00000000000E+00 -0.76094008505E+02  0.25352156115E+04  0.25340733806E+04 0.  0.
        4    1    3    3  502    0 -0.42119089132E+03  0.28226739423E+03 -0.11997352067E+04  0.13024756535E+04  0.12699999809E+01 0.  1.
       -4    1    3    3    0  502  0.42119089132E+03 -0.28226739423E+03  0.11236411982E+04  0.12327399580E+04  0.12699999809E+01 0. -1.
</event>
<event>
 5   0  0.1954502E-05  0.2624519E+04  0.7818609E-02  0.8359920E-01
        1   -1    0    0  501    0  0.00000000000E+00  0.00000000000E+00  0.64793241647E+03  0.64793241649E+03  0.50400001928E-02 0.  1.
       -1   -1    0    0    0  501  0.00000000000E+00  0.00000000000E+00 -0.26577223618E+04  0.26577223618E+04  0.50400001928E-02 0. -1.
    10030    2    1    2    0    0  0.00000000000E+00  0.00000000000E+00 -0.20097899453E+04  0.33056547783E+04  0.26245186014E+04 0.  0.
        4    1    3    3  502    0  0.11029436521E+04 -0.58323994188E+03 -0.49269998444E+03  0.13414202984E+04  0.12699999809E+01 0.  1.
       -4    1    3    3    0  502 -0.11029436521E+04  0.58323994188E+03 -0.15170899609E+04  0.19642344798E+04  0.12699999809E+01 0. -1.
</event>
<event>
 5   0  0.5182179E-05  0.2446195E+04  0.7818609E-02  0.8422409E-01
       -2   -1    0    0    0  501  0.00000000000E+00  0.00000000000E+00  0.11233866474E+04  0.11233866474E+04  0.25500000920E-02 0.  1.
        2   -1    0    0  501    0  0.00000000000E+00  0.00000000000E+00 -0.13316582984E+04  0.13316582984E+04  0.25500000920E-02 0. -1.
    10030    2    1    2    0    0  0.00000000000E+00  0.00000000000E+00 -0.20827165100E+03  0.24550449458E+04  0.24461947195E+04 0.  0.
        3    1    3    3  502    0 -0.84599611178E+03  0.77045789890E+02  0.77900330638E+03  0.11526021154E+04  0.10100000352E+00 0.  1.
       -3    1    3    3    0  502  0.84599611178E+03 -0.77045789890E+02 -0.98727495738E+03  0.13024428304E+04  0.10100000352E+00 0. -1.
</event>
<event>
 5   0  0.1993815E-05  0.2293633E+04  0.7818609E-02  0.8480436E-01
        1   -1    0    0  501    0  0.00000000000E+00  0.00000000000E+00  0.16251057853E+04  0.16251057853E+04  0.50400001928E-02 0.  1.
       -1   -1    0    0    0  501  0.00000000000E+00  0.00000000000E+00 -0.80929356594E+03  0.80929356596E+03  0.50400001928E-02 0. -1.
    10030    2    1    2    0    0  0.00000000000E+00  0.00000000000E+00  0.81581221939E+03  0.24343993513E+04  0.22936326263E+04 0.  0.
        5    1    3    3  502    0 -0.98289956643E+02  0.84116046210E+03 -0.41282662349E+03  0.94215696656E+03  0.46999998093E+01 0.  1.
       -5    1    3    3    0  502  0.98289956643E+02 -0.84116046210E+03  0.12286388429E+04  0.14922423847E+04  0.46999998093E+01 0. -1.
</event>
<event>
 5   0  0.2163800E-05  0.2604228E+04  0.7818609E-02  0.8366767E-01
       -1   -1    0    0    0  501  0.00000000000E+00  0.00000000000E+00  0.79051108320E+03  0.79051108322E+03  0.50400001928E-02 0.  1.
        1   -1    0    0  501    0  0.00000000000E+00  0.00000000000E+00 -0.21448152547E+04  0.21448152547E+04  0.50400001928E-02 0. -1.
    10030    2    1    2    0    0  0.00000000000E+00  0.00000000000E+00 -0.13543041715E+04  0.29353263380E+04  0.26042275095E+04 0.  0.
        1    1    3    3  502    0  0.74602345435E+03  0.33581464359E+03  0.46464457473E+03  0.94085973989E+03  0.50400001928E-02 0.  1.
       -1    1    3    3    0  502 -0.74602345435E+03 -0.33581464359E+03 -0.18189487463E+04  0.19944665981E+04  0.50400001928E-02 0. -1.
</event>
<event>
 5   0  0.1954502E-05  0.2597969E+04  0.7818609E-02  0.8368891E-01
       -1   -1    0    0    0  501  0.00000000000E+00  0.00000000000E+00  0.77348909025E+03  0.77348909027E+03  0.50400001928E-02 0. -1.
        1   -1    0    0  501    0  0.00000000000E+00  0.00000000000E+00 -0.21814928132E+04  0.21814928132E+04  0.50400001928E-02 0.  1.
    10030    2    1    2    0    0  0.00000000000E+00  0.00000000000E+00 -0.14080037229E+04  0.29549819034E+04  0.25979691234E+04 0.  0.
        4    1    3    3  502    0 -0.56586352834E+03  0.10083692560E+04 -0.13772441674E+04  0.17982806229E+04  0.12699999809E+01 0.  1.
       -4    1    3    3    0  502  0.56586352834E+03 -0.10083692560E+04 -0.30759555521E+02  0.11567012805E+04  0.12699999809E+01 0. -1.
</event>
<event>
 5   0  0.5036452E-05  0.1928648E+04  0.7818609E-02  0.8640726E-01
       -2   -1    0    0    0  501  0.00000000000E+00  0.00000000000E+00  0.62051424926E+03  0.62051424926E+03  0.25500000920E-02 0. -1.
        2   -1    0    0  501    0  0.00000000000E+00  0.00000000000E+00 -0.14986299088E+04  0.14986299088E+04  0.25500000920E-02 0.  1.
    10030    2    1    2    0    0  0.00000000000E+00  0.00000000000E+00 -0.87811565959E+03  0.21191441581E+04  0.19286484520E+04 0.  0.
        2    1    3    3  502    0 -0.16687467841E+03  0.85212444173E+03  0.21847706515E+02  0.86858536988E+03  0.25500000920E-02 0. -1.
       -2    1    3    3    0  502  0.16687467841E+03 -0.85212444173E+03 -0.89996336610E+03  0.12505587882E+04  0.25500000920E-02 0.  1.
</event>
<event>
 5   0  0.5036452E-05  0.2599356E+04  0.7818609E-02  0.8368420E-01
       -2   -1    0    0    0  501  0.00000000000E+00  0.00000000000E+00  0.16965667818E+04  0.16965667818E+04  0.25500000920E-02 0.  1.
        2   -1    0    0  501    0  0.00000000000E+00  0.00000000000E+00 -0.99563580449E+03  0.99563580450E+03  0.25500000920E-02 0. -1.
    10030    2    1    2    0    0  0.00000000000E+00  0.00000000000E+00  0.70093097729E+03  0.26922025863E+04  0.25993557915E+04 0.  0.
        2    1    3    3  502    0 -0.27768628606E+03 -0.10265804757E+04  0.11242700378E+04  0.15475659161E+04  0.25500000920E-02 0.  1.
       -2    1    3    3    0  502  0.27768628606E+03  0.10265804757E+04 -0.42333906055E+03  0.11446366702E+04  0.25500000920E-02 0. -1.
</event>
<event>
 5   0  0.5036452E-05  0.2594571E+04  0.7818609E-02  0.8370048E-01
        2   -1    0    0  501    0  0.00000000000E+00  0.00000000000E+00  0.20053753009E+04  0.20053753009E+04  0.25500000920E-02 0. -1.
       -2   -1    0    0    0  501  0.00000000000E+00  0.00000000000E+00 -0.83921903538E+03  0.83921903538E+03  0.25500000920E-02 0.  1.
    10030    2    1    2    0    0  0.00000000000E+00  0.00000000000E+00  0.11661562655E+04  0.28445943362E+04  0.25945705815E+04 0.  0.
        2    1    3    3  502    0  0.24746650283E+03  0.10647912610E+04 -0.18275328432E+03  0.11083405895E+04  0.25500000920E-02 0. -1.
       -2    1    3    3    0  502 -0.24746650283E+03 -0.10647912610E+04  0.13489095498E+04  0.17362537467E+04  0.25500000920E-02 0.  1.
</event>
<event>
 5   0  0.2072710E-05  0.2408384E+04  0.7818609E-02  0.8436371E-01
        1   -1    0    0  501    0  0.00000000000E+00  0.00000000000E+00  0.12209975465E+04  0.12209975465E+04  0.50400001928E-02 0. -1.
       -1   -1    0    0    0  501  0.00000000000E+00  0.00000000000E+00 -0.11876182510E+04  0.11876182510E+04  0.50400001928E-02 0.  1.
    10030    2    1    2    0    0  0.00000000000E+00  0.00000000000E+00  0.33379295541E+02  0.24086157975E+04  0.24083844964E+04 0.  0.
        2    1    3    3  502    0  0.46054253866E+03 -0.27817111037E+03 -0.10607254592E+04  0.11893767680E+04  0.25500000920E-02 0.  1.
       -2    1    3    3    0  502 -0.46054253866E+03  0.27817111037E+03  0.10941047547E+04  0.12192390294E+04  0.25500000920E-02 0. -1.
</event>
<event>
 5   0  0.1954502E-05  0.2555933E+04  0.7818609E-02  0.8383326E-01
        1   -1    0    0  501    0  0.00000000000E+00  0.00000000000E+00  0.22782181299E+04  0.22782181299E+04  0.50400001928E-02 0.  1.
       -1   -1    0    0    0  501  0.00000000000E+00  0.00000000000E+00 -0.71687524371E+03  0.71687524372E+03  0.50400001928E-02 0. -1.
    10030    2    1    2    0    0  0.00000000000E+00  0.00000000000E+00  0.15613428862E+04  0.29950933736E+04  0.25559328451E+04 0.  0.
        4    1    3    3  502    0 -0.34075267454E+03 -0.24395748881E+03 -0.63406479290E+03  0.76004435137E+03  0.12699999809E+01 0. -1.
       -4    1    3    3    0  502  0.34075267454E+03  0.24395748881E+03  0.21954076791E+04  0.22350490223E+04  0.12699999809E+01 0.  1.
</event>
<event>
 5   0  0.2159405E-05  0.1364851E+04  0.7818609E-02  0.8979662E-01
       -1   -1    0    0    0  501  0.00000000000E+00  0.00000000000E+00  0.75685768978E+03  0.75685768980E+03  0.50400001928E-02 0. -1.
        1   -1    0    0  501    0  0.00000000000E+00  0.00000000000E+00 -0.61531307450E+03  0.61531307452E+03  0.50400001928E-02 0.  1.
    10030    2    1    2    0    0  0.00000000000E+00  0.00000000000E+00  0.14154461529E+03  0.13721707643E+04  0.13648508081E+04 0.  0.
        3    1    3    3  502    0  0.21704062100E+03  0.31757319690E+03 -0.49593965627E+03  0.62762689507E+03  0.10100000352E+00 0.  1.
       -3    1    3    3    0  502 -0.21704062100E+03 -0.31757319690E+03  0.63748427156E+03  0.74454386925E+03  0.10100000352E+00 0. -1.
</event>
<event>
 5   0  0.4955675E-05  0.2531278E+04  0.7818609E-02  0.8391927E-01
       -2   -1    0    0    0  501  0.00000000000E+00  0.00000000000E+00  0.99024363115E+03  0.99024363115E+03  0.25500000920E-02 0. -1.
        2   -1    0    0  501    0  0.00000000000E+00  0.00000000000E+00 -0.16176241527E+04  0.16176241527E+04  0.25500000920E-02 0.  1.
    10030    2    1    2    0    0  0.00000000000E+00  0.00000000000E+00 -0.62738052158E+03  0.26078677839E+04  0.25312779498E+04 0.  0.
        5    1    3    3  502    0 -0.11963317894E+04 -0.58494868735E+02  0.10756851983E+03  0.12025907352E+04  0.46999998093E+01 0. -1.
       -5    1    3    3    0  502  0.11963317894E+04  0.58494868735E+02 -0.73494904140E+03  0.14052770486E+04  0.46999998093E+01 0.  1.
</event>
<event>
 5   0  0.1954502E-05  0.2559744E+04  0.7818609E-02  0.8382005E-01
       -1   -1    0    0    0  501  0.00000000000E+00  0.00000000000E+00  0.11990371316E+04  0.11990371316E+04  0.50400001928E-02 0. -1.
        1   -1    0    0  501    0  0.00000000000E+00  0.00000000000E+00 -0.13661568609E+04  0.13661568609E+04  0.50400001928E-02 0.  1.
    10030    2    1    2    0    0  0.00000000000E+00  0.00000000000E+00 -0.16711972927E+03  0.25651939925E+04  0.25597443652E+04 0.  0.
        4    1    3    3  502    0  0.46671200061E+02 -0.29339769986E+03 -0.13311242180E+04  0.13638745205E+04  0.12699999809E+01 0.  1.
       -4    1    3    3    0  502 -0.46671200061E+02  0.29339769986E+03  0.11640044887E+04  0.12013194720E+04  0.12699999809E+01 0. -1.
</event>
<event>
 5   0  0.4955675E-05  0.2638566E+04  0.7818609E-02  0.8355218E-01
       -2   -1    0    0    0  501  0.00000000000E+00  0.00000000000E+00  0.86346045623E+03  0.86346045623E+03  0.25500000920E-02 0. -1.
        2   -1    0    0  501    0  0.00000000000E+00  0.00000000000E+00 -0.20157345858E+04  0.20157345858E+04  0.25500000920E-02 0.  1.
    10030    2    1    2    0    0  0.00000000000E+00  0.00000000000E+00 -0.11522741295E+04  0.28791950420E+04  0.26385655990E+04 0.  0.
        5    1    3    3  502    0  0.38030333877E+03 -0.12065928854E+04 -0.98440811487E+03  0.16029904701E+04  0.46999998093E+01 0.  1.
       -5    1    3    3    0  502 -0.38030333877E+03  0.12065928854E+04 -0.16786601467E+03  0.12762045719E+04  0.46999998093E+01 0. -1.
</event>
<event>
 5   0  0.1954502E-05  0.2495789E+04  0.7818609E-02  0.8404487E-01
       -1   -1    0    0    0  501  0.00000000000E+00  0.00000000000E+00  0.87996826066E+03  0.87996826067E+03  0.50400001928E-02 0. -1.
        1   -1    0    0  501    0  0.00000000000E+00  0.00000000000E+00 -0.17696554706E+04  0.17696554706E+04  0.50400001928E-02 0.  1.
    10030    2    1    2    0    0  0.00000000000E+00  0.00000000000E+00 -0.88968720994E+03  0.26496237313E+04  0.24957889706E+04 0.  0.
        4    1    3    3  502    0 -0.86231237054E+03 -0.78471412773E+03 -0.91709957392E+03  0.14833853606E+04  0.12699999809E+01 0. -1.
       -4    1    3    3    0  502  0.86231237054E+03  0.78471412773E+03  0.27412363985E+02  0.11662383707E+04  0.12699999809E+01 0.  1.
</event>
<event>
 5   0  0.1698625E-05  0.2425448E+04  0.7818609E-02  0.8430037E-01
       -3   -1    0    0    0  501  0.00000000000E+00  0.00000000000E+00  0.11553624883E+04  0.11553624927E+04  0.10100000352E+00 0. -1.
        3   -1    0    0  501    0  0.00000000000E+00  0.00000000000E+00 -0.12729337495E+04  0.12729337535E+04  0.10100000352E+00 0.  1.
    10030    2    1    2    0    0  0.00000000000E+00  0.00000000000E+00 -0.11757126117E+03  0.24282962462E+04  0.24254483416E+04 0.  0.
        4    1    3    3  502    0  0.48137836056E+03  0.79208217122E+03 -0.84173904951E+03  0.12520565212E+04  0.12699999809E+01 0.  1.
       -4    1    3    3    0  502 -0.48137836056E+03 -0.79208217122E+03  0.72416778834E+03  0.11762397249E+04  0.12699999809E+01 0. -1.
</event>
<event>
 5   0  0.2159405E-05  0.1943492E+04  0.7818609E-02  0.8633505E-01
        1   -1    0    0  501    0  0.00000000000E+00  0.00000000000E+00  0.11308103422E+04  0.11308103422E+04  0.50400001928E-02 0.  1.
       -1   -1    0    0    0  501  0.00000000000E+00  0.00000000000E+00 -0.83505626276E+03  0.83505626277E+03  0.50400001928E-02 0. -1.
    10030    2    1    2    0    0  0.00000000000E+00  0.00000000000E+00  0.29575407948E+03  0.19658666050E+04  0.19434919689E+04 0.  0.
        3    1    3    3  502    0 -0.85715118789E+03  0.45206214283E+03  0.74782335674E+02  0.97193659660E+03  0.10100000352E+00 0. -1.
       -3    1    3    3    0  502  0.85715118789E+03 -0.45206214283E+03  0.22097174380E+03  0.99393000842E+03  0.10100000352E+00 0.  1.
</event>
<event>
 5   0  0.2159405E-05  0.2560350E+04  0.7818609E-02  0.8381795E-01
       -1   -1    0    0    0  501  0.00000000000E+00  0.00000000000E+00  0.78664962321E+03  0.78664962323E+03  0.50400001928E-02 0. -1.
        1   -1    0    0  501    0  0.00000000000E+00  0.00000000000E+00 -0.20833267821E+04  0.20833267821E+04  0.50400001928E-02 0.  1.
    10030    2    1    2    0    0  0.00000000000E+00  0.00000000000E+00 -0.12966771589E+04  0.28699764053E+04  0.25603501543E+04 0.  0.
        3    1    3    3  502    0 -0.65290578963E+03 -0.93224268298E+03  0.86130197330E+01  0.11381724757E+04  0.10100000352E+00 0. -1.
       -3    1    3    3    0  502  0.65290578963E+03  0.93224268298E+03 -0.13052901786E+04  0.17318039296E+04  0.10100000352E+00 0.  1.
</event>
<event>
 5   0  0.5049803E-05  0.2909622E+04  0.7818609E-02  0.8270020E-01
       -2   -1    0    0    0  501  0.00000000000E+00  0.00000000000E+00  0.98204745343E+03  0.98204745343E+03  0.25500000920E-02 0. -1.
        2   -1    0    0  501    0  0.00000000000E+00  0.00000000000E+00 -0.21551655483E+04  0.21551655483E+04  0.25500000920E-02 0.  1.
    10030    2    1    2    0    0  0.00000000000E+00  0.00000000000E+00 -0.11731180948E+04  0.31372130017E+04  0.29096218575E+04 0.  0.
        4    1    3    3  502    0 -0.13619174889E+03 -0.93523469396E+03  0.60596470603E+03  0.11226784772E+04  0.12699999809E+01 0. -1.
       -4    1    3    3    0  502  0.13619174889E+03  0.93523469396E+03 -0.17790828009E+04  0.20145345245E+04  0.12699999809E+01 0.  1.
</event>
<event>
 5   0  0.5036452E-05  0.2546483E+04  0.7818609E-02  0.8386610E-01
        2   -1    0    0  501    0  0.00000000000E+00  0.00000000000E+00  0.19339238591E+04  0.19339238591E+04  0.25500000920E-02 0. -1.
       -2   -1    0    0    0  501  0.00000000000E+00  0.00000000000E+00 -0.83826645479E+03  0.83826645480E+03  0.25500000920E-02 0.  1.
    10030    2    1    2    0    0  0.00000000000E+00  0.00000000000E+00  0.10956574043E+04  0.27721903139E+04  0.25464826700E+04 0.  0.
        2    1    3    3  502    0  0.97857440100E+03  0.21201171196E+03 -0.30838583339E+03  0.10476920571E+04  0.25500000920E-02 0.  1.
       -2    1    3    3    0  502 -0.97857440100E+03 -0.21201171196E+03  0.14040432377E+04  0.17244982568E+04  0.25500000920E-02 0. -1.
</event>
<event>
 5   0  0.2159405E-05  0.2511096E+04  0.7818609E-02  0.8399043E-01
       -1   -1    0    0    0  501  0.00000000000E+00  0.00000000000E+00  0.16194573111E+04  0.16194573111E+04  0.50400001928E-02 0.  1.
        1   -1    0    0  501    0  0.00000000000E+00  0.00000000000E+00 -0.97341275238E+03  0.97341275240E+03  0.50400001928E-02 0. -1.
    10030    2    1    2    0    0  0.00000000000E+00  0.00000000000E+00  0.64604455873E+03  0.25928700635E+04  0.25110956960E+04 0.  0.
        3    1    3    3  502    0  0.11918234735E+04 -0.30388343288E+03  0.62594561536E+02  0.12315463540E+04  0.10100000352E+00 0. -1.
       -3    1    3    3    0  502 -0.11918234735E+04  0.30388343288E+03  0.58344999719E+03  0.13613237095E+04  0.10100000352E+00 0.  1.
</event>
<event>
 5   0  0.5182179E-05  0.2594956E+04  0.7818609E-02  0.8369917E-01
       -2   -1    0    0    0  501  0.00000000000E+00  0.00000000000E+00  0.10519110194E+04  0.10519110194E+04  0.25500000920E-02 0. -1.
        2   -1    0    0  501    0  0.00000000000E+00  0.00000000000E+00 -0.16003721725E+04  0.16003721725E+04  0.25500000920E-02 0.  1.
    10030    2    1    2    0    0  0.00000000000E+00  0.00000000000E+00 -0.54846115306E+03  0.26522831919E+04  0.25949559714E+04 0.  0.
        3    1    3    3  502    0  0.12213492825E+04 -0.41893014766E+03 -0.40453254799E+03  0.13530865201E+04  0.10100000352E+00 0. -1.
       -3    1    3    3    0  502 -0.12213492825E+04  0.41893014766E+03 -0.14392860507E+03  0.12991966718E+04  0.10100000352E+00 0.  1.
</event>
<event>
 5   0  0.2163800E-05  0.1367637E+04  0.7818609E-02  0.8977584E-01
        1   -1    0    0  501    0  0.00000000000E+00  0.00000000000E+00  0.90145336146E+03  0.90145336147E+03  0.50400001928E-02 0. -1.
       -1   -1    0    0    0  501  0.00000000000E+00  0.00000000000E+00 -0.51872622400E+03  0.51872622402E+03  0.50400001928E-02 0.  1.
    10030    2    1    2    0    0  0.00000000000E+00  0.00000000000E+00  0.38272713746E+03  0.14201795855E+04  0.13676366452E+04 0.  0.
        1    1    3    3  502    0  0.50494252323E+03 -0.37637107083E+03  0.46803030193E+03  0.78464928361E+03  0.50400001928E-02 0. -1.
       -1    1    3    3    0  502 -0.50494252323E+03  0.37637107083E+03 -0.85303164467E+02  0.63553030189E+03  0.50400001928E-02 0.  1.
</event>
<event>
 5   0  0.1954502E-05  0.2629834E+04  0.7818609E-02  0.8358137E-01
       -1   -1    0    0    0  501  0.00000000000E+00  0.00000000000E+00  0.11047000649E+04  0.11047000649E+04  0.50400001928E-02 0.  1.
        1   -1    0    0  501    0  0.00000000000E+00  0.00000000000E+00 -0.15651370704E+04  0.15651370704E+04  0.50400001928E-02 0. -1.
    10030    2    1    2    0    0  0.00000000000E+00  0.00000000000E+00 -0.46043700549E+03  0.26698371353E+04  0.26298342330E+04 0.  0.
        4    1    3    3  502    0 -0.30785932416E+03  0.57394090971E+03  0.92944416756E+03  0.11349244930E+04  0.12699999809E+01 0.  1.
       -4    1    3    3    0  502  0.30785932416E+03 -0.57394090971E+03 -0.13898811731E+04  0.15349126423E+04  0.12699999809E+01 0. -1.
</event>
<event>
 5   0  0.1993815E-05  0.2763573E+04  0.7818609E-02  0.8314668E-01
       -1   -1    0    0    0  501  0.00000000000E+00  0.00000000000E+00  0.98568637281E+03  0.98568637283E+03  0.50400001928E-02 0. -1.
        1   -1    0    0  501    0  0.00000000000E+00  0.00000000000E+00 -0.19370596840E+04  0.19370596840E+04  0.50400001928E-02 0.  1.
    10030    2    1    2    0    0  0.00000000000E+00  0.00000000000E+00 -0.95137331118E+03  0.29227460568E+04  0.27635725674E+04 0.  0.
        5    1    3    3  502    0 -0.19663141905E+03  0.11191545753E+04  0.35581623347E+03  0.11907132990E+04  0.46999998093E+01 0. -1.
       -5    1    3    3    0  502  0.19663141905E+03 -0.11191545753E+04 -0.13071895447E+04  0.17320327578E+04  0.46999998093E+01 0.  1.
</event>
<event>
 5   0  0.5182179E-05  0.2250377E+04  0.7818609E-02  0.8497748E-01
        2   -1    0    0  501    0  0.00000000000E+00  0.00000000000E+00  0.10052523617E+04  0.10052523617E+04  0.25500000920E-02 0. -1.
       -2   -1    0    0    0  501  0.00000000000E+00  0.00000000000E+00 -0.12594340975E+04  0.12594340975E+04  0.25500000920E-02 0.  1.
    10030    2    1    2    0    0  0.00000000000E+00  0.00000000000E+00 -0.25418173577E+03  0.22646864592E+04  0.22503769470E+04 0.  0.
        3    1    3    3  502    0 -0.90906268534E+03 -0.58507109026E+03 -0.44107792330E+03  0.11675842116E+04  0.10100000352E+00 0.  1.
       -3    1    3    3    0  502  0.90906268534E+03  0.58507109026E+03  0.18689618753E+03  0.10971022476E+04  0.10100000352E+00 0. -1.
</event>
<event>
 5   0  0.2163800E-05  0.2599251E+04  0.7818609E-02  0.8368456E-01
       -1   -1    0    0    0  501  0.00000000000E+00  0.00000000000E+00  0.12289092153E+04  0.12289092153E+04  0.50400001928E-02 0.  1.
        1   -1    0    0  501    0  0.00000000000E+00  0.00000000000E+00 -0.13744108945E+04  0.13744108945E+04  0.50400001928E-02 0. -1.
    10030    2    1    2    0    0  0.00000000000E+00  0.00000000000E+00 -0.14550167920E+03  0.26033201099E+04  0.25992508259E+04 0.  0.
        1    1    3    3  502    0  0.56419602859E+03 -0.89820167309E+03  0.67938609268E+03  0.12596225098E+04  0.50400001928E-02 0.  1.
       -1    1    3    3    0  502 -0.56419602859E+03  0.89820167309E+03 -0.82488777189E+03  0.13436976001E+04  0.50400001928E-02 0. -1.
</event>
<event>
 5   0  0.5170532E-05  0.1329073E+04  0.7818609E-02  0.9006823E-01
       -2   -1    0    0    0  501  0.00000000000E+00  0.00000000000E+00  0.13240195796E+04  0.13240195796E+04  0.25500000920E-02 0. -1.
        2   -1    0    0  501    0  0.00000000000E+00  0.00000000000E+00 -0.33353632831E+03  0.33353632832E+03  0.25500000920E-02 0.  1.
    10030    2    1    2    0    0  0.00000000000E+00  0.00000000000E+00  0.99048325131E+03  0.16575559079E+04  0.13290728034E+04 0.  0.
        1    1    3    3  502    0  0.48969078411E+03 -0.18905139689E+03 -0.12995622356E+02  0.52507749993E+03  0.50400001928E-02 0.  1.
       -1    1    3    3    0  502 -0.48969078411E+03  0.18905139689E+03  0.10034788737E+04  0.11324784080E+04  0.50400001928E-02 0. -1.
</event>
<event>
 5   0  0.1954502E-05  0.2642988E+04  0.7818609E-02  0.8353744E-01
        1   -1    0    0  501    0  0.00000000000E+00  0.00000000000E+00  0.16309140454E+04  0.16309140454E+04  0.50400001928E-02 0. -1.
       -1   -1    0    0    0  501  0.00000000000E+00  0.00000000000E+00 -0.10707777846E+04  0.10707777846E+04  0.50400001928E-02 0.  1.
    10030    2    1    2    0    0  0.00000000000E+00  0.00000000000E+00  0.56013626081E+03  0.27016918299E+04  0.26429881031E+04 0.  0.
        4    1    3    3  502    0 -0.12195112239E+04  0.43821515218E+03  0.15268545987E+02  0.12959455568E+04  0.12699999809E+01 0. -1.
       -4    1    3    3    0  502  0.12195112239E+04 -0.43821515218E+03  0.54486771482E+03  0.14057462731E+04  0.12699999809E+01 0.  1.
</event>
<event>
 5   0  0.1993815E-05  0.1845087E+04  0.7818609E-02  0.8682683E-01
        1   -1    0    0  501    0  0.00000000000E+00  0.00000000000E+00  0.16145344271E+04  0.16145344271E+04  0.50400001928E-02 0.  1.
       -1   -1    0    0    0  501  0.00000000000E+00  0.00000000000E+00 -0.52714073562E+03  0.52714073564E+03  0.50400001928E-02 0. -1.
    10030    2    1    2    0    0  0.00000000000E+00  0.00000000000E+00  0.10873936915E+04  0.21416751627E+04  0.18450873861E+04 0.  0.
        5    1    3    3  502    0 -0.51360872308E+03 -0.27279425175E+03  0.13749505583E+04  0.14928904019E+04  0.46999998093E+01 0.  1.
       -5    1    3    3    0  502  0.51360872308E+03  0.27279425175E+03 -0.28755686687E+03  0.64878476084E+03  0.46999998093E+01 0. -1.
</event>
<event>
 5   0  0.2072710E-05  0.1996662E+04  0.7818609E-02  0.8608183E-01
       -1   -1    0    0    0  501  0.00000000000E+00  0.00000000000E+00  0.10862830159E+04  0.10862830159E+04  0.50400001928E-02 0. -1.
        1   -1    0    0  501    0  0.00000000000E+00  0.00000000000E+00 -0.91750032781E+03  0.91750032782E+03  0.50400001928E-02 0.  1.
    10030    2    1    2    0    0  0.00000000000E+00  0.00000000000E+00  0.16878268812E+03  0.20037833438E+04  0.19966622381E+04 0.  0.
        2    1    3    3  502    0 -0.47760947467E+03 -0.87666470433E+03  0.88038738834E+02  0.10021988993E+04  0.25500000920E-02 0.  1.
       -2    1    3    3    0  502  0.47760947467E+03  0.87666470433E+03  0.80743949283E+02  0.10015844445E+04  0.25500000920E-02 0. -1.
</event>
<event>
 5   0  0.1954502E-05  0.2563541E+04  0.7818609E-02  0.8380692E-01
       -1   -1    0    0    0  501  0.00000000000E+00  0.00000000000E+00  0.16018314022E+04  0.16018314022E+04  0.50400001928E-02 0.  1.
        1   -1    0    0  501    0  0.00000000000E+00  0.00000000000E+00 -0.10256611266E+04  0.10256611266E+04  0.50400001928E-02 0. -1.
    10030    2    1    2    0    0  0.00000000000E+00  0.00000000000E+00  0.57617027553E+03  0.26274925288E+04  0.25635414572E+04 0.  0.
        4    1    3    3  502    0 -0.95946838830E+03  0.14025513902E+03  0.11472589302E+04  0.15021503779E+04  0.12699999809E+01 0.  1.
       -4    1    3    3    0  502  0.95946838830E+03 -0.14025513902E+03 -0.57108865464E+03  0.11253421509E+04  0.12699999809E+01 0. -1.
</event>
<event>
 5   0  0.1993815E-05  0.1930715E+04  0.7818609E-02  0.8639717E-01
       -1   -1    0    0    0  501  0.00000000000E+00  0.00000000000E+00  0.83688199146E+03  0.83688199148E+03  0.50400001928E-02 0. -1.
        1   -1    0    0  501    0  0.00000000000E+00  0.00000000000E+00 -0.11135560779E+04  0.11135560779E+04  0.50400001928E-02 0.  1.
    10030    2    1    2    0    0  0.00000000000E+00  0.00000000000E+00 -0.27667408644E+03  0.19504380694E+04  0.19307149226E+04 0.  0.
        5    1    3    3  502    0  0.54480358874E+03  0.44344970767E+03 -0.80724489733E+03  0.10701051387E+04  0.46999998093E+01 0.  1.
       -5    1    3    3    0  502 -0.54480358874E+03 -0.44344970767E+03  0.53057081089E+03  0.88033293072E+03  0.46999998093E+01 0. -1.
</event>
<event>
 5   0  0.5036452E-05  0.2538424E+04  0.7818609E-02  0.8389423E-01
       -2   -1    0    0    0  501  0.00000000000E+00  0.00000000000E+00  0.93971297068E+03  0.93971297068E+03  0.25500000920E-02 0. -1.
        2   -1    0    0  501    0  0.00000000000E+00  0.00000000000E+00 -0.17142454140E+04  0.17142454140E+04  0.25500000920E-02 0.  1.
    10030    2    1    2    0    0  0.00000000000E+00  0.00000000000E+00 -0.77453244328E+03  0.26539583846E+04  0.25384236450E+04 0.  0.
        2    1    3    3  502    0  0.62778373162E+03 -0.10813517959E+04 -0.61504570180E+03  0.13934544612E+04  0.25500000920E-02 0.  1.
       -2    1    3    3    0  502 -0.62778373162E+03  0.10813517959E+04 -0.15948674148E+03  0.12605039234E+04  0.25500000920E-02 0. -1.
</event>
<event>
 5   0  0.2163800E-05  0.2436723E+04  0.7818609E-02  0.8425882E-01
        1   -1    0    0  501    0  0.00000000000E+00  0.00000000000E+00  0.17179422805E+04  0.17179422806E+04  0.50400001928E-02 0.  1.
       -1   -1    0    0    0  501  0.00000000000E+00  0.00000000000E+00 -0.86405955585E+03  0.86405955586E+03  0.50400001928E-02 0. -1.
    10030    2    1    2    0    0  0.00000000000E+00  0.00000000000E+00  0.85388272470E+03  0.25820018364E+04  0.24367227531E+04 0.  0.
        1    1    3    3  502    0 -0.10548826630E+04  0.34623943567E+03  0.95859780752E+03  0.14668227351E+04  0.50400001928E-02 0.  1.
       -1    1    3    3    0  502  0.10548826630E+04 -0.34623943567E+03 -0.10471508282E+03  0.11151791014E+04  0.50400001928E-02 0. -1.
</event>
<event>
 5   0  0.2163800E-05  0.1431654E+04  0.7818609E-02  0.8931219E-01
       -1   -1    0    0    0  501  0.00000000000E+00  0.00000000000E+00  0.51139488940E+03  0.51139488942E+03  0.50400001928E-02 0.  1.
        1   -1    0    0  501    0  0.00000000000E+00  0.00000000000E+00 -0.10019814200E+04  0.10019814201E+04  0.50400001928E-02 0. -1.
    10030    2    1    2    0    0  0.00000000000E+00  0.00000000000E+00 -0.49058653065E+03  0.15133763095E+04  0.14316538374E+04 0.  0.
        1    1    3    3  502    0 -0.50967744090E+03  0.33433934732E+03  0.15143572825E+03  0.62808174050E+03  0.50400001928E-02 0.  1.
       -1    1    3    3    0  502  0.50967744090E+03 -0.33433934732E+03 -0.64202225890E+03  0.88529456899E+03  0.50400001928E-02 0. -1.
</event>
<event>
 5   0  0.2163800E-05  0.2051591E+04  0.7818609E-02  0.8582873E-01
       -1   -1    0    0    0  501  0.00000000000E+00  0.00000000000E+00  0.90108550224E+03  0.90108550226E+03  0.50400001928E-02 0. -1.
        1   -1    0    0  501    0  0.00000000000E+00  0.00000000000E+00 -0.11677656756E+04  0.11677656756E+04  0.50400001928E-02 0.  1.
    10030    2    1    2    0    0  0.00000000000E+00  0.00000000000E+00 -0.26668017331E+03  0.20688511778E+04  0.20515913046E+04 0.  0.
        1    1    3    3  502    0 -0.49997246581E+03  0.27993277526E+03 -0.99133409944E+03  0.11450231971E+04  0.50400001928E-02 0.  1.
       -1    1    3    3    0  502  0.49997246581E+03 -0.27993277526E+03  0.72465392613E+03  0.92382798069E+03  0.50400001928E-02 0. -1.
</event>
<event>
 5   0  0.5049803E-05  0.2572051E+04  0.7818609E-02  0.8377757E-01
        2   -1    0    0  501    0  0.00000000000E+00  0.00000000000E+00  0.13562820236E+04  0.13562820236E+04  0.25500000920E-02 0.  1.
       -2   -1    0    0    0  501  0.00000000000E+00  0.00000000000E+00 -0.12194083604E+04  0.12194083604E+04  0.25500000920E-02 0. -1.
    10030    2    1    2    0    0  0.00000000000E+00  0.00000000000E+00  0.13687366322E+03  0.25756903840E+04  0.25720510404E+04 0.  0.
        4    1    3    3  502    0  0.61409627455E+03 -0.82361531283E+03 -0.70622324709E+03  0.12466793114E+04  0.12699999809E+01 0. -1.
       -4    1    3    3    0  502 -0.61409627455E+03  0.82361531283E+03  0.84309691030E+03  0.13290110726E+04  0.12699999809E+01 0.  1.
</event>
<event>
 5   0  0.2159405E-05  0.2750888E+04  0.7818609E-02  0.8318680E-01
       -1   -1    0    0    0  501  0.00000000000E+00  0.00000000000E+00  0.90454933058E+03  0.90454933059E+03  0.50400001928E-02 0.  1.
        1   -1    0    0  501    0  0.00000000000E+00  0.00000000000E+00 -0.20914792049E+04  0.20914792049E+04  0.50400001928E-02 0. -1.
    10030    2    1    2    0    0  0.00000000000E+00  0.00000000000E+00 -0.11869298743E+04  0.29960285355E+04  0.27508879401E+04 0.  0.
        3    1    3    3  502    0  0.50575211178E+03 -0.93823856307E+03  0.35335560265E+03  0.11229145078E+04  0.10100000352E+00 0.  1.
       -3    1    3    3    0  502 -0.50575211178E+03  0.93823856307E+03 -0.15402854770E+04  0.18731140277E+04  0.10100000352E+00 0. -1.
</event>
<event>
 5   0  0.5049803E-05  0.1921433E+04  0.7818609E-02  0.8644261E-01
        2   -1    0    0  501    0  0.00000000000E+00  0.00000000000E+00  0.77185812230E+03  0.77185812231E+03  0.25500000920E-02 0. -1.
       -2   -1    0    0    0  501  0.00000000000E+00  0.00000000000E+00 -0.11957844046E+04  0.11957844046E+04  0.25500000920E-02 0.  1.
    10030    2    1    2    0    0  0.00000000000E+00  0.00000000000E+00 -0.42392628231E+03  0.19676425269E+04  0.19214327001E+04 0.  0.
        4    1    3    3  502    0  0.82463500040E+03  0.41368305609E+03  0.62470206120E+02  0.92469491960E+03  0.12699999809E+01 0. -1.
       -4    1    3    3    0  502 -0.82463500040E+03 -0.41368305609E+03 -0.48639648843E+03  0.10429476073E+04  0.12699999809E+01 0.  1.
</event>
<event>
 5   0  0.5182179E-05  0.2584458E+04  0.7818609E-02  0.8373500E-01
        2   -1    0    0  501    0  0.00000000000E+00  0.00000000000E+00  0.28010331899E+04  0.28010331899E+04  0.25500000920E-02 0. -1.
       -2   -1    0    0    0  501  0.00000000000E+00  0.00000000000E+00 -0.59615716144E+03  0.59615716144E+03  0.25500000920E-02 0.  1.
    10030    2    1    2    0    0  0.00000000000E+00  0.00000000000E+00  0.22048760284E+04  0.33971903513E+04  0.25844581603E+04 0.  0.
        3    1    3    3  502    0  0.72035509256E+03 -0.10568259814E+04  0.85983611941E+03  0.15411394411E+04  0.10100000352E+00 0. -1.
       -3    1    3    3    0  502 -0.72035509256E+03  0.10568259814E+04  0.13450399090E+04  0.18560509103E+04  0.10100000352E+00 0.  1.
</event>
<event>
 5   0  0.5170532E-05  0.2599412E+04  0.7818609E-02  0.8368401E-01
        2   -1    0    0  501    0  0.00000000000E+00  0.00000000000E+00  0.13385653337E+04  0.13385653337E+04  0.25500000920E-02 0. -1.
       -2   -1    0    0    0  501  0.00000000000E+00  0.00000000000E+00 -0.12619752606E+04  0.12619752606E+04  0.25500000920E-02 0.  1.
    10030    2    1    2    0    0  0.00000000000E+00  0.00000000000E+00  0.76590073063E+02  0.26005405943E+04  0.25994124996E+04 0.  0.
        1    1    3    3  502    0 -0.73389547602E+03 -0.48471602532E+03 -0.91903410834E+03  0.12720754251E+04  0.50400001928E-02 0.  1.
       -1    1    3    3    0  502  0.73389547602E+03  0.48471602532E+03  0.99562418140E+03  0.13284651691E+04  0.50400001928E-02 0. -1.
</event>
<event>
 5   0  0.5049803E-05  0.2311387E+04  0.7818609E-02  0.8473445E-01
        2   -1    0    0  501    0  0.00000000000E+00  0.00000000000E+00  0.27420968672E+04  0.27420968672E+04  0.25500000920E-02 0. -1.
       -2   -1    0    0    0  501  0.00000000000E+00  0.00000000000E+00 -0.48708256520E+03  0.48708256520E+03  0.25500000920E-02 0.  1.
    10030    2    1    2    0    0  0.00000000000E+00  0.00000000000E+00  0.22550143020E+04  0.32291794324E+04  0.23113870953E+04 0.  0.
        4    1    3    3  502    0  0.25022506565E+03 -0.61014527068E+03 -0.19841578975E+03  0.68866557438E+03  0.12699999809E+01 0.  1.
       -4    1    3    3    0  502 -0.25022506565E+03  0.61014527068E+03  0.24534300918E+04  0.25405138580E+04  0.12699999809E+01 0. -1.
</event>
<event>
 5   0  0.2159405E-05  0.2614258E+04  0.7818609E-02  0.8363374E-01
        1   -1    0    0  501    0  0.00000000000E+00  0.00000000000E+00  0.11626384441E+04  0.11626384441E+04  0.50400001928E-02 0.  1.
       -1   -1    0    0    0  501  0.00000000000E+00  0.00000000000E+00 -0.14695769964E+04  0.14695769964E+04  0.50400001928E-02 0. -1.
    10030    2    1    2    0    0  0.00000000000E+00  0.00000000000E+00 -0.30693855225E+03  0.26322154405E+04  0.26142583749E+04 0.  0.
        3    1    3    3  502    0  0.29138425013E+03 -0.29187458376E+03  0.10954099033E+04  0.11704778598E+04  0.10100000352E+00 0.  1.
       -3    1    3    3    0  502 -0.29138425013E+03  0.29187458376E+03 -0.14023484556E+04  0.14617375807E+04  0.10100000352E+00 0. -1.
</event>
<event>
 5   0  0.5182179E-05  0.2564154E+04  0.7818609E-02  0.8380480E-01
        2   -1    0    0  501    0  0.00000000000E+00  0.00000000000E+00  0.14022257768E+04  0.14022257768E+04  0.25500000920E-02 0. -1.
       -2   -1    0    0    0  501  0.00000000000E+00  0.00000000000E+00 -0.11722230262E+04  0.11722230262E+04  0.25500000920E-02 0.  1.
    10030    2    1    2    0    0  0.00000000000E+00  0.00000000000E+00  0.23000275055E+03  0.25744488030E+04  0.25641539295E+04 0.  0.
        3    1    3    3  502    0  0.36641391430E+03  0.27907256264E+03  0.13162919823E+04  0.13945484017E+04  0.10100000352E+00 0. -1.
       -3    1    3    3    0  502 -0.36641391430E+03 -0.27907256264E+03 -0.10862892318E+04  0.11799004013E+04  0.10100000352E+00 0.  1.
</event>
<event>
 5   0  0.2159405E-05  0.2307648E+04  0.7818609E-02  0.8474912E-01
        1   -1    0    0  501    0  0.00000000000E+00  0.00000000000E+00  0.14339547090E+04  0.14339547090E+04  0.50400001928E-02 0.  1.
       -1   -1    0    0    0  501  0.00000000000E+00  0.00000000000E+00 -0.92841826786E+03  0.92841826787E+03  0.50400001928E-02 0. -1.
    10030    2    1    2    0    0  0.00000000000E+00  0.00000000000E+00  0.50553644110E+03  0.23623729768E+04  0.23076479342E+04 0.  0.
        3    1    3    3  502    0  0.18553505946E+03 -0.10970415093E+04  0.56560711616E+03  0.12481325056E+04  0.10100000352E+00 0.  1.
       -3    1    3    3    0  502 -0.18553505946E+03  0.10970415093E+04 -0.60070675058E+02  0.11142404712E+04  0.10100000352E+00 0. -1.
</event>
<event>
 5   0  0.5049803E-05  0.2581866E+04  0.7818609E-02  0.8374387E-01
       -2   -1    0    0    0  501  0.00000000000E+00  0.00000000000E+00  0.12738448838E+04  0.12738448838E+04  0.25500000920E-02 0. -1.
        2   -1    0    0  501    0  0.00000000000E+00  0.00000000000E+00 -0.13082505393E+04  0.13082505393E+04  0.25500000920E-02 0.  1.
    10030    2    1    2    0    0  0.00000000000E+00  0.00000000000E+00 -0.34405655512E+02  0.25820954232E+04  0.25818661904E+04 0.  0.
        4    1    3    3  502    0 -0.10354313870E+04 -0.61749691616E+03 -0.47885625240E+03  0.12971991065E+04  0.12699999809E+01 0.  1.
       -4    1    3    3    0  502  0.10354313870E+04  0.61749691616E+03  0.44445059689E+03  0.12848963167E+04  0.12699999809E+01 0. -1.
</event>
<event>
 5   0  0.5036452E-05  0.2577274E+04  0.7818609E-02  0.8375962E-01
       -2   -1    0    0    0  501  0.00000000000E+00  0.00000000000E+00  0.88546877295E+03  0.88546877295E+03  0.25500000920E-02 0. -1.
        2   -1    0    0  501    0  0.00000000000E+00  0.00000000000E+00 -0.18753742717E+04  0.18753742717E+04  0.25500000920E-02 0.  1.
    10030    2    1    2    0    0  0.00000000000E+00  0.00000000000E+00 -0.98990549874E+03  0.27608430446E+04  0.25772740290E+04 0.  0.
        2    1    3    3  502    0 -0.39393064058E+03  0.11635096509E+04 -0.77794033431E+02  0.12308484752E+04  0.25500000920E-02 0. -1.
       -2    1    3    3    0  502  0.39393064058E+03 -0.11635096509E+04 -0.91211146531E+03  0.15299945694E+04  0.25500000920E-02 0.  1.
</event>
<event>
 5   0  0.5170532E-05  0.2599693E+04  0.7818609E-02  0.8368306E-01
       -2   -1    0    0    0  501  0.00000000000E+00  0.00000000000E+00  0.16168538208E+04  0.16168538208E+04  0.25500000920E-02 0. -1.
        2   -1    0    0  501    0  0.00000000000E+00  0.00000000000E+00 -0.10449927764E+04  0.10449927764E+04  0.25500000920E-02 0.  1.
    10030    2    1    2    0    0  0.00000000000E+00  0.00000000000E+00  0.57186104435E+03  0.26618465972E+04  0.25996927228E+04 0.  0.
        1    1    3    3  502    0  0.15305678354E+03  0.20774046593E+03 -0.10185052020E+04  0.10506832666E+04  0.50400001928E-02 0.  1.
       -1    1    3    3    0  502 -0.15305678354E+03 -0.20774046593E+03  0.15903662464E+04  0.16111633306E+04  0.50400001928E-02 0. -1.
</event>
<event>
 5   0  0.5182179E-05  0.2520135E+04  0.7818609E-02  0.8395847E-01
        2   -1    0    0  501    0  0.00000000000E+00  0.00000000000E+00  0.16182578385E+04  0.16182578385E+04  0.25500000920E-02 0.  1.
       -2   -1    0    0    0  501  0.00000000000E+00  0.00000000000E+00 -0.98116033353E+03  0.98116033353E+03  0.25500000920E-02 0. -1.
    10030    2    1    2    0    0  0.00000000000E+00  0.00000000000E+00  0.63709750501E+03  0.25994181721E+04  0.25201352349E+04 0.  0.
        3    1    3    3  502    0 -0.76883769501E+02  0.56573736585E+03  0.14771864469E+04  0.15836823198E+04  0.10100000352E+00 0.  1.
       -3    1    3    3    0  502  0.76883769501E+02 -0.56573736585E+03 -0.84008894185E+03  0.10157358523E+04  0.10100000352E+00 0. -1.
</event>
<event>
 5   0  0.5036452E-05  0.2344358E+04  0.7818609E-02  0.8460634E-01
        2   -1    0    0  501    0  0.00000000000E+00  0.00000000000E+00  0.17621795467E+04  0.17621795467E+04  0.25500000920E-02 0. -1.
       -2   -1    0    0    0  501  0.00000000000E+00  0.00000000000E+00 -0.77971839303E+03  0.77971839303E+03  0.25500000920E-02 0.  1.
    10030    2    1    2    0    0  0.00000000000E+00  0.00000000000E+00  0.98246115367E+03  0.25418979397E+04  0.23443581675E+04 0.  0.
        2    1    3    3  502    0 -0.89171676287E+03  0.48004283460E+03 -0.14876304725E+03  0.10235870029E+04  0.25500000920E-02 0.  1.
       -2    1    3    3    0  502  0.89171676287E+03 -0.48004283460E+03  0.11312242009E+04  0.15183109369E+04  0.25500000920E-02 0. -1.
</event>
<event>
 5   0  0.1954502E-05  0.2607692E+04  0.7818609E-02  0.8365593E-01
       -1   -1    0    0    0  501  0.00000000000E+00  0.00000000000E+00  0.11617387590E+04  0.11617387590E+04  0.50400001928E-02 0. -1.
        1   -1    0    0  501    0  0.00000000000E+00  0.00000000000E+00 -0.14633366653E+04  0.14633366653E+04  0.50400001928E-02 0.  1.
    10030    2    1    2    0    0  0.00000000000E+00  0.00000000000E+00 -0.30159790630E+03  0.26250754243E+04  0.26076924064E+04 0.  0.
        4    1    3    3  502    0 -0.29385215516E+02  0.12904968399E+04  0.34185963359E+02  0.12912845844E+04  0.12699999809E+01 0.  1.
       -4    1    3    3    0  502  0.29385215516E+02 -0.12904968399E+04 -0.33578386966E+03  0.13337908400E+04  0.12699999809E+01 0. -1.
</event>
<event>
 5   0  0.2072710E-05  0.2503311E+04  0.7818609E-02  0.8401807E-01
        1   -1    0    0  501    0  0.00000000000E+00  0.00000000000E+00  0.11341371314E+04  0.11341371314E+04  0.50400001928E-02 0.  1.
       -1   -1    0    0    0  501  0.00000000000E+00  0.00000000000E+00 -0.13813507328E+04  0.13813507328E+04  0.50400001928E-02 0. -1.
    10030    2    1    2    0    0  0.00000000000E+00  0.00000000000E+00 -0.24721360136E+03  0.25154878642E+04  0.25033107338E+04 0.  0.
        2    1    3    3  502    0 -0.12001752438E+04 -0.31090067733E+03  0.49163586454E+02  0.12407646454E+04  0.25500000920E-02 0.  1.
       -2    1    3    3    0  502  0.12001752438E+04  0.31090067733E+03 -0.29637718782E+03  0.12747232188E+04  0.25500000920E-02 0. -1.
</event>
<event>
 5   0  0.1954502E-05  0.2615888E+04  0.7818609E-02  0.8362824E-01
       -1   -1    0    0    0  501  0.00000000000E+00  0.00000000000E+00  0.11681991162E+04  0.11681991162E+04  0.50400001928E-02 0.  1.
        1   -1    0    0  501    0  0.00000000000E+00  0.00000000000E+00 -0.14644060704E+04  0.14644060704E+04  0.50400001928E-02 0. -1.
    10030    2    1    2    0    0  0.00000000000E+00  0.00000000000E+00 -0.29620695413E+03  0.26326051866E+04  0.26158882829E+04 0.  0.
        4    1    3    3  502    0  0.79428576090E+03 -0.10045082728E+04  0.11965981378E+03  0.12861752695E+04  0.12699999809E+01 0.  1.
       -4    1    3    3    0  502 -0.79428576090E+03  0.10045082728E+04 -0.41586676790E+03  0.13464299171E+04  0.12699999809E+01 0. -1.
</event>
<event>
 5   0  0.1993815E-05  0.2572741E+04  0.7818609E-02  0.8377520E-01
        1   -1    0    0  501    0  0.00000000000E+00  0.00000000000E+00  0.22600281247E+04  0.22600281247E+04  0.50400001928E-02 0.  1.
       -1   -1    0    0    0  501  0.00000000000E+00  0.00000000000E+00 -0.73218063890E+03  0.73218063891E+03  0.50400001928E-02 0. -1.
    10030    2    1    2    0    0  0.00000000000E+00  0.00000000000E+00  0.15278474858E+04  0.29922087636E+04  0.25727408236E+04 0.  0.
        5    1    3    3  502    0  0.86316846439E+03 -0.83811074401E+03  0.23446777736E+03  0.12257596199E+04  0.46999998093E+01 0. -1.
       -5    1    3    3    0  502 -0.86316846439E+03  0.83811074401E+03  0.12933797085E+04  0.17664491437E+04  0.46999998093E+01 0.  1.
</event>
<event>
 5   0  0.1993815E-05  0.1658894E+04  0.7818609E-02  0.8785162E-01
        1   -1    0    0  501    0  0.00000000000E+00  0.00000000000E+00  0.85733985622E+03  0.85733985624E+03  0.50400001928E-02 0. -1.
       -1   -1    0    0    0  501  0.00000000000E+00  0.00000000000E+00 -0.80246136597E+03  0.80246136599E+03  0.50400001928E-02 0.  1.
    10030    2    1    2    0    0  0.00000000000E+00  0.00000000000E+00  0.54878490251E+02  0.16598012222E+04  0.16588937424E+04 0.  0.
        5    1    3    3  502    0  0.56622890464E+03  0.34076290494E+03 -0.47405893817E+03  0.81331943091E+03  0.46999998093E+01 0.  1.
       -5    1    3    3    0  502 -0.56622890464E+03 -0.34076290494E+03  0.52893742843E+03  0.84648179131E+03  0.46999998093E+01 0. -1.
</event>
<event>
 5   0  0.5182179E-05  0.1721995E+04  0.7818609E-02  0.8748918E-01
        2   -1    0    0  501    0  0.00000000000E+00  0.00000000000E+00  0.90134103583E+03  0.90134103584E+03  0.25500000920E-02 0. -1.
       -2   -1    0    0    0  501  0.00000000000E+00  0.00000000000E+00 -0.82245978906E+03  0.82245978907E+03  0.25500000920E-02 0.  1.
    10030    2    1    2    0    0  0.00000000000E+00  0.00000000000E+00  0.78881246770E+02  0.17238008249E+04  0.17219950734E+04 0.  0.
        3    1    3    3  502    0 -0.32371496336E+02  0.31597423847E+03  0.84054796776E+03  0.89855914077E+03  0.10100000352E+00 0. -1.
       -3    1    3    3    0  502  0.32371496336E+02 -0.31597423847E+03 -0.76166672099E+03  0.82524168413E+03  0.10100000352E+00 0.  1.
</event>
<event>
 5   0  0.5182179E-05  0.2292066E+04  0.7818609E-02  0.8481056E-01
        2   -1    0    0  501    0  0.00000000000E+00  0.00000000000E+00  0.18563094977E+04  0.18563094977E+04  0.25500000920E-02 0.  1.
       -2   -1    0    0    0  501  0.00000000000E+00  0.00000000000E+00 -0.70752862739E+03  0.70752862740E+03  0.25500000920E-02 0. -1.
    10030    2    1    2    0    0  0.00000000000E+00  0.00000000000E+00  0.11487808703E+04  0.25638381251E+04  0.22920664135E+04 0.  0.
        3    1    3    3  502    0  0.59370592821E+03  0.45694648888E+03  0.15444596494E+04  0.17165787024E+04  0.10100000352E+00 0.  1.
       -3    1    3    3    0  502 -0.59370592821E+03 -0.45694648888E+03 -0.39567877907E+03  0.84725942267E+03  0.10100000352E+00 0. -1.
</event>
<event>
 5   0  0.1698625E-05  0.2628374E+04  0.7818609E-02  0.8358627E-01
        3   -1    0    0  501    0  0.00000000000E+00  0.00000000000E+00  0.95126941565E+03  0.95126942101E+03  0.10100000352E+00 0.  1.
       -3   -1    0    0    0  501  0.00000000000E+00  0.00000000000E+00 -0.18155604525E+04  0.18155604553E+04  0.10100000352E+00 0. -1.
    10030    2    1    2    0    0  0.00000000000E+00  0.00000000000E+00 -0.86429103682E+03  0.27668298763E+04  0.26283737497E+04 0.  0.
        4    1    3    3  502    0  0.23902960699E+03 -0.37433155443E+03  0.86987069297E+03  0.97669642215E+03  0.12699999809E+01 0.  1.
       -4    1    3    3    0  502 -0.23902960699E+03  0.37433155443E+03 -0.17341617298E+04  0.17901334541E+04  0.12699999809E+01 0. -1.
</event>
<event>
 5   0  0.5170532E-05  0.2642740E+04  0.7818609E-02  0.8353827E-01
       -2   -1    0    0    0  501  0.00000000000E+00  0.00000000000E+00  0.11813982073E+04  0.11813982073E+04  0.25500000920E-02 0.  1.
        2   -1    0    0  501    0  0.00000000000E+00  0.00000000000E+00 -0.14779258996E+04  0.14779258996E+04  0.25500000920E-02 0. -1.
    10030    2    1    2    0    0  0.00000000000E+00  0.00000000000E+00 -0.29652769227E+03  0.26593241068E+04  0.26427402508E+04 0.  0.
        1    1    3    3  502    0  0.93511198412E+02  0.85873993180E+03 -0.11544587890E+04  0.14418577289E+04  0.50400001928E-02 0. -1.
       -1    1    3    3    0  502 -0.93511198412E+02 -0.85873993180E+03  0.85793109676E+03  0.12174663780E+04  0.50400001928E-02 0.  1.
</event>
<event>
 5   0  0.2072710E-05  0.2460646E+04  0.7818609E-02  0.8417141E-01
        1   -1    0    0  501    0  0.00000000000E+00  0.00000000000E+00  0.32971695772E+04  0.32971695773E+04  0.50400001928E-02 0.  1.
       -1   -1    0    0    0  501  0.00000000000E+00  0.00000000000E+00 -0.45908911361E+03  0.45908911364E+03  0.50400001928E-02 0. -1.
    10030    2    1    2    0    0  0.00000000000E+00  0.00000000000E+00  0.28380804636E+04  0.37562586909E+04  0.24606459792E+04 0.  0.
        2    1    3    3  502    0  0.10418952645E+04 -0.50303284378E+03  0.20578300092E+04  0.23607736297E+04  0.25500000920E-02 0.  1.
       -2    1    3    3    0  502 -0.10418952645E+04  0.50303284378E+03  0.78025045447E+03  0.13954850612E+04  0.25500000920E-02 0. -1.
</event>
<event>
 5   0  0.5182179E-05  0.2545302E+04  0.7818609E-02  0.8387022E-01
        2   -1    0    0  501    0  0.00000000000E+00  0.00000000000E+00  0.21670715703E+04  0.21670715703E+04  0.25500000920E-02 0. -1.
       -2   -1    0    0    0  501  0.00000000000E+00  0.00000000000E+00 -0.74738676074E+03  0.74738676075E+03  0.25500000920E-02 0.  1.
    10030    2    1    2    0    0  0.00000000000E+00  0.00000000000E+00  0.14196848095E+04  0.29144583310E+04  0.25453020262E+04 0.  0.
        3    1    3    3  502    0  0.57767974352E+03 -0.67308613284E+03  0.17548277585E+04  0.19662602321E+04  0.10100000352E+00 0. -1.
       -3    1    3    3    0  502 -0.57767974352E+03  0.67308613284E+03 -0.33514294896E+03  0.94819809889E+03  0.10100000352E+00 0.  1.
</event>
<event>
 5   0  0.5049803E-05  0.1457490E+04  0.7818609E-02  0.8913225E-01
        2   -1    0    0  501    0  0.00000000000E+00  0.00000000000E+00  0.81044311416E+03  0.81044311417E+03  0.25500000920E-02 0. -1.
       -2   -1    0    0    0  501  0.00000000000E+00  0.00000000000E+00 -0.65528216436E+03  0.65528216436E+03  0.25500000920E-02 0.  1.
    10030    2    1    2    0    0  0.00000000000E+00  0.00000000000E+00  0.15516094981E+03  0.14657252785E+04  0.14574895100E+04 0.  0.
        4    1    3    3  502    0  0.32423369314E+03  0.50564261765E+03  0.49254435071E+03  0.77679050900E+03  0.12699999809E+01 0. -1.
       -4    1    3    3    0  502 -0.32423369314E+03 -0.50564261765E+03 -0.33738340090E+03  0.68893476953E+03  0.12699999809E+01 0.  1.
</event>
<event>
 5   0  0.4955675E-05  0.2666947E+04  0.7818609E-02  0.8345810E-01
        2   -1    0    0  501    0  0.00000000000E+00  0.00000000000E+00  0.13569337404E+04  0.13569337404E+04  0.25500000920E-02 0. -1.
       -2   -1    0    0    0  501  0.00000000000E+00  0.00000000000E+00 -0.13104189294E+04  0.13104189294E+04  0.25500000920E-02 0.  1.
    10030    2    1    2    0    0  0.00000000000E+00  0.00000000000E+00  0.46514811068E+02  0.26673526698E+04  0.26669470631E+04 0.  0.
        5    1    3    3  502    0 -0.10881286161E+04  0.38312247991E+03 -0.64566629975E+03  0.13220112633E+04  0.46999998093E+01 0.  1.
       -5    1    3    3    0  502  0.10881286161E+04 -0.38312247991E+03  0.69218111081E+03  0.13453414065E+04  0.46999998093E+01 0. -1.
</event>
<event>
 5   0  0.2163800E-05  0.2581009E+04  0.7818609E-02  0.8374681E-01
        1   -1    0    0  501    0  0.00000000000E+00  0.00000000000E+00  0.16384170394E+04  0.16384170394E+04  0.50400001928E-02 0.  1.
       -1   -1    0    0    0  501  0.00000000000E+00  0.00000000000E+00 -0.10164701680E+04  0.10164701680E+04  0.50400001928E-02 0. -1.
    10030    2    1    2    0    0  0.00000000000E+00  0.00000000000E+00  0.62194687140E+03  0.26548872075E+04  0.25810091386E+04 0.  0.
        1    1    3    3  502    0 -0.16360826471E+03 -0.77732442046E+03  0.13571404548E+04  0.15725238100E+04  0.50400001928E-02 0.  1.
       -1    1    3    3    0  502  0.16360826471E+03  0.77732442046E+03 -0.73519358345E+03  0.10823633974E+04  0.50400001928E-02 0. -1.
</event>
<event>
 5   0  0.2159405E-05  0.2582413E+04  0.7818609E-02  0.8374200E-01
        1   -1    0    0  501    0  0.00000000000E+00  0.00000000000E+00  0.14480718627E+04  0.14480718627E+04  0.50400001928E-02 0.  1.
       -1   -1    0    0    0  501  0.00000000000E+00  0.00000000000E+00 -0.11513338737E+04  0.11513338737E+04  0.50400001928E-02 0. -1.
    10030    2    1    2    0    0  0.00000000000E+00  0.00000000000E+00  0.29673798899E+03  0.25994057364E+04  0.25824129701E+04 0.  0.
        3    1    3    3  502    0 -0.23073921437E+03 -0.12469175588E+04  0.39321886181E+03  0.13276539711E+04  0.10100000352E+00 0.  1.
       -3    1    3    3    0  502  0.23073921437E+03  0.12469175588E+04 -0.96480872821E+02  0.12717517653E+04  0.10100000352E+00 0. -1.
</event>
<event>
 5   0  0.1954502E-05  0.2574878E+04  0.7818609E-02  0.8376785E-01
        1   -1    0    0  501    0  0.00000000000E+00  0.00000000000E+00  0.22770035412E+04  0.22770035412E+04  0.50400001928E-02 0. -1.
       -1   -1    0    0    0  501  0.00000000000E+00  0.00000000000E+00 -0.72792971547E+03  0.72792971549E+03  0.50400001928E-02 0.  1.
    10030    2    1    2    0    0  0.00000000000E+00  0.00000000000E+00  0.15490738258E+04  0.30049332567E+04  0.25748775038E+04 0.  0.
        4    1    3    3  502    0 -0.80130680962E+01 -0.10961010071E+04 -0.13521555901E+02  0.10962144281E+04  0.12699999809E+01 0.  1.
       -4    1    3    3    0  502  0.80130680962E+01  0.10961010071E+04  0.15625953817E+04  0.19087188286E+04  0.12699999809E+01 0. -1.
</event>
<event>
 5   0  0.1993815E-05  0.2529115E+04  0.7818609E-02  0.8392686E-01
        1   -1    0    0  501    0  0.00000000000E+00  0.00000000000E+00  0.13084893772E+04  0.13084893772E+04  0.50400001928E-02 0. -1.
       -1   -1    0    0    0  501  0.00000000000E+00  0.00000000000E+00 -0.12221008974E+04  0.12221008974E+04  0.50400001928E-02 0.  1.
    10030    2    1    2    0    0  0.00000000000E+00  0.00000000000E+00  0.86388479795E+02  0.25305902747E+04  0.25291152937E+04 0.  0.
        5    1    3    3  502    0  0.33845412151E+03 -0.19587724122E+03 -0.11600730479E+04  0.12242183843E+04  0.46999998093E+01 0.  1.
       -5    1    3    3    0  502 -0.33845412151E+03  0.19587724122E+03  0.12464615277E+04  0.13063718904E+04  0.46999998093E+01 0. -1.
</event>
<event>
 5   0  0.5182179E-05  0.2620550E+04  0.7818609E-02  0.8361254E-01
       -2   -1    0    0    0  501  0.00000000000E+00  0.00000000000E+00  0.79046416327E+03  0.79046416327E+03  0.25500000920E-02 0. -1.
        2   -1    0    0  501    0  0.00000000000E+00  0.00000000000E+00 -0.21719137719E+04  0.21719137719E+04  0.25500000920E-02 0.  1.
    10030    2    1    2    0    0  0.00000000000E+00  0.00000000000E+00 -0.13814496086E+04  0.29623779352E+04  0.26205495625E+04 0.  0.
        3    1    3    3  502    0  0.71687214194E+03  0.84459132916E+03  0.10024487636E+03  0.11123350334E+04  0.10100000352E+00 0. -1.
       -3    1    3    3    0  502 -0.71687214194E+03 -0.84459132916E+03 -0.14816944850E+04  0.18500429017E+04  0.10100000352E+00 0.  1.
</event>
<event>
 5   0  0.2072710E-05  0.1518914E+04  0.7818609E-02  0.8871972E-01
        1   -1    0    0  501    0  0.00000000000E+00  0.00000000000E+00  0.74668421121E+03  0.74668421122E+03  0.50400001928E-02 0. -1.
       -1   -1    0    0    0  501  0.00000000000E+00  0.00000000000E+00 -0.77244814217E+03  0.77244814219E+03  0.50400001928E-02 0.  1.
    10030    2    1    2    0    0  0.00000000000E+00  0.00000000000E+00 -0.25763930962E+02  0.15191323534E+04  0.15189138643E+04 0.  0.
        2    1    3    3  502    0 -0.36098680095E+03  0.64394012537E+03  0.16548178296E+03  0.75654119255E+03  0.25500000920E-02 0.  1.
       -2    1    3    3    0  502  0.36098680095E+03 -0.64394012537E+03 -0.19124571392E+03  0.76259116086E+03  0.25500000920E-02 0. -1.
</event>
<event>
 5   0  0.1954502E-05  0.2607633E+04  0.7818609E-02  0.8365613E-01
        1   -1    0    0  501    0  0.00000000000E+00  0.00000000000E+00  0.13650313797E+04  0.13650313797E+04  0.50400001928E-02 0.  1.
       -1   -1    0    0    0  501  0.00000000000E+00  0.00000000000E+00 -0.12453472363E+04  0.12453472363E+04  0.50400001928E-02 0. -1.
    10030    2    1    2    0    0  0.00000000000E+00  0.00000000000E+00  0.11968414340E+03  0.26103786160E+04  0.26076334529E+04 0.  0.
        4    1    3    3  502    0 -0.15885145724E+03 -0.12572238229E+04  0.36690741960E+03  0.13192680523E+04  0.12699999809E+01 0.  1.
       -4    1    3    3    0  502  0.15885145724E+03  0.12572238229E+04 -0.24722327619E+03  0.12911105637E+04  0.12699999809E+01 0. -1.
</event>
<event>
 5   0  0.2159405E-05  0.1413137E+04  0.7818609E-02  0.8944364E-01
       -1   -1    0    0    0  501  0.00000000000E+00  0.00000000000E+00  0.77626870215E+03  0.77626870217E+03  0.50400001928E-02 0.  1.
        1   -1    0    0  501    0  0.00000000000E+00  0.00000000000E+00 -0.64312693884E+03  0.64312693886E+03  0.50400001928E-02 0. -1.
    10030    2    1    2    0    0  0.00000000000E+00  0.00000000000E+00  0.13314176331E+03  0.14193956410E+04  0.14131373807E+04 0.  0.
        3    1    3    3  502    0  0.49021252356E+03  0.37325554864E+03 -0.28080939247E+03  0.67711295065E+03  0.10100000352E+00 0. -1.
       -3    1    3    3    0  502 -0.49021252356E+03 -0.37325554864E+03  0.41395115578E+03  0.74228269037E+03  0.10100000352E+00 0.  1.
</event>
<event>
 5   0  0.1954502E-05  0.2591305E+04  0.7818609E-02  0.8371161E-01
       -1   -1    0    0    0  501  0.00000000000E+00  0.00000000000E+00  0.10469960154E+04  0.10469960154E+04  0.50400001928E-02 0.  1.
        1   -1    0    0  501    0  0.00000000000E+00  0.00000000000E+00 -0.16033632841E+04  0.16033632842E+04  0.50400001928E-02 0. -1.
    10030    2    1    2    0    0  0.00000000000E+00  0.00000000000E+00 -0.55636726872E+03  0.26503592996E+04  0.25913046674E+04 0.  0.
        4    1    3    3  502    0 -0.95147375900E+03 -0.63270442752E+03  0.34655254932E+03  0.11940341239E+04  0.12699999809E+01 0.  1.
       -4    1    3    3    0  502  0.95147375900E+03  0.63270442752E+03 -0.90291981804E+03  0.14563251757E+04  0.12699999809E+01 0. -1.
</event>
<event>
 5   0  0.5036452E-05  0.2663779E+04  0.7818609E-02  0.8346854E-01
       -2   -1    0    0    0  501  0.00000000000E+00  0.00000000000E+00  0.14055952224E+04  0.14055952224E+04  0.25500000920E-02 0.  1.
        2   -1    0    0  501    0  0.00000000000E+00  0.00000000000E+00 -0.12620490252E+04  0.12620490252E+04  0.25500000920E-02 0. -1.
    10030    2    1    2    0    0  0.00000000000E+00  0.00000000000E+00  0.14354619719E+03  0.26676442476E+04  0.26637793304E+04 0.  0.
        2    1    3    3  502    0  0.12845507658E+03 -0.10382215903E+04  0.89730238358E+03  0.13782439352E+04  0.25500000920E-02 0.  1.
       -2    1    3    3    0  502 -0.12845507658E+03  0.10382215903E+04 -0.75375618639E+03  0.12894003125E+04  0.25500000920E-02 0. -1.
</event>
<event>
 5   0  0.4955675E-05  0.1542908E+04  0.7818609E-02  0.8856411E-01
       -2   -1    0    0    0  501  0.00000000000E+00  0.00000000000E+00  0.48911234679E+03  0.48911234680E+03  0.25500000920E-02 0.  1.
        2   -1    0    0  501    0  0.00000000000E+00  0.00000000000E+00 -0.12167778225E+04  0.12167778225E+04  0.25500000920E-02 0. -1.
    10030    2    1    2    0    0  0.00000000000E+00  0.00000000000E+00 -0.72766547570E+03  0.17058901693E+04  0.15429077177E+04 0.  0.
        5    1    3    3  502    0  0.12600526354E+03  0.62523384053E+03 -0.84363719510E+03  0.10576107454E+04  0.46999998093E+01 0. -1.
       -5    1    3    3    0  502 -0.12600526354E+03 -0.62523384053E+03  0.11597171939E+03  0.64827942393E+03  0.46999998093E+01 0.  1.
</event>
<event>
 5   0  0.5182179E-05  0.2375593E+04  0.7818609E-02  0.8448698E-01
        2   -1    0    0  501    0  0.00000000000E+00  0.00000000000E+00  0.16836339266E+04  0.16836339266E+04  0.25500000920E-02 0. -1.
       -2   -1    0    0    0  501  0.00000000000E+00  0.00000000000E+00 -0.83798560158E+03  0.83798560159E+03  0.25500000920E-02 0.  1.
    10030    2    1    2    0    0  0.00000000000E+00  0.00000000000E+00  0.84564832503E+03  0.25216195282E+04  0.23755933902E+04 0.  0.
        3    1    3    3  502    0 -0.44742793456E+03 -0.38284011153E+03 -0.67213826624E+03  0.89360403243E+03  0.10100000352E+00 0.  1.
       -3    1    3    3    0  502  0.44742793456E+03  0.38284011153E+03  0.15177865913E+04  0.16280154958E+04  0.10100000352E+00 0. -1.
</event>
<event>
 5   0  0.4955675E-05  0.2571830E+04  0.7818609E-02  0.8377833E-01
       -2   -1    0    0    0  501  0.00000000000E+00  0.00000000000E+00  0.58192003674E+03  0.58192003675E+03  0.25500000920E-02 0.  1.
        2   -1    0    0  501    0  0.00000000000E+00  0.00000000000E+00 -0.28415882773E+04  0.28415882773E+04  0.25500000920E-02 0. -1.
    10030    2    1    2    0    0  0.00000000000E+00  0.00000000000E+00 -0.22596682405E+04  0.34235083140E+04  0.25718298192E+04 0.  0.
        5    1    3    3  502    0  0.76812434853E+01 -0.38918733058E+02 -0.28407621269E+04  0.28410429811E+04  0.46999998093E+01 0. -1.
       -5    1    3    3    0  502 -0.76812434853E+01  0.38918733058E+02  0.58109388633E+03  0.58246533288E+03  0.46999998093E+01 0.  1.
</event>
<event>
 5   0  0.1954502E-05  0.2718537E+04  0.7818609E-02  0.8329015E-01
        1   -1    0    0  501    0  0.00000000000E+00  0.00000000000E+00  0.15402382570E+04  0.15402382570E+04  0.50400001928E-02 0. -1.
       -1   -1    0    0    0  501  0.00000000000E+00  0.00000000000E+00 -0.11995619595E+04  0.11995619595E+04  0.50400001928E-02 0.  1.
    10030    2    1    2    0    0  0.00000000000E+00  0.00000000000E+00  0.34067629752E+03  0.27398002166E+04  0.27185372697E+04 0.  0.
        4    1    3    3  502    0  0.43105364058E+03 -0.15624833352E+02 -0.11287582761E+04  0.12083659360E+04  0.12699999809E+01 0.  1.
       -4    1    3    3    0  502 -0.43105364058E+03  0.15624833352E+02  0.14694345737E+04  0.15314342805E+04  0.12699999809E+01 0. -1.
</event>
<event>
 5   0  0.1993815E-05  0.2580697E+04  0.7818609E-02  0.8374788E-01
       -1   -1    0    0    0  501  0.00000000000E+00  0.00000000000E+00  0.24650998067E+04  0.24650998067E+04  0.50400001928E-02 0.  1.
        1   -1    0    0  501    0  0.00000000000E+00  0.00000000000E+00 -0.67542864443E+03  0.67542864445E+03  0.50400001928E-02 0. -1.
    10030    2    1    2    0    0  0.00000000000E+00  0.00000000000E+00  0.17896711623E+04  0.31405284512E+04  0.25806968213E+04 0.  0.
        5    1    3    3  502    0  0.29778617655E+03  0.20526263095E+03 -0.61247290861E+03  0.71130479289E+03  0.46999998093E+01 0. -1.
       -5    1    3    3    0  502 -0.29778617655E+03 -0.20526263095E+03  0.24021440709E+04  0.24292236583E+04  0.46999998093E+01 0.  1.
</event>
<event>
 5   0  0.2159405E-05  0.1838565E+04  0.7818609E-02  0.8686056E-01
        1   -1    0    0  501    0  0.00000000000E+00  0.00000000000E+00  0.13774829118E+04  0.13774829118E+04  0.50400001928E-02 0.  1.
       -1   -1    0    0    0  501  0.00000000000E+00  0.00000000000E+00 -0.61349609597E+03  0.61349609599E+03  0.50400001928E-02 0. -1.
    10030    2    1    2    0    0  0.00000000000E+00  0.00000000000E+00  0.76398681584E+03  0.19909790078E+04  0.18385650804E+04 0.  0.
        3    1    3    3  502    0  0.16397913273E+03 -0.59257954109E+03 -0.35806337348E+03  0.71151181165E+03  0.10100000352E+00 0. -1.
       -3    1    3    3    0  502 -0.16397913273E+03  0.59257954109E+03  0.11220501893E+04  0.12794671962E+04  0.10100000352E+00 0.  1.
</event>
<event>
 5   0  0.1993815E-05  0.2602523E+04  0.7818609E-02  0.8367345E-01
       -1   -1    0    0    0  501  0.00000000000E+00  0.00000000000E+00  0.71015424045E+03  0.71015424047E+03  0.50400001928E-02 0. -1.
        1   -1    0    0  501    0  0.00000000000E+00  0.00000000000E+00 -0.23843857120E+04  0.23843857120E+04  0.50400001928E-02 0.  1.
    10030    2    1    2    0    0  0.00000000000E+00  0.00000000000E+00 -0.16742314715E+04  0.30945399525E+04  0.26025231021E+04 0.  0.
        5    1    3    3  502    0 -0.17748692158E+03 -0.73180419678E+02  0.69321198887E+03  0.71932046590E+03  0.46999998093E+01 0. -1.
       -5    1    3    3    0  502  0.17748692158E+03  0.73180419678E+02 -0.23674434604E+04  0.23752194866E+04  0.46999998093E+01 0.  1.
</event>
<event>
 5   0  0.5036452E-05  0.2582590E+04  0.7818609E-02  0.8374139E-01
       -2   -1    0    0    0  501  0.00000000000E+00  0.00000000000E+00  0.94549873169E+03  0.94549873170E+03  0.25500000920E-02 0. -1.
        2   -1    0    0  501    0  0.00000000000E+00  0.00000000000E+00 -0.17635588197E+04  0.17635588197E+04  0.25500000920E-02 0.  1.
    10030    2    1    2    0    0  0.00000000000E+00  0.00000000000E+00 -0.81806008800E+03  0.27090575514E+04  0.25825898840E+04 0.  0.
        2    1    3    3  502    0  0.30129846716E+03  0.12548024523E+04 -0.45747229021E+03  0.13691569877E+04  0.25500000920E-02 0. -1.
       -2    1    3    3    0  502 -0.30129846716E+03 -0.12548024523E+04 -0.36058779778E+03  0.13399005637E+04  0.25500000920E-02 0.  1.
</event>
<event>
 5   0  0.5182179E-05  0.1879683E+04  0.7818609E-02  0.8665036E-01
       -2   -1    0    0    0  501  0.00000000000E+00  0.00000000000E+00  0.41362167065E+03  0.41362167066E+03  0.25500000920E-02 0. -1.
        2   -1    0    0  501    0  0.00000000000E+00  0.00000000000E+00 -0.21355314075E+04  0.21355314075E+04  0.25500000920E-02 0.  1.
    10030    2    1    2    0    0  0.00000000000E+00  0.00000000000E+00 -0.17219097368E+04  0.25491530782E+04  0.18796830249E+04 0.  0.
        3    1    3    3  502    0 -0.39024387564E+03 -0.52057023436E+03  0.58856771915E+02  0.65325935216E+03  0.10100000352E+00 0. -1.
       -3    1    3    3    0  502  0.39024387564E+03  0.52057023436E+03 -0.17807665088E+04  0.18958937260E+04  0.10100000352E+00 0.  1.
</event>
<event>
 5   0  0.5182179E-05  0.2557852E+04  0.7818609E-02  0.8382661E-01
       -2   -1    0    0    0  501  0.00000000000E+00  0.00000000000E+00  0.64400450448E+03  0.64400450449E+03  0.25500000920E-02 0.  1.
        2   -1    0    0  501    0  0.00000000000E+00  0.00000000000E+00 -0.25398137132E+04  0.25398137132E+04  0.25500000920E-02 0. -1.
    10030    2    1    2    0    0  0.00000000000E+00  0.00000000000E+00 -0.18958092087E+04  0.31838182177E+04  0.25578518111E+04 0.  0.
        3    1    3    3  502    0  0.39056347746E+03  0.31912120531E+03  0.51498882743E+03  0.72082707786E+03  0.10100000352E+00 0.  1.
       -3    1    3    3    0  502 -0.39056347746E+03 -0.31912120531E+03 -0.24107980361E+04  0.24629911398E+04  0.10100000352E+00 0. -1.
</event>
<event>
 5   0  0.2072710E-05  0.2600073E+04  0.7818609E-02  0.8368176E-01
        1   -1    0    0  501    0  0.00000000000E+00  0.00000000000E+00  0.26078793486E+04  0.26078793486E+04  0.50400001928E-02 0. -1.
       -1   -1    0    0    0  501  0.00000000000E+00  0.00000000000E+00 -0.64807253277E+03  0.64807253279E+03  0.50400001928E-02 0.  1.
    10030    2    1    2    0    0  0.00000000000E+00  0.00000000000E+00  0.19598068158E+04  0.32559518814E+04  0.26000730564E+04 0.  0.
        2    1    3    3  502    0 -0.63960342653E+03 -0.57596768184E+03  0.21999765164E+04  0.23623564478E+04  0.25500000920E-02 0. -1.
       -2    1    3    3    0  502  0.63960342653E+03  0.57596768184E+03 -0.24016970062E+03  0.89359543355E+03  0.25500000920E-02 0.  1.
</event>
<event>
 5   0  0.5049803E-05  0.2555520E+04  0.7818609E-02  0.8383469E-01
        2   -1    0    0  501    0  0.00000000000E+00  0.00000000000E+00  0.25423082443E+04  0.25423082443E+04  0.25500000920E-02 0.  1.
       -2   -1    0    0    0  501  0.00000000000E+00  0.00000000000E+00 -0.64220030931E+03  0.64220030932E+03  0.25500000920E-02 0. -1.
    10030    2    1    2    0    0  0.00000000000E+00  0.00000000000E+00  0.19001079350E+04  0.31845085536E+04  0.25555204095E+04 0.  0.
        4    1    3    3  502    0  0.23884394254E+03 -0.12472845972E+04  0.77424712019E+03  0.14873552068E+04  0.12699999809E+01 0. -1.
       -4    1    3    3    0  502 -0.23884394254E+03  0.12472845972E+04  0.11258608148E+04  0.16971533468E+04  0.12699999809E+01 0.  1.
</event>
<event>
 5   0  0.5182179E-05  0.2037689E+04  0.7818609E-02  0.8589200E-01
       -2   -1    0    0    0  501  0.00000000000E+00  0.00000000000E+00  0.11901590015E+04  0.11901590015E+04  0.25500000920E-02 0.  1.
        2   -1    0    0  501    0  0.00000000000E+00  0.00000000000E+00 -0.87218928139E+03  0.87218928140E+03  0.25500000920E-02 0. -1.
    10030    2    1    2    0    0  0.00000000000E+00  0.00000000000E+00  0.31796972015E+03  0.20623482829E+04  0.20376888127E+04 0.  0.
        3    1    3    3  502    0  0.38361982570E+03 -0.23877880931E+03  0.10831974302E+04  0.11736678292E+04  0.10100000352E+00 0.  1.
       -3    1    3    3    0  502 -0.38361982570E+03  0.23877880931E+03 -0.76522771001E+03  0.88868045372E+03  0.10100000352E+00 0. -1.
</event>
<event>
 5   0  0.5182179E-05  0.2609668E+04  0.7818609E-02  0.8364925E-01
       -2   -1    0    0    0  501  0.00000000000E+00  0.00000000000E+00  0.90754427920E+03  0.90754427920E+03  0.25500000920E-02 0. -1.
        2   -1    0    0  501    0  0.00000000000E+00  0.00000000000E+00 -0.18760427330E+04  0.18760427330E+04  0.25500000920E-02 0.  1.
    10030    2    1    2    0    0  0.00000000000E+00  0.00000000000E+00 -0.96849845384E+03  0.27835870122E+04  0.26096680631E+04 0.  0.
        3    1    3    3  502    0  0.12514692420E+03 -0.80373710540E+03  0.60400835603E+03  0.10131540809E+04  0.10100000352E+00 0. -1.
       -3    1    3    3    0  502 -0.12514692420E+03  0.80373710540E+03 -0.15725068099E+04  0.17704329314E+04  0.10100000352E+00 0.  1.
</event>
<event>
 5   0  0.5182179E-05  0.2543060E+04  0.7818609E-02  0.8387804E-01
       -2   -1    0    0    0  501  0.00000000000E+00  0.00000000000E+00  0.63273947422E+03  0.63273947423E+03  0.25500000920E-02 0.  1.
        2   -1    0    0  501    0  0.00000000000E+00  0.00000000000E+00 -0.25552204564E+04  0.25552204564E+04  0.25500000920E-02 0. -1.
    10030    2    1    2    0    0  0.00000000000E+00  0.00000000000E+00 -0.19224809822E+04  0.31879599306E+04  0.25430602416E+04 0.  0.
        3    1    3    3  502    0 -0.16746871075E+03  0.11129076023E+04 -0.21941506882E+03  0.11466263920E+04  0.10100000352E+00 0.  1.
       -3    1    3    3    0  502  0.16746871075E+03 -0.11129076023E+04 -0.17030659134E+04  0.20413335386E+04  0.10100000352E+00 0. -1.
</event>
<event>
 5   0  0.4955675E-05  0.2566193E+04  0.7818609E-02  0.8379776E-01
        2   -1    0    0  501    0  0.00000000000E+00  0.00000000000E+00  0.11598334526E+04  0.11598334526E+04  0.25500000920E-02 0. -1.
       -2   -1    0    0    0  501  0.00000000000E+00  0.00000000000E+00 -0.14194593806E+04  0.14194593806E+04  0.25500000920E-02 0.  1.
    10030    2    1    2    0    0  0.00000000000E+00  0.00000000000E+00 -0.25962592790E+03  0.25792928332E+04  0.25661928799E+04 0.  0.
        5    1    3    3  502    0  0.11760107569E+04 -0.51246497612E+03 -0.10335880015E+03  0.12869835988E+04  0.46999998093E+01 0.  1.
       -5    1    3    3    0  502 -0.11760107569E+04  0.51246497612E+03 -0.15626712776E+03  0.12923092344E+04  0.46999998093E+01 0. -1.
</event>
<event>
 5   0  0.2159405E-05  0.2601653E+04  0.7818609E-02  0.8367640E-01
        1   -1    0    0  501    0  0.00000000000E+00  0.00000000000E+00  0.11138093728E+04  0.11138093728E+04  0.50400001928E-02 0.  1.
       -1   -1    0    0    0  501  0.00000000000E+00  0.00000000000E+00 -0.15192451008E+04  0.15192451008E+04  0.50400001928E-02 0. -1.
    10030    2    1    2    0    0  0.00000000000E+00  0.00000000000E+00 -0.40543572807E+03  0.26330544736E+04  0.26016528845E+04 0.  0.
        3    1    3    3  502    0 -0.75787238230E+03 -0.98498393480E+03 -0.59152333860E+03  0.13763952085E+04  0.10100000352E+00 0. -1.
       -3    1    3    3    0  502  0.75787238230E+03  0.98498393480E+03  0.18608761053E+03  0.12566592651E+04  0.10100000352E+00 0.  1.
</event>
<event>
 5   0  0.2072710E-05  0.2566547E+04  0.7818609E-02  0.8379654E-01
       -1   -1    0    0    0  501  0.00000000000E+00  0.00000000000E+00  0.14345223361E+04  0.14345223361E+04  0.50400001928E-02 0.  1.
        1   -1    0    0  501    0  0.00000000000E+00  0.00000000000E+00 -0.11479716027E+04  0.11479716027E+04  0.50400001928E-02 0. -1.
    10030    2    1    2    0    0  0.00000000000E+00  0.00000000000E+00  0.28655073336E+03  0.25824939388E+04  0.25665470230E+04 0.  0.
        2    1    3    3  502    0  0.31461973766E+03 -0.21130898263E+03  0.13769249051E+04  0.14281313875E+04  0.25500000920E-02 0.  1.
       -2    1    3    3    0  502 -0.31461973766E+03  0.21130898263E+03 -0.10903741718E+04  0.11543625514E+04  0.25500000920E-02 0. -1.
</event>
<event>
 5   0  0.1954502E-05  0.2579942E+04  0.7818609E-02  0.8375047E-01
       -1   -1    0    0    0  501  0.00000000000E+00  0.00000000000E+00  0.10709650667E+04  0.10709650667E+04  0.50400001928E-02 0.  1.
        1   -1    0    0  501    0  0.00000000000E+00  0.00000000000E+00 -0.15537619127E+04  0.15537619127E+04  0.50400001928E-02 0. -1.
    10030    2    1    2    0    0  0.00000000000E+00  0.00000000000E+00 -0.48279684601E+03  0.26247269794E+04  0.25799416508E+04 0.  0.
        4    1    3    3  502    0  0.60252261697E+01 -0.79817828077E+03 -0.12723492648E+04  0.15019983807E+04  0.12699999809E+01 0. -1.
       -4    1    3    3    0  502 -0.60252261697E+01  0.79817828077E+03  0.78955241879E+03  0.11227285986E+04  0.12699999809E+01 0.  1.
</event>
<event>
 5   0  0.5182179E-05  0.2659410E+04  0.7818609E-02  0.8348296E-01
       -2   -1    0    0    0  501  0.00000000000E+00  0.00000000000E+00  0.14369244951E+04  0.14369244951E+04  0.25500000920E-02 0. -1.
        2   -1    0    0  501    0  0.00000000000E+00  0.00000000000E+00 -0.12304864000E+04  0.12304864000E+04  0.25500000920E-02 0.  1.
    10030    2    1    2    0    0  0.00000000000E+00  0.00000000000E+00  0.20643809504E+03  0.26674108951E+04  0.26594104979E+04 0.  0.
        3    1    3    3  502    0  0.12187324324E+04  0.48819696998E+03 -0.10829687462E+03  0.13173356621E+04  0.10100000352E+00 0.  1.
       -3    1    3    3    0  502 -0.12187324324E+04 -0.48819696998E+03  0.31473496965E+03  0.13500752330E+04  0.10100000352E+00 0. -1.
</event>
<event>
 5   0  0.5182179E-05  0.2586783E+04  0.7818609E-02  0.8372705E-01
       -2   -1    0    0    0  501  0.00000000000E+00  0.00000000000E+00  0.66042312915E+03  0.66042312915E+03  0.25500000920E-02 0.  1.
        2   -1    0    0  501    0  0.00000000000E+00  0.00000000000E+00 -0.25330149499E+04  0.25330149499E+04  0.25500000920E-02 0. -1.
    10030    2    1    2    0    0  0.00000000000E+00  0.00000000000E+00 -0.18725918208E+04  0.31934380791E+04  0.25867830674E+04 0.  0.
        3    1    3    3  502    0 -0.56296219620E+03 -0.91358421896E+01 -0.23737851198E+04  0.24396445854E+04  0.10100000352E+00 0. -1.
       -3    1    3    3    0  502  0.56296219620E+03  0.91358421896E+01  0.50119329900E+03  0.75379349369E+03  0.10100000352E+00 0.  1.
</event>
<event>
 5   0  0.5170532E-05  0.2008005E+04  0.7818609E-02  0.8602887E-01
       -2   -1    0    0    0  501  0.00000000000E+00  0.00000000000E+00  0.61273972002E+03  0.61273972003E+03  0.25500000920E-02 0. -1.
        2   -1    0    0  501    0  0.00000000000E+00  0.00000000000E+00 -0.16451048106E+04  0.16451048106E+04  0.25500000920E-02 0.  1.
    10030    2    1    2    0    0  0.00000000000E+00  0.00000000000E+00 -0.10323650906E+04  0.22578445307E+04  0.20080050409E+04 0.  0.
        1    1    3    3  502    0  0.97765284752E+02 -0.67219144519E+03  0.31514593332E+03  0.74880995533E+03  0.50400001928E-02 0. -1.
       -1    1    3    3    0  502 -0.97765284752E+02  0.67219144519E+03 -0.13475110239E+04  0.15090345753E+04  0.50400001928E-02 0.  1.
</event>
<event>
 5   0  0.2163800E-05  0.2630668E+04  0.7818609E-02  0.8357858E-01
        1   -1    0    0  501    0  0.00000000000E+00  0.00000000000E+00  0.22737302588E+04  0.22737302588E+04  0.50400001928E-02 0.  1.
       -1   -1    0    0    0  501  0.00000000000E+00  0.00000000000E+00 -0.76090996777E+03  0.76090996779E+03  0.50400001928E-02 0. -1.
    10030    2    1    2    0    0  0.00000000000E+00  0.00000000000E+00  0.15128202911E+04  0.30346402266E+04  0.26306683698E+04 0.  0.
        1    1    3    3  502    0  0.57052218640E+03 -0.67225443913E+03 -0.36952968685E+03  0.95601976213E+03  0.50400001928E-02 0. -1.
       -1    1    3    3    0  502 -0.57052218640E+03  0.67225443913E+03  0.18823499779E+04  0.20786204645E+04  0.50400001928E-02 0.  1.
</event>
<event>
 5   0  0.5036452E-05  0.2583752E+04  0.7818609E-02  0.8373741E-01
       -2   -1    0    0    0  501  0.00000000000E+00  0.00000000000E+00  0.12397051812E+04  0.12397051812E+04  0.25500000920E-02 0.  1.
        2   -1    0    0  501    0  0.00000000000E+00  0.00000000000E+00 -0.13462427503E+04  0.13462427503E+04  0.25500000920E-02 0. -1.
    10030    2    1    2    0    0  0.00000000000E+00  0.00000000000E+00 -0.10653756912E+03  0.25859479316E+04  0.25837523974E+04 0.  0.
        2    1    3    3  502    0 -0.11393642527E+04  0.16524121243E+03  0.53330819972E+03  0.12688077847E+04  0.25500000920E-02 0.  1.
       -2    1    3    3    0  502  0.11393642527E+04 -0.16524121243E+03 -0.63984576884E+03  0.13171401469E+04  0.25500000920E-02 0. -1.
</event>
<event>
 5   0  0.5182179E-05  0.2640078E+04  0.7818609E-02  0.8354714E-01
        2   -1    0    0  501    0  0.00000000000E+00  0.00000000000E+00  0.14813604199E+04  0.14813604199E+04  0.25500000920E-02 0.  1.
       -2   -1    0    0    0  501  0.00000000000E+00  0.00000000000E+00 -0.11762852342E+04  0.11762852342E+04  0.25500000920E-02 0. -1.
    10030    2    1    2    0    0  0.00000000000E+00  0.00000000000E+00  0.30507518573E+03  0.26576456540E+04  0.26400775658E+04 0.  0.
        3    1    3    3  502    0  0.30285424721E+03 -0.12652552184E+04 -0.72356555994E+02  0.13030068857E+04  0.10100000352E+00 0. -1.
       -3    1    3    3    0  502 -0.30285424721E+03  0.12652552184E+04  0.37743174173E+03  0.13546387683E+04  0.10100000352E+00 0.  1.
</event>
<event>
 5   0  0.2163800E-05  0.1656831E+04  0.7818609E-02  0.8786376E-01
       -1   -1    0    0    0  501  0.00000000000E+00  0.00000000000E+00  0.41870197287E+03  0.41870197290E+03  0.50400001928E-02 0. -1.
        1   -1    0    0  501    0  0.00000000000E+00  0.00000000000E+00 -0.16390461350E+04  0.16390461350E+04  0.50400001928E-02 0.  1.
    10030    2    1    2    0    0  0.00000000000E+00  0.00000000000E+00 -0.12203441621E+04  0.20577481079E+04  0.16568305289E+04 0.  0.
        1    1    3    3  502    0  0.30794015442E+03 -0.33034229225E+03 -0.14727158946E+04  0.15404042570E+04  0.50400001928E-02 0.  1.
       -1    1    3    3    0  502 -0.30794015442E+03  0.33034229225E+03  0.25237173243E+03  0.51734385095E+03  0.50400001928E-02 0. -1.
</event>
<event>
 5   0  0.5049803E-05  0.2617154E+04  0.7818609E-02  0.8362398E-01
        2   -1    0    0  501    0  0.00000000000E+00  0.00000000000E+00  0.14017113629E+04  0.14017113629E+04  0.25500000920E-02 0. -1.
       -2   -1    0    0    0  501  0.00000000000E+00  0.00000000000E+00 -0.12216305559E+04  0.12216305559E+04  0.25500000920E-02 0.  1.
    10030    2    1    2    0    0  0.00000000000E+00  0.00000000000E+00  0.18008080704E+03  0.26233419188E+04  0.26171537452E+04 0.  0.
        4    1    3    3  502    0 -0.11392495274E+04  0.63127968950E+03  0.21670487705E+03  0.13203659147E+04  0.12699999809E+01 0. -1.
       -4    1    3    3    0  502  0.11392495274E+04 -0.63127968950E+03 -0.36624070009E+02  0.13029760042E+04  0.12699999809E+01 0.  1.
</event>
<event>
 5   0  0.1698625E-05  0.2618755E+04  0.7818609E-02  0.8361858E-01
        3   -1    0    0  501    0  0.00000000000E+00  0.00000000000E+00  0.20355395834E+04  0.20355395859E+04  0.10100000352E+00 0. -1.
       -3   -1    0    0    0  501  0.00000000000E+00  0.00000000000E+00 -0.84226802308E+03  0.84226802914E+03  0.10100000352E+00 0.  1.
    10030    2    1    2    0    0  0.00000000000E+00  0.00000000000E+00  0.11932715604E+04  0.28778076151E+04  0.26187553633E+04 0.  0.
        1    1    3    3  502    0  0.11870035973E+04  0.21602446699E+03  0.11557114756E+04  0.16707223363E+04  0.50400001928E-02 0. -1.
       -1    1    3    3    0  502 -0.11870035973E+04 -0.21602446699E+03  0.37560084773E+02  0.12070852788E+04  0.50400001928E-02 0.  1.
</event>
<event>
 5   0  0.4955675E-05  0.1725214E+04  0.7818609E-02  0.8747113E-01
        2   -1    0    0  501    0  0.00000000000E+00  0.00000000000E+00  0.14486372011E+04  0.14486372011E+04  0.25500000920E-02 0. -1.
       -2   -1    0    0    0  501  0.00000000000E+00  0.00000000000E+00 -0.51364861954E+03  0.51364861954E+03  0.25500000920E-02 0.  1.
    10030    2    1    2    0    0  0.00000000000E+00  0.00000000000E+00  0.93498858161E+03  0.19622858207E+04  0.17252136083E+04 0.  0.
        5    1    3    3  502    0 -0.50314958376E+03  0.45190375153E+03 -0.14151946928E+03  0.69096045796E+03  0.46999998093E+01 0.  1.
       -5    1    3    3    0  502  0.50314958376E+03 -0.45190375153E+03  0.10765080509E+04  0.12713253627E+04  0.46999998093E+01 0. -1.
</event>
<event>
 5   0  0.5049803E-05  0.2596295E+04  0.7818609E-02  0.8369461E-01
       -2   -1    0    0    0  501  0.00000000000E+00  0.00000000000E+00  0.12712309978E+04  0.12712309978E+04  0.25500000920E-02 0. -1.
        2   -1    0    0  501    0  0.00000000000E+00  0.00000000000E+00 -0.13256341420E+04  0.13256341420E+04  0.25500000920E-02 0.  1.
    10030    2    1    2    0    0  0.00000000000E+00  0.00000000000E+00 -0.54403144199E+02  0.25968651399E+04  0.25962952168E+04 0.  0.
        4    1    3    3  502    0 -0.89098033981E+03  0.55700234996E+03  0.73525705520E+03  0.12824594083E+04  0.12699999809E+01 0. -1.
       -4    1    3    3    0  502  0.89098033981E+03 -0.55700234996E+03 -0.78966019940E+03  0.13144057316E+04  0.12699999809E+01 0.  1.
</event>
<event>
 5   0  0.5182179E-05  0.2237723E+04  0.7818609E-02  0.8502889E-01
       -2   -1    0    0    0  501  0.00000000000E+00  0.00000000000E+00  0.83903902040E+03  0.83903902041E+03  0.25500000920E-02 0. -1.
        2   -1    0    0  501    0  0.00000000000E+00  0.00000000000E+00 -0.14920063331E+04  0.14920063331E+04  0.25500000920E-02 0.  1.
    10030    2    1    2    0    0  0.00000000000E+00  0.00000000000E+00 -0.65296731267E+03  0.23310453535E+04  0.22377234254E+04 0.  0.
        3    1    3    3  502    0 -0.80266324586E+03 -0.77692383227E+03 -0.39214071682E+03  0.11839143885E+04  0.10100000352E+00 0.  1.
       -3    1    3    3    0  502  0.80266324586E+03  0.77692383227E+03 -0.26082659585E+03  0.11471309649E+04  0.10100000352E+00 0. -1.
</event>
<event>
 5   0  0.4955675E-05  0.2506754E+04  0.7818609E-02  0.8400584E-01
        2   -1    0    0  501    0  0.00000000000E+00  0.00000000000E+00  0.15048467241E+04  0.15048467241E+04  0.25500000920E-02 0.  1.
       -2   -1    0    0    0  501  0.00000000000E+00  0.00000000000E+00 -0.10439291093E+04  0.10439291093E+04  0.25500000920E-02 0. -1.
    10030    2    1    2    0    0  0.00000000000E+00  0.00000000000E+00  0.46091761483E+03  0.25487758335E+04  0.25067535183E+04 0.  0.
        5    1    3    3  502    0 -0.40357815567E+03  0.93133929199E+03 -0.51716536519E+03  0.11391884434E+04  0.46999998093E+01 0. -1.
       -5    1    3    3    0  502  0.40357815567E+03 -0.93133929199E+03  0.97808298002E+03  0.14095873901E+04  0.46999998093E+01 0.  1.
</event>
<event>
 5   0  0.5049803E-05  0.2259490E+04  0.7818609E-02  0.8494067E-01
       -2   -1    0    0    0  501  0.00000000000E+00  0.00000000000E+00  0.11973463370E+04  0.11973463370E+04  0.25500000920E-02 0.  1.
        2   -1    0    0  501    0  0.00000000000E+00  0.00000000000E+00 -0.10659604753E+04  0.10659604753E+04  0.25500000920E-02 0. -1.
    10030    2    1    2    0    0  0.00000000000E+00  0.00000000000E+00  0.13138586170E+03  0.22633068123E+04  0.22594900934E+04 0.  0.
        4    1    3    3  502    0  0.95030812101E+03  0.59518798109E+03  0.20372264853E+03  0.11396660862E+04  0.12699999809E+01 0. -1.
       -4    1    3    3    0  502 -0.95030812101E+03 -0.59518798109E+03 -0.72336786828E+02  0.11236407261E+04  0.12699999809E+01 0.  1.
</event>
<event>
 5   0  0.5182179E-05  0.1314904E+04  0.7818609E-02  0.9017829E-01
       -2   -1    0    0    0  501  0.00000000000E+00  0.00000000000E+00  0.15385126830E+04  0.15385126830E+04  0.25500000920E-02 0. -1.
        2   -1    0    0  501    0  0.00000000000E+00  0.00000000000E+00 -0.28094865081E+03  0.28094865082E+03  0.25500000920E-02 0.  1.
    10030    2    1    2    0    0  0.00000000000E+00  0.00000000000E+00  0.12575640322E+04  0.18194613339E+04  0.13149038939E+04 0.  0.
        3    1    3    3  502    0 -0.55900286801E+03 -0.18529974167E+03  0.10332050211E+04  0.11892572584E+04  0.10100000352E+00 0. -1.
       -3    1    3    3    0  502  0.55900286801E+03  0.18529974167E+03  0.22435901112E+03  0.63020407550E+03  0.10100000352E+00 0.  1.
</event>
<event>
 5   0  0.1993815E-05  0.2063686E+04  0.7818609E-02  0.8577411E-01
       -1   -1    0    0    0  501  0.00000000000E+00  0.00000000000E+00  0.63179400017E+03  0.63179400019E+03  0.50400001928E-02 0.  1.
        1   -1    0    0  501    0  0.00000000000E+00  0.00000000000E+00 -0.16852005581E+04  0.16852005582E+04  0.50400001928E-02 0. -1.
    10030    2    1    2    0    0  0.00000000000E+00  0.00000000000E+00 -0.10534065580E+04  0.23169945583E+04  0.20636856367E+04 0.  0.
        5    1    3    3  502    0 -0.69873441696E+03  0.62245961872E+03 -0.10147966337E+04  0.13804057592E+04  0.46999998093E+01 0. -1.
       -5    1    3    3    0  502  0.69873441696E+03 -0.62245961872E+03 -0.38609924292E+02  0.93658879911E+03  0.46999998093E+01 0.  1.
</event>
<event>
 5   0  0.5170532E-05  0.2558876E+04  0.7818609E-02  0.8382306E-01
        2   -1    0    0  501    0  0.00000000000E+00  0.00000000000E+00  0.11872036683E+04  0.11872036683E+04  0.25500000920E-02 0.  1.
       -2   -1    0    0    0  501  0.00000000000E+00  0.00000000000E+00 -0.13788384861E+04  0.13788384861E+04  0.25500000920E-02 0. -1.
    10030    2    1    2    0    0  0.00000000000E+00  0.00000000000E+00 -0.19163481785E+03  0.25660421544E+04  0.25588764009E+04 0.  0.
        1    1    3    3  502    0  0.59159409222E+03 -0.61628147094E+03  0.85930751646E+03  0.12116913094E+04  0.50400001928E-02 0.  1.
       -1    1    3    3    0  502 -0.59159409222E+03  0.61628147094E+03 -0.10509423343E+04  0.13543508450E+04  0.50400001928E-02 0. -1.
</event>
<event>
 5   0  0.2159405E-05  0.2637261E+04  0.7818609E-02  0.8355654E-01
        1   -1    0    0  501    0  0.00000000000E+00  0.00000000000E+00  0.10827156351E+04  0.10827156351E+04  0.50400001928E-02 0.  1.
       -1   -1    0    0    0  501  0.00000000000E+00  0.00000000000E+00 -0.16059487169E+04  0.16059487169E+04  0.50400001928E-02 0. -1.
    10030    2    1    2    0    0  0.00000000000E+00  0.00000000000E+00 -0.52323308184E+03  0.26886643521E+04  0.26372605370E+04 0.  0.
        3    1    3    3  502    0  0.25620275359E+03  0.15847769095E+03  0.10471621268E+04  0.10896345991E+04  0.10100000352E+00 0.  1.
       -3    1    3    3    0  502 -0.25620275359E+03 -0.15847769095E+03 -0.15703952086E+04  0.15990297530E+04  0.10100000352E+00 0. -1.
</event>
<event>
 5   0  0.5049803E-05  0.2570192E+04  0.7818609E-02  0.8378397E-01
        2   -1    0    0  501    0  0.00000000000E+00  0.00000000000E+00  0.12589775300E+04  0.12589775300E+04  0.25500000920E-02 0. -1.
       -2   -1    0    0    0  501  0.00000000000E+00  0.00000000000E+00 -0.13117562668E+04  0.13117562668E+04  0.25500000920E-02 0.  1.
    10030    2    1    2    0    0  0.00000000000E+00  0.00000000000E+00 -0.52778736729E+02  0.25707337968E+04  0.25701919498E+04 0.  0.
        4    1    3    3  502    0 -0.31196224660E+03  0.10490699239E+04  0.64725236116E+03  0.12715366218E+04  0.12699999809E+01 0. -1.
       -4    1    3    3    0  502  0.31196224660E+03 -0.10490699239E+04 -0.70003109789E+03  0.12991971750E+04  0.12699999809E+01 0.  1.
</event>
<event>
 5   0  0.5049803E-05  0.2708350E+04  0.7818609E-02  0.8332301E-01
       -2   -1    0    0    0  501  0.00000000000E+00  0.00000000000E+00  0.10269895689E+04  0.10269895689E+04  0.25500000920E-02 0.  1.
        2   -1    0    0  501    0  0.00000000000E+00  0.00000000000E+00 -0.17855967743E+04  0.17855967743E+04  0.25500000920E-02 0. -1.
    10030    2    1    2    0    0  0.00000000000E+00  0.00000000000E+00 -0.75860720542E+03  0.28125863433E+04  0.27083495059E+04 0.  0.
        4    1    3    3  502    0 -0.57952811021E+03 -0.10939661673E+04 -0.94921725378E+03  0.15600095556E+04  0.12699999809E+01 0. -1.
       -4    1    3    3    0  502  0.57952811021E+03  0.10939661673E+04  0.19061004835E+03  0.12525767877E+04  0.12699999809E+01 0.  1.
</event>
<event>
 5   0  0.5049803E-05  0.2595055E+04  0.7818609E-02  0.8369883E-01
       -2   -1    0    0    0  501  0.00000000000E+00  0.00000000000E+00  0.10519953682E+04  0.10519953682E+04  0.25500000920E-02 0.  1.
        2   -1    0    0  501    0  0.00000000000E+00  0.00000000000E+00 -0.16003662160E+04  0.16003662160E+04  0.25500000920E-02 0. -1.
    10030    2    1    2    0    0  0.00000000000E+00  0.00000000000E+00 -0.54837084773E+03  0.26523615842E+04  0.25950551799E+04 0.  0.
        4    1    3    3  502    0 -0.95797702326E+03 -0.30292972476E+03  0.56497505569E+03  0.11526859163E+04  0.12699999809E+01 0.  1.
       -4    1    3    3    0  502  0.95797702326E+03  0.30292972476E+03 -0.11133459034E+04  0.14996756679E+04  0.12699999809E+01 0. -1.
</event>
<event>
 5   0  0.5170532E-05  0.1865563E+04  0.7818609E-02  0.8672190E-01
       -2   -1    0    0    0  501  0.00000000000E+00  0.00000000000E+00  0.83294285105E+03  0.83294285105E+03  0.25500000920E-02 0. -1.
        2   -1    0    0  501    0  0.00000000000E+00  0.00000000000E+00 -0.10445869392E+04  0.10445869392E+04  0.25500000920E-02 0.  1.
    10030    2    1    2    0    0  0.00000000000E+00  0.00000000000E+00 -0.21164408818E+03  0.18775297903E+04  0.18655628891E+04 0.  0.
        1    1    3    3  502    0 -0.16757218991E+03 -0.88388387006E+03  0.14223433555E+03  0.91080280018E+03  0.50400001928E-02 0.  1.
       -1    1    3    3    0  502  0.16757218991E+03  0.88388387006E+03 -0.35387842373E+03  0.96672699010E+03  0.50400001928E-02 0. -1.
</event>
<event>
 5   0  0.1954502E-05  0.2550143E+04  0.7818609E-02  0.8385336E-01
        1   -1    0    0  501    0  0.00000000000E+00  0.00000000000E+00  0.15640842390E+04  0.15640842391E+04  0.50400001928E-02 0.  1.
       -1   -1    0    0    0  501  0.00000000000E+00  0.00000000000E+00 -0.10394629348E+04  0.10394629348E+04  0.50400001928E-02 0. -1.
    10030    2    1    2    0    0  0.00000000000E+00  0.00000000000E+00  0.52462130424E+03  0.26035471739E+04  0.25501432065E+04 0.  0.
        4    1    3    3  502    0 -0.10007572889E+04  0.71066712302E+03 -0.90236698251E+02  0.12307344091E+04  0.12699999809E+01 0. -1.
       -4    1    3    3    0  502  0.10007572889E+04 -0.71066712302E+03  0.61485800249E+03  0.13728127648E+04  0.12699999809E+01 0.  1.
</event>
<event>
 5   0  0.1993815E-05  0.2604061E+04  0.7818609E-02  0.8366823E-01
       -1   -1    0    0    0  501  0.00000000000E+00  0.00000000000E+00  0.12311943034E+04  0.12311943034E+04  0.50400001928E-02 0.  1.
        1   -1    0    0  501    0  0.00000000000E+00  0.00000000000E+00 -0.13769420386E+04  0.13769420387E+04  0.50400001928E-02 0. -1.
    10030    2    1    2    0    0  0.00000000000E+00  0.00000000000E+00 -0.14574773523E+03  0.26081363421E+04  0.26040608243E+04 0.  0.
        5    1    3    3  502    0  0.79693630799E+03 -0.61314113666E+03 -0.90133926537E+03  0.13503644300E+04  0.46999998093E+01 0. -1.
       -5    1    3    3    0  502 -0.79693630799E+03  0.61314113666E+03  0.75559153015E+03  0.12577719121E+04  0.46999998093E+01 0.  1.
</event>
<event>
 5   0  0.5049803E-05  0.2590154E+04  0.7818609E-02  0.8371553E-01
       -2   -1    0    0    0  501  0.00000000000E+00  0.00000000000E+00  0.93507817422E+03  0.93507817422E+03  0.25500000920E-02 0.  1.
        2   -1    0    0  501    0  0.00000000000E+00  0.00000000000E+00 -0.17936728709E+04  0.17936728709E+04  0.25500000920E-02 0. -1.
    10030    2    1    2    0    0  0.00000000000E+00  0.00000000000E+00 -0.85859469667E+03  0.27287510451E+04  0.25901539362E+04 0.  0.
        4    1    3    3  502    0  0.33254834826E+03 -0.49306339642E+03  0.78270666238E+03  0.98302148961E+03  0.12699999809E+01 0.  1.
       -4    1    3    3    0  502 -0.33254834826E+03  0.49306339642E+03 -0.16413013590E+04  0.17457295555E+04  0.12699999809E+01 0. -1.
</event>
<event>
 5   0  0.5170532E-05  0.2403629E+04  0.7818609E-02  0.8438146E-01
       -2   -1    0    0    0  501  0.00000000000E+00  0.00000000000E+00  0.17052724299E+04  0.17052724299E+04  0.25500000920E-02 0.  1.
        2   -1    0    0  501    0  0.00000000000E+00  0.00000000000E+00 -0.84699557866E+03  0.84699557866E+03  0.25500000920E-02 0. -1.
    10030    2    1    2    0    0  0.00000000000E+00  0.00000000000E+00  0.85827685123E+03  0.25522680086E+04  0.24036290966E+04 0.  0.
        1    1    3    3  502    0  0.59029476004E+03 -0.10334696655E+04  0.25193287817E+03  0.12165433113E+04  0.50400001928E-02 0. -1.
       -1    1    3    3    0  502 -0.59029476004E+03  0.10334696655E+04  0.60634397305E+03  0.13357246972E+04  0.50400001928E-02 0.  1.
</event>
<event>
 5   0  0.5036452E-05  0.2625108E+04  0.7818609E-02  0.8359722E-01
       -2   -1    0    0    0  501  0.00000000000E+00  0.00000000000E+00  0.13224369182E+04  0.13224369182E+04  0.25500000920E-02 0.  1.
        2   -1    0    0  501    0  0.00000000000E+00  0.00000000000E+00 -0.13027445257E+04  0.13027445257E+04  0.25500000920E-02 0. -1.
    10030    2    1    2    0    0  0.00000000000E+00  0.00000000000E+00  0.19692392503E+02  0.26251814439E+04  0.26251075832E+04 0.  0.
        2    1    3    3  502    0  0.15966652019E+03 -0.10727885576E+04  0.74907519872E+03  0.13181359340E+04  0.25500000920E-02 0.  1.
       -2    1    3    3    0  502 -0.15966652019E+03  0.10727885576E+04 -0.72938280622E+03  0.13070455099E+04  0.25500000920E-02 0. -1.
</event>
<event>
 5   0  0.4955675E-05  0.2695455E+04  0.7818609E-02  0.8336481E-01
       -2   -1    0    0    0  501  0.00000000000E+00  0.00000000000E+00  0.13024818120E+04  0.13024818120E+04  0.25500000920E-02 0. -1.
        2   -1    0    0  501    0  0.00000000000E+00  0.00000000000E+00 -0.13945449866E+04  0.13945449866E+04  0.25500000920E-02 0.  1.
    10030    2    1    2    0    0  0.00000000000E+00  0.00000000000E+00 -0.92063174633E+02  0.26970267986E+04  0.26954550495E+04 0.  0.
        5    1    3    3  502    0  0.53594600686E+03 -0.11524901363E+04 -0.49448458210E+03  0.13638213697E+04  0.46999998093E+01 0. -1.
       -5    1    3    3    0  502 -0.53594600686E+03  0.11524901363E+04  0.40242140747E+03  0.13332054289E+04  0.46999998093E+01 0.  1.
</event>
<event>
 5   0  0.5036452E-05  0.2631285E+04  0.7818609E-02  0.8357651E-01
       -2   -1    0    0    0  501  0.00000000000E+00  0.00000000000E+00  0.84736142963E+03  0.84736142963E+03  0.25500000920E-02 0.  1.
        2   -1    0    0  501    0  0.00000000000E+00  0.00000000000E+00 -0.20427116303E+04  0.20427116303E+04  0.25500000920E-02 0. -1.
    10030    2    1    2    0    0  0.00000000000E+00  0.00000000000E+00 -0.11953502007E+04  0.28900730599E+04  0.26312848933E+04 0.  0.
        2    1    3    3  502    0 -0.42918898097E+03  0.57068093251E+03  0.61600723362E+03  0.94305080456E+03  0.25500000920E-02 0.  1.
       -2    1    3    3    0  502  0.42918898097E+03 -0.57068093251E+03 -0.18113574343E+04  0.19470222554E+04  0.25500000920E-02 0. -1.
</event>
<event>
 5   0  0.2159405E-05  0.2734494E+04  0.7818609E-02  0.8323899E-01
       -1   -1    0    0    0  501  0.00000000000E+00  0.00000000000E+00  0.10362121539E+04  0.10362121540E+04  0.50400001928E-02 0.  1.
        1   -1    0    0  501    0  0.00000000000E+00  0.00000000000E+00 -0.18040363395E+04  0.18040363395E+04  0.50400001928E-02 0. -1.
    10030    2    1    2    0    0  0.00000000000E+00  0.00000000000E+00 -0.76782418552E+03  0.28402484934E+04  0.27344940162E+04 0.  0.
        3    1    3    3  502    0 -0.80054282453E+03 -0.81422509047E+03 -0.11650151892E+04  0.16312852949E+04  0.10100000352E+00 0. -1.
       -3    1    3    3    0  502  0.80054282453E+03  0.81422509047E+03  0.39719100372E+03  0.12089631986E+04  0.10100000352E+00 0.  1.
</event>
<event>
 5   0  0.5170532E-05  0.2525079E+04  0.7818609E-02  0.8394105E-01
       -2   -1    0    0    0  501  0.00000000000E+00  0.00000000000E+00  0.12669947020E+04  0.12669947020E+04  0.25500000920E-02 0.  1.
        2   -1    0    0  501    0  0.00000000000E+00  0.00000000000E+00 -0.12581003626E+04  0.12581003626E+04  0.25500000920E-02 0. -1.
    10030    2    1    2    0    0  0.00000000000E+00  0.00000000000E+00  0.88943393316E+01  0.25250950646E+04  0.25250793999E+04 0.  0.
        1    1    3    3  502    0 -0.62910383575E+03 -0.31451289444E+03 -0.10440422850E+04  0.12588543561E+04  0.50400001928E-02 0. -1.
       -1    1    3    3    0  502  0.62910383575E+03  0.31451289444E+03  0.10529366243E+04  0.12662407085E+04  0.50400001928E-02 0.  1.
</event>
<event>
 5   0  0.1954502E-05  0.2633256E+04  0.7818609E-02  0.8356992E-01
       -1   -1    0    0    0  501  0.00000000000E+00  0.00000000000E+00  0.10144133000E+04  0.10144133000E+04  0.50400001928E-02 0. -1.
        1   -1    0    0  501    0  0.00000000000E+00  0.00000000000E+00 -0.17088786097E+04  0.17088786098E+04  0.50400001928E-02 0.  1.
    10030    2    1    2    0    0  0.00000000000E+00  0.00000000000E+00 -0.69446530977E+03  0.27232919097E+04  0.26332559236E+04 0.  0.
        4    1    3    3  502    0  0.16479402841E+03  0.46470517169E+03 -0.16097940036E+04  0.16836110938E+04  0.12699999809E+01 0.  1.
       -4    1    3    3    0  502 -0.16479402841E+03 -0.46470517169E+03  0.91532869381E+03  0.10396808159E+04  0.12699999809E+01 0. -1.
</event>
<event>
 5   0  0.1954502E-05  0.2539522E+04  0.7818609E-02  0.8389040E-01
       -1   -1    0    0    0  501  0.00000000000E+00  0.00000000000E+00  0.99268051987E+03  0.99268051988E+03  0.50400001928E-02 0.  1.
        1   -1    0    0  501    0  0.00000000000E+00  0.00000000000E+00 -0.16241805893E+04  0.16241805893E+04  0.50400001928E-02 0. -1.
    10030    2    1    2    0    0  0.00000000000E+00  0.00000000000E+00 -0.63150006946E+03  0.26168611092E+04  0.25395215548E+04 0.  0.
        4    1    3    3  502    0  0.12285420044E+04  0.27770469666E+03 -0.48144333020E+03  0.13484156066E+04  0.12699999809E+01 0. -1.
       -4    1    3    3    0  502 -0.12285420044E+04 -0.27770469666E+03 -0.15005673926E+03  0.12684455026E+04  0.12699999809E+01 0.  1.
</event>
<event>
 5   0  0.5182179E-05  0.2642974E+04  0.7818609E-02  0.8353749E-01
       -2   -1    0    0    0  501  0.00000000000E+00  0.00000000000E+00  0.13134572906E+04  0.13134572906E+04  0.25500000920E-02 0. -1.
        2   -1    0    0  501    0  0.00000000000E+00  0.00000000000E+00 -0.13295659897E+04  0.13295659897E+04  0.25500000920E-02 0.  1.
    10030    2    1    2    0    0  0.00000000000E+00  0.00000000000E+00 -0.16108699056E+02  0.26430232803E+04  0.26429741902E+04 0.  0.
        3    1    3    3  502    0 -0.10738152308E+04 -0.61108799534E+03  0.46080448878E+03  0.13186540392E+04  0.10100000352E+00 0. -1.
       -3    1    3    3    0  502  0.10738152308E+04  0.61108799534E+03 -0.47691318784E+03  0.13243692411E+04  0.10100000352E+00 0.  1.
</event>
<event>
 5   0  0.4955675E-05  0.2588267E+04  0.7818609E-02  0.8372198E-01
        2   -1    0    0  501    0  0.00000000000E+00  0.00000000000E+00  0.11678012980E+04  0.11678012980E+04  0.25500000920E-02 0. -1.
       -2   -1    0    0    0  501  0.00000000000E+00  0.00000000000E+00 -0.14341319462E+04  0.14341319462E+04  0.25500000920E-02 0.  1.
    10030    2    1    2    0    0  0.00000000000E+00  0.00000000000E+00 -0.26633064814E+03  0.26019332442E+04  0.25882667160E+04 0.  0.
        5    1    3    3  502    0 -0.48497838744E+03 -0.94370275153E+03 -0.87800952143E+03  0.13772079470E+04  0.46999998093E+01 0.  1.
       -5    1    3    3    0  502  0.48497838744E+03  0.94370275153E+03  0.61167887329E+03  0.12247252972E+04  0.46999998093E+01 0. -1.
</event>
<event>
 5   0  0.4955675E-05  0.2568527E+04  0.7818609E-02  0.8378971E-01
        2   -1    0    0  501    0  0.00000000000E+00  0.00000000000E+00  0.10910563703E+04  0.10910563703E+04  0.25500000920E-02 0. -1.
       -2   -1    0    0    0  501  0.00000000000E+00  0.00000000000E+00 -0.15116848322E+04  0.15116848322E+04  0.25500000920E-02 0.  1.
    10030    2    1    2    0    0  0.00000000000E+00  0.00000000000E+00 -0.42062846190E+03  0.26027412024E+04  0.25685274894E+04 0.  0.
        5    1    3    3  502    0  0.12409900499E+04 -0.30131509548E+03 -0.72621236852E+02  0.12791180652E+04  0.46999998093E+01 0. -1.
       -5    1    3    3    0  502 -0.12409900499E+04  0.30131509548E+03 -0.34800722505E+03  0.13236231372E+04  0.46999998093E+01 0.  1.
</event>
<event>
 5   0  0.5170532E-05  0.2462600E+04  0.7818609E-02  0.8416432E-01
        2   -1    0    0  501    0  0.00000000000E+00  0.00000000000E+00  0.88778863782E+03  0.88778863782E+03  0.25500000920E-02 0.  1.
       -2   -1    0    0    0  501  0.00000000000E+00  0.00000000000E+00 -0.17077260383E+04  0.17077260383E+04  0.25500000920E-02 0. -1.
    10030    2    1    2    0    0  0.00000000000E+00  0.00000000000E+00 -0.81993740046E+03  0.25955146761E+04  0.24626000676E+04 0.  0.
        1    1    3    3  502    0 -0.69604900632E+03  0.10048607192E+04 -0.56583737723E+03  0.13469971127E+04  0.50400001928E-02 0.  1.
       -1    1    3    3    0  502  0.69604900632E+03 -0.10048607192E+04 -0.25410002323E+03  0.12485175634E+04  0.50400001928E-02 0. -1.
</event>
<event>
 5   0  0.1954502E-05  0.2261390E+04  0.7818609E-02  0.8493302E-01
        1   -1    0    0  501    0  0.00000000000E+00  0.00000000000E+00  0.10284066100E+04  0.10284066100E+04  0.50400001928E-02 0. -1.
       -1   -1    0    0    0  501  0.00000000000E+00  0.00000000000E+00 -0.12431576140E+04  0.12431576141E+04  0.50400001928E-02 0.  1.
    10030    2    1    2    0    0  0.00000000000E+00  0.00000000000E+00 -0.21475100406E+03  0.22715642240E+04  0.22613902870E+04 0.  0.
        4    1    3    3  502    0  0.28753698953E+03  0.93572838748E+03 -0.67578769965E+03  0.11895191312E+04  0.12699999809E+01 0.  1.
       -4    1    3    3    0  502 -0.28753698953E+03 -0.93572838748E+03  0.46103669559E+03  0.10820450929E+04  0.12699999809E+01 0. -1.
</event>
<event>
 5   0  0.1698625E-05  0.2570280E+04  0.7818609E-02  0.8378367E-01
        3   -1    0    0  501    0  0.00000000000E+00  0.00000000000E+00  0.11008896696E+04  0.11008896743E+04  0.10100000352E+00 0.  1.
       -3   -1    0    0    0  501  0.00000000000E+00  0.00000000000E+00 -0.15002269623E+04  0.15002269657E+04  0.10100000352E+00 0. -1.
    10030    2    1    2    0    0  0.00000000000E+00  0.00000000000E+00 -0.39933729267E+03  0.26011166400E+04  0.25702796543E+04 0.  0.
        1    1    3    3  502    0 -0.68385288198E+03  0.10181387273E+04  0.18876329633E+03  0.12409241775E+04  0.50400001928E-02 0.  1.
       -1    1    3    3    0  502  0.68385288198E+03 -0.10181387273E+04 -0.58810058900E+03  0.13601924625E+04  0.50400001928E-02 0. -1.
</event>
<event>
 5   0  0.4955675E-05  0.2607720E+04  0.7818609E-02  0.8365583E-01
       -2   -1    0    0    0  501  0.00000000000E+00  0.00000000000E+00  0.82000043755E+03  0.82000043756E+03  0.25500000920E-02 0.  1.
        2   -1    0    0  501    0  0.00000000000E+00  0.00000000000E+00 -0.20732323468E+04  0.20732323468E+04  0.25500000920E-02 0. -1.
    10030    2    1    2    0    0  0.00000000000E+00  0.00000000000E+00 -0.12532319093E+04  0.28932327844E+04  0.26077204080E+04 0.  0.
        5    1    3    3  502    0  0.27334394185E+03 -0.87912746554E+03  0.39775234290E+03  0.10029013050E+04  0.46999998093E+01 0.  1.
       -5    1    3    3    0  502 -0.27334394185E+03  0.87912746554E+03 -0.16509842522E+04  0.18903314794E+04  0.46999998093E+01 0. -1.
</event>
<event>
 5   0  0.5036452E-05  0.2629951E+04  0.7818609E-02  0.8358098E-01
        2   -1    0    0  501    0  0.00000000000E+00  0.00000000000E+00  0.16863648251E+04  0.16863648251E+04  0.25500000920E-02 0.  1.
       -2   -1    0    0    0  501  0.00000000000E+00  0.00000000000E+00 -0.10253774540E+04  0.10253774541E+04  0.25500000920E-02 0. -1.
    10030    2    1    2    0    0  0.00000000000E+00  0.00000000000E+00  0.66098737109E+03  0.27117422792E+04  0.26299509281E+04 0.  0.
        2    1    3    3  502    0  0.62503922033E+03  0.11058378600E+04  0.68108142460E+03  0.14413269256E+04  0.25500000920E-02 0.  1.
       -2    1    3    3    0  502 -0.62503922033E+03 -0.11058378600E+04 -0.20094053504E+02  0.12704153536E+04  0.25500000920E-02 0. -1.
</event>
<event>
 5   0  0.5182179E-05  0.2520387E+04  0.7818609E-02  0.8395758E-01
        2   -1    0    0  501    0  0.00000000000E+00  0.00000000000E+00  0.10150708866E+04  0.10150708866E+04  0.25500000920E-02 0. -1.
       -2   -1    0    0    0  501  0.00000000000E+00  0.00000000000E+00 -0.15645089352E+04  0.15645089352E+04  0.25500000920E-02 0.  1.
    10030    2    1    2    0    0  0.00000000000E+00  0.00000000000E+00 -0.54943804862E+03  0.25795798219E+04  0.25203868529E+04 0.  0.
        3    1    3    3  502    0 -0.43183270570E+03  0.86264135547E+03 -0.11045998476E+04  0.14665505199E+04  0.10100000352E+00 0.  1.
       -3    1    3    3    0  502  0.43183270570E+03 -0.86264135547E+03  0.55516179895E+03  0.11130293020E+04  0.10100000352E+00 0. -1.
</event>
<event>
 5   0  0.2163800E-05  0.2742642E+04  0.7818609E-02  0.8321300E-01
        1   -1    0    0  501    0  0.00000000000E+00  0.00000000000E+00  0.20466577577E+04  0.20466577577E+04  0.50400001928E-02 0.  1.
       -1   -1    0    0    0  501  0.00000000000E+00  0.00000000000E+00 -0.91882576662E+03  0.91882576664E+03  0.50400001928E-02 0. -1.
    10030    2    1    2    0    0  0.00000000000E+00  0.00000000000E+00  0.11278319911E+04  0.29654835243E+04  0.27426424362E+04 0.  0.
        1    1    3    3  502    0  0.67004332984E+03  0.88295488623E+03 -0.30912565611E+03  0.11507067682E+04  0.50400001928E-02 0. -1.
       -1    1    3    3    0  502 -0.67004332984E+03 -0.88295488623E+03  0.14369576472E+04  0.18147767562E+04  0.50400001928E-02 0.  1.
</event>
<event>
 5   0  0.5182179E-05  0.2606471E+04  0.7818609E-02  0.8366006E-01
       -2   -1    0    0    0  501  0.00000000000E+00  0.00000000000E+00  0.10076551980E+04  0.10076551980E+04  0.25500000920E-02 0.  1.
        2   -1    0    0  501    0  0.00000000000E+00  0.00000000000E+00 -0.16855204062E+04  0.16855204062E+04  0.25500000920E-02 0. -1.
    10030    2    1    2    0    0  0.00000000000E+00  0.00000000000E+00 -0.67786520815E+03  0.26931756042E+04  0.26064714835E+04 0.  0.
        3    1    3    3  502    0 -0.90853220113E+03 -0.77404986368E+03  0.20177153013E+03  0.12104939952E+04  0.10100000352E+00 0.  1.
       -3    1    3    3    0  502  0.90853220113E+03  0.77404986368E+03 -0.87963673829E+03  0.14826816089E+04  0.10100000352E+00 0. -1.
</event>
<event>
 5   0  0.1698625E-05  0.2595570E+04  0.7818609E-02  0.8369708E-01
       -4   -1    0    0    0  501  0.00000000000E+00  0.00000000000E+00  0.11978247706E+04  0.11978254439E+04  0.12699999809E+01 0.  1.
        4   -1    0    0  501    0  0.00000000000E+00  0.00000000000E+00 -0.14060854235E+04  0.14060859970E+04  0.12699999809E+01 0. -1.
    10030    2    1    2    0    0  0.00000000000E+00  0.00000000000E+00 -0.20826065283E+03  0.26039114409E+04  0.25955697433E+04 0.  0.
        2    1    3    3  502    0  0.20271732083E+03 -0.10468983147E+04 -0.84620697277E+03  0.13613069581E+04  0.25500000920E-02 0. -1.
       -2    1    3    3    0  502 -0.20271732083E+03  0.10468983147E+04  0.63794631994E+03  0.12426044828E+04  0.25500000920E-02 0.  1.
</event>
<event>
 5   0  0.2163800E-05  0.2377928E+04  0.7818609E-02  0.8447814E-01
        1   -1    0    0  501    0  0.00000000000E+00  0.00000000000E+00  0.26241257455E+04  0.26241257455E+04  0.50400001928E-02 0.  1.
       -1   -1    0    0    0  501  0.00000000000E+00  0.00000000000E+00 -0.53870704291E+03  0.53870704293E+03  0.50400001928E-02 0. -1.
    10030    2    1    2    0    0  0.00000000000E+00  0.00000000000E+00  0.20854187025E+04  0.31628327884E+04  0.23779276865E+04 0.  0.
        1    1    3    3  502    0  0.78054318293E+03  0.22656108404E+02 -0.14982691852E+03  0.79511575585E+03  0.50400001928E-02 0. -1.
       -1    1    3    3    0  502 -0.78054318293E+03 -0.22656108404E+02  0.22352456211E+04  0.23677170325E+04  0.50400001928E-02 0.  1.
</event>
<event>
 5   0  0.2072710E-05  0.2716667E+04  0.7818609E-02  0.8329617E-01
        1   -1    0    0  501    0  0.00000000000E+00  0.00000000000E+00  0.15295044329E+04  0.15295044329E+04  0.50400001928E-02 0.  1.
       -1   -1    0    0    0  501  0.00000000000E+00  0.00000000000E+00 -0.12063185740E+04  0.12063185740E+04  0.50400001928E-02 0. -1.
    10030    2    1    2    0    0  0.00000000000E+00  0.00000000000E+00  0.32318585892E+03  0.27358230070E+04  0.27166667860E+04 0.  0.
        2    1    3    3  502    0 -0.40692723572E+03  0.11739445912E+04  0.71440261170E+03  0.14332155350E+04  0.25500000920E-02 0.  1.
       -2    1    3    3    0  502  0.40692723572E+03 -0.11739445912E+04 -0.39121675278E+03  0.13026074719E+04  0.25500000920E-02 0. -1.
</event>
<event>
 5   0  0.5049803E-05  0.2487193E+04  0.7818609E-02  0.8407562E-01
       -2   -1    0    0    0  501  0.00000000000E+00  0.00000000000E+00  0.78195112504E+03  0.78195112505E+03  0.25500000920E-02 0.  1.
        2   -1    0    0  501    0  0.00000000000E+00  0.00000000000E+00 -0.19777867802E+04  0.19777867802E+04  0.25500000920E-02 0. -1.
    10030    2    1    2    0    0  0.00000000000E+00  0.00000000000E+00 -0.11958356552E+04  0.27597379053E+04  0.24871932759E+04 0.  0.
        4    1    3    3  502    0  0.29636662736E+03 -0.11796363755E+04 -0.88545908008E+03  0.15044648722E+04  0.12699999809E+01 0. -1.
       -4    1    3    3    0  502 -0.29636662736E+03  0.11796363755E+04 -0.31037657510E+03  0.12552730331E+04  0.12699999809E+01 0.  1.
</event>
<event>
 5   0  0.5049803E-05  0.2788828E+04  0.7818609E-02  0.8306745E-01
        2   -1    0    0  501    0  0.00000000000E+00  0.00000000000E+00  0.13774550797E+04  0.13774550797E+04  0.25500000920E-02 0. -1.
       -2   -1    0    0    0  501  0.00000000000E+00  0.00000000000E+00 -0.14115814357E+04  0.14115814357E+04  0.25500000920E-02 0.  1.
    10030    2    1    2    0    0  0.00000000000E+00  0.00000000000E+00 -0.34126355916E+02  0.27890365154E+04  0.27888277243E+04 0.  0.
        4    1    3    3  502    0  0.51465160890E+03  0.81477253429E+03 -0.10249421045E+04  0.14068505577E+04  0.12699999809E+01 0.  1.
       -4    1    3    3    0  502 -0.51465160890E+03 -0.81477253429E+03  0.99081574858E+03  0.13821859577E+04  0.12699999809E+01 0. -1.
</event>
<event>
 5   0  0.5036452E-05  0.2586438E+04  0.7818609E-02  0.8372823E-01
       -2   -1    0    0    0  501  0.00000000000E+00  0.00000000000E+00  0.78687786335E+03  0.78687786335E+03  0.25500000920E-02 0.  1.
        2   -1    0    0  501    0  0.00000000000E+00  0.00000000000E+00 -0.21253809713E+04  0.21253809713E+04  0.25500000920E-02 0. -1.
    10030    2    1    2    0    0  0.00000000000E+00  0.00000000000E+00 -0.13385031079E+04  0.29122588346E+04  0.25864378883E+04 0.  0.
        2    1    3    3  502    0 -0.21311829685E+03 -0.11243253310E+04 -0.13475400452E+04  0.17678775500E+04  0.25500000920E-02 0. -1.
       -2    1    3    3    0  502  0.21311829685E+03  0.11243253310E+04  0.90369372479E+01  0.11443812846E+04  0.25500000920E-02 0.  1.
</event>
<event>
 5   0  0.5170532E-05  0.2604196E+04  0.7818609E-02  0.8366777E-01
       -2   -1    0    0    0  501  0.00000000000E+00  0.00000000000E+00  0.10023934331E+04  0.10023934331E+04  0.25500000920E-02 0. -1.
        2   -1    0    0  501    0  0.00000000000E+00  0.00000000000E+00 -0.16914111454E+04  0.16914111454E+04  0.25500000920E-02 0.  1.
    10030    2    1    2    0    0  0.00000000000E+00  0.00000000000E+00 -0.68901771230E+03  0.26938045785E+04  0.26041961714E+04 0.  0.
        1    1    3    3  502    0 -0.78088971000E+03  0.61565110894E+03  0.52503772269E+03  0.11244908347E+04  0.50400001928E-02 0.  1.
       -1    1    3    3    0  502  0.78088971000E+03 -0.61565110894E+03 -0.12140554350E+04  0.15693137438E+04  0.50400001928E-02 0. -1.
</event>
<event>
 5   0  0.5049803E-05  0.2620962E+04  0.7818609E-02  0.8361116E-01
       -2   -1    0    0    0  501  0.00000000000E+00  0.00000000000E+00  0.12862260963E+04  0.12862260963E+04  0.25500000920E-02 0.  1.
        2   -1    0    0  501    0  0.00000000000E+00  0.00000000000E+00 -0.13351933696E+04  0.13351933696E+04  0.25500000920E-02 0. -1.
    10030    2    1    2    0    0  0.00000000000E+00  0.00000000000E+00 -0.48967273274E+02  0.26214194659E+04  0.26209620796E+04 0.  0.
        4    1    3    3  502    0  0.48743915448E+03  0.11609979090E+04  0.33868559360E+03  0.13039258484E+04  0.12699999809E+01 0.  1.
       -4    1    3    3    0  502 -0.48743915448E+03 -0.11609979090E+04 -0.38765286687E+03  0.13174936175E+04  0.12699999809E+01 0. -1.
</event>
<event>
 5   0  0.4955675E-05  0.2662126E+04  0.7818609E-02  0.8347399E-01
        2   -1    0    0  501    0  0.00000000000E+00  0.00000000000E+00  0.30891961370E+04  0.30891961370E+04  0.25500000920E-02 0.  1.
       -2   -1    0    0    0  501  0.00000000000E+00  0.00000000000E+00 -0.57352417874E+03  0.57352417875E+03  0.25500000920E-02 0. -1.
    10030    2    1    2    0    0  0.00000000000E+00  0.00000000000E+00  0.25156719582E+04  0.36627203157E+04  0.26621259756E+04 0.  0.
        5    1    3    3  502    0 -0.10168522316E+04 -0.57310426280E+03  0.21380330399E+04  0.24359072902E+04  0.46999998093E+01 0.  1.
       -5    1    3    3    0  502  0.10168522316E+04  0.57310426280E+03  0.37763891831E+03  0.12268130255E+04  0.46999998093E+01 0. -1.
</event>
<event>
 5   0  0.2159405E-05  0.1890939E+04  0.7818609E-02  0.8659380E-01
        1   -1    0    0  501    0  0.00000000000E+00  0.00000000000E+00  0.11102031477E+04  0.11102031477E+04  0.50400001928E-02 0. -1.
       -1   -1    0    0    0  501  0.00000000000E+00  0.00000000000E+00 -0.80517930419E+03  0.80517930421E+03  0.50400001928E-02 0.  1.
    10030    2    1    2    0    0  0.00000000000E+00  0.00000000000E+00  0.30502384346E+03  0.19153824519E+04  0.18909390238E+04 0.  0.
        3    1    3    3  502    0  0.84642354913E+03  0.37789560643E+03  0.34113037200E+03  0.98772863418E+03  0.10100000352E+00 0. -1.
       -3    1    3    3    0  502 -0.84642354913E+03 -0.37789560643E+03 -0.36106528538E+02  0.92765381769E+03  0.10100000352E+00 0.  1.
</event>
<event>
 5   0  0.2159405E-05  0.2582091E+04  0.7818609E-02  0.8374310E-01
       -1   -1    0    0    0  501  0.00000000000E+00  0.00000000000E+00  0.10179244306E+04  0.10179244307E+04  0.50400001928E-02 0. -1.
        1   -1    0    0  501    0  0.00000000000E+00  0.00000000000E+00 -0.16374486762E+04  0.16374486762E+04  0.50400001928E-02 0.  1.
    10030    2    1    2    0    0  0.00000000000E+00  0.00000000000E+00 -0.61952424553E+03  0.26553731068E+04  0.25820914092E+04 0.  0.
        3    1    3    3  502    0 -0.83934839922E+03 -0.83292530824E+03  0.22314225978E+03  0.12033548033E+04  0.10100000352E+00 0. -1.
       -3    1    3    3    0  502  0.83934839922E+03  0.83292530824E+03 -0.84266650531E+03  0.14520183035E+04  0.10100000352E+00 0.  1.
</event>
<event>
 5   0  0.1954502E-05  0.2578956E+04  0.7818609E-02  0.8375385E-01
        1   -1    0    0  501    0  0.00000000000E+00  0.00000000000E+00  0.14440292786E+04  0.14440292786E+04  0.50400001928E-02 0. -1.
       -1   -1    0    0    0  501  0.00000000000E+00  0.00000000000E+00 -0.11514679524E+04  0.11514679524E+04  0.50400001928E-02 0.  1.
    10030    2    1    2    0    0  0.00000000000E+00  0.00000000000E+00  0.29256132619E+03  0.25954972309E+04  0.25789559411E+04 0.  0.
        4    1    3    3  502    0  0.54441039995E+03  0.49942841652E+03 -0.91735195302E+03  0.11778572262E+04  0.12699999809E+01 0.  1.
       -4    1    3    3    0  502 -0.54441039995E+03 -0.49942841652E+03  0.12099132792E+04  0.14176400047E+04  0.12699999809E+01 0. -1.
</event>
<event>
 5   0  0.2163800E-05  0.2034814E+04  0.7818609E-02  0.8590515E-01
        1   -1    0    0  501    0  0.00000000000E+00  0.00000000000E+00  0.12882947011E+04  0.12882947011E+04  0.50400001928E-02 0.  1.
       -1   -1    0    0    0  501  0.00000000000E+00  0.00000000000E+00 -0.80347880942E+03  0.80347880943E+03  0.50400001928E-02 0. -1.
    10030    2    1    2    0    0  0.00000000000E+00  0.00000000000E+00  0.48481589168E+03  0.20917735105E+04  0.20348144806E+04 0.  0.
        1    1    3    3  502    0  0.77145067683E+03 -0.65949347647E+03  0.16935753851E+03  0.10289556687E+04  0.50400001928E-02 0. -1.
       -1    1    3    3    0  502 -0.77145067683E+03  0.65949347647E+03  0.31545835317E+03  0.10628178418E+04  0.50400001928E-02 0.  1.
</event>
<event>
 5   0  0.5170532E-05  0.2607748E+04  0.7818609E-02  0.8365574E-01
       -2   -1    0    0    0  501  0.00000000000E+00  0.00000000000E+00  0.92287131582E+03  0.92287131583E+03  0.25500000920E-02 0. -1.
        2   -1    0    0  501    0  0.00000000000E+00  0.00000000000E+00 -0.18421720499E+04  0.18421720499E+04  0.25500000920E-02 0.  1.
    10030    2    1    2    0    0  0.00000000000E+00  0.00000000000E+00 -0.91930073405E+03  0.27650433657E+04  0.26077482575E+04 0.  0.
        1    1    3    3  502    0 -0.55701861998E+03  0.25262149222E+03  0.76132838919E+03  0.97657988795E+03  0.50400001928E-02 0. -1.
       -1    1    3    3    0  502  0.55701861998E+03 -0.25262149222E+03 -0.16806291232E+04  0.17884634778E+04  0.50400001928E-02 0.  1.
</event>
<event>
 5   0  0.5049803E-05  0.2626088E+04  0.7818609E-02  0.8359393E-01
        2   -1    0    0  501    0  0.00000000000E+00  0.00000000000E+00  0.13892458318E+04  0.13892458318E+04  0.25500000920E-02 0. -1.
       -2   -1    0    0    0  501  0.00000000000E+00  0.00000000000E+00 -0.12410220458E+04  0.12410220458E+04  0.25500000920E-02 0.  1.
    10030    2    1    2    0    0  0.00000000000E+00  0.00000000000E+00  0.14822378604E+03  0.26302678776E+04  0.26260881206E+04 0.  0.
        4    1    3    3  502    0 -0.11024960791E+04 -0.66761537260E+03  0.32526027245E+03  0.13292869321E+04  0.12699999809E+01 0. -1.
       -4    1    3    3    0  502  0.11024960791E+04  0.66761537260E+03 -0.17703648641E+03  0.13009809455E+04  0.12699999809E+01 0.  1.
</event>
<event>
 5   0  0.5036452E-05  0.2639431E+04  0.7818609E-02  0.8354929E-01
        2   -1    0    0  501    0  0.00000000000E+00  0.00000000000E+00  0.15676157330E+04  0.15676157330E+04  0.25500000920E-02 0.  1.
       -2   -1    0    0    0  501  0.00000000000E+00  0.00000000000E+00 -0.11110178122E+04  0.11110178122E+04  0.25500000920E-02 0. -1.
    10030    2    1    2    0    0  0.00000000000E+00  0.00000000000E+00  0.45659792074E+03  0.26786335452E+04  0.26394310009E+04 0.  0.
        2    1    3    3  502    0 -0.16040483253E+03  0.93387235819E+03  0.11605292091E+04  0.14982240610E+04  0.25500000920E-02 0.  1.
       -2    1    3    3    0  502  0.16040483253E+03 -0.93387235819E+03 -0.70393128837E+03  0.11804094842E+04  0.25500000920E-02 0. -1.
</event>
<event>
 5   0  0.1698625E-05  0.2650235E+04  0.7818609E-02  0.8351335E-01
       -3   -1    0    0    0  501  0.00000000000E+00  0.00000000000E+00  0.74223866349E+03  0.74223867036E+03  0.10100000352E+00 0. -1.
        3   -1    0    0  501    0  0.00000000000E+00  0.00000000000E+00 -0.23657292624E+04  0.23657292645E+04  0.10100000352E+00 0.  1.
    10030    2    1    2    0    0  0.00000000000E+00  0.00000000000E+00 -0.16234905989E+04  0.31079679349E+04  0.26502345103E+04 0.  0.
        2    1    3    3  502    0  0.11742155381E+04 -0.17774128723E+03 -0.15011194439E+04  0.19140882112E+04  0.25500000920E-02 0.  1.
       -2    1    3    3    0  502 -0.11742155381E+04  0.17774128723E+03 -0.12237115498E+03  0.11938797237E+04  0.25500000920E-02 0. -1.
</event>
<event>
 5   0  0.2159405E-05  0.2626902E+04  0.7818609E-02  0.8359120E-01
       -1   -1    0    0    0  501  0.00000000000E+00  0.00000000000E+00  0.11314007208E+04  0.11314007208E+04  0.50400001928E-02 0.  1.
        1   -1    0    0  501    0  0.00000000000E+00  0.00000000000E+00 -0.15247948932E+04  0.15247948932E+04  0.50400001928E-02 0. -1.
    10030    2    1    2    0    0  0.00000000000E+00  0.00000000000E+00 -0.39339417239E+03  0.26561956140E+04  0.26269023897E+04 0.  0.
        3    1    3    3  502    0 -0.42302709850E+03 -0.12073617834E+04  0.10407516464E+03  0.12835521229E+04  0.10100000352E+00 0.  1.
       -3    1    3    3    0  502  0.42302709850E+03  0.12073617834E+04 -0.49746933704E+03  0.13726434911E+04  0.10100000352E+00 0. -1.
</event>
<event>
 5   0  0.5170532E-05  0.2591986E+04  0.7818609E-02  0.8370929E-01
       -2   -1    0    0    0  501  0.00000000000E+00  0.00000000000E+00  0.93275151674E+03  0.93275151675E+03  0.25500000920E-02 0. -1.
        2   -1    0    0  501    0  0.00000000000E+00  0.00000000000E+00 -0.18006910002E+04  0.18006910002E+04  0.25500000920E-02 0.  1.
    10030    2    1    2    0    0  0.00000000000E+00  0.00000000000E+00 -0.86793948347E+03  0.27334425170E+04  0.25919855413E+04 0.  0.
        1    1    3    3  502    0  0.91151779002E+03  0.66600742688E+03 -0.11052351012E+04  0.15798655649E+04  0.50400001928E-02 0.  1.
       -1    1    3    3    0  502 -0.91151779002E+03 -0.66600742688E+03  0.23729561770E+03  0.11535769521E+04  0.50400001928E-02 0. -1.
</event>
<event>
 5   0  0.1954502E-05  0.2590224E+04  0.7818609E-02  0.8371529E-01
        1   -1    0    0  501    0  0.00000000000E+00  0.00000000000E+00  0.13140472323E+04  0.13140472323E+04  0.50400001928E-02 0. -1.
       -1   -1    0    0    0  501  0.00000000000E+00  0.00000000000E+00 -0.12764498885E+04  0.12764498885E+04  0.50400001928E-02 0.  1.
    10030    2    1    2    0    0  0.00000000000E+00  0.00000000000E+00  0.37597343841E+02  0.25904971208E+04  0.25902242707E+04 0.  0.
        4    1    3    3  502    0  0.23302785084E+03 -0.12731989876E+04 -0.25660356436E+02  0.12946033015E+04  0.12699999809E+01 0.  1.
       -4    1    3    3    0  502 -0.23302785084E+03  0.12731989876E+04  0.63257700277E+02  0.12958938193E+04  0.12699999809E+01 0. -1.
</event>
<event>
 5   0  0.2159405E-05  0.2569625E+04  0.7818609E-02  0.8378593E-01
        1   -1    0    0  501    0  0.00000000000E+00  0.00000000000E+00  0.86680142544E+03  0.86680142545E+03  0.50400001928E-02 0. -1.
       -1   -1    0    0    0  501  0.00000000000E+00  0.00000000000E+00 -0.19044078409E+04  0.19044078409E+04  0.50400001928E-02 0.  1.
    10030    2    1    2    0    0  0.00000000000E+00  0.00000000000E+00 -0.10376064155E+04  0.27712092664E+04  0.25696252109E+04 0.  0.
        3    1    3    3  502    0  0.41810383166E+03 -0.12138673980E+04 -0.57227673090E+03  0.14056263874E+04  0.10100000352E+00 0.  1.
       -3    1    3    3    0  502 -0.41810383166E+03  0.12138673980E+04 -0.46532968460E+03  0.13655828790E+04  0.10100000352E+00 0. -1.
</event>
<event>
 5   0  0.2163800E-05  0.2593589E+04  0.7818609E-02  0.8370382E-01
        1   -1    0    0  501    0  0.00000000000E+00  0.00000000000E+00  0.17189209913E+04  0.17189209913E+04  0.50400001928E-02 0. -1.
       -1   -1    0    0    0  501  0.00000000000E+00  0.00000000000E+00 -0.97833255769E+03  0.97833255770E+03  0.50400001928E-02 0.  1.
    10030    2    1    2    0    0  0.00000000000E+00  0.00000000000E+00  0.74058843364E+03  0.26972535490E+04  0.25935893044E+04 0.  0.
        1    1    3    3  502    0  0.12424828214E+04 -0.11918875163E+03  0.45163350685E+01  0.12481946633E+04  0.50400001928E-02 0.  1.
       -1    1    3    3    0  502 -0.12424828214E+04  0.11918875163E+03  0.73607209857E+03  0.14490588858E+04  0.50400001928E-02 0. -1.
</event>
<event>
 5   0  0.1698625E-05  0.2266424E+04  0.7818609E-02  0.8491279E-01
       -3   -1    0    0    0  501  0.00000000000E+00  0.00000000000E+00  0.12090437964E+04  0.12090438006E+04  0.10100000352E+00 0. -1.
        3   -1    0    0  501    0  0.00000000000E+00  0.00000000000E+00 -0.10621363170E+04  0.10621363218E+04  0.10100000352E+00 0.  1.
    10030    2    1    2    0    0  0.00000000000E+00  0.00000000000E+00  0.14690747941E+03  0.22711801224E+04  0.22664239102E+04 0.  0.
        2    1    3    3  502    0  0.16324481796E+03  0.53755743394E+03 -0.91276218689E+03  0.10717983370E+04  0.25500000920E-02 0.  1.
       -2    1    3    3    0  502 -0.16324481796E+03 -0.53755743394E+03  0.10596696663E+04  0.11993817854E+04  0.25500000920E-02 0. -1.
</event>
<event>
 5   0  0.2159405E-05  0.2612652E+04  0.7818609E-02  0.8363916E-01
        1   -1    0    0  501    0  0.00000000000E+00  0.00000000000E+00  0.23233428743E+04  0.23233428743E+04  0.50400001928E-02 0. -1.
       -1   -1    0    0    0  501  0.00000000000E+00  0.00000000000E+00 -0.73449658850E+03  0.73449658852E+03  0.50400001928E-02 0.  1.
    10030    2    1    2    0    0  0.00000000000E+00  0.00000000000E+00  0.15888462858E+04  0.30578394628E+04  0.26126518445E+04 0.  0.
        3    1    3    3  502    0  0.75241870658E+03 -0.10670592920E+04  0.74563061488E+03  0.15035672471E+04  0.10100000352E+00 0.  1.
       -3    1    3    3    0  502 -0.75241870658E+03  0.10670592920E+04  0.84321567094E+03  0.15542722157E+04  0.10100000352E+00 0. -1.
</event>
<event>
 5   0  0.5049803E-05  0.2568213E+04  0.7818609E-02  0.8379079E-01
        2   -1    0    0  501    0  0.00000000000E+00  0.00000000000E+00  0.10500397759E+04  0.10500397759E+04  0.25500000920E-02 0.  1.
       -2   -1    0    0    0  501  0.00000000000E+00  0.00000000000E+00 -0.15703501036E+04  0.15703501036E+04  0.25500000920E-02 0. -1.
    10030    2    1    2    0    0  0.00000000000E+00  0.00000000000E+00 -0.52031032772E+03  0.26203898795E+04  0.25682134420E+04 0.  0.
        4    1    3    3  502    0  0.17204003703E+03 -0.11760162921E+04 -0.75615518715E+03  0.14086817858E+04  0.12699999809E+01 0. -1.
       -4    1    3    3    0  502 -0.17204003703E+03  0.11760162921E+04  0.23584485943E+03  0.12117080937E+04  0.12699999809E+01 0.  1.
</event>
<event>
 5   0  0.5170532E-05  0.2576397E+04  0.7818609E-02  0.8376263E-01
       -2   -1    0    0    0  501  0.00000000000E+00  0.00000000000E+00  0.12720736549E+04  0.12720736549E+04  0.25500000920E-02 0. -1.
        2   -1    0    0  501    0  0.00000000000E+00  0.00000000000E+00 -0.13045275919E+04  0.13045275919E+04  0.25500000920E-02 0.  1.
    10030    2    1    2    0    0  0.00000000000E+00  0.00000000000E+00 -0.32453936920E+02  0.25766012468E+04  0.25763968497E+04 0.  0.
        1    1    3    3  502    0 -0.82125330785E+03  0.13320395827E+03 -0.99979616836E+03  0.13006893051E+04  0.50400001928E-02 0.  1.
       -1    1    3    3    0  502  0.82125330785E+03 -0.13320395827E+03  0.96734223144E+03  0.12759119417E+04  0.50400001928E-02 0. -1.
</event>
<event>
 5   0  0.1954502E-05  0.1449171E+04  0.7818609E-02  0.8918975E-01
        1   -1    0    0  501    0  0.00000000000E+00  0.00000000000E+00  0.16358464870E+04  0.16358464870E+04  0.50400001928E-02 0. -1.
       -1   -1    0    0    0  501  0.00000000000E+00  0.00000000000E+00 -0.32094965464E+03  0.32094965468E+03  0.50400001928E-02 0.  1.
    10030    2    1    2    0    0  0.00000000000E+00  0.00000000000E+00  0.13148968324E+04  0.19567961417E+04  0.14491713013E+04 0.  0.
        4    1    3    3  502    0  0.69802127886E+03 -0.15655964308E+03  0.81304291164E+03  0.10829519918E+04  0.12699999809E+01 0. -1.
       -4    1    3    3    0  502 -0.69802127886E+03  0.15655964308E+03  0.50185392075E+03  0.87384414986E+03  0.12699999809E+01 0.  1.
</event>
<event>
 5   0  0.4955675E-05  0.2666393E+04  0.7818609E-02  0.8345992E-01
        2   -1    0    0  501    0  0.00000000000E+00  0.00000000000E+00  0.21231861161E+04  0.21231861161E+04  0.25500000920E-02 0. -1.
       -2   -1    0    0    0  501  0.00000000000E+00  0.00000000000E+00 -0.83714408977E+03  0.83714408977E+03  0.25500000920E-02 0.  1.
    10030    2    1    2    0    0  0.00000000000E+00  0.00000000000E+00  0.12860420264E+04  0.29603302059E+04  0.26663928507E+04 0.  0.
        5    1    3    3  502    0  0.95261222800E+03 -0.26125888098E+03 -0.35103832217E+03  0.10483206825E+04  0.46999998093E+01 0.  1.
       -5    1    3    3    0  502 -0.95261222800E+03  0.26125888098E+03  0.16370803485E+04  0.19120095234E+04  0.46999998093E+01 0. -1.
</event>
<event>
 5   0  0.1954502E-05  0.2064926E+04  0.7818609E-02  0.8576853E-01
        1   -1    0    0  501    0  0.00000000000E+00  0.00000000000E+00  0.11198222780E+04  0.11198222780E+04  0.50400001928E-02 0. -1.
       -1   -1    0    0    0  501  0.00000000000E+00  0.00000000000E+00 -0.95191894981E+03  0.95191894983E+03  0.50400001928E-02 0.  1.
    10030    2    1    2    0    0  0.00000000000E+00  0.00000000000E+00  0.16790332817E+03  0.20717412278E+04  0.20649261942E+04 0.  0.
        4    1    3    3  502    0 -0.78289542463E+03 -0.49165408600E+03  0.54517469377E+03  0.10732502252E+04  0.12699999809E+01 0. -1.
       -4    1    3    3    0  502  0.78289542463E+03  0.49165408600E+03 -0.37727136560E+03  0.99849100266E+03  0.12699999809E+01 0.  1.
</event>
<event>
 5   0  0.2163800E-05  0.2639939E+04  0.7818609E-02  0.8354760E-01
        1   -1    0    0  501    0  0.00000000000E+00  0.00000000000E+00  0.14960047484E+04  0.14960047484E+04  0.50400001928E-02 0. -1.
       -1   -1    0    0    0  501  0.00000000000E+00  0.00000000000E+00 -0.11646480499E+04  0.11646480499E+04  0.50400001928E-02 0.  1.
    10030    2    1    2    0    0  0.00000000000E+00  0.00000000000E+00  0.33135669850E+03  0.26606527984E+04  0.26399386454E+04 0.  0.
        1    1    3    3  502    0 -0.26413486776E+03 -0.34428680838E+03 -0.10907057944E+04  0.11738567906E+04  0.50400001928E-02 0.  1.
       -1    1    3    3    0  502  0.26413486776E+03  0.34428680838E+03  0.14220624929E+04  0.14867960077E+04  0.50400001928E-02 0. -1.
</event>
<event>
 5   0  0.2159405E-05  0.2566847E+04  0.7818609E-02  0.8379551E-01
       -1   -1    0    0    0  501  0.00000000000E+00  0.00000000000E+00  0.89825970006E+03  0.89825970008E+03  0.50400001928E-02 0. -1.
        1   -1    0    0  501    0  0.00000000000E+00  0.00000000000E+00 -0.18337409065E+04  0.18337409065E+04  0.50400001928E-02 0.  1.
    10030    2    1    2    0    0  0.00000000000E+00  0.00000000000E+00 -0.93548120646E+03  0.27320006066E+04  0.25668467478E+04 0.  0.
        3    1    3    3  502    0 -0.57700167062E+03 -0.88859444574E+03  0.30318669787E+03  0.11020223232E+04  0.10100000352E+00 0. -1.
       -3    1    3    3    0  502  0.57700167062E+03  0.88859444574E+03 -0.12386679043E+04  0.16299782834E+04  0.10100000352E+00 0.  1.
</event>
<event>
 5   0  0.2159405E-05  0.1688461E+04  0.7818609E-02  0.8767973E-01
       -1   -1    0    0    0  501  0.00000000000E+00  0.00000000000E+00  0.92035277329E+03  0.92035277330E+03  0.50400001928E-02 0.  1.
        1   -1    0    0  501    0  0.00000000000E+00  0.00000000000E+00 -0.77440393210E+03  0.77440393212E+03  0.50400001928E-02 0. -1.
    10030    2    1    2    0    0  0.00000000000E+00  0.00000000000E+00  0.14594884118E+03  0.16947567054E+04  0.16884606085E+04 0.  0.
        3    1    3    3  502    0  0.62642958911E+03  0.45852976822E+03 -0.26001741466E+03  0.81870180443E+03  0.10100000352E+00 0. -1.
       -3    1    3    3    0  502 -0.62642958911E+03 -0.45852976822E+03  0.40596625584E+03  0.87605490099E+03  0.10100000352E+00 0.  1.
</event>
<event>
 5   0  0.4955675E-05  0.1438561E+04  0.7818609E-02  0.8926369E-01
        2   -1    0    0  501    0  0.00000000000E+00  0.00000000000E+00  0.58351647559E+03  0.58351647560E+03  0.25500000920E-02 0. -1.
       -2   -1    0    0    0  501  0.00000000000E+00  0.00000000000E+00 -0.88663243443E+03  0.88663243444E+03  0.25500000920E-02 0.  1.
    10030    2    1    2    0    0  0.00000000000E+00  0.00000000000E+00 -0.30311595884E+03  0.14701489100E+04  0.14385612720E+04 0.  0.
        5    1    3    3  502    0  0.38513433164E+03 -0.32421534898E+03  0.37343249152E+03  0.62683168525E+03  0.46999998093E+01 0. -1.
       -5    1    3    3    0  502 -0.38513433164E+03  0.32421534898E+03 -0.67654845036E+03  0.84331722478E+03  0.46999998093E+01 0.  1.
</event>
<event>
 5   0  0.5170532E-05  0.2490917E+04  0.7818609E-02  0.8406229E-01
        2   -1    0    0  501    0  0.00000000000E+00  0.00000000000E+00  0.15421379010E+04  0.15421379010E+04  0.25500000920E-02 0.  1.
       -2   -1    0    0    0  501  0.00000000000E+00  0.00000000000E+00 -0.10058545475E+04  0.10058545475E+04  0.25500000920E-02 0. -1.
    10030    2    1    2    0    0  0.00000000000E+00  0.00000000000E+00  0.53628335354E+03  0.25479924485E+04  0.24909166349E+04 0.  0.
        1    1    3    3  502    0 -0.85662360979E+02  0.96543524262E+03  0.10682165076E+04  0.14423902921E+04  0.50400001928E-02 0. -1.
       -1    1    3    3    0  502  0.85662360979E+02 -0.96543524262E+03 -0.53193315402E+03  0.11056021564E+04  0.50400001928E-02 0.  1.
</event>
<event>
 5   0  0.1954502E-05  0.2631595E+04  0.7818609E-02  0.8357548E-01
       -1   -1    0    0    0  501  0.00000000000E+00  0.00000000000E+00  0.13414347741E+04  0.13414347741E+04  0.50400001928E-02 0. -1.
        1   -1    0    0  501    0  0.00000000000E+00  0.00000000000E+00 -0.12906499323E+04  0.12906499323E+04  0.50400001928E-02 0.  1.
    10030    2    1    2    0    0  0.00000000000E+00  0.00000000000E+00  0.50784841809E+02  0.26320847063E+04  0.26315947259E+04 0.  0.
        4    1    3    3  502    0  0.10558412921E+04  0.21904622168E+03  0.77954806795E+03  0.13305934332E+04  0.12699999809E+01 0. -1.
       -4    1    3    3    0  502 -0.10558412921E+04 -0.21904622168E+03 -0.72876322614E+03  0.13014912731E+04  0.12699999809E+01 0.  1.
</event>
<event>
 5   0  0.2159405E-05  0.2602205E+04  0.7818609E-02  0.8367453E-01
        1   -1    0    0  501    0  0.00000000000E+00  0.00000000000E+00  0.99663673694E+03  0.99663673695E+03  0.50400001928E-02 0.  1.
       -1   -1    0    0    0  501  0.00000000000E+00  0.00000000000E+00 -0.16985800763E+04  0.16985800763E+04  0.50400001928E-02 0. -1.
    10030    2    1    2    0    0  0.00000000000E+00  0.00000000000E+00 -0.70194333934E+03  0.26952168132E+04  0.26022046843E+04 0.  0.
        3    1    3    3  502    0 -0.99362490011E+03  0.18590637387E+01  0.51903654150E+03  0.11210231219E+04  0.10100000352E+00 0.  1.
       -3    1    3    3    0  502  0.99362490011E+03 -0.18590637387E+01 -0.12209798808E+04  0.15741936913E+04  0.10100000352E+00 0. -1.
</event>
<event>
 5   0  0.4955675E-05  0.1446811E+04  0.7818609E-02  0.8920614E-01
       -2   -1    0    0    0  501  0.00000000000E+00  0.00000000000E+00  0.29390454360E+03  0.29390454361E+03  0.25500000920E-02 0. -1.
        2   -1    0    0  501    0  0.00000000000E+00  0.00000000000E+00 -0.17805625065E+04  0.17805625065E+04  0.25500000920E-02 0.  1.
    10030    2    1    2    0    0  0.00000000000E+00  0.00000000000E+00 -0.14866579629E+04  0.20744670501E+04  0.14468108526E+04 0.  0.
        5    1    3    3  502    0  0.32117510879E+03 -0.61719988485E+03 -0.10272260635E+04  0.12406871580E+04  0.46999998093E+01 0. -1.
       -5    1    3    3    0  502 -0.32117510879E+03  0.61719988485E+03 -0.45943189936E+03  0.83377989213E+03  0.46999998093E+01 0.  1.
</event>
<event>
 5   0  0.1993815E-05  0.2640029E+04  0.7818609E-02  0.8354730E-01
       -1   -1    0    0    0  501  0.00000000000E+00  0.00000000000E+00  0.12908251293E+04  0.12908251293E+04  0.50400001928E-02 0.  1.
        1   -1    0    0  501    0  0.00000000000E+00  0.00000000000E+00 -0.13498636909E+04  0.13498636909E+04  0.50400001928E-02 0. -1.
    10030    2    1    2    0    0  0.00000000000E+00  0.00000000000E+00 -0.59038561611E+02  0.26406888202E+04  0.26400287675E+04 0.  0.
        5    1    3    3  502    0 -0.27446933378E+03 -0.68924024562E+02 -0.13191561577E+04  0.13491771547E+04  0.46999998093E+01 0. -1.
       -5    1    3    3    0  502  0.27446933378E+03  0.68924024562E+02  0.12601175961E+04  0.12915116656E+04  0.46999998093E+01 0.  1.
</event>
<event>
 5   0  0.2159405E-05  0.2558384E+04  0.7818609E-02  0.8382476E-01
        1   -1    0    0  501    0  0.00000000000E+00  0.00000000000E+00  0.19578809326E+04  0.19578809326E+04  0.50400001928E-02 0. -1.
       -1   -1    0    0    0  501  0.00000000000E+00  0.00000000000E+00 -0.83576721928E+03  0.83576721929E+03  0.50400001928E-02 0.  1.
    10030    2    1    2    0    0  0.00000000000E+00  0.00000000000E+00  0.11221137134E+04  0.27936481519E+04  0.25583844143E+04 0.  0.
        3    1    3    3  502    0  0.10004885641E+04  0.15751377899E+03 -0.29217026551E+03  0.10541116790E+04  0.10100000352E+00 0.  1.
       -3    1    3    3    0  502 -0.10004885641E+04 -0.15751377899E+03  0.14142839789E+04  0.17395364729E+04  0.10100000352E+00 0. -1.
</event>
<event>
 5   0  0.5049803E-05  0.2510807E+04  0.7818609E-02  0.8399145E-01
        2   -1    0    0  501    0  0.00000000000E+00  0.00000000000E+00  0.12040505705E+04  0.12040505705E+04  0.25500000920E-02 0.  1.
       -2   -1    0    0    0  501  0.00000000000E+00  0.00000000000E+00 -0.13089470072E+04  0.13089470072E+04  0.25500000920E-02 0. -1.
    10030    2    1    2    0    0  0.00000000000E+00  0.00000000000E+00 -0.10489643671E+03  0.25129975777E+04  0.25108073529E+04 0.  0.
        4    1    3    3  502    0  0.30322297252E+01  0.12441694025E+04  0.11523921354E+03  0.12494992540E+04  0.12699999809E+01 0.  1.
       -4    1    3    3    0  502 -0.30322297252E+01 -0.12441694025E+04 -0.22013565025E+03  0.12634983237E+04  0.12699999809E+01 0. -1.
</event>
<event>
 5   0  0.5036452E-05  0.2631141E+04  0.7818609E-02  0.8357700E-01
        2   -1    0    0  501    0  0.00000000000E+00  0.00000000000E+00  0.16894694715E+04  0.16894694715E+04  0.25500000920E-02 0.  1.
       -2   -1    0    0    0  501  0.00000000000E+00  0.00000000000E+00 -0.10244193770E+04  0.10244193770E+04  0.25500000920E-02 0. -1.
    10030    2    1    2    0    0  0.00000000000E+00  0.00000000000E+00  0.66505009453E+03  0.27138888484E+04  0.26311406373E+04 0.  0.
        2    1    3    3  502    0  0.11724902136E+04  0.15340091211E+03  0.92725221032E+03  0.15026848646E+04  0.25500000920E-02 0.  1.
       -2    1    3    3    0  502 -0.11724902136E+04 -0.15340091211E+03 -0.26220211579E+03  0.12112039838E+04  0.25500000920E-02 0. -1.
</event>
<event>
 5   0  0.2072710E-05  0.2607049E+04  0.7818609E-02  0.8365811E-01
        1   -1    0    0  501    0  0.00000000000E+00  0.00000000000E+00  0.16210460731E+04  0.16210460731E+04  0.50400001928E-02 0.  1.
       -1   -1    0    0    0  501  0.00000000000E+00  0.00000000000E+00 -0.10481974724E+04  0.10481974724E+04  0.50400001928E-02 0. -1.
    10030    2    1    2    0    0  0.00000000000E+00  0.00000000000E+00  0.57284860071E+03  0.26692435454E+04  0.26070492104E+04 0.  0.
        2    1    3    3  502    0  0.12411220033E+04  0.81703357551E+02 -0.11290211048E+03  0.12489219961E+04  0.25500000920E-02 0. -1.
       -2    1    3    3    0  502 -0.12411220033E+04 -0.81703357551E+02  0.68575071119E+03  0.14203215494E+04  0.25500000920E-02 0.  1.
</event>
<event>
 5   0  0.5036452E-05  0.2625363E+04  0.7818609E-02  0.8359637E-01
        2   -1    0    0  501    0  0.00000000000E+00  0.00000000000E+00  0.19374195625E+04  0.19374195625E+04  0.25500000920E-02 0.  1.
       -2   -1    0    0    0  501  0.00000000000E+00  0.00000000000E+00 -0.88939576882E+03  0.88939576883E+03  0.25500000920E-02 0. -1.
    10030    2    1    2    0    0  0.00000000000E+00  0.00000000000E+00  0.10480237937E+04  0.28268153313E+04  0.26253630312E+04 0.  0.
        2    1    3    3  502    0 -0.65204720375E+02  0.59630246785E+03  0.17812122732E+04  0.18795067041E+04  0.25500000920E-02 0.  1.
       -2    1    3    3    0  502  0.65204720375E+02 -0.59630246785E+03 -0.73318847949E+03  0.94730862721E+03  0.25500000920E-02 0. -1.
</event>
<event>
 5   0  0.2072710E-05  0.2535275E+04  0.7818609E-02  0.8390525E-01
       -1   -1    0    0    0  501  0.00000000000E+00  0.00000000000E+00  0.99706921802E+03  0.99706921803E+03  0.50400001928E-02 0.  1.
        1   -1    0    0  501    0  0.00000000000E+00  0.00000000000E+00 -0.16116286150E+04  0.16116286150E+04  0.50400001928E-02 0. -1.
    10030    2    1    2    0    0  0.00000000000E+00  0.00000000000E+00 -0.61455939694E+03  0.26086978330E+04  0.25352753562E+04 0.  0.
        2    1    3    3  502    0  0.51878066378E+03 -0.83279725106E+01 -0.14973659008E+04  0.15847105013E+04  0.25500000920E-02 0. -1.
       -2    1    3    3    0  502 -0.51878066378E+03  0.83279725106E+01  0.88280650382E+03  0.10239873317E+04  0.25500000920E-02 0.  1.
</event>
<event>
 5   0  0.2163800E-05  0.2427901E+04  0.7818609E-02  0.8429131E-01
       -1   -1    0    0    0  501  0.00000000000E+00  0.00000000000E+00  0.74445150172E+03  0.74445150174E+03  0.50400001928E-02 0. -1.
        1   -1    0    0  501    0  0.00000000000E+00  0.00000000000E+00 -0.19795458053E+04  0.19795458053E+04  0.50400001928E-02 0.  1.
    10030    2    1    2    0    0  0.00000000000E+00  0.00000000000E+00 -0.12350943036E+04  0.27239973071E+04  0.24279010256E+04 0.  0.
        1    1    3    3  502    0  0.49492366864E+03  0.11066871077E+04 -0.54685454718E+03  0.13299457462E+04  0.50400001928E-02 0.  1.
       -1    1    3    3    0  502 -0.49492366864E+03 -0.11066871077E+04 -0.68823975643E+03  0.13940515609E+04  0.50400001928E-02 0. -1.
</event>
<event>
 5   0  0.5036452E-05  0.2569348E+04  0.7818609E-02  0.8378688E-01
        2   -1    0    0  501    0  0.00000000000E+00  0.00000000000E+00  0.21095485936E+04  0.21095485936E+04  0.25500000920E-02 0. -1.
       -2   -1    0    0    0  501  0.00000000000E+00  0.00000000000E+00 -0.78234142673E+03  0.78234142673E+03  0.25500000920E-02 0.  1.
    10030    2    1    2    0    0  0.00000000000E+00  0.00000000000E+00  0.13272071668E+04  0.28918900203E+04  0.25693479768E+04 0.  0.
        2    1    3    3  502    0 -0.53342877973E+03  0.63286190531E+02 -0.64986965223E+03  0.84313816771E+03  0.25500000920E-02 0.  1.
       -2    1    3    3    0  502  0.53342877973E+03 -0.63286190531E+02  0.19770768191E+04  0.20487518526E+04  0.25500000920E-02 0. -1.
</event>
<event>
 5   0  0.5049803E-05  0.2442116E+04  0.7818609E-02  0.8423902E-01
        2   -1    0    0  501    0  0.00000000000E+00  0.00000000000E+00  0.26959440565E+04  0.26959440566E+04  0.25500000920E-02 0.  1.
       -2   -1    0    0    0  501  0.00000000000E+00  0.00000000000E+00 -0.55304661325E+03  0.55304661326E+03  0.25500000920E-02 0. -1.
    10030    2    1    2    0    0  0.00000000000E+00  0.00000000000E+00  0.21428974433E+04  0.32489906698E+04  0.24421160742E+04 0.  0.
        4    1    3    3  502    0  0.89619224742E+03  0.51184583865E+03  0.20328319218E+03  0.10518899068E+04  0.12699999809E+01 0. -1.
       -4    1    3    3    0  502 -0.89619224742E+03 -0.51184583865E+03  0.19396142511E+04  0.21971007630E+04  0.12699999809E+01 0.  1.
</event>
<event>
 5   0  0.5170532E-05  0.2623735E+04  0.7818609E-02  0.8360183E-01
        2   -1    0    0  501    0  0.00000000000E+00  0.00000000000E+00  0.22969215956E+04  0.22969215956E+04  0.25500000920E-02 0. -1.
       -2   -1    0    0    0  501  0.00000000000E+00  0.00000000000E+00 -0.74926197048E+03  0.74926197048E+03  0.25500000920E-02 0.  1.
    10030    2    1    2    0    0  0.00000000000E+00  0.00000000000E+00  0.15476596251E+04  0.30461835661E+04  0.26237347433E+04 0.  0.
        1    1    3    3  502    0  0.13054101910E+04  0.87563668440E+02  0.66227103470E+03  0.14664126590E+04  0.50400001928E-02 0.  1.
       -1    1    3    3    0  502 -0.13054101910E+04 -0.87563668440E+02  0.88538859043E+03  0.15797709071E+04  0.50400001928E-02 0. -1.
</event>
<event>
 5   0  0.5170532E-05  0.2581969E+04  0.7818609E-02  0.8374352E-01
       -2   -1    0    0    0  501  0.00000000000E+00  0.00000000000E+00  0.11188962345E+04  0.11188962345E+04  0.25500000920E-02 0.  1.
        2   -1    0    0  501    0  0.00000000000E+00  0.00000000000E+00 -0.14895403518E+04  0.14895403518E+04  0.25500000920E-02 0. -1.
    10030    2    1    2    0    0  0.00000000000E+00  0.00000000000E+00 -0.37064411726E+03  0.26084365863E+04  0.25819690864E+04 0.  0.
        1    1    3    3  502    0 -0.11617237836E+04  0.91760080666E+02  0.37590757605E+03  0.12244707296E+04  0.50400001928E-02 0.  1.
       -1    1    3    3    0  502  0.11617237836E+04 -0.91760080666E+02 -0.74655169331E+03  0.13839658567E+04  0.50400001928E-02 0. -1.
</event>
<event>
 5   0  0.2072710E-05  0.2576399E+04  0.7818609E-02  0.8376262E-01
       -1   -1    0    0    0  501  0.00000000000E+00  0.00000000000E+00  0.10069430888E+04  0.10069430888E+04  0.50400001928E-02 0.  1.
        1   -1    0    0  501    0  0.00000000000E+00  0.00000000000E+00 -0.16480157289E+04  0.16480157289E+04  0.50400001928E-02 0. -1.
    10030    2    1    2    0    0  0.00000000000E+00  0.00000000000E+00 -0.64107264012E+03  0.26549588177E+04  0.25763990750E+04 0.  0.
        2    1    3    3  502    0 -0.30485073331E+03  0.36483274961E+03 -0.15542987964E+04  0.16253866165E+04  0.25500000920E-02 0. -1.
       -2    1    3    3    0  502  0.30485073331E+03 -0.36483274961E+03  0.91322615627E+03  0.10295722011E+04  0.25500000920E-02 0.  1.
</event>
<event>
 5   0  0.2072710E-05  0.2605999E+04  0.7818609E-02  0.8366166E-01
        1   -1    0    0  501    0  0.00000000000E+00  0.00000000000E+00  0.15351765822E+04  0.15351765823E+04  0.50400001928E-02 0. -1.
       -1   -1    0    0    0  501  0.00000000000E+00  0.00000000000E+00 -0.11059360991E+04  0.11059360991E+04  0.50400001928E-02 0.  1.
    10030    2    1    2    0    0  0.00000000000E+00  0.00000000000E+00  0.42924048311E+03  0.26411126814E+04  0.26059986192E+04 0.  0.
        2    1    3    3  502    0  0.11293866529E+04 -0.57614146431E+03  0.51925990446E+03  0.13700671688E+04  0.25500000920E-02 0. -1.
       -2    1    3    3    0  502 -0.11293866529E+04  0.57614146431E+03 -0.90019421349E+02  0.12710455126E+04  0.25500000920E-02 0.  1.
</event>
<event>
 5   0  0.5170532E-05  0.2669759E+04  0.7818609E-02  0.8344884E-01
       -2   -1    0    0    0  501  0.00000000000E+00  0.00000000000E+00  0.11156554445E+04  0.11156554445E+04  0.25500000920E-02 0.  1.
        2   -1    0    0  501    0  0.00000000000E+00  0.00000000000E+00 -0.15971800767E+04  0.15971800767E+04  0.25500000920E-02 0. -1.
    10030    2    1    2    0    0  0.00000000000E+00  0.00000000000E+00 -0.48152463225E+03  0.27128355212E+04  0.26697585272E+04 0.  0.
        1    1    3    3  502    0  0.43947006464E+03 -0.40731284563E+03 -0.14528480027E+04  0.15715613290E+04  0.50400001928E-02 0. -1.
       -1    1    3    3    0  502 -0.43947006464E+03  0.40731284563E+03  0.97132337042E+03  0.11412741922E+04  0.50400001928E-02 0.  1.
</event>
<event>
 5   0  0.4955675E-05  0.2643700E+04  0.7818609E-02  0.8353507E-01
       -2   -1    0    0    0  501  0.00000000000E+00  0.00000000000E+00  0.14016962378E+04  0.14016962378E+04  0.25500000920E-02 0. -1.
        2   -1    0    0  501    0  0.00000000000E+00  0.00000000000E+00 -0.12465523385E+04  0.12465523385E+04  0.25500000920E-02 0.  1.
    10030    2    1    2    0    0  0.00000000000E+00  0.00000000000E+00  0.15514389929E+03  0.26482485764E+04  0.26437002275E+04 0.  0.
        5    1    3    3  502    0 -0.56932530518E+03 -0.59604671751E+03 -0.95758031250E+03  0.12634813562E+04  0.46999998093E+01 0.  1.
       -5    1    3    3    0  502  0.56932530518E+03  0.59604671751E+03  0.11127242118E+04  0.13847672202E+04  0.46999998093E+01 0. -1.
</event>
<event>
 5   0  0.5049803E-05  0.1751260E+04  0.7818609E-02  0.8732657E-01
        2   -1    0    0  501    0  0.00000000000E+00  0.00000000000E+00  0.84536003718E+03  0.84536003719E+03  0.25500000920E-02 0. -1.
       -2   -1    0    0    0  501  0.00000000000E+00  0.00000000000E+00 -0.90698426968E+03  0.90698426968E+03  0.25500000920E-02 0.  1.
    10030    2    1    2    0    0  0.00000000000E+00  0.00000000000E+00 -0.61624232496E+02  0.17523443069E+04  0.17512604100E+04 0.  0.
        4    1    3    3  502    0 -0.29854532502E+03  0.76320435371E+02 -0.85093669977E+03  0.90501325950E+03  0.12699999809E+01 0.  1.
       -4    1    3    3    0  502  0.29854532502E+03 -0.76320435371E+02  0.78931246728E+03  0.84733104737E+03  0.12699999809E+01 0. -1.
</event>
<event>
 5   0  0.2163800E-05  0.2618034E+04  0.7818609E-02  0.8362101E-01
       -1   -1    0    0    0  501  0.00000000000E+00  0.00000000000E+00  0.68920764866E+03  0.68920764868E+03  0.50400001928E-02 0.  1.
        1   -1    0    0  501    0  0.00000000000E+00  0.00000000000E+00 -0.24862256549E+04  0.24862256549E+04  0.50400001928E-02 0. -1.
    10030    2    1    2    0    0  0.00000000000E+00  0.00000000000E+00 -0.17970180062E+04  0.31754333035E+04  0.26180341768E+04 0.  0.
        1    1    3    3  502    0 -0.10864625204E+04 -0.18056887107E+03 -0.17566098292E+04  0.20733267995E+04  0.50400001928E-02 0. -1.
       -1    1    3    3    0  502  0.10864625204E+04  0.18056887107E+03 -0.40408176971E+02  0.11021065040E+04  0.50400001928E-02 0.  1.
</event>
<event>
 5   0  0.5182179E-05  0.2018072E+04  0.7818609E-02  0.8598218E-01
       -2   -1    0    0    0  501  0.00000000000E+00  0.00000000000E+00  0.10394259695E+04  0.10394259695E+04  0.25500000920E-02 0.  1.
        2   -1    0    0  501    0  0.00000000000E+00  0.00000000000E+00 -0.97953490717E+03  0.97953490717E+03  0.25500000920E-02 0. -1.
    10030    2    1    2    0    0  0.00000000000E+00  0.00000000000E+00  0.59891062332E+02  0.20189608767E+04  0.20180723679E+04 0.  0.
        3    1    3    3  502    0  0.55253348688E+03  0.29560906540E+03 -0.76127309984E+03  0.98600949103E+03  0.10100000352E+00 0. -1.
       -3    1    3    3    0  502 -0.55253348688E+03 -0.29560906540E+03  0.82116416217E+03  0.10329513856E+04  0.10100000352E+00 0.  1.
</event>
<event>
 5   0  0.5170532E-05  0.2612935E+04  0.7818609E-02  0.8363821E-01
        2   -1    0    0  501    0  0.00000000000E+00  0.00000000000E+00  0.29077749469E+04  0.29077749469E+04  0.25500000920E-02 0.  1.
       -2   -1    0    0    0  501  0.00000000000E+00  0.00000000000E+00 -0.58699769604E+03  0.58699769604E+03  0.25500000920E-02 0. -1.
    10030    2    1    2    0    0  0.00000000000E+00  0.00000000000E+00  0.23207772509E+04  0.34947726430E+04  0.26129348974E+04 0.  0.
        1    1    3    3  502    0 -0.26621576458E+02  0.11928887436E+04  0.44866714756E+03  0.12747527102E+04  0.50400001928E-02 0. -1.
       -1    1    3    3    0  502  0.26621576458E+02 -0.11928887436E+04  0.18721101033E+04  0.22200199328E+04  0.50400001928E-02 0.  1.
</event>
<event>
 5   0  0.1954502E-05  0.2595277E+04  0.7818609E-02  0.8369807E-01
        1   -1    0    0  501    0  0.00000000000E+00  0.00000000000E+00  0.11222109163E+04  0.11222109163E+04  0.50400001928E-02 0.  1.
       -1   -1    0    0    0  501  0.00000000000E+00  0.00000000000E+00 -0.15004899711E+04  0.15004899711E+04  0.50400001928E-02 0. -1.
    10030    2    1    2    0    0  0.00000000000E+00  0.00000000000E+00 -0.37827905472E+03  0.26227008874E+04  0.25952774229E+04 0.  0.
        4    1    3    3  502    0  0.24398365365E+03 -0.10496718306E+03 -0.14727256962E+04  0.14964854566E+04  0.12699999809E+01 0. -1.
       -4    1    3    3    0  502 -0.24398365365E+03  0.10496718306E+03  0.10944466414E+04  0.11262154308E+04  0.12699999809E+01 0.  1.
</event>
<event>
 5   0  0.5182179E-05  0.2591784E+04  0.7818609E-02  0.8370997E-01
        2   -1    0    0  501    0  0.00000000000E+00  0.00000000000E+00  0.17696689844E+04  0.17696689844E+04  0.25500000920E-02 0.  1.
       -2   -1    0    0    0  501  0.00000000000E+00  0.00000000000E+00 -0.94895458828E+03  0.94895458828E+03  0.25500000920E-02 0. -1.
    10030    2    1    2    0    0  0.00000000000E+00  0.00000000000E+00  0.82071439613E+03  0.27186235727E+04  0.25917835577E+04 0.  0.
        3    1    3    3  502    0  0.12231269511E+04  0.36415207489E+03  0.17419621263E+03  0.12880180911E+04  0.10100000352E+00 0.  1.
       -3    1    3    3    0  502 -0.12231269511E+04 -0.36415207489E+03  0.64651818350E+03  0.14306054816E+04  0.10100000352E+00 0. -1.
</event>
<event>
 5   0  0.5170532E-05  0.2491087E+04  0.7818609E-02  0.8406168E-01
       -2   -1    0    0    0  501  0.00000000000E+00  0.00000000000E+00  0.10443146379E+04  0.10443146379E+04  0.25500000920E-02 0.  1.
        2   -1    0    0  501    0  0.00000000000E+00  0.00000000000E+00 -0.14855470631E+04  0.14855470631E+04  0.25500000920E-02 0. -1.
    10030    2    1    2    0    0  0.00000000000E+00  0.00000000000E+00 -0.44123242517E+03  0.25298617011E+04  0.24910869462E+04 0.  0.
        1    1    3    3  502    0 -0.89341413049E+02  0.86380669705E+03  0.68616179034E+03  0.11067799693E+04  0.50400001928E-02 0.  1.
       -1    1    3    3    0  502  0.89341413049E+02 -0.86380669705E+03 -0.11273942155E+04  0.14230817317E+04  0.50400001928E-02 0. -1.
</event>
<event>
 5   0  0.2072710E-05  0.1327854E+04  0.7818609E-02  0.9007764E-01
       -1   -1    0    0    0  501  0.00000000000E+00  0.00000000000E+00  0.30066262109E+03  0.30066262114E+03  0.50400001928E-02 0.  1.
        1   -1    0    0  501    0  0.00000000000E+00  0.00000000000E+00 -0.14660916201E+04  0.14660916201E+04  0.50400001928E-02 0. -1.
    10030    2    1    2    0    0  0.00000000000E+00  0.00000000000E+00 -0.11654289990E+04  0.17667542412E+04  0.13278538313E+04 0.  0.
        2    1    3    3  502    0  0.18942988846E+03  0.18209733130E+03 -0.13939646021E+04  0.14185134587E+04  0.25500000920E-02 0. -1.
       -2    1    3    3    0  502 -0.18942988846E+03 -0.18209733130E+03  0.22853560310E+03  0.34824078250E+03  0.25500000920E-02 0.  1.
</event>
<event>
 5   0  0.4955675E-05  0.2567264E+04  0.7818609E-02  0.8379407E-01
       -2   -1    0    0    0  501  0.00000000000E+00  0.00000000000E+00  0.91351351942E+03  0.91351351942E+03  0.25500000920E-02 0. -1.
        2   -1    0    0  501    0  0.00000000000E+00  0.00000000000E+00 -0.18037072677E+04  0.18037072677E+04  0.25500000920E-02 0.  1.
    10030    2    1    2    0    0  0.00000000000E+00  0.00000000000E+00 -0.89019374824E+03  0.27172207871E+04  0.25672638930E+04 0.  0.
        5    1    3    3  502    0 -0.93579002298E+03  0.43612716996E+03  0.36220031286E+03  0.10941302629E+04  0.46999998093E+01 0. -1.
       -5    1    3    3    0  502  0.93579002298E+03 -0.43612716996E+03 -0.12523940611E+04  0.16230905242E+04  0.46999998093E+01 0.  1.
</event>
<event>
 5   0  0.2163800E-05  0.2687421E+04  0.7818609E-02  0.8339098E-01
       -1   -1    0    0    0  501  0.00000000000E+00  0.00000000000E+00  0.20800426091E+04  0.20800426091E+04  0.50400001928E-02 0. -1.
        1   -1    0    0  501    0  0.00000000000E+00  0.00000000000E+00 -0.86803860315E+03  0.86803860317E+03  0.50400001928E-02 0.  1.
    10030    2    1    2    0    0  0.00000000000E+00  0.00000000000E+00  0.12120040060E+04  0.29480812123E+04  0.26874205335E+04 0.  0.
        1    1    3    3  502    0  0.52149043963E+03  0.86222896014E+03 -0.36912917500E+03  0.10731483617E+04  0.50400001928E-02 0.  1.
       -1    1    3    3    0  502 -0.52149043963E+03 -0.86222896014E+03  0.15811331810E+04  0.18749328506E+04  0.50400001928E-02 0. -1.
</event>
<event>
 5   0  0.5170532E-05  0.2482059E+04  0.7818609E-02  0.8409405E-01
       -2   -1    0    0    0  501  0.00000000000E+00  0.00000000000E+00  0.13333482637E+04  0.13333482637E+04  0.25500000920E-02 0.  1.
        2   -1    0    0  501    0  0.00000000000E+00  0.00000000000E+00 -0.11551023008E+04  0.11551023008E+04  0.25500000920E-02 0. -1.
    10030    2    1    2    0    0  0.00000000000E+00  0.00000000000E+00  0.17824596287E+03  0.24884505644E+04  0.24820585385E+04 0.  0.
        1    1    3    3  502    0 -0.10500535690E+04 -0.27400619474E+03  0.69272139779E+03  0.12874606121E+04  0.50400001928E-02 0.  1.
       -1    1    3    3    0  502  0.10500535690E+04  0.27400619474E+03 -0.51447543493E+03  0.12009899524E+04  0.50400001928E-02 0. -1.
</event>
<event>
 5   0  0.5036452E-05  0.2599698E+04  0.7818609E-02  0.8368304E-01
       -2   -1    0    0    0  501  0.00000000000E+00  0.00000000000E+00  0.81232457634E+03  0.81232457634E+03  0.25500000920E-02 0.  1.
        2   -1    0    0  501    0  0.00000000000E+00  0.00000000000E+00 -0.20799651618E+04  0.20799651618E+04  0.25500000920E-02 0. -1.
    10030    2    1    2    0    0  0.00000000000E+00  0.00000000000E+00 -0.12676405855E+04  0.28922897381E+04  0.25996975354E+04 0.  0.
        2    1    3    3  502    0  0.22179205679E+03 -0.70663268109E+03  0.55462184072E+03  0.92527122977E+03  0.25500000920E-02 0.  1.
       -2    1    3    3    0  502 -0.22179205679E+03  0.70663268109E+03 -0.18222624262E+04  0.19670185084E+04  0.25500000920E-02 0. -1.
</event>
<event>
 5   0  0.1698625E-05  0.2663245E+04  0.7818609E-02  0.8347030E-01
        3   -1    0    0  501    0  0.00000000000E+00  0.00000000000E+00  0.12864859129E+04  0.12864859168E+04  0.10100000352E+00 0. -1.
       -3   -1    0    0    0  501  0.00000000000E+00  0.00000000000E+00 -0.13783431830E+04  0.13783431867E+04  0.10100000352E+00 0.  1.
    10030    2    1    2    0    0  0.00000000000E+00  0.00000000000E+00 -0.91857270134E+02  0.26648291035E+04  0.26632454624E+04 0.  0.
        2    1    3    3  502    0 -0.70711721219E+03  0.82931569511E+03  0.71966673422E+03  0.13060243039E+04  0.25500000920E-02 0. -1.
       -2    1    3    3    0  502  0.70711721219E+03 -0.82931569511E+03 -0.81152400435E+03  0.13588047997E+04  0.25500000920E-02 0.  1.
</event>
<event>
 5   0  0.2159405E-05  0.2593306E+04  0.7818609E-02  0.8370479E-01
       -1   -1    0    0    0  501  0.00000000000E+00  0.00000000000E+00  0.23928465298E+04  0.23928465299E+04  0.50400001928E-02 0. -1.
        1   -1    0    0  501    0  0.00000000000E+00  0.00000000000E+00 -0.70263972984E+03  0.70263972986E+03  0.50400001928E-02 0.  1.
    10030    2    1    2    0    0  0.00000000000E+00  0.00000000000E+00  0.16902068000E+04  0.30954862597E+04  0.25933060285E+04 0.  0.
        3    1    3    3  502    0 -0.66597329923E+02 -0.12943132453E+04  0.79695572925E+03  0.15214533926E+04  0.10100000352E+00 0.  1.
       -3    1    3    3    0  502  0.66597329923E+02  0.12943132453E+04  0.89325107076E+03  0.15740328671E+04  0.10100000352E+00 0. -1.
</event>
<event>
 5   0  0.5182179E-05  0.2530420E+04  0.7818609E-02  0.8392228E-01
        2   -1    0    0  501    0  0.00000000000E+00  0.00000000000E+00  0.84041541214E+03  0.84041541215E+03  0.25500000920E-02 0. -1.
       -2   -1    0    0    0  501  0.00000000000E+00  0.00000000000E+00 -0.19047198805E+04  0.19047198805E+04  0.25500000920E-02 0.  1.
    10030    2    1    2    0    0  0.00000000000E+00  0.00000000000E+00 -0.10643044683E+04  0.27451352926E+04  0.25304196833E+04 0.  0.
        3    1    3    3  502    0 -0.48780489925E+02  0.82595464458E+03  0.50623775105E+03  0.96997798011E+03  0.10100000352E+00 0. -1.
       -3    1    3    3    0  502  0.48780489925E+02 -0.82595464458E+03 -0.15705422194E+04  0.17751573125E+04  0.10100000352E+00 0.  1.
</event>
<event>
 5   0  0.4955675E-05  0.2691325E+04  0.7818609E-02  0.8337825E-01
       -2   -1    0    0    0  501  0.00000000000E+00  0.00000000000E+00  0.95885904866E+03  0.95885904866E+03  0.25500000920E-02 0. -1.
        2   -1    0    0  501    0  0.00000000000E+00  0.00000000000E+00 -0.18885018032E+04  0.18885018032E+04  0.25500000920E-02 0.  1.
    10030    2    1    2    0    0  0.00000000000E+00  0.00000000000E+00 -0.92964275459E+03  0.28473608519E+04  0.26913246125E+04 0.  0.
        5    1    3    3  502    0  0.93286258517E+01 -0.36915682310E+03 -0.18338381834E+04  0.18706545261E+04  0.46999998093E+01 0.  1.
       -5    1    3    3    0  502 -0.93286258517E+01  0.36915682310E+03  0.90419542881E+03  0.97670632576E+03  0.46999998093E+01 0. -1.
</event>
<event>
 5   0  0.1698625E-05  0.2622071E+04  0.7818609E-02  0.8360743E-01
        3   -1    0    0  501    0  0.00000000000E+00  0.00000000000E+00  0.89329195597E+03  0.89329196168E+03  0.10100000352E+00 0.  1.
       -3   -1    0    0    0  501  0.00000000000E+00  0.00000000000E+00 -0.19241351592E+04  0.19241351618E+04  0.10100000352E+00 0. -1.
    10030    2    1    2    0    0  0.00000000000E+00  0.00000000000E+00 -0.10308432032E+04  0.28174271235E+04  0.26220712970E+04 0.  0.
        2    1    3    3  502    0  0.11071017563E+04  0.65921306207E+03 -0.77548343499E+03  0.15038652593E+04  0.25500000920E-02 0.  1.
       -2    1    3    3    0  502 -0.11071017563E+04 -0.65921306207E+03 -0.25535976822E+03  0.13135618643E+04  0.25500000920E-02 0. -1.
</event>
<event>
 5   0  0.5170532E-05  0.2735367E+04  0.7818609E-02  0.8323620E-01
       -2   -1    0    0    0  501  0.00000000000E+00  0.00000000000E+00  0.10262978123E+04  0.10262978123E+04  0.25500000920E-02 0. -1.
        2   -1    0    0  501    0  0.00000000000E+00  0.00000000000E+00 -0.18226271058E+04  0.18226271058E+04  0.25500000920E-02 0.  1.
    10030    2    1    2    0    0  0.00000000000E+00  0.00000000000E+00 -0.79632929350E+03  0.28489249181E+04  0.27353670404E+04 0.  0.
        1    1    3    3  502    0  0.84536506157E+03  0.94929515016E+03  0.12752160331E+03  0.12775230443E+04  0.50400001928E-02 0. -1.
       -1    1    3    3    0  502 -0.84536506157E+03 -0.94929515016E+03 -0.92385089681E+03  0.15714018738E+04  0.50400001928E-02 0.  1.
</event>
<event>
 5   0  0.2163800E-05  0.2630306E+04  0.7818609E-02  0.8357979E-01
        1   -1    0    0  501    0  0.00000000000E+00  0.00000000000E+00  0.18200347630E+04  0.18200347630E+04  0.50400001928E-02 0.  1.
       -1   -1    0    0    0  501  0.00000000000E+00  0.00000000000E+00 -0.95032626830E+03  0.95032626832E+03  0.50400001928E-02 0. -1.
    10030    2    1    2    0    0  0.00000000000E+00  0.00000000000E+00  0.86970849467E+03  0.27703610313E+04  0.26303055674E+04 0.  0.
        1    1    3    3  502    0  0.10876044706E+04 -0.64131306587E+03  0.47206591248E+02  0.12634850198E+04  0.50400001928E-02 0. -1.
       -1    1    3    3    0  502 -0.10876044706E+04  0.64131306587E+03  0.82250190342E+03  0.15068760115E+04  0.50400001928E-02 0.  1.
</event>
<event>
 5   0  0.5182179E-05  0.2546895E+04  0.7818609E-02  0.8386467E-01
       -2   -1    0    0    0  501  0.00000000000E+00  0.00000000000E+00  0.11554397682E+04  0.11554397682E+04  0.25500000920E-02 0. -1.
        2   -1    0    0  501    0  0.00000000000E+00  0.00000000000E+00 -0.14035078376E+04  0.14035078376E+04  0.25500000920E-02 0.  1.
    10030    2    1    2    0    0  0.00000000000E+00  0.00000000000E+00 -0.24806806938E+03  0.25589476058E+04  0.25468951848E+04 0.  0.
        3    1    3    3  502    0  0.96064653337E+03 -0.83286677799E+03 -0.51861466396E+02  0.12724772901E+04  0.10100000352E+00 0. -1.
       -3    1    3    3    0  502 -0.96064653337E+03  0.83286677799E+03 -0.19620660299E+03  0.12864703157E+04  0.10100000352E+00 0.  1.
</event>
<event>
 5   0  0.5049803E-05  0.1376125E+04  0.7818609E-02  0.8971284E-01
        2   -1    0    0  501    0  0.00000000000E+00  0.00000000000E+00  0.45638287125E+03  0.45638287126E+03  0.25500000920E-02 0. -1.
       -2   -1    0    0    0  501  0.00000000000E+00  0.00000000000E+00 -0.10373528455E+04  0.10373528455E+04  0.25500000920E-02 0.  1.
    10030    2    1    2    0    0  0.00000000000E+00  0.00000000000E+00 -0.58096997425E+03  0.14937357168E+04  0.13761250963E+04 0.  0.
        4    1    3    3  502    0 -0.42078959754E+03  0.35996751199E+03 -0.73378546722E+03  0.91928408008E+03  0.12699999809E+01 0.  1.
       -4    1    3    3    0  502  0.42078959754E+03 -0.35996751199E+03  0.15281549298E+03  0.57445163668E+03  0.12699999809E+01 0. -1.
</event>
<event>
 5   0  0.5036452E-05  0.2563610E+04  0.7818609E-02  0.8380668E-01
        2   -1    0    0  501    0  0.00000000000E+00  0.00000000000E+00  0.16622218763E+04  0.16622218763E+04  0.25500000920E-02 0.  1.
       -2   -1    0    0    0  501  0.00000000000E+00  0.00000000000E+00 -0.98845063667E+03  0.98845063667E+03  0.25500000920E-02 0. -1.
    10030    2    1    2    0    0  0.00000000000E+00  0.00000000000E+00  0.67377123958E+03  0.26506725129E+04  0.25636101668E+04 0.  0.
        2    1    3    3  502    0  0.41843994056E+03 -0.67168985826E+03 -0.70570638006E+03  0.10603210572E+04  0.25500000920E-02 0. -1.
       -2    1    3    3    0  502 -0.41843994056E+03  0.67168985826E+03  0.13794776196E+04  0.15903514557E+04  0.25500000920E-02 0.  1.
</event>
<event>
 5   0  0.5036452E-05  0.2684063E+04  0.7818609E-02  0.8340195E-01
       -2   -1    0    0    0  501  0.00000000000E+00  0.00000000000E+00  0.70751208206E+03  0.70751208207E+03  0.25500000920E-02 0. -1.
        2   -1    0    0  501    0  0.00000000000E+00  0.00000000000E+00 -0.25456077080E+04  0.25456077080E+04  0.25500000920E-02 0.  1.
    10030    2    1    2    0    0  0.00000000000E+00  0.00000000000E+00 -0.18380956259E+04  0.32531197900E+04  0.26840627486E+04 0.  0.
        2    1    3    3  502    0 -0.33238710512E+03  0.83100807986E+02 -0.24917074945E+04  0.25151527130E+04  0.25500000920E-02 0.  1.
       -2    1    3    3    0  502  0.33238710512E+03 -0.83100807986E+02  0.65361186859E+03  0.73796707697E+03  0.25500000920E-02 0. -1.
</event>
<event>
 5   0  0.5170532E-05  0.1424166E+04  0.7818609E-02  0.8936509E-01
       -2   -1    0    0    0  501  0.00000000000E+00  0.00000000000E+00  0.45115354212E+03  0.45115354212E+03  0.25500000920E-02 0. -1.
        2   -1    0    0  501    0  0.00000000000E+00  0.00000000000E+00 -0.11239245351E+04  0.11239245351E+04  0.25500000920E-02 0.  1.
    10030    2    1    2    0    0  0.00000000000E+00  0.00000000000E+00 -0.67277099297E+03  0.15750780772E+04  0.14241664721E+04 0.  0.
        1    1    3    3  502    0  0.67662371456E+03  0.13067273642E+03 -0.13802731475E+03  0.70281331433E+03  0.50400001928E-02 0. -1.
       -1    1    3    3    0  502 -0.67662371456E+03 -0.13067273642E+03 -0.53474367822E+03  0.87226476288E+03  0.50400001928E-02 0.  1.
</event>
<event>
 5   0  0.1698625E-05  0.1608852E+04  0.7818609E-02  0.8815128E-01
        3   -1    0    0  501    0  0.00000000000E+00  0.00000000000E+00  0.10402414626E+04  0.10402414675E+04  0.10100000352E+00 0.  1.
       -3   -1    0    0    0  501  0.00000000000E+00  0.00000000000E+00 -0.62206805382E+03  0.62206806202E+03  0.10100000352E+00 0. -1.
    10030    2    1    2    0    0  0.00000000000E+00  0.00000000000E+00  0.41817340878E+03  0.16623095295E+04  0.16088517558E+04 0.  0.
        2    1    3    3  502    0  0.60735123831E+03 -0.40421228373E+03  0.55922408571E+03  0.91923591914E+03  0.25500000920E-02 0.  1.
       -2    1    3    3    0  502 -0.60735123831E+03  0.40421228373E+03 -0.14105067693E+03  0.74307361039E+03  0.25500000920E-02 0. -1.
</event>
<event>
 5   0  0.2163800E-05  0.2572007E+04  0.7818609E-02  0.8377773E-01
        1   -1    0    0  501    0  0.00000000000E+00  0.00000000000E+00  0.30670602379E+04  0.30670602379E+04  0.50400001928E-02 0. -1.
       -1   -1    0    0    0  501  0.00000000000E+00  0.00000000000E+00 -0.53921486024E+03  0.53921486027E+03  0.50400001928E-02 0.  1.
    10030    2    1    2    0    0  0.00000000000E+00  0.00000000000E+00  0.25278453777E+04  0.36062750982E+04  0.25720065767E+04 0.  0.
        1    1    3    3  502    0  0.55383922144E+03 -0.11218531431E+04  0.16810687044E+04  0.20955391543E+04  0.50400001928E-02 0. -1.
       -1    1    3    3    0  502 -0.55383922144E+03  0.11218531431E+04  0.84677667327E+03  0.15107359440E+04  0.50400001928E-02 0.  1.
</event>
<event>
 5   0  0.5170532E-05  0.2596289E+04  0.7818609E-02  0.8369463E-01
        2   -1    0    0  501    0  0.00000000000E+00  0.00000000000E+00  0.10522211631E+04  0.10522211631E+04  0.25500000920E-02 0. -1.
       -2   -1    0    0    0  501  0.00000000000E+00  0.00000000000E+00 -0.16015446626E+04  0.16015446626E+04  0.25500000920E-02 0.  1.
    10030    2    1    2    0    0  0.00000000000E+00  0.00000000000E+00 -0.54932349953E+03  0.26537658257E+04  0.25962890345E+04 0.  0.
        1    1    3    3  502    0  0.66991877487E+03 -0.43261297918E+03 -0.13216594855E+04  0.15436090665E+04  0.50400001928E-02 0.  1.
       -1    1    3    3    0  502 -0.66991877487E+03  0.43261297918E+03  0.77233598597E+03  0.11101567592E+04  0.50400001928E-02 0. -1.
</event>
<event>
 5   0  0.2072710E-05  0.2692478E+04  0.7818609E-02  0.8337450E-01
       -1   -1    0    0    0  501  0.00000000000E+00  0.00000000000E+00  0.80705525322E+03  0.80705525323E+03  0.50400001928E-02 0.  1.
        1   -1    0    0  501    0  0.00000000000E+00  0.00000000000E+00 -0.22456447935E+04  0.22456447935E+04  0.50400001928E-02 0. -1.
    10030    2    1    2    0    0  0.00000000000E+00  0.00000000000E+00 -0.14385895402E+04  0.30527000467E+04  0.26924779869E+04 0.  0.
        2    1    3    3  502    0 -0.30407653644E+03  0.94927559911E+03 -0.17452151458E+04  0.20098165608E+04  0.25500000920E-02 0. -1.
       -2    1    3    3    0  502  0.30407653644E+03 -0.94927559911E+03  0.30662560556E+03  0.10428834859E+04  0.25500000920E-02 0.  1.
</event>
<event>
 5   0  0.1993815E-05  0.2601710E+04  0.7818609E-02  0.8367621E-01
        1   -1    0    0  501    0  0.00000000000E+00  0.00000000000E+00  0.12126785087E+04  0.12126785088E+04  0.50400001928E-02 0. -1.
       -1   -1    0    0    0  501  0.00000000000E+00  0.00000000000E+00 -0.13954429652E+04  0.13954429652E+04  0.50400001928E-02 0.  1.
    10030    2    1    2    0    0  0.00000000000E+00  0.00000000000E+00 -0.18276445645E+03  0.26081214740E+04  0.26017099716E+04 0.  0.
        5    1    3    3  502    0 -0.71465879059E+03  0.34815234042E+03  0.94084180849E+03  0.12317275014E+04  0.46999998093E+01 0. -1.
       -5    1    3    3    0  502  0.71465879059E+03 -0.34815234042E+03 -0.11236062649E+04  0.13763939726E+04  0.46999998093E+01 0.  1.
</event>
<event>
 5   0  0.1954502E-05  0.2590681E+04  0.7818609E-02  0.8371374E-01
        1   -1    0    0  501    0  0.00000000000E+00  0.00000000000E+00  0.15028595962E+04  0.15028595962E+04  0.50400001928E-02 0. -1.
       -1   -1    0    0    0  501  0.00000000000E+00  0.00000000000E+00 -0.11164762146E+04  0.11164762146E+04  0.50400001928E-02 0.  1.
    10030    2    1    2    0    0  0.00000000000E+00  0.00000000000E+00  0.38638338158E+03  0.26193358108E+04  0.25906809862E+04 0.  0.
        4    1    3    3  502    0 -0.12197114613E+04  0.11108083547E+03 -0.23321995620E+03  0.12467670840E+04  0.12699999809E+01 0. -1.
       -4    1    3    3    0  502  0.12197114613E+04 -0.11108083547E+03  0.61960333778E+03  0.13725687269E+04  0.12699999809E+01 0.  1.
</event>
<event>
 5   0  0.5170532E-05  0.2774803E+04  0.7818609E-02  0.8311134E-01
        2   -1    0    0  501    0  0.00000000000E+00  0.00000000000E+00  0.13859740053E+04  0.13859740054E+04  0.25500000920E-02 0.  1.
       -2   -1    0    0    0  501  0.00000000000E+00  0.00000000000E+00 -0.13888308053E+04  0.13888308053E+04  0.25500000920E-02 0. -1.
    10030    2    1    2    0    0  0.00000000000E+00  0.00000000000E+00 -0.28567999814E+01  0.27748048107E+04  0.27748033401E+04 0.  0.
        1    1    3    3  502    0 -0.88622069615E+03 -0.29695559562E+03 -0.10267648132E+04  0.13884580403E+04  0.50400001928E-02 0. -1.
       -1    1    3    3    0  502  0.88622069615E+03  0.29695559562E+03  0.10239080132E+04  0.13863467704E+04  0.50400001928E-02 0.  1.
</event>
<event>
 5   0  0.2072710E-05  0.2458311E+04  0.7818609E-02  0.8417990E-01
        1   -1    0    0  501    0  0.00000000000E+00  0.00000000000E+00  0.69883687475E+03  0.69883687477E+03  0.50400001928E-02 0. -1.
       -1   -1    0    0    0  501  0.00000000000E+00  0.00000000000E+00 -0.21619112465E+04  0.21619112465E+04  0.50400001928E-02 0.  1.
    10030    2    1    2    0    0  0.00000000000E+00  0.00000000000E+00 -0.14630743718E+04  0.28607481213E+04  0.24583110455E+04 0.  0.
        2    1    3    3  502    0  0.12133046876E+04 -0.19434775569E+03 -0.69578314820E+03  0.14120883487E+04  0.25500000920E-02 0. -1.
       -2    1    3    3    0  502 -0.12133046876E+04  0.19434775569E+03 -0.76729122360E+03  0.14486597727E+04  0.25500000920E-02 0.  1.
</event>
<event>
 5   0  0.1993815E-05  0.2587498E+04  0.7818609E-02  0.8372460E-01
        1   -1    0    0  501    0  0.00000000000E+00  0.00000000000E+00  0.88915095438E+03  0.88915095439E+03  0.50400001928E-02 0.  1.
       -1   -1    0    0    0  501  0.00000000000E+00  0.00000000000E+00 -0.18824541787E+04  0.18824541787E+04  0.50400001928E-02 0. -1.
    10030    2    1    2    0    0  0.00000000000E+00  0.00000000000E+00 -0.99330322435E+03  0.27716051331E+04  0.25874975784E+04 0.  0.
        5    1    3    3  502    0  0.62296106516E+03  0.10081446596E+04 -0.10525455181E+04  0.15850269086E+04  0.46999998093E+01 0. -1.
       -5    1    3    3    0  502 -0.62296106516E+03 -0.10081446596E+04  0.59242293739E+02  0.11865782245E+04  0.46999998093E+01 0.  1.
</event>
<event>
 5   0  0.1993815E-05  0.1372721E+04  0.7818609E-02  0.8973805E-01
        1   -1    0    0  501    0  0.00000000000E+00  0.00000000000E+00  0.67615573707E+03  0.67615573709E+03  0.50400001928E-02 0.  1.
       -1   -1    0    0    0  501  0.00000000000E+00  0.00000000000E+00 -0.69671899236E+03  0.69671899237E+03  0.50400001928E-02 0. -1.
    10030    2    1    2    0    0  0.00000000000E+00  0.00000000000E+00 -0.20563255288E+02  0.13728747295E+04  0.13727207201E+04 0.  0.
        5    1    3    3  502    0 -0.25825926514E+03 -0.39433394410E+03 -0.50920766686E+03  0.69391040163E+03  0.46999998093E+01 0. -1.
       -5    1    3    3    0  502  0.25825926514E+03  0.39433394410E+03  0.48864441157E+03  0.67896432783E+03  0.46999998093E+01 0.  1.
</event>
<event>
 5   0  0.5170532E-05  0.2544280E+04  0.7818609E-02  0.8387378E-01
       -2   -1    0    0    0  501  0.00000000000E+00  0.00000000000E+00  0.86021669881E+03  0.86021669881E+03  0.25500000920E-02 0.  1.
        2   -1    0    0  501    0  0.00000000000E+00  0.00000000000E+00 -0.18813172359E+04  0.18813172359E+04  0.25500000920E-02 0. -1.
    10030    2    1    2    0    0  0.00000000000E+00  0.00000000000E+00 -0.10211005371E+04  0.27415339347E+04  0.25442802535E+04 0.  0.
        1    1    3    3  502    0 -0.58902906393E+03 -0.14587741774E+03 -0.17153141311E+04  0.18194883972E+04  0.50400001928E-02 0. -1.
       -1    1    3    3    0  502  0.58902906393E+03  0.14587741774E+03  0.69421359399E+03  0.92204553753E+03  0.50400001928E-02 0.  1.
</event>
<event>
 5   0  0.1993815E-05  0.2611708E+04  0.7818609E-02  0.8364235E-01
       -1   -1    0    0    0  501  0.00000000000E+00  0.00000000000E+00  0.10115155517E+04  0.10115155517E+04  0.50400001928E-02 0.  1.
        1   -1    0    0  501    0  0.00000000000E+00  0.00000000000E+00 -0.16858406327E+04  0.16858406327E+04  0.50400001928E-02 0. -1.
    10030    2    1    2    0    0  0.00000000000E+00  0.00000000000E+00 -0.67432508099E+03  0.26973561844E+04  0.26117075010E+04 0.  0.
        5    1    3    3  502    0  0.64449132556E+03  0.10652049821E+04 -0.74403782230E+03  0.14503948061E+04  0.46999998093E+01 0. -1.
       -5    1    3    3    0  502 -0.64449132556E+03 -0.10652049821E+04  0.69712741318E+02  0.12469613783E+04  0.46999998093E+01 0.  1.
</event>
<event>
 5   0  0.5036452E-05  0.2574529E+04  0.7818609E-02  0.8376905E-01
       -2   -1    0    0    0  501  0.00000000000E+00  0.00000000000E+00  0.65727477955E+03  0.65727477955E+03  0.25500000920E-02 0. -1.
        2   -1    0    0  501    0  0.00000000000E+00  0.00000000000E+00 -0.25210920632E+04  0.25210920632E+04  0.25500000920E-02 0.  1.
    10030    2    1    2    0    0  0.00000000000E+00  0.00000000000E+00 -0.18638172837E+04  0.31783668428E+04  0.25745292619E+04 0.  0.
        2    1    3    3  502    0  0.71306442212E+03  0.12537888757E+03  0.38209367302E+03  0.81864296889E+03  0.25500000920E-02 0. -1.
       -2    1    3    3    0  502 -0.71306442212E+03 -0.12537888757E+03 -0.22459109567E+04  0.23597238739E+04  0.25500000920E-02 0.  1.
</event>
<event>
 5   0  0.2072710E-05  0.2822124E+04  0.7818609E-02  0.8296432E-01
        1   -1    0    0  501    0  0.00000000000E+00  0.00000000000E+00  0.19318980359E+04  0.19318980359E+04  0.50400001928E-02 0. -1.
       -1   -1    0    0    0  501  0.00000000000E+00  0.00000000000E+00 -0.10306427055E+04  0.10306427055E+04  0.50400001928E-02 0.  1.
    10030    2    1    2    0    0  0.00000000000E+00  0.00000000000E+00  0.90125533036E+03  0.29625407414E+04  0.28221244611E+04 0.  0.
        2    1    3    3  502    0 -0.69102820473E+03 -0.98957686574E+03 -0.31671006529E+03  0.12478331693E+04  0.25500000920E-02 0.  1.
       -2    1    3    3    0  502  0.69102820473E+03  0.98957686574E+03  0.12179653956E+04  0.17147075721E+04  0.25500000920E-02 0. -1.
</event>
<event>
 5   0  0.4955675E-05  0.2584018E+04  0.7818609E-02  0.8373650E-01
        2   -1    0    0  501    0  0.00000000000E+00  0.00000000000E+00  0.12434517168E+04  0.12434517168E+04  0.25500000920E-02 0.  1.
       -2   -1    0    0    0  501  0.00000000000E+00  0.00000000000E+00 -0.13424620122E+04  0.13424620122E+04  0.25500000920E-02 0. -1.
    10030    2    1    2    0    0  0.00000000000E+00  0.00000000000E+00 -0.99010295402E+02  0.25859137289E+04  0.25840175647E+04 0.  0.
        5    1    3    3  502    0 -0.17430180670E+03  0.12762898370E+04  0.50406663503E+02  0.12891314089E+04  0.46999998093E+01 0.  1.
       -5    1    3    3    0  502  0.17430180670E+03 -0.12762898370E+04 -0.14941695891E+03  0.12967823200E+04  0.46999998093E+01 0. -1.
</event>
<event>
 5   0  0.5049803E-05  0.2684954E+04  0.7818609E-02  0.8339903E-01
       -2   -1    0    0    0  501  0.00000000000E+00  0.00000000000E+00  0.13544390753E+04  0.13544390753E+04  0.25500000920E-02 0. -1.
        2   -1    0    0  501    0  0.00000000000E+00  0.00000000000E+00 -0.13306204475E+04  0.13306204475E+04  0.25500000920E-02 0.  1.
    10030    2    1    2    0    0  0.00000000000E+00  0.00000000000E+00  0.23818627817E+02  0.26850595228E+04  0.26849538756E+04 0.  0.
        4    1    3    3  502    0  0.11825075708E+04  0.60551231037E+03 -0.18116149169E+03  0.13408170688E+04  0.12699999809E+01 0.  1.
       -4    1    3    3    0  502 -0.11825075708E+04 -0.60551231037E+03  0.20498011951E+03  0.13442424541E+04  0.12699999809E+01 0. -1.
</event>
<event>
 5   0  0.5049803E-05  0.2782455E+04  0.7818609E-02  0.8308736E-01
        2   -1    0    0  501    0  0.00000000000E+00  0.00000000000E+00  0.14467976269E+04  0.14467976269E+04  0.25500000920E-02 0. -1.
       -2   -1    0    0    0  501  0.00000000000E+00  0.00000000000E+00 -0.13377916642E+04  0.13377916642E+04  0.25500000920E-02 0.  1.
    10030    2    1    2    0    0  0.00000000000E+00  0.00000000000E+00  0.10900596272E+03  0.27845892912E+04  0.27824548910E+04 0.  0.
        4    1    3    3  502    0 -0.70240778467E+03 -0.34834749926E+03  0.12046406377E+04  0.14373181120E+04  0.12699999809E+01 0. -1.
       -4    1    3    3    0  502  0.70240778467E+03  0.34834749926E+03 -0.10956346750E+04  0.13472711792E+04  0.12699999809E+01 0.  1.
</event>
<event>
 5   0  0.1698625E-05  0.2634608E+04  0.7818609E-02  0.8356540E-01
       -3   -1    0    0    0  501  0.00000000000E+00  0.00000000000E+00  0.84965929695E+03  0.84965930296E+03  0.10100000352E+00 0.  1.
        3   -1    0    0  501    0  0.00000000000E+00  0.00000000000E+00 -0.20423366544E+04  0.20423366569E+04  0.10100000352E+00 0. -1.
    10030    2    1    2    0    0  0.00000000000E+00  0.00000000000E+00 -0.11926773575E+04  0.28919959599E+04  0.26346083870E+04 0.  0.
        2    1    3    3  502    0 -0.25579118194E+03  0.10010651048E+04  0.30063977820E+03  0.10760784121E+04  0.25500000920E-02 0.  1.
       -2    1    3    3    0  502  0.25579118194E+03 -0.10010651048E+04 -0.14933171357E+04  0.18159175478E+04  0.25500000920E-02 0. -1.
</event>
<event>
 5   0  0.1698625E-05  0.2666303E+04  0.7818609E-02  0.8346022E-01
        3   -1    0    0  501    0  0.00000000000E+00  0.00000000000E+00  0.11518216435E+04  0.11518216480E+04  0.10100000352E+00 0.  1.
       -3   -1    0    0    0  501  0.00000000000E+00  0.00000000000E+00 -0.15430283172E+04  0.15430283205E+04  0.10100000352E+00 0. -1.
    10030    2    1    2    0    0  0.00000000000E+00  0.00000000000E+00 -0.39120667363E+03  0.26948499684E+04  0.26663033756E+04 0.  0.
        3    1    3    3  502    0  0.11240847964E+03  0.10292323351E+04  0.65323275730E+03  0.12242009277E+04  0.10100000352E+00 0.  1.
       -3    1    3    3    0  502 -0.11240847964E+03 -0.10292323351E+04 -0.10444394309E+04  0.14706490407E+04  0.10100000352E+00 0. -1.
</event>
<event>
 5   0  0.1993815E-05  0.1822713E+04  0.7818609E-02  0.8694313E-01
       -1   -1    0    0    0  501  0.00000000000E+00  0.00000000000E+00  0.48228342401E+03  0.48228342404E+03  0.50400001928E-02 0. -1.
        1   -1    0    0  501    0  0.00000000000E+00  0.00000000000E+00 -0.17221637298E+04  0.17221637298E+04  0.50400001928E-02 0.  1.
    10030    2    1    2    0    0  0.00000000000E+00  0.00000000000E+00 -0.12398803057E+04  0.22044471538E+04  0.18227133843E+04 0.  0.
        5    1    3    3  502    0 -0.39883785091E+03 -0.81293149626E+03 -0.49530600367E+03  0.10321237214E+04  0.46999998093E+01 0. -1.
       -5    1    3    3    0  502  0.39883785091E+03  0.81293149626E+03 -0.74457430207E+03  0.11723234324E+04  0.46999998093E+01 0.  1.
</event>
<event>
 5   0  0.5170532E-05  0.2605784E+04  0.7818609E-02  0.8366239E-01
        2   -1    0    0  501    0  0.00000000000E+00  0.00000000000E+00  0.13292129526E+04  0.13292129526E+04  0.25500000920E-02 0. -1.
       -2   -1    0    0    0  501  0.00000000000E+00  0.00000000000E+00 -0.12770922977E+04  0.12770922977E+04  0.25500000920E-02 0.  1.
    10030    2    1    2    0    0  0.00000000000E+00  0.00000000000E+00  0.52120654958E+02  0.26063052503E+04  0.26057840461E+04 0.  0.
        1    1    3    3  502    0  0.75146286366E+03 -0.33660789746E+03  0.10359782450E+04  0.13233488717E+04  0.50400001928E-02 0. -1.
       -1    1    3    3    0  502 -0.75146286366E+03  0.33660789746E+03 -0.98385758999E+03  0.12829563786E+04  0.50400001928E-02 0.  1.
</event>
<event>
 5   0  0.4955675E-05  0.2578898E+04  0.7818609E-02  0.8375405E-01
       -2   -1    0    0    0  501  0.00000000000E+00  0.00000000000E+00  0.14245456441E+04  0.14245456441E+04  0.25500000920E-02 0.  1.
        2   -1    0    0  501    0  0.00000000000E+00  0.00000000000E+00 -0.11671639187E+04  0.11671639187E+04  0.25500000920E-02 0. -1.
    10030    2    1    2    0    0  0.00000000000E+00  0.00000000000E+00  0.25738172537E+03  0.25917095629E+04  0.25788976532E+04 0.  0.
        5    1    3    3  502    0  0.91685041257E+02  0.15985382394E+03  0.14112350746E+04  0.14232237763E+04  0.46999998093E+01 0.  1.
       -5    1    3    3    0  502 -0.91685041257E+02 -0.15985382394E+03 -0.11538533492E+04  0.11684857865E+04  0.46999998093E+01 0. -1.
</event>
<event>
 5   0  0.1993815E-05  0.2446995E+04  0.7818609E-02  0.8422116E-01
        1   -1    0    0  501    0  0.00000000000E+00  0.00000000000E+00  0.13953521586E+04  0.13953521586E+04  0.50400001928E-02 0. -1.
       -1   -1    0    0    0  501  0.00000000000E+00  0.00000000000E+00 -0.10728084985E+04  0.10728084985E+04  0.50400001928E-02 0.  1.
    10030    2    1    2    0    0  0.00000000000E+00  0.00000000000E+00  0.32254366011E+03  0.24681606571E+04  0.24469946091E+04 0.  0.
        5    1    3    3  502    0 -0.11722931388E+04 -0.31213984677E+03  0.10866893591E+01  0.12131470472E+04  0.46999998093E+01 0.  1.
       -5    1    3    3    0  502  0.11722931388E+04  0.31213984677E+03  0.32145697075E+03  0.12550136100E+04  0.46999998093E+01 0. -1.
</event>
<event>
 5   0  0.5049803E-05  0.1920339E+04  0.7818609E-02  0.8644798E-01
       -2   -1    0    0    0  501  0.00000000000E+00  0.00000000000E+00  0.78389684212E+03  0.78389684212E+03  0.25500000920E-02 0.  1.
        2   -1    0    0  501    0  0.00000000000E+00  0.00000000000E+00 -0.11760803351E+04  0.11760803351E+04  0.25500000920E-02 0. -1.
    10030    2    1    2    0    0  0.00000000000E+00  0.00000000000E+00 -0.39218349302E+03  0.19599771773E+04  0.19203392000E+04 0.  0.
        4    1    3    3  502    0 -0.29933164111E+03  0.16461089778E+03 -0.11119588617E+04  0.11632498881E+04  0.12699999809E+01 0. -1.
       -4    1    3    3    0  502  0.29933164111E+03 -0.16461089778E+03  0.71977536871E+03  0.79672728919E+03  0.12699999809E+01 0.  1.
</event>
<event>
 5   0  0.5170532E-05  0.2657325E+04  0.7818609E-02  0.8348986E-01
       -2   -1    0    0    0  501  0.00000000000E+00  0.00000000000E+00  0.13174483193E+04  0.13174483193E+04  0.25500000920E-02 0. -1.
        2   -1    0    0  501    0  0.00000000000E+00  0.00000000000E+00 -0.13399716782E+04  0.13399716782E+04  0.25500000920E-02 0.  1.
    10030    2    1    2    0    0  0.00000000000E+00  0.00000000000E+00 -0.22523358880E+02  0.26574199976E+04  0.26573245458E+04 0.  0.
        1    1    3    3  502    0  0.10342904140E+04  0.44071387078E+03  0.69683017722E+03  0.13227084608E+04  0.50400001928E-02 0. -1.
       -1    1    3    3    0  502 -0.10342904140E+04 -0.44071387078E+03 -0.71935353610E+03  0.13347115367E+04  0.50400001928E-02 0.  1.
</event>
<event>
 5   0  0.2159405E-05  0.2617805E+04  0.7818609E-02  0.8362178E-01
       -1   -1    0    0    0  501  0.00000000000E+00  0.00000000000E+00  0.11033501221E+04  0.11033501221E+04  0.50400001928E-02 0. -1.
        1   -1    0    0  501    0  0.00000000000E+00  0.00000000000E+00 -0.15527486035E+04  0.15527486035E+04  0.50400001928E-02 0.  1.
    10030    2    1    2    0    0  0.00000000000E+00  0.00000000000E+00 -0.44939848143E+03  0.26560987256E+04  0.26178046995E+04 0.  0.
        3    1    3    3  502    0 -0.97051995413E+03  0.66074956044E+03 -0.81171795383E+03  0.14273699625E+04  0.10100000352E+00 0.  1.
       -3    1    3    3    0  502  0.97051995413E+03 -0.66074956044E+03  0.36231947240E+03  0.12287287631E+04  0.10100000352E+00 0. -1.
</event>
<event>
 5   0  0.5182179E-05  0.2551180E+04  0.7818609E-02  0.8384976E-01
        2   -1    0    0  501    0  0.00000000000E+00  0.00000000000E+00  0.16105758221E+04  0.16105758221E+04  0.25500000920E-02 0. -1.
       -2   -1    0    0    0  501  0.00000000000E+00  0.00000000000E+00 -0.10102783296E+04  0.10102783296E+04  0.25500000920E-02 0.  1.
    10030    2    1    2    0    0  0.00000000000E+00  0.00000000000E+00  0.60029749251E+03  0.26208541517E+04  0.25511800025E+04 0.  0.
        3    1    3    3  502    0 -0.13431080371E+03 -0.42613708223E+03  0.15275581615E+04  0.15915609168E+04  0.10100000352E+00 0. -1.
       -3    1    3    3    0  502  0.13431080371E+03  0.42613708223E+03 -0.92726066903E+03  0.10292932349E+04  0.10100000352E+00 0.  1.
</event>
<event>
 5   0  0.2159405E-05  0.2554529E+04  0.7818609E-02  0.8383813E-01
        1   -1    0    0  501    0  0.00000000000E+00  0.00000000000E+00  0.11462327376E+04  0.11462327376E+04  0.50400001928E-02 0.  1.
       -1   -1    0    0    0  501  0.00000000000E+00  0.00000000000E+00 -0.14232752385E+04  0.14232752385E+04  0.50400001928E-02 0. -1.
    10030    2    1    2    0    0  0.00000000000E+00  0.00000000000E+00 -0.27704250093E+03  0.25695079761E+04  0.25545290548E+04 0.  0.
        3    1    3    3  502    0  0.35795071675E+03 -0.11719799165E+03 -0.13661450316E+04  0.14171155007E+04  0.10100000352E+00 0. -1.
       -3    1    3    3    0  502 -0.35795071675E+03  0.11719799165E+03  0.10891025307E+04  0.11523924754E+04  0.10100000352E+00 0.  1.
</event>
<event>
 5   0  0.1993815E-05  0.1938716E+04  0.7818609E-02  0.8635821E-01
       -1   -1    0    0    0  501  0.00000000000E+00  0.00000000000E+00  0.58018169882E+03  0.58018169884E+03  0.50400001928E-02 0.  1.
        1   -1    0    0  501    0  0.00000000000E+00  0.00000000000E+00 -0.16195869825E+04  0.16195869825E+04  0.50400001928E-02 0. -1.
    10030    2    1    2    0    0  0.00000000000E+00  0.00000000000E+00 -0.10394052837E+04  0.21997686814E+04  0.19387157883E+04 0.  0.
        5    1    3    3  502    0  0.53866531252E+02 -0.65088152870E+03 -0.13324530896E+04  0.14839143148E+04  0.46999998093E+01 0. -1.
       -5    1    3    3    0  502 -0.53866531252E+02  0.65088152870E+03  0.29304780593E+03  0.71585436658E+03  0.46999998093E+01 0.  1.
</event>
<event>
 5   0  0.2163800E-05  0.2169398E+04  0.7818609E-02  0.8531274E-01
       -1   -1    0    0    0  501  0.00000000000E+00  0.00000000000E+00  0.66473230278E+03  0.66473230280E+03  0.50400001928E-02 0.  1.
        1   -1    0    0  501    0  0.00000000000E+00  0.00000000000E+00 -0.17699943590E+04  0.17699943590E+04  0.50400001928E-02 0. -1.
    10030    2    1    2    0    0  0.00000000000E+00  0.00000000000E+00 -0.11052620562E+04  0.24347266618E+04  0.21693984661E+04 0.  0.
        1    1    3    3  502    0  0.73391043881E+03 -0.62409717234E+03 -0.11120419220E+04  0.14713120162E+04  0.50400001928E-02 0. -1.
       -1    1    3    3    0  502 -0.73391043881E+03  0.62409717234E+03  0.67798657974E+01  0.96341464558E+03  0.50400001928E-02 0.  1.
</event>
<event>
 5   0  0.2163800E-05  0.2583016E+04  0.7818609E-02  0.8373993E-01
       -1   -1    0    0    0  501  0.00000000000E+00  0.00000000000E+00  0.13537071539E+04  0.13537071539E+04  0.50400001928E-02 0. -1.
        1   -1    0    0  501    0  0.00000000000E+00  0.00000000000E+00 -0.12321666983E+04  0.12321666983E+04  0.50400001928E-02 0.  1.
    10030    2    1    2    0    0  0.00000000000E+00  0.00000000000E+00  0.12154045564E+03  0.25858738522E+04  0.25830159692E+04 0.  0.
        1    1    3    3  502    0  0.13013595025E+03 -0.12129634804E+04  0.48524065037E+03  0.13128877557E+04  0.50400001928E-02 0. -1.
       -1    1    3    3    0  502 -0.13013595025E+03  0.12129634804E+04 -0.36370019473E+03  0.12729860965E+04  0.50400001928E-02 0.  1.
</event>
<event>
 5   0  0.5182179E-05  0.2701742E+04  0.7818609E-02  0.8334440E-01
       -2   -1    0    0    0  501  0.00000000000E+00  0.00000000000E+00  0.11542878681E+04  0.11542878681E+04  0.25500000920E-02 0. -1.
        2   -1    0    0  501    0  0.00000000000E+00  0.00000000000E+00 -0.15809333237E+04  0.15809333237E+04  0.25500000920E-02 0.  1.
    10030    2    1    2    0    0  0.00000000000E+00  0.00000000000E+00 -0.42664545560E+03  0.27352211919E+04  0.27017417759E+04 0.  0.
        3    1    3    3  502    0 -0.81992129735E+03  0.65553891509E+03 -0.10740641233E+04  0.15018708181E+04  0.10100000352E+00 0.  1.
       -3    1    3    3    0  502  0.81992129735E+03 -0.65553891509E+03  0.64741866771E+03  0.12333503738E+04  0.10100000352E+00 0. -1.
</event>
<event>
 5   0  0.2163800E-05  0.2774477E+04  0.7818609E-02  0.8311236E-01
       -1   -1    0    0    0  501  0.00000000000E+00  0.00000000000E+00  0.80474018925E+03  0.80474018926E+03  0.50400001928E-02 0.  1.
        1   -1    0    0  501    0  0.00000000000E+00  0.00000000000E+00 -0.23913688150E+04  0.23913688150E+04  0.50400001928E-02 0. -1.
    10030    2    1    2    0    0  0.00000000000E+00  0.00000000000E+00 -0.15866286257E+04  0.31961090042E+04  0.27744769545E+04 0.  0.
        1    1    3    3  502    0 -0.55076843742E+03  0.11157235631E+04 -0.14999184983E+04  0.19488305320E+04  0.50400001928E-02 0. -1.
       -1    1    3    3    0  502  0.55076843742E+03 -0.11157235631E+04 -0.86710127411E+02  0.12472784722E+04  0.50400001928E-02 0.  1.
</event>
<event>
 5   0  0.2072710E-05  0.2658917E+04  0.7818609E-02  0.8348459E-01
       -1   -1    0    0    0  501  0.00000000000E+00  0.00000000000E+00  0.22688245748E+04  0.22688245748E+04  0.50400001928E-02 0. -1.
        1   -1    0    0  501    0  0.00000000000E+00  0.00000000000E+00 -0.77902005283E+03  0.77902005285E+03  0.50400001928E-02 0.  1.
    10030    2    1    2    0    0  0.00000000000E+00  0.00000000000E+00  0.14898045220E+04  0.30478446277E+04  0.26589169526E+04 0.  0.
        2    1    3    3  502    0  0.62728510671E+03 -0.12872317762E+03  0.20803981202E+04  0.21767206068E+04  0.25500000920E-02 0. -1.
       -2    1    3    3    0  502 -0.62728510671E+03  0.12872317762E+03 -0.59059359818E+03  0.87112402089E+03  0.25500000920E-02 0.  1.
</event>
<event>
 5   0  0.1993815E-05  0.2508449E+04  0.7818609E-02  0.8399982E-01
        1   -1    0    0  501    0  0.00000000000E+00  0.00000000000E+00  0.69804587077E+03  0.69804587078E+03  0.50400001928E-02 0. -1.
       -1   -1    0    0    0  501  0.00000000000E+00  0.00000000000E+00 -0.22535469831E+04  0.22535469831E+04  0.50400001928E-02 0.  1.
    10030    2    1    2    0    0  0.00000000000E+00  0.00000000000E+00 -0.15555011123E+04  0.29515928539E+04  0.25084490556E+04 0.  0.
        5    1    3    3  502    0 -0.11049253952E+04  0.34989731289E+03 -0.21372769216E+03  0.11785541460E+04  0.46999998093E+01 0. -1.
       -5    1    3    3    0  502  0.11049253952E+04 -0.34989731289E+03 -0.13417734201E+04  0.17730387079E+04  0.46999998093E+01 0.  1.
</event>
<event>
 5   0  0.5170532E-05  0.2530062E+04  0.7818609E-02  0.8392354E-01
        2   -1    0    0  501    0  0.00000000000E+00  0.00000000000E+00  0.18208208237E+04  0.18208208237E+04  0.25500000920E-02 0. -1.
       -2   -1    0    0    0  501  0.00000000000E+00  0.00000000000E+00 -0.87889087379E+03  0.87889087380E+03  0.25500000920E-02 0.  1.
    10030    2    1    2    0    0  0.00000000000E+00  0.00000000000E+00  0.94192994991E+03  0.26997116975E+04  0.25300615050E+04 0.  0.
        1    1    3    3  502    0 -0.50187636351E+03 -0.98834186483E+03 -0.17950323752E+03  0.11229073596E+04  0.50400001928E-02 0.  1.
       -1    1    3    3    0  502  0.50187636351E+03  0.98834186483E+03  0.11214331874E+04  0.15768043379E+04  0.50400001928E-02 0. -1.
</event>
<event>
 5   0  0.5182179E-05  0.2631026E+04  0.7818609E-02  0.8357738E-01
       -2   -1    0    0    0  501  0.00000000000E+00  0.00000000000E+00  0.13512137125E+04  0.13512137125E+04  0.25500000920E-02 0.  1.
        2   -1    0    0  501    0  0.00000000000E+00  0.00000000000E+00 -0.12807556565E+04  0.12807556565E+04  0.25500000920E-02 0. -1.
    10030    2    1    2    0    0  0.00000000000E+00  0.00000000000E+00  0.70458056047E+02  0.26319693690E+04  0.26310261158E+04 0.  0.
        3    1    3    3  502    0 -0.25085342639E+03  0.27553465376E+02  0.13267720477E+04  0.13505594070E+04  0.10100000352E+00 0.  1.
       -3    1    3    3    0  502  0.25085342639E+03 -0.27553465376E+02 -0.12563139917E+04  0.12814099620E+04  0.10100000352E+00 0. -1.
</event>
<event>
 5   0  0.2163800E-05  0.2725540E+04  0.7818609E-02  0.8326765E-01
        1   -1    0    0  501    0  0.00000000000E+00  0.00000000000E+00  0.15655258390E+04  0.15655258390E+04  0.50400001928E-02 0. -1.
       -1   -1    0    0    0  501  0.00000000000E+00  0.00000000000E+00 -0.11862737340E+04  0.11862737340E+04  0.50400001928E-02 0.  1.
    10030    2    1    2    0    0  0.00000000000E+00  0.00000000000E+00  0.37925210500E+03  0.27517995730E+04  0.27255400806E+04 0.  0.
        1    1    3    3  502    0 -0.21828408319E+03 -0.94536267911E+03 -0.77655978661E+03  0.12427403744E+04  0.50400001928E-02 0. -1.
       -1    1    3    3    0  502  0.21828408319E+03  0.94536267911E+03  0.11558118916E+04  0.15090591986E+04  0.50400001928E-02 0.  1.
</event>
<event>
 5   0  0.2072710E-05  0.2592323E+04  0.7818609E-02  0.8370813E-01
        1   -1    0    0  501    0  0.00000000000E+00  0.00000000000E+00  0.15606747201E+04  0.15606747201E+04  0.50400001928E-02 0.  1.
       -1   -1    0    0    0  501  0.00000000000E+00  0.00000000000E+00 -0.10764799543E+04  0.10764799543E+04  0.50400001928E-02 0. -1.
    10030    2    1    2    0    0  0.00000000000E+00  0.00000000000E+00  0.48419476585E+03  0.26371546744E+04  0.25923233219E+04 0.  0.
        2    1    3    3  502    0  0.12717542245E+04  0.13854220098E+03  0.29967084840E+02  0.12796291553E+04  0.25500000920E-02 0. -1.
       -2    1    3    3    0  502 -0.12717542245E+04 -0.13854220098E+03  0.45422768101E+03  0.13575255191E+04  0.25500000920E-02 0.  1.
</event>
<event>
 5   0  0.1954502E-05  0.2463219E+04  0.7818609E-02  0.8416207E-01
       -1   -1    0    0    0  501  0.00000000000E+00  0.00000000000E+00  0.20597467419E+04  0.20597467419E+04  0.50400001928E-02 0. -1.
        1   -1    0    0  501    0  0.00000000000E+00  0.00000000000E+00 -0.73643117223E+03  0.73643117225E+03  0.50400001928E-02 0.  1.
    10030    2    1    2    0    0  0.00000000000E+00  0.00000000000E+00  0.13233155696E+04  0.27961779141E+04  0.24632187947E+04 0.  0.
        4    1    3    3  502    0 -0.83513817290E+03  0.18696781667E+03  0.16670689759E+04  0.18739085665E+04  0.12699999809E+01 0. -1.
       -4    1    3    3    0  502  0.83513817290E+03 -0.18696781667E+03 -0.34375340628E+03  0.92226934760E+03  0.12699999809E+01 0.  1.
</event>
<event>
 5   0  0.2159405E-05  0.1569665E+04  0.7818609E-02  0.8839404E-01
       -1   -1    0    0    0  501  0.00000000000E+00  0.00000000000E+00  0.40409151261E+03  0.40409151264E+03  0.50400001928E-02 0. -1.
        1   -1    0    0  501    0  0.00000000000E+00  0.00000000000E+00 -0.15243134424E+04  0.15243134424E+04  0.50400001928E-02 0.  1.
    10030    2    1    2    0    0  0.00000000000E+00  0.00000000000E+00 -0.11202219298E+04  0.19284049550E+04  0.15696650912E+04 0.  0.
        3    1    3    3  502    0 -0.33914788624E+02 -0.14603578571E+03  0.38633598791E+03  0.41440580274E+03  0.10100000352E+00 0. -1.
       -3    1    3    3    0  502  0.33914788624E+02  0.14603578571E+03 -0.15065579177E+04  0.15139991523E+04  0.10100000352E+00 0.  1.
</event>
<event>
 5   0  0.2163800E-05  0.2627662E+04  0.7818609E-02  0.8358865E-01
       -1   -1    0    0    0  501  0.00000000000E+00  0.00000000000E+00  0.10623239069E+04  0.10623239069E+04  0.50400001928E-02 0.  1.
        1   -1    0    0  501    0  0.00000000000E+00  0.00000000000E+00 -0.16248828415E+04  0.16248828415E+04  0.50400001928E-02 0. -1.
    10030    2    1    2    0    0  0.00000000000E+00  0.00000000000E+00 -0.56255893453E+03  0.26872067484E+04  0.26276619938E+04 0.  0.
        1    1    3    3  502    0 -0.63163592725E+03 -0.58345319444E+03 -0.12971529398E+04  0.15562735376E+04  0.50400001928E-02 0. -1.
       -1    1    3    3    0  502  0.63163592725E+03  0.58345319444E+03  0.73459400524E+03  0.11309332108E+04  0.50400001928E-02 0.  1.
</event>
<event>
 5   0  0.5049803E-05  0.2423326E+04  0.7818609E-02  0.8430822E-01
        2   -1    0    0  501    0  0.00000000000E+00  0.00000000000E+00  0.13300569516E+04  0.13300569516E+04  0.25500000920E-02 0. -1.
       -2   -1    0    0    0  501  0.00000000000E+00  0.00000000000E+00 -0.11038079381E+04  0.11038079381E+04  0.25500000920E-02 0.  1.
    10030    2    1    2    0    0  0.00000000000E+00  0.00000000000E+00  0.22624901350E+03  0.24338648897E+04  0.24233261616E+04 0.  0.
        4    1    3    3  502    0  0.58922557713E+03  0.10579759871E+03  0.11711505760E+04  0.13152852152E+04  0.12699999809E+01 0. -1.
       -4    1    3    3    0  502 -0.58922557713E+03 -0.10579759871E+03 -0.94490156250E+03  0.11185796746E+04  0.12699999809E+01 0.  1.
</event>
<event>
 5   0  0.5049803E-05  0.2492197E+04  0.7818609E-02  0.8405771E-01
        2   -1    0    0  501    0  0.00000000000E+00  0.00000000000E+00  0.12601361994E+04  0.12601361994E+04  0.25500000920E-02 0. -1.
       -2   -1    0    0    0  501  0.00000000000E+00  0.00000000000E+00 -0.12322171395E+04  0.12322171395E+04  0.25500000920E-02 0.  1.
    10030    2    1    2    0    0  0.00000000000E+00  0.00000000000E+00  0.27919059903E+02  0.24923533389E+04  0.24921969609E+04 0.  0.
        4    1    3    3  502    0  0.35722848877E+03 -0.10691109911E+04  0.54517014251E+03  0.12521272306E+04  0.12699999809E+01 0. -1.
       -4    1    3    3    0  502 -0.35722848877E+03  0.10691109911E+04 -0.51725108261E+03  0.12402261083E+04  0.12699999809E+01 0.  1.
</event>
<event>
 5   0  0.2159405E-05  0.2615158E+04  0.7818609E-02  0.8363071E-01
        1   -1    0    0  501    0  0.00000000000E+00  0.00000000000E+00  0.22302830084E+04  0.22302830084E+04  0.50400001928E-02 0.  1.
       -1   -1    0    0    0  501  0.00000000000E+00  0.00000000000E+00 -0.76661250966E+03  0.76661250968E+03  0.50400001928E-02 0. -1.
    10030    2    1    2    0    0  0.00000000000E+00  0.00000000000E+00  0.14636704988E+04  0.29968955181E+04  0.26151580100E+04 0.  0.
        3    1    3    3  502    0  0.71611161664E+03  0.91222667754E+02 -0.51754942693E+03  0.88825381626E+03  0.10100000352E+00 0. -1.
       -3    1    3    3    0  502 -0.71611161664E+03 -0.91222667754E+02  0.19812199257E+04  0.21086417018E+04  0.10100000352E+00 0.  1.
</event>
<event>
 5   0  0.1954502E-05  0.2518536E+04  0.7818609E-02  0.8396412E-01
        1   -1    0    0  501    0  0.00000000000E+00  0.00000000000E+00  0.16561057983E+04  0.16561057983E+04  0.50400001928E-02 0. -1.
       -1   -1    0    0    0  501  0.00000000000E+00  0.00000000000E+00 -0.95752053434E+03  0.95752053435E+03  0.50400001928E-02 0.  1.
    10030    2    1    2    0    0  0.00000000000E+00  0.00000000000E+00  0.69858526398E+03  0.26136263327E+04  0.25185355340E+04 0.  0.
        4    1    3    3  502    0  0.44368092357E+03  0.88799771847E+03 -0.45479178476E+03  0.10918928017E+04  0.12699999809E+01 0.  1.
       -4    1    3    3    0  502 -0.44368092357E+03 -0.88799771847E+03  0.11533770487E+04  0.15217335310E+04  0.12699999809E+01 0. -1.
</event>
<event>
 5   0  0.5049803E-05  0.2647355E+04  0.7818609E-02  0.8352291E-01
       -2   -1    0    0    0  501  0.00000000000E+00  0.00000000000E+00  0.14249360760E+04  0.14249360760E+04  0.25500000920E-02 0.  1.
        2   -1    0    0  501    0  0.00000000000E+00  0.00000000000E+00 -0.12296143504E+04  0.12296143504E+04  0.25500000920E-02 0. -1.
    10030    2    1    2    0    0  0.00000000000E+00  0.00000000000E+00  0.19532172560E+03  0.26545504264E+04  0.26473547911E+04 0.  0.
        4    1    3    3  502    0  0.11861966390E+04 -0.45520802331E+03  0.46994270760E+03  0.13546676980E+04  0.12699999809E+01 0.  1.
       -4    1    3    3    0  502 -0.11861966390E+04  0.45520802331E+03 -0.27462098200E+03  0.12998827283E+04  0.12699999809E+01 0. -1.
</event>
<event>
 5   0  0.5049803E-05  0.2512706E+04  0.7818609E-02  0.8398473E-01
        2   -1    0    0  501    0  0.00000000000E+00  0.00000000000E+00  0.85945901505E+03  0.85945901506E+03  0.25500000920E-02 0. -1.
       -2   -1    0    0    0  501  0.00000000000E+00  0.00000000000E+00 -0.18365310564E+04  0.18365310564E+04  0.25500000920E-02 0.  1.
    10030    2    1    2    0    0  0.00000000000E+00  0.00000000000E+00 -0.97707204137E+03  0.26959900715E+04  0.25127062486E+04 0.  0.
        4    1    3    3  502    0  0.66472088208E+03  0.15263545712E+03  0.64354327131E+03  0.93771050372E+03  0.12699999809E+01 0. -1.
       -4    1    3    3    0  502 -0.66472088208E+03 -0.15263545712E+03 -0.16206153127E+04  0.17582795678E+04  0.12699999809E+01 0.  1.
</event>
<event>
 5   0  0.4955675E-05  0.2619005E+04  0.7818609E-02  0.8361774E-01
        2   -1    0    0  501    0  0.00000000000E+00  0.00000000000E+00  0.19291456134E+04  0.19291456134E+04  0.25500000920E-02 0.  1.
       -2   -1    0    0    0  501  0.00000000000E+00  0.00000000000E+00 -0.88888914686E+03  0.88888914687E+03  0.25500000920E-02 0. -1.
    10030    2    1    2    0    0  0.00000000000E+00  0.00000000000E+00  0.10402564666E+04  0.28180347603E+04  0.26190048480E+04 0.  0.
        5    1    3    3  502    0 -0.89736052268E+01 -0.12472664386E+04  0.91050000317E+02  0.12506263579E+04  0.46999998093E+01 0. -1.
       -5    1    3    3    0  502  0.89736052268E+01  0.12472664386E+04  0.94920646623E+03  0.15674084024E+04  0.46999998093E+01 0.  1.
</event>
<event>
 5   0  0.5170532E-05  0.2545043E+04  0.7818609E-02  0.8387112E-01
       -2   -1    0    0    0  501  0.00000000000E+00  0.00000000000E+00  0.88163286923E+03  0.88163286923E+03  0.25500000920E-02 0. -1.
        2   -1    0    0  501    0  0.00000000000E+00  0.00000000000E+00 -0.18367182324E+04  0.18367182324E+04  0.25500000920E-02 0.  1.
    10030    2    1    2    0    0  0.00000000000E+00  0.00000000000E+00 -0.95508536313E+03  0.27183511016E+04  0.25450431550E+04 0.  0.
        1    1    3    3  502    0  0.95651537509E+03 -0.17412992334E+03 -0.13544674594E+04  0.16672807177E+04  0.50400001928E-02 0.  1.
       -1    1    3    3    0  502 -0.95651537509E+03  0.17412992334E+03  0.39938209630E+03  0.10510703839E+04  0.50400001928E-02 0. -1.
</event>
<event>
 5   0  0.1698625E-05  0.2503993E+04  0.7818609E-02  0.8401564E-01
        3   -1    0    0  501    0  0.00000000000E+00  0.00000000000E+00  0.13045165026E+04  0.13045165065E+04  0.10100000352E+00 0.  1.
       -3   -1    0    0    0  501  0.00000000000E+00  0.00000000000E+00 -0.12015909266E+04  0.12015909309E+04  0.10100000352E+00 0. -1.
    10030    2    1    2    0    0  0.00000000000E+00  0.00000000000E+00  0.10292557600E+03  0.25061074374E+04  0.25039929740E+04 0.  0.
        2    1    3    3  502    0 -0.25728539412E+03  0.32501693402E+03  0.12338423869E+04  0.13016139278E+04  0.25500000920E-02 0.  1.
       -2    1    3    3    0  502  0.25728539412E+03 -0.32501693402E+03 -0.11309168109E+04  0.12044935096E+04  0.25500000920E-02 0. -1.
</event>
<event>
 5   0  0.4955675E-05  0.2677462E+04  0.7818609E-02  0.8342355E-01
       -2   -1    0    0    0  501  0.00000000000E+00  0.00000000000E+00  0.18440644267E+04  0.18440644267E+04  0.25500000920E-02 0. -1.
        2   -1    0    0  501    0  0.00000000000E+00  0.00000000000E+00 -0.97187544663E+03  0.97187544664E+03  0.25500000920E-02 0.  1.
    10030    2    1    2    0    0  0.00000000000E+00  0.00000000000E+00  0.87218898011E+03  0.28159398734E+04  0.26774621853E+04 0.  0.
        5    1    3    3  502    0 -0.74929009237E+03  0.15592556854E+03 -0.71908952785E+03  0.10501715405E+04  0.46999998093E+01 0.  1.
       -5    1    3    3    0  502  0.74929009237E+03 -0.15592556854E+03  0.15912785080E+04  0.17657683329E+04  0.46999998093E+01 0. -1.
</event>
<event>
 5   0  0.2072710E-05  0.2607742E+04  0.7818609E-02  0.8365576E-01
        1   -1    0    0  501    0  0.00000000000E+00  0.00000000000E+00  0.99548544550E+03  0.99548544551E+03  0.50400001928E-02 0.  1.
       -1   -1    0    0    0  501  0.00000000000E+00  0.00000000000E+00 -0.17077889079E+04  0.17077889079E+04  0.50400001928E-02 0. -1.
    10030    2    1    2    0    0  0.00000000000E+00  0.00000000000E+00 -0.71230346236E+03  0.27032743534E+04  0.26077415530E+04 0.  0.
        2    1    3    3  502    0  0.46621187285E+03  0.60767966032E+03 -0.14500101570E+04  0.16398650967E+04  0.25500000920E-02 0. -1.
       -2    1    3    3    0  502 -0.46621187285E+03 -0.60767966032E+03  0.73770669462E+03  0.10634092567E+04  0.25500000920E-02 0.  1.
</event>
<event>
 5   0  0.4955675E-05  0.1614269E+04  0.7818609E-02  0.8811830E-01
       -2   -1    0    0    0  501  0.00000000000E+00  0.00000000000E+00  0.42315293458E+03  0.42315293459E+03  0.25500000920E-02 0.  1.
        2   -1    0    0  501    0  0.00000000000E+00  0.00000000000E+00 -0.15395520285E+04  0.15395520285E+04  0.25500000920E-02 0. -1.
    10030    2    1    2    0    0  0.00000000000E+00  0.00000000000E+00 -0.11163990939E+04  0.19627049631E+04  0.16142688237E+04 0.  0.
        5    1    3    3  502    0 -0.52452879253E+03 -0.56634671673E+02 -0.13008684445E+04  0.14037872845E+04  0.46999998093E+01 0. -1.
       -5    1    3    3    0  502  0.52452879253E+03  0.56634671673E+02  0.18446935052E+03  0.55891767865E+03  0.46999998093E+01 0.  1.
</event>
<event>
 5   0  0.2159405E-05  0.2536731E+04  0.7818609E-02  0.8390016E-01
       -1   -1    0    0    0  501  0.00000000000E+00  0.00000000000E+00  0.11009126714E+04  0.11009126714E+04  0.50400001928E-02 0. -1.
        1   -1    0    0  501    0  0.00000000000E+00  0.00000000000E+00 -0.14612883231E+04  0.14612883231E+04  0.50400001928E-02 0.  1.
    10030    2    1    2    0    0  0.00000000000E+00  0.00000000000E+00 -0.36037565169E+03  0.25622009945E+04  0.25367308343E+04 0.  0.
        3    1    3    3  502    0  0.57971876065E+03  0.10670958878E+04  0.18952474479E+03  0.12291001238E+04  0.10100000352E+00 0. -1.
       -3    1    3    3    0  502 -0.57971876065E+03 -0.10670958878E+04 -0.54990039648E+03  0.13331008707E+04  0.10100000352E+00 0.  1.
</event>
<event>
 5   0  0.1954502E-05  0.1550236E+04  0.7818609E-02  0.8851717E-01
       -1   -1    0    0    0  501  0.00000000000E+00  0.00000000000E+00  0.30518190305E+03  0.30518190309E+03  0.50400001928E-02 0. -1.
        1   -1    0    0  501    0  0.00000000000E+00  0.00000000000E+00 -0.19686874653E+04  0.19686874653E+04  0.50400001928E-02 0.  1.
    10030    2    1    2    0    0  0.00000000000E+00  0.00000000000E+00 -0.16635055623E+04  0.22738693684E+04  0.15502358365E+04 0.  0.
        4    1    3    3  502    0 -0.65540021918E+03 -0.37274083740E+03 -0.10954527638E+04  0.13298509502E+04  0.12699999809E+01 0.  1.
       -4    1    3    3    0  502  0.65540021918E+03  0.37274083740E+03 -0.56805279851E+03  0.94401841823E+03  0.12699999809E+01 0. -1.
</event>
<event>
 5   0  0.2159405E-05  0.1880156E+04  0.7818609E-02  0.8664798E-01
        1   -1    0    0  501    0  0.00000000000E+00  0.00000000000E+00  0.82738396773E+03  0.82738396774E+03  0.50400001928E-02 0.  1.
       -1   -1    0    0    0  501  0.00000000000E+00  0.00000000000E+00 -0.10681213239E+04  0.10681213239E+04  0.50400001928E-02 0. -1.
    10030    2    1    2    0    0  0.00000000000E+00  0.00000000000E+00 -0.24073735615E+03  0.18955052916E+04  0.18801558010E+04 0.  0.
        3    1    3    3  502    0 -0.54843345440E+03 -0.61220107203E+03 -0.58035781883E+03  0.10061732528E+04  0.10100000352E+00 0. -1.
       -3    1    3    3    0  502  0.54843345440E+03  0.61220107203E+03  0.33962046267E+03  0.88933203887E+03  0.10100000352E+00 0.  1.
</event>
<event>
 5   0  0.2159405E-05  0.2345420E+04  0.7818609E-02  0.8460225E-01
        1   -1    0    0  501    0  0.00000000000E+00  0.00000000000E+00  0.12365325582E+04  0.12365325582E+04  0.50400001928E-02 0.  1.
       -1   -1    0    0    0  501  0.00000000000E+00  0.00000000000E+00 -0.11121820168E+04  0.11121820168E+04  0.50400001928E-02 0. -1.
    10030    2    1    2    0    0  0.00000000000E+00  0.00000000000E+00  0.12435054140E+03  0.23487145751E+04  0.23454204523E+04 0.  0.
        3    1    3    3  502    0  0.10574424132E+04  0.51537213803E+02 -0.44292259526E+03  0.11476153438E+04  0.10100000352E+00 0. -1.
       -3    1    3    3    0  502 -0.10574424132E+04 -0.51537213803E+02  0.56727313667E+03  0.12010992313E+04  0.10100000352E+00 0.  1.
</event>
<event>
 5   0  0.5036452E-05  0.2305650E+04  0.7818609E-02  0.8475697E-01
       -2   -1    0    0    0  501  0.00000000000E+00  0.00000000000E+00  0.71403587808E+03  0.71403587809E+03  0.25500000920E-02 0.  1.
        2   -1    0    0  501    0  0.00000000000E+00  0.00000000000E+00 -0.18612593167E+04  0.18612593167E+04  0.25500000920E-02 0. -1.
    10030    2    1    2    0    0  0.00000000000E+00  0.00000000000E+00 -0.11472234386E+04  0.25752951947E+04  0.23056503902E+04 0.  0.
        2    1    3    3  502    0 -0.61501666781E+03  0.56888890405E+03  0.31091490864E+03  0.89361522327E+03  0.25500000920E-02 0.  1.
       -2    1    3    3    0  502  0.61501666781E+03 -0.56888890405E+03 -0.14581383472E+04  0.16816799715E+04  0.25500000920E-02 0. -1.
</event>
<event>
 5   0  0.1993815E-05  0.2600918E+04  0.7818609E-02  0.8367890E-01
        1   -1    0    0  501    0  0.00000000000E+00  0.00000000000E+00  0.16096490673E+04  0.16096490673E+04  0.50400001928E-02 0. -1.
       -1   -1    0    0    0  501  0.00000000000E+00  0.00000000000E+00 -0.10506596239E+04  0.10506596239E+04  0.50400001928E-02 0.  1.
    10030    2    1    2    0    0  0.00000000000E+00  0.00000000000E+00  0.55898944344E+03  0.26603086912E+04  0.26009177485E+04 0.  0.
        5    1    3    3  502    0 -0.12528025822E+04 -0.34817251255E+03  0.25821619458E+03  0.13256832584E+04  0.46999998093E+01 0.  1.
       -5    1    3    3    0  502  0.12528025822E+04  0.34817251255E+03  0.30077324886E+03  0.13346254327E+04  0.46999998093E+01 0. -1.
</event>
<event>
 5   0  0.2072710E-05  0.1346847E+04  0.7818609E-02  0.8993218E-01
       -1   -1    0    0    0  501  0.00000000000E+00  0.00000000000E+00  0.29845704278E+03  0.29845704282E+03  0.50400001928E-02 0. -1.
        1   -1    0    0  501    0  0.00000000000E+00  0.00000000000E+00 -0.15194786284E+04  0.15194786285E+04  0.50400001928E-02 0.  1.
    10030    2    1    2    0    0  0.00000000000E+00  0.00000000000E+00 -0.12210215857E+04  0.18179356713E+04  0.13468468332E+04 0.  0.
        2    1    3    3  502    0 -0.61088513829E+02 -0.11899185860E+03  0.28034691029E+03  0.31062076403E+03  0.25500000920E-02 0. -1.
       -2    1    3    3    0  502  0.61088513829E+02  0.11899185860E+03 -0.15013684960E+04  0.15073149072E+04  0.25500000920E-02 0.  1.
</event>
<event>
 5   0  0.2159405E-05  0.2546552E+04  0.7818609E-02  0.8386586E-01
       -1   -1    0    0    0  501  0.00000000000E+00  0.00000000000E+00  0.30678805634E+04  0.30678805634E+04  0.50400001928E-02 0. -1.
        1   -1    0    0  501    0  0.00000000000E+00  0.00000000000E+00 -0.52845351796E+03  0.52845351798E+03  0.50400001928E-02 0.  1.
    10030    2    1    2    0    0  0.00000000000E+00  0.00000000000E+00  0.25394270455E+04  0.35963340814E+04  0.25465523961E+04 0.  0.
        3    1    3    3  502    0  0.85316309571E+03 -0.79514117696E+03  0.54809593152E+03  0.12886217131E+04  0.10100000352E+00 0.  1.
       -3    1    3    3    0  502 -0.85316309571E+03  0.79514117696E+03  0.19913311139E+04  0.23077123683E+04  0.10100000352E+00 0. -1.
</event>
<event>
 5   0  0.5170532E-05  0.2612275E+04  0.7818609E-02  0.8364044E-01
       -2   -1    0    0    0  501  0.00000000000E+00  0.00000000000E+00  0.94036070583E+03  0.94036070583E+03  0.25500000920E-02 0. -1.
        2   -1    0    0  501    0  0.00000000000E+00  0.00000000000E+00 -0.18141919455E+04  0.18141919455E+04  0.25500000920E-02 0.  1.
    10030    2    1    2    0    0  0.00000000000E+00  0.00000000000E+00 -0.87383123969E+03  0.27545526514E+04  0.26122747317E+04 0.  0.
        1    1    3    3  502    0  0.11769242049E+04 -0.36017809404E+03  0.24062936531E+02  0.12310393448E+04  0.50400001928E-02 0. -1.
       -1    1    3    3    0  502 -0.11769242049E+04  0.36017809404E+03 -0.89789417623E+03  0.15235133066E+04  0.50400001928E-02 0.  1.
</event>
<event>
 5   0  0.5036452E-05  0.2640225E+04  0.7818609E-02  0.8354665E-01
       -2   -1    0    0    0  501  0.00000000000E+00  0.00000000000E+00  0.10072119207E+04  0.10072119207E+04  0.25500000920E-02 0.  1.
        2   -1    0    0  501    0  0.00000000000E+00  0.00000000000E+00 -0.17302184455E+04  0.17302184455E+04  0.25500000920E-02 0. -1.
    10030    2    1    2    0    0  0.00000000000E+00  0.00000000000E+00 -0.72300652479E+03  0.27374303661E+04  0.26402247205E+04 0.  0.
        2    1    3    3  502    0  0.75694201801E+03 -0.10813114644E+04 -0.33829749628E+03  0.13625861065E+04  0.25500000920E-02 0.  1.
       -2    1    3    3    0  502 -0.75694201801E+03  0.10813114644E+04 -0.38470902851E+03  0.13748442596E+04  0.25500000920E-02 0. -1.
</event>
<event>
 5   0  0.2159405E-05  0.2887525E+04  0.7818609E-02  0.8276599E-01
       -1   -1    0    0    0  501  0.00000000000E+00  0.00000000000E+00  0.76591464535E+03  0.76591464536E+03  0.50400001928E-02 0. -1.
        1   -1    0    0  501    0  0.00000000000E+00  0.00000000000E+00 -0.27215177774E+04  0.27215177774E+04  0.50400001928E-02 0.  1.
    10030    2    1    2    0    0  0.00000000000E+00  0.00000000000E+00 -0.19556031321E+04  0.34874324228E+04  0.28875251156E+04 0.  0.
        3    1    3    3  502    0  0.98200418138E+03  0.90682156704E+03 -0.31872315191E+03  0.13741331902E+04  0.10100000352E+00 0. -1.
       -3    1    3    3    0  502 -0.98200418138E+03 -0.90682156704E+03 -0.16368799802E+04  0.21132992326E+04  0.10100000352E+00 0.  1.
</event>
<event>
 5   0  0.5170532E-05  0.2615660E+04  0.7818609E-02  0.8362901E-01
       -2   -1    0    0    0  501  0.00000000000E+00  0.00000000000E+00  0.13476010363E+04  0.13476010363E+04  0.25500000920E-02 0.  1.
        2   -1    0    0  501    0  0.00000000000E+00  0.00000000000E+00 -0.12692326277E+04  0.12692326277E+04  0.25500000920E-02 0. -1.
    10030    2    1    2    0    0  0.00000000000E+00  0.00000000000E+00  0.78368408558E+02  0.26168336640E+04  0.26156599201E+04 0.  0.
        1    1    3    3  502    0  0.45762940538E+03  0.43363961855E+03  0.11855392180E+04  0.13427476415E+04  0.50400001928E-02 0.  1.
       -1    1    3    3    0  502 -0.45762940538E+03 -0.43363961855E+03 -0.11071708094E+04  0.12740860225E+04  0.50400001928E-02 0. -1.
</event>
<event>
 5   0  0.2163800E-05  0.2106813E+04  0.7818609E-02  0.8558248E-01
        1   -1    0    0  501    0  0.00000000000E+00  0.00000000000E+00  0.10546696561E+04  0.10546696561E+04  0.50400001928E-02 0.  1.
       -1   -1    0    0    0  501  0.00000000000E+00  0.00000000000E+00 -0.10521446131E+04  0.10521446131E+04  0.50400001928E-02 0. -1.
    10030    2    1    2    0    0  0.00000000000E+00  0.00000000000E+00  0.25250430192E+01  0.21068142693E+04  0.21068127561E+04 0.  0.
        1    1    3    3  502    0  0.75172490928E+03  0.49171449292E+03 -0.54900282401E+03  0.10527476348E+04  0.50400001928E-02 0. -1.
       -1    1    3    3    0  502 -0.75172490928E+03 -0.49171449292E+03  0.55152786703E+03  0.10540666345E+04  0.50400001928E-02 0.  1.
</event>
<event>
 5   0  0.2159405E-05  0.2542047E+04  0.7818609E-02  0.8388158E-01
        1   -1    0    0  501    0  0.00000000000E+00  0.00000000000E+00  0.14027054908E+04  0.14027054908E+04  0.50400001928E-02 0.  1.
       -1   -1    0    0    0  501  0.00000000000E+00  0.00000000000E+00 -0.11517030585E+04  0.11517030585E+04  0.50400001928E-02 0. -1.
    10030    2    1    2    0    0  0.00000000000E+00  0.00000000000E+00  0.25100243226E+03  0.25544085493E+04  0.25420465802E+04 0.  0.
        3    1    3    3  502    0  0.35442987070E+03 -0.69107640485E+03  0.11365217709E+04  0.13765496274E+04  0.10100000352E+00 0.  1.
       -3    1    3    3    0  502 -0.35442987070E+03  0.69107640485E+03 -0.88551933868E+03  0.11778589219E+04  0.10100000352E+00 0. -1.
</event>
<event>
 5   0  0.5049803E-05  0.2580612E+04  0.7818609E-02  0.8374817E-01
        2   -1    0    0  501    0  0.00000000000E+00  0.00000000000E+00  0.21453668090E+04  0.21453668090E+04  0.25500000920E-02 0.  1.
       -2   -1    0    0    0  501  0.00000000000E+00  0.00000000000E+00 -0.77603951996E+03  0.77603951996E+03  0.25500000920E-02 0. -1.
    10030    2    1    2    0    0  0.00000000000E+00  0.00000000000E+00  0.13693272890E+04  0.29214063289E+04  0.25806118876E+04 0.  0.
        4    1    3    3  502    0 -0.93931532525E+03  0.59456392618E+03 -0.56872754199E+02  0.11131287732E+04  0.12699999809E+01 0. -1.
       -4    1    3    3    0  502  0.93931532525E+03 -0.59456392618E+03  0.14262000432E+04  0.18082775558E+04  0.12699999809E+01 0.  1.
</event>
<event>
 5   0  0.2072710E-05  0.2502888E+04  0.7818609E-02  0.8401957E-01
       -1   -1    0    0    0  501  0.00000000000E+00  0.00000000000E+00  0.10713717704E+04  0.10713717704E+04  0.50400001928E-02 0. -1.
        1   -1    0    0  501    0  0.00000000000E+00  0.00000000000E+00 -0.14617817955E+04  0.14617817955E+04  0.50400001928E-02 0.  1.
    10030    2    1    2    0    0  0.00000000000E+00  0.00000000000E+00 -0.39041002514E+03  0.25331535659E+04  0.25028877323E+04 0.  0.
        2    1    3    3  502    0 -0.76645006522E+03  0.20010393574E+03 -0.11757467473E+04  0.14176980290E+04  0.25500000920E-02 0.  1.
       -2    1    3    3    0  502  0.76645006522E+03 -0.20010393574E+03  0.78533672218E+03  0.11154555369E+04  0.25500000920E-02 0. -1.
</event>
<event>
 5   0  0.5170532E-05  0.2819885E+04  0.7818609E-02  0.8297121E-01
        2   -1    0    0  501    0  0.00000000000E+00  0.00000000000E+00  0.23863751826E+04  0.23863751826E+04  0.25500000920E-02 0. -1.
       -2   -1    0    0    0  501  0.00000000000E+00  0.00000000000E+00 -0.83303681741E+03  0.83303681742E+03  0.25500000920E-02 0.  1.
    10030    2    1    2    0    0  0.00000000000E+00  0.00000000000E+00  0.15533383652E+04  0.32194120000E+04  0.28198853787E+04 0.  0.
        1    1    3    3  502    0  0.18651475932E+03 -0.29047566641E+03  0.23373840041E+04  0.23627373639E+04  0.50400001928E-02 0. -1.
       -1    1    3    3    0  502 -0.18651475932E+03  0.29047566641E+03 -0.78404563891E+03  0.85667463610E+03  0.50400001928E-02 0.  1.
</event>
<event>
 5   0  0.4955675E-05  0.1669497E+04  0.7818609E-02  0.8778955E-01
        2   -1    0    0  501    0  0.00000000000E+00  0.00000000000E+00  0.19161244900E+04  0.19161244900E+04  0.25500000920E-02 0.  1.
       -2   -1    0    0    0  501  0.00000000000E+00  0.00000000000E+00 -0.36365327402E+03  0.36365327403E+03  0.25500000920E-02 0. -1.
    10030    2    1    2    0    0  0.00000000000E+00  0.00000000000E+00  0.15524712160E+04  0.22797777640E+04  0.16694968634E+04 0.  0.
        5    1    3    3  502    0  0.54429002325E+03 -0.44992313684E+03  0.13840200481E+04  0.15537747720E+04  0.46999998093E+01 0.  1.
       -5    1    3    3    0  502 -0.54429002325E+03  0.44992313684E+03  0.16845116784E+03  0.72600299202E+03  0.46999998093E+01 0. -1.
</event>
<event>
 5   0  0.5049803E-05  0.2763389E+04  0.7818609E-02  0.8314726E-01
       -2   -1    0    0    0  501  0.00000000000E+00  0.00000000000E+00  0.16635556292E+04  0.16635556292E+04  0.25500000920E-02 0.  1.
        2   -1    0    0  501    0  0.00000000000E+00  0.00000000000E+00 -0.11475896591E+04  0.11475896591E+04  0.25500000920E-02 0. -1.
    10030    2    1    2    0    0  0.00000000000E+00  0.00000000000E+00  0.51596597015E+03  0.28111452883E+04  0.27633886714E+04 0.  0.
        4    1    3    3  502    0 -0.67791530091E+03 -0.71949790803E+03 -0.72401353696E+03  0.12253340808E+04  0.12699999809E+01 0. -1.
       -4    1    3    3    0  502  0.67791530091E+03  0.71949790803E+03  0.12399795071E+04  0.15858112075E+04  0.12699999809E+01 0.  1.
</event>
<event>
 5   0  0.2159405E-05  0.2573218E+04  0.7818609E-02  0.8377356E-01
       -1   -1    0    0    0  501  0.00000000000E+00  0.00000000000E+00  0.11519018132E+04  0.11519018132E+04  0.50400001928E-02 0. -1.
        1   -1    0    0  501    0  0.00000000000E+00  0.00000000000E+00 -0.14370689629E+04  0.14370689629E+04  0.50400001928E-02 0.  1.
    10030    2    1    2    0    0  0.00000000000E+00  0.00000000000E+00 -0.28516714969E+03  0.25889707762E+04  0.25732177087E+04 0.  0.
        3    1    3    3  502    0 -0.10046121869E+04  0.29087776983E+03  0.61134140139E+03  0.12114428762E+04  0.10100000352E+00 0. -1.
       -3    1    3    3    0  502  0.10046121869E+04 -0.29087776983E+03 -0.89650855107E+03  0.13775279000E+04  0.10100000352E+00 0.  1.
</event>
<event>
 5   0  0.2159405E-05  0.2594611E+04  0.7818609E-02  0.8370034E-01
       -1   -1    0    0    0  501  0.00000000000E+00  0.00000000000E+00  0.54254453892E+03  0.54254453894E+03  0.50400001928E-02 0. -1.
        1   -1    0    0  501    0  0.00000000000E+00  0.00000000000E+00 -0.31020526509E+04  0.31020526509E+04  0.50400001928E-02 0.  1.
    10030    2    1    2    0    0  0.00000000000E+00  0.00000000000E+00 -0.25595081119E+04  0.36445971898E+04  0.25946111271E+04 0.  0.
        3    1    3    3  502    0 -0.77633276174E+03  0.65859290845E+03 -0.24092461638E+04  0.26155122374E+04  0.10100000352E+00 0.  1.
       -3    1    3    3    0  502  0.77633276174E+03 -0.65859290845E+03 -0.15026194815E+03  0.10290849524E+04  0.10100000352E+00 0. -1.
</event>
<event>
 5   0  0.5182179E-05  0.1687919E+04  0.7818609E-02  0.8768285E-01
       -2   -1    0    0    0  501  0.00000000000E+00  0.00000000000E+00  0.12469574987E+04  0.12469574987E+04  0.25500000920E-02 0. -1.
        2   -1    0    0  501    0  0.00000000000E+00  0.00000000000E+00 -0.57120422282E+03  0.57120422283E+03  0.25500000920E-02 0.  1.
    10030    2    1    2    0    0  0.00000000000E+00  0.00000000000E+00  0.67575327587E+03  0.18181617215E+04  0.16879187053E+04 0.  0.
        3    1    3    3  502    0  0.40114088697E+03 -0.34095564112E+01 -0.46194181809E+03  0.61181360705E+03  0.10100000352E+00 0.  1.
       -3    1    3    3    0  502 -0.40114088697E+03  0.34095564112E+01  0.11376950940E+04  0.12063481145E+04  0.10100000352E+00 0. -1.
</event>
<event>
 5   0  0.5049803E-05  0.1646869E+04  0.7818609E-02  0.8792261E-01
       -2   -1    0    0    0  501  0.00000000000E+00  0.00000000000E+00  0.33638243931E+03  0.33638243932E+03  0.25500000920E-02 0. -1.
        2   -1    0    0  501    0  0.00000000000E+00  0.00000000000E+00 -0.20156942071E+04  0.20156942071E+04  0.25500000920E-02 0.  1.
    10030    2    1    2    0    0  0.00000000000E+00  0.00000000000E+00 -0.16793117678E+04  0.23520766464E+04  0.16468687067E+04 0.  0.
        4    1    3    3  502    0 -0.79231358681E+03 -0.22358987434E+03 -0.81536496586E+03  0.11586953405E+04  0.12699999809E+01 0. -1.
       -4    1    3    3    0  502  0.79231358681E+03  0.22358987434E+03 -0.86394680194E+03  0.11933813059E+04  0.12699999809E+01 0.  1.
</event>
<event>
 5   0  0.1954502E-05  0.2398398E+04  0.7818609E-02  0.8440104E-01
        1   -1    0    0  501    0  0.00000000000E+00  0.00000000000E+00  0.10398833910E+04  0.10398833910E+04  0.50400001928E-02 0.  1.
       -1   -1    0    0    0  501  0.00000000000E+00  0.00000000000E+00 -0.13829225800E+04  0.13829225800E+04  0.50400001928E-02 0. -1.
    10030    2    1    2    0    0  0.00000000000E+00  0.00000000000E+00 -0.34303918895E+03  0.24228059710E+04  0.23983979836E+04 0.  0.
        4    1    3    3  502    0  0.55058322590E+03 -0.67973861617E+02  0.90246237692E+03  0.10593404973E+04  0.12699999809E+01 0.  1.
       -4    1    3    3    0  502 -0.55058322590E+03  0.67973861617E+02 -0.12455015659E+04  0.13634654737E+04  0.12699999809E+01 0. -1.
</event>
<event>
 5   0  0.2163800E-05  0.2417461E+04  0.7818609E-02  0.8432995E-01
       -1   -1    0    0    0  501  0.00000000000E+00  0.00000000000E+00  0.22264707711E+04  0.22264707711E+04  0.50400001928E-02 0. -1.
        1   -1    0    0  501    0  0.00000000000E+00  0.00000000000E+00 -0.65620866388E+03  0.65620866390E+03  0.50400001928E-02 0.  1.
    10030    2    1    2    0    0  0.00000000000E+00  0.00000000000E+00  0.15702621072E+04  0.28826794350E+04  0.24174609903E+04 0.  0.
        1    1    3    3  502    0 -0.46196454557E+03 -0.75725538028E+03  0.17642277811E+04  0.19746763320E+04  0.50400001928E-02 0. -1.
       -1    1    3    3    0  502  0.46196454557E+03  0.75725538028E+03 -0.19396567395E+03  0.90800310298E+03  0.50400001928E-02 0.  1.
</event>
<event>
 5   0  0.2072710E-05  0.2459968E+04  0.7818609E-02  0.8417388E-01
       -1   -1    0    0    0  501  0.00000000000E+00  0.00000000000E+00  0.72597614199E+03  0.72597614200E+03  0.50400001928E-02 0.  1.
        1   -1    0    0  501    0  0.00000000000E+00  0.00000000000E+00 -0.20838984567E+04  0.20838984567E+04  0.50400001928E-02 0. -1.
    10030    2    1    2    0    0  0.00000000000E+00  0.00000000000E+00 -0.13579223148E+04  0.28098745987E+04  0.24599679363E+04 0.  0.
        2    1    3    3  502    0  0.41063163303E+03  0.12475745773E+03  0.63767971068E+03  0.76864697665E+03  0.25500000920E-02 0.  1.
       -2    1    3    3    0  502 -0.41063163303E+03 -0.12475745773E+03 -0.19956020254E+04  0.20412276221E+04  0.25500000920E-02 0. -1.
</event>
<event>
 5   0  0.5049803E-05  0.2578347E+04  0.7818609E-02  0.8375594E-01
       -2   -1    0    0    0  501  0.00000000000E+00  0.00000000000E+00  0.21333441425E+04  0.21333441425E+04  0.25500000920E-02 0. -1.
        2   -1    0    0  501    0  0.00000000000E+00  0.00000000000E+00 -0.77904356670E+03  0.77904356670E+03  0.25500000920E-02 0.  1.
    10030    2    1    2    0    0  0.00000000000E+00  0.00000000000E+00  0.13543005758E+04  0.29123877092E+04  0.25783467802E+04 0.  0.
        4    1    3    3  502    0 -0.97595933223E+03 -0.78939809578E+03  0.10090177672E+04  0.16105168237E+04  0.12699999809E+01 0.  1.
       -4    1    3    3    0  502  0.97595933223E+03  0.78939809578E+03  0.34528280854E+03  0.13018708855E+04  0.12699999809E+01 0. -1.
</event>
<event>
 5   0  0.5049803E-05  0.2607065E+04  0.7818609E-02  0.8365805E-01
        2   -1    0    0  501    0  0.00000000000E+00  0.00000000000E+00  0.12862922321E+04  0.12862922321E+04  0.25500000920E-02 0.  1.
       -2   -1    0    0    0  501  0.00000000000E+00  0.00000000000E+00 -0.13210038993E+04  0.13210038993E+04  0.25500000920E-02 0. -1.
    10030    2    1    2    0    0  0.00000000000E+00  0.00000000000E+00 -0.34711667167E+02  0.26072961314E+04  0.26070650580E+04 0.  0.
        4    1    3    3  502    0  0.69900809891E+03 -0.68182383816E+03  0.84625957067E+03  0.12921505108E+04  0.12699999809E+01 0.  1.
       -4    1    3    3    0  502 -0.69900809891E+03  0.68182383816E+03 -0.88097123784E+03  0.13151456206E+04  0.12699999809E+01 0. -1.
</event>
<event>
 5   0  0.4955675E-05  0.2574620E+04  0.7818609E-02  0.8376874E-01
        2   -1    0    0  501    0  0.00000000000E+00  0.00000000000E+00  0.12634122577E+04  0.12634122577E+04  0.25500000920E-02 0.  1.
       -2   -1    0    0    0  501  0.00000000000E+00  0.00000000000E+00 -0.13116599302E+04  0.13116599302E+04  0.25500000920E-02 0. -1.
    10030    2    1    2    0    0  0.00000000000E+00  0.00000000000E+00 -0.48247672539E+02  0.25750721879E+04  0.25746201536E+04 0.  0.
        5    1    3    3  502    0  0.44442722417E+03 -0.75895625884E+03 -0.96429684634E+03  0.13051515844E+04  0.46999998093E+01 0. -1.
       -5    1    3    3    0  502 -0.44442722417E+03  0.75895625884E+03  0.91604917380E+03  0.12699206035E+04  0.46999998093E+01 0.  1.
</event>
<event>
 5   0  0.2159405E-05  0.2613941E+04  0.7818609E-02  0.8363481E-01
        1   -1    0    0  501    0  0.00000000000E+00  0.00000000000E+00  0.20724827776E+04  0.20724827777E+04  0.50400001928E-02 0. -1.
       -1   -1    0    0    0  501  0.00000000000E+00  0.00000000000E+00 -0.82421536748E+03  0.82421536749E+03  0.50400001928E-02 0.  1.
    10030    2    1    2    0    0  0.00000000000E+00  0.00000000000E+00  0.12482674102E+04  0.28966981451E+04  0.26139412038E+04 0.  0.
        3    1    3    3  502    0  0.12952713448E+04  0.53824999496E+01  0.81739887555E+03  0.15316323840E+04  0.10100000352E+00 0. -1.
       -3    1    3    3    0  502 -0.12952713448E+04 -0.53824999496E+01  0.43086853462E+03  0.13650657611E+04  0.10100000352E+00 0.  1.
</event>
<event>
 5   0  0.2072710E-05  0.2584529E+04  0.7818609E-02  0.8373475E-01
       -1   -1    0    0    0  501  0.00000000000E+00  0.00000000000E+00  0.18958413531E+04  0.18958413532E+04  0.50400001928E-02 0.  1.
        1   -1    0    0  501    0  0.00000000000E+00  0.00000000000E+00 -0.88084803362E+03  0.88084803363E+03  0.50400001928E-02 0. -1.
    10030    2    1    2    0    0  0.00000000000E+00  0.00000000000E+00  0.10149933195E+04  0.27766893868E+04  0.25845294566E+04 0.  0.
        2    1    3    3  502    0  0.88068830050E+03 -0.87257095380E+03  0.89923860159E+03  0.15315423646E+04  0.25500000920E-02 0.  1.
       -2    1    3    3    0  502 -0.88068830050E+03  0.87257095380E+03  0.11575471793E+03  0.12451470222E+04  0.25500000920E-02 0. -1.
</event>
<event>
 5   0  0.5170532E-05  0.2570117E+04  0.7818609E-02  0.8378423E-01
        2   -1    0    0  501    0  0.00000000000E+00  0.00000000000E+00  0.23398382202E+04  0.23398382202E+04  0.25500000920E-02 0.  1.
       -2   -1    0    0    0  501  0.00000000000E+00  0.00000000000E+00 -0.70576472963E+03  0.70576472964E+03  0.25500000920E-02 0. -1.
    10030    2    1    2    0    0  0.00000000000E+00  0.00000000000E+00  0.16340734905E+04  0.30456029498E+04  0.25701169536E+04 0.  0.
        1    1    3    3  502    0 -0.15980848708E+03 -0.12749396549E+04  0.79438445483E+03  0.15106477215E+04  0.50400001928E-02 0. -1.
       -1    1    3    3    0  502  0.15980848708E+03  0.12749396549E+04  0.83968903570E+03  0.15349552283E+04  0.50400001928E-02 0.  1.
</event>
<event>
 5   0  0.1954502E-05  0.2378297E+04  0.7818609E-02  0.8447674E-01
       -1   -1    0    0    0  501  0.00000000000E+00  0.00000000000E+00  0.11855047774E+04  0.11855047774E+04  0.50400001928E-02 0.  1.
        1   -1    0    0  501    0  0.00000000000E+00  0.00000000000E+00 -0.11928035845E+04  0.11928035845E+04  0.50400001928E-02 0. -1.
    10030    2    1    2    0    0  0.00000000000E+00  0.00000000000E+00 -0.72988071024E+01  0.23783083619E+04  0.23782971622E+04 0.  0.
        4    1    3    3  502    0  0.55816790119E+03  0.89024258232E+03 -0.56041900877E+03  0.11908628551E+04  0.12699999809E+01 0. -1.
       -4    1    3    3    0  502 -0.55816790119E+03 -0.89024258232E+03  0.55312020167E+03  0.11874455068E+04  0.12699999809E+01 0.  1.
</event>
<event>
 5   0  0.5170532E-05  0.2554597E+04  0.7818609E-02  0.8383789E-01
       -2   -1    0    0    0  501  0.00000000000E+00  0.00000000000E+00  0.90673990797E+03  0.90673990798E+03  0.25500000920E-02 0. -1.
        2   -1    0    0  501    0  0.00000000000E+00  0.00000000000E+00 -0.17992942437E+04  0.17992942437E+04  0.25500000920E-02 0.  1.
    10030    2    1    2    0    0  0.00000000000E+00  0.00000000000E+00 -0.89255433572E+03  0.27060341517E+04  0.25545973436E+04 0.  0.
        1    1    3    3  502    0 -0.34257706490E+02  0.94386452143E+03 -0.13571583306E+04  0.16534607826E+04  0.50400001928E-02 0.  1.
       -1    1    3    3    0  502  0.34257706490E+02 -0.94386452143E+03  0.46460399485E+03  0.10525733691E+04  0.50400001928E-02 0. -1.
</event>
<event>
 5   0  0.5036452E-05  0.2643086E+04  0.7818609E-02  0.8353711E-01
        2   -1    0    0  501    0  0.00000000000E+00  0.00000000000E+00  0.14600901968E+04  0.14600901968E+04  0.25500000920E-02 0.  1.
       -2   -1    0    0    0  501  0.00000000000E+00  0.00000000000E+00 -0.11961423241E+04  0.11961423241E+04  0.25500000920E-02 0. -1.
    10030    2    1    2    0    0  0.00000000000E+00  0.00000000000E+00  0.26394787270E+03  0.26562325208E+04  0.26430858339E+04 0.  0.
        2    1    3    3  502    0  0.20545741060E+03 -0.88834801157E+02  0.14409005021E+04  0.14581833309E+04  0.25500000920E-02 0.  1.
       -2    1    3    3    0  502 -0.20545741060E+03  0.88834801157E+02 -0.11769526294E+04  0.11980491899E+04  0.25500000920E-02 0. -1.
</event>
<event>
 5   0  0.1954502E-05  0.2640923E+04  0.7818609E-02  0.8354432E-01
        1   -1    0    0  501    0  0.00000000000E+00  0.00000000000E+00  0.15032219590E+04  0.15032219590E+04  0.50400001928E-02 0.  1.
       -1   -1    0    0    0  501  0.00000000000E+00  0.00000000000E+00 -0.11599205392E+04  0.11599205392E+04  0.50400001928E-02 0. -1.
    10030    2    1    2    0    0  0.00000000000E+00  0.00000000000E+00  0.34330141985E+03  0.26631424982E+04  0.26409225852E+04 0.  0.
        4    1    3    3  502    0 -0.64898852347E+03 -0.37422502045E+03  0.12681752696E+04  0.14729224680E+04  0.12699999809E+01 0.  1.
       -4    1    3    3    0  502  0.64898852347E+03  0.37422502045E+03 -0.92487384972E+03  0.11902200302E+04  0.12699999809E+01 0. -1.
</event>
<event>
 5   0  0.5049803E-05  0.2547251E+04  0.7818609E-02  0.8386343E-01
        2   -1    0    0  501    0  0.00000000000E+00  0.00000000000E+00  0.22699846579E+04  0.22699846579E+04  0.25500000920E-02 0. -1.
       -2   -1    0    0    0  501  0.00000000000E+00  0.00000000000E+00 -0.71459609866E+03  0.71459609866E+03  0.25500000920E-02 0.  1.
    10030    2    1    2    0    0  0.00000000000E+00  0.00000000000E+00  0.15553885593E+04  0.29845807566E+04  0.25472512091E+04 0.  0.
        4    1    3    3  502    0 -0.79019158515E+01  0.90926939184E+03 -0.26720295832E+03  0.94775118097E+03  0.12699999809E+01 0.  1.
       -4    1    3    3    0  502  0.79019158515E+01 -0.90926939184E+03  0.18225915176E+04  0.20368295756E+04  0.12699999809E+01 0. -1.
</event>
<event>
 5   0  0.2159405E-05  0.2589928E+04  0.7818609E-02  0.8371631E-01
        1   -1    0    0  501    0  0.00000000000E+00  0.00000000000E+00  0.15056745740E+04  0.15056745740E+04  0.50400001928E-02 0.  1.
       -1   -1    0    0    0  501  0.00000000000E+00  0.00000000000E+00 -0.11137407776E+04  0.11137407776E+04  0.50400001928E-02 0. -1.
    10030    2    1    2    0    0  0.00000000000E+00  0.00000000000E+00  0.39193379642E+03  0.26194153516E+04  0.25899275440E+04 0.  0.
        3    1    3    3  502    0  0.14097285636E+03  0.11859190149E+04 -0.31038680569E+03  0.12339437732E+04  0.10100000352E+00 0. -1.
       -3    1    3    3    0  502 -0.14097285636E+03 -0.11859190149E+04  0.70232060211E+03  0.13854715784E+04  0.10100000352E+00 0.  1.
</event>
<event>
 5   0  0.4955675E-05  0.2648336E+04  0.7818609E-02  0.8351966E-01
       -2   -1    0    0    0  501  0.00000000000E+00  0.00000000000E+00  0.12296201676E+04  0.12296201676E+04  0.25500000920E-02 0.  1.
        2   -1    0    0  501    0  0.00000000000E+00  0.00000000000E+00 -0.14259853706E+04  0.14259853706E+04  0.25500000920E-02 0. -1.
    10030    2    1    2    0    0  0.00000000000E+00  0.00000000000E+00 -0.19636520302E+03  0.26556055381E+04  0.26483356059E+04 0.  0.
        5    1    3    3  502    0  0.87160472108E+02  0.30150397554E+03 -0.13881418459E+04  0.14231870817E+04  0.46999998093E+01 0. -1.
       -5    1    3    3    0  502 -0.87160472108E+02 -0.30150397554E+03  0.11917766429E+04  0.12324184564E+04  0.46999998093E+01 0.  1.
</event>
<event>
 5   0  0.4955675E-05  0.2055673E+04  0.7818609E-02  0.8581025E-01
        2   -1    0    0  501    0  0.00000000000E+00  0.00000000000E+00  0.18884118573E+04  0.18884118573E+04  0.25500000920E-02 0. -1.
       -2   -1    0    0    0  501  0.00000000000E+00  0.00000000000E+00 -0.55943737136E+03  0.55943737136E+03  0.25500000920E-02 0.  1.
    10030    2    1    2    0    0  0.00000000000E+00  0.00000000000E+00  0.13289744859E+04  0.24478492286E+04  0.20556732868E+04 0.  0.
        5    1    3    3  502    0  0.14187348932E+02 -0.60891477557E+03  0.16503528123E+04  0.17591659898E+04  0.46999998093E+01 0. -1.
       -5    1    3    3    0  502 -0.14187348932E+02  0.60891477557E+03 -0.32137832636E+03  0.68868323881E+03  0.46999998093E+01 0.  1.
</event>
<event>
 5   0  0.5170532E-05  0.2545736E+04  0.7818609E-02  0.8386871E-01
        2   -1    0    0  501    0  0.00000000000E+00  0.00000000000E+00  0.10415470792E+04  0.10415470792E+04  0.25500000920E-02 0.  1.
       -2   -1    0    0    0  501  0.00000000000E+00  0.00000000000E+00 -0.15555641407E+04  0.15555641407E+04  0.25500000920E-02 0. -1.
    10030    2    1    2    0    0  0.00000000000E+00  0.00000000000E+00 -0.51401706157E+03  0.25971112199E+04  0.25457362685E+04 0.  0.
        1    1    3    3  502    0  0.94492000101E+03  0.54279258866E+03 -0.92807945212E+03  0.14313731422E+04  0.50400001928E-02 0. -1.
       -1    1    3    3    0  502 -0.94492000101E+03 -0.54279258866E+03  0.41406239055E+03  0.11657380777E+04  0.50400001928E-02 0.  1.
</event>
<event>
 5   0  0.1954502E-05  0.2587138E+04  0.7818609E-02  0.8372583E-01
       -1   -1    0    0    0  501  0.00000000000E+00  0.00000000000E+00  0.26567597014E+04  0.26567597014E+04  0.50400001928E-02 0.  1.
        1   -1    0    0  501    0  0.00000000000E+00  0.00000000000E+00 -0.62983533709E+03  0.62983533711E+03  0.50400001928E-02 0. -1.
    10030    2    1    2    0    0  0.00000000000E+00  0.00000000000E+00  0.20269243643E+04  0.32865950385E+04  0.25871382971E+04 0.  0.
        4    1    3    3  502    0 -0.87369859241E+03 -0.94807813290E+03  0.11474122286E+04  0.17259078225E+04  0.12699999809E+01 0.  1.
       -4    1    3    3    0  502  0.87369859241E+03  0.94807813290E+03  0.87951213563E+03  0.15606872160E+04  0.12699999809E+01 0. -1.
</event>
<event>
 5   0  0.2159405E-05  0.2573030E+04  0.7818609E-02  0.8377420E-01
        1   -1    0    0  501    0  0.00000000000E+00  0.00000000000E+00  0.13853600053E+04  0.13853600053E+04  0.50400001928E-02 0.  1.
       -1   -1    0    0    0  501  0.00000000000E+00  0.00000000000E+00 -0.11947229438E+04  0.11947229438E+04  0.50400001928E-02 0. -1.
    10030    2    1    2    0    0  0.00000000000E+00  0.00000000000E+00  0.19063706143E+03  0.25800829491E+04  0.25730304186E+04 0.  0.
        3    1    3    3  502    0  0.25335957401E+03 -0.11770268335E+04  0.54992430933E+03  0.13236313674E+04  0.10100000352E+00 0.  1.
       -3    1    3    3    0  502 -0.25335957401E+03  0.11770268335E+04 -0.35928724790E+03  0.12564515817E+04  0.10100000352E+00 0. -1.
</event>
<event>
 5   0  0.2159405E-05  0.2632046E+04  0.7818609E-02  0.8357397E-01
        1   -1    0    0  501    0  0.00000000000E+00  0.00000000000E+00  0.21525919774E+04  0.21525919774E+04  0.50400001928E-02 0.  1.
       -1   -1    0    0    0  501  0.00000000000E+00  0.00000000000E+00 -0.80457273039E+03  0.80457273041E+03  0.50400001928E-02 0. -1.
    10030    2    1    2    0    0  0.00000000000E+00  0.00000000000E+00  0.13480192470E+04  0.29571647078E+04  0.26320462038E+04 0.  0.
        3    1    3    3  502    0  0.99793396241E+03  0.27519045145E+03 -0.23896252070E+03  0.10624053249E+04  0.10100000352E+00 0. -1.
       -3    1    3    3    0  502 -0.99793396241E+03 -0.27519045145E+03  0.15869817677E+04  0.18947593829E+04  0.10100000352E+00 0.  1.
</event>
<event>
 5   0  0.5049803E-05  0.2654884E+04  0.7818609E-02  0.8349794E-01
        2   -1    0    0  501    0  0.00000000000E+00  0.00000000000E+00  0.11582863411E+04  0.11582863411E+04  0.25500000920E-02 0. -1.
       -2   -1    0    0    0  501  0.00000000000E+00  0.00000000000E+00 -0.15213011787E+04  0.15213011787E+04  0.25500000920E-02 0.  1.
    10030    2    1    2    0    0  0.00000000000E+00  0.00000000000E+00 -0.36301483764E+03  0.26795875198E+04  0.26548840848E+04 0.  0.
        4    1    3    3  502    0  0.47445583507E+03  0.20298212046E+03 -0.14159127654E+04  0.15070237732E+04  0.12699999809E+01 0.  1.
       -4    1    3    3    0  502 -0.47445583507E+03 -0.20298212046E+03  0.10528979278E+04  0.11725637466E+04  0.12699999809E+01 0. -1.
</event>
<event>
 5   0  0.1993815E-05  0.1961193E+04  0.7818609E-02  0.8624982E-01
       -1   -1    0    0    0  501  0.00000000000E+00  0.00000000000E+00  0.97914521177E+03  0.97914521178E+03  0.50400001928E-02 0.  1.
        1   -1    0    0  501    0  0.00000000000E+00  0.00000000000E+00 -0.98204955542E+03  0.98204955543E+03  0.50400001928E-02 0. -1.
    10030    2    1    2    0    0  0.00000000000E+00  0.00000000000E+00 -0.29043436467E+01  0.19611947672E+04  0.19611926167E+04 0.  0.
        5    1    3    3  502    0 -0.72875931163E+02  0.36343101713E+03 -0.90928245983E+03  0.98194179425E+03  0.46999998093E+01 0. -1.
       -5    1    3    3    0  502  0.72875931163E+02 -0.36343101713E+03  0.90637811618E+03  0.97925297296E+03  0.46999998093E+01 0.  1.
</event>
<event>
 5   0  0.1954502E-05  0.1790807E+04  0.7818609E-02  0.8711204E-01
       -1   -1    0    0    0  501  0.00000000000E+00  0.00000000000E+00  0.11610783854E+04  0.11610783854E+04  0.50400001928E-02 0. -1.
        1   -1    0    0  501    0  0.00000000000E+00  0.00000000000E+00 -0.69051938486E+03  0.69051938488E+03  0.50400001928E-02 0.  1.
    10030    2    1    2    0    0  0.00000000000E+00  0.00000000000E+00  0.47055900055E+03  0.18515977703E+04  0.17908066702E+04 0.  0.
        4    1    3    3  502    0  0.46817937540E+03 -0.42443562075E+03  0.89116985838E+03  0.10924847153E+04  0.12699999809E+01 0. -1.
       -4    1    3    3    0  502 -0.46817937540E+03  0.42443562075E+03 -0.42061085783E+03  0.75911305504E+03  0.12699999809E+01 0.  1.
</event>
<event>
 5   0  0.2072710E-05  0.2389555E+04  0.7818609E-02  0.8443424E-01
        1   -1    0    0  501    0  0.00000000000E+00  0.00000000000E+00  0.15442516446E+04  0.15442516446E+04  0.50400001928E-02 0. -1.
       -1   -1    0    0    0  501  0.00000000000E+00  0.00000000000E+00 -0.92439182413E+03  0.92439182414E+03  0.50400001928E-02 0.  1.
    10030    2    1    2    0    0  0.00000000000E+00  0.00000000000E+00  0.61985982048E+03  0.24686434688E+04  0.23895552680E+04 0.  0.
        2    1    3    3  502    0 -0.33473960864E+03  0.33151808367E+02 -0.87446302122E+03  0.93692861173E+03  0.25500000920E-02 0.  1.
       -2    1    3    3    0  502  0.33473960864E+03 -0.33151808367E+02  0.14943228417E+04  0.15317148570E+04  0.25500000920E-02 0. -1.
</event>
<event>
 5   0  0.5182179E-05  0.2434539E+04  0.7818609E-02  0.8426685E-01
        2   -1    0    0  501    0  0.00000000000E+00  0.00000000000E+00  0.13830273647E+04  0.13830273647E+04  0.25500000920E-02 0. -1.
       -2   -1    0    0    0  501  0.00000000000E+00  0.00000000000E+00 -0.10713781632E+04  0.10713781632E+04  0.25500000920E-02 0.  1.
    10030    2    1    2    0    0  0.00000000000E+00  0.00000000000E+00  0.31164920142E+03  0.24544055279E+04  0.24345392317E+04 0.  0.
        3    1    3    3  502    0  0.51619764149E+03 -0.71427718056E+02  0.12648848399E+04  0.13680261666E+04  0.10100000352E+00 0. -1.
       -3    1    3    3    0  502 -0.51619764149E+03  0.71427718056E+02 -0.95323563851E+03  0.10863793613E+04  0.10100000352E+00 0.  1.
</event>
<event>
 5   0  0.5049803E-05  0.2595289E+04  0.7818609E-02  0.8369803E-01
        2   -1    0    0  501    0  0.00000000000E+00  0.00000000000E+00  0.27649653116E+04  0.27649653116E+04  0.25500000920E-02 0.  1.
       -2   -1    0    0    0  501  0.00000000000E+00  0.00000000000E+00 -0.60900635299E+03  0.60900635299E+03  0.25500000920E-02 0. -1.
    10030    2    1    2    0    0  0.00000000000E+00  0.00000000000E+00  0.21559589586E+04  0.33739716646E+04  0.25952891481E+04 0.  0.
        4    1    3    3  502    0 -0.53382731381E+03 -0.82397454615E+03 -0.25118627656E+02  0.98210906321E+03  0.12699999809E+01 0. -1.
       -4    1    3    3    0  502  0.53382731381E+03  0.82397454615E+03  0.21810775863E+04  0.23918626014E+04  0.12699999809E+01 0.  1.
</event>
<event>
 5   0  0.5182179E-05  0.2108905E+04  0.7818609E-02  0.8557331E-01
        2   -1    0    0  501    0  0.00000000000E+00  0.00000000000E+00  0.24853716101E+04  0.24853716101E+04  0.25500000920E-02 0. -1.
       -2   -1    0    0    0  501  0.00000000000E+00  0.00000000000E+00 -0.44736568933E+03  0.44736568933E+03  0.25500000920E-02 0.  1.
    10030    2    1    2    0    0  0.00000000000E+00  0.00000000000E+00  0.20380059208E+04  0.29327372994E+04  0.21089049136E+04 0.  0.
        3    1    3    3  502    0 -0.13406443335E+03 -0.85455706068E+03  0.18575846565E+04  0.20491124441E+04  0.10100000352E+00 0. -1.
       -3    1    3    3    0  502  0.13406443335E+03  0.85455706068E+03  0.18042126432E+03  0.88362485539E+03  0.10100000352E+00 0.  1.
</event>
<event>
 5   0  0.5182179E-05  0.2596914E+04  0.7818609E-02  0.8369250E-01
       -2   -1    0    0    0  501  0.00000000000E+00  0.00000000000E+00  0.55350110341E+03  0.55350110341E+03  0.25500000920E-02 0. -1.
        2   -1    0    0  501    0  0.00000000000E+00  0.00000000000E+00 -0.30460479361E+04  0.30460479362E+04  0.25500000920E-02 0.  1.
    10030    2    1    2    0    0  0.00000000000E+00  0.00000000000E+00 -0.24925468327E+04  0.35995490396E+04  0.25969142409E+04 0.  0.
        3    1    3    3  502    0  0.12426385946E+04  0.54030131237E+02 -0.17628971591E+04  0.21575162423E+04  0.10100000352E+00 0.  1.
       -3    1    3    3    0  502 -0.12426385946E+04 -0.54030131237E+02 -0.72964967363E+03  0.14420327973E+04  0.10100000352E+00 0. -1.
</event>
<event>
 5   0  0.1993815E-05  0.2645543E+04  0.7818609E-02  0.8352894E-01
       -1   -1    0    0    0  501  0.00000000000E+00  0.00000000000E+00  0.12378926237E+04  0.12378926238E+04  0.50400001928E-02 0.  1.
        1   -1    0    0  501    0  0.00000000000E+00  0.00000000000E+00 -0.14134703161E+04  0.14134703161E+04  0.50400001928E-02 0. -1.
    10030    2    1    2    0    0  0.00000000000E+00  0.00000000000E+00 -0.17557769232E+03  0.26513629398E+04  0.26455430279E+04 0.  0.
        5    1    3    3  502    0  0.88429324681E+02  0.64865958573E+03  0.10641410296E+04  0.12493987452E+04  0.46999998093E+01 0.  1.
       -5    1    3    3    0  502 -0.88429324681E+02 -0.64865958573E+03 -0.12397187219E+04  0.14019641946E+04  0.46999998093E+01 0. -1.
</event>
<event>
 5   0  0.1954502E-05  0.1512360E+04  0.7818609E-02  0.8876275E-01
       -1   -1    0    0    0  501  0.00000000000E+00  0.00000000000E+00  0.27158681235E+03  0.27158681240E+03  0.50400001928E-02 0.  1.
        1   -1    0    0  501    0  0.00000000000E+00  0.00000000000E+00 -0.21054347975E+04  0.21054347975E+04  0.50400001928E-02 0. -1.
    10030    2    1    2    0    0  0.00000000000E+00  0.00000000000E+00 -0.18338479851E+04  0.23770216099E+04  0.15123601758E+04 0.  0.
        4    1    3    3  502    0  0.52778489955E+03  0.14432534955E+03 -0.96577366902E+02  0.55562173051E+03  0.12699999809E+01 0.  1.
       -4    1    3    3    0  502 -0.52778489955E+03 -0.14432534955E+03 -0.17372706182E+04  0.18213998794E+04  0.12699999809E+01 0. -1.
</event>
<event>
 5   0  0.1993815E-05  0.1296654E+04  0.7818609E-02  0.9032223E-01
       -1   -1    0    0    0  501  0.00000000000E+00  0.00000000000E+00  0.62990723366E+03  0.62990723368E+03  0.50400001928E-02 0.  1.
        1   -1    0    0  501    0  0.00000000000E+00  0.00000000000E+00 -0.66728516043E+03  0.66728516045E+03  0.50400001928E-02 0. -1.
    10030    2    1    2    0    0  0.00000000000E+00  0.00000000000E+00 -0.37377926767E+02  0.12971923941E+04  0.12966537695E+04 0.  0.
        5    1    3    3  502    0 -0.18973378498E+03 -0.43797102969E+03 -0.45760590114E+03  0.66124336122E+03  0.46999998093E+01 0. -1.
       -5    1    3    3    0  502  0.18973378498E+03  0.43797102969E+03  0.42022797437E+03  0.63594903290E+03  0.46999998093E+01 0.  1.
</event>
<event>
 5   0  0.2159405E-05  0.2802184E+04  0.7818609E-02  0.8302591E-01
       -1   -1    0    0    0  501  0.00000000000E+00  0.00000000000E+00  0.11069632705E+04  0.11069632705E+04  0.50400001928E-02 0. -1.
        1   -1    0    0  501    0  0.00000000000E+00  0.00000000000E+00 -0.17733731678E+04  0.17733731678E+04  0.50400001928E-02 0.  1.
    10030    2    1    2    0    0  0.00000000000E+00  0.00000000000E+00 -0.66640989725E+03  0.28803364383E+04  0.28021841207E+04 0.  0.
        3    1    3    3  502    0 -0.17584976271E+03 -0.10531755827E+04  0.59926560009E+03  0.12244268931E+04  0.10100000352E+00 0. -1.
       -3    1    3    3    0  502  0.17584976271E+03  0.10531755827E+04 -0.12656754973E+04  0.16559095451E+04  0.10100000352E+00 0.  1.
</event>
<event>
 5   0  0.5049803E-05  0.2642622E+04  0.7818609E-02  0.8353866E-01
       -2   -1    0    0    0  501  0.00000000000E+00  0.00000000000E+00  0.11659551993E+04  0.11659551993E+04  0.25500000920E-02 0.  1.
        2   -1    0    0  501    0  0.00000000000E+00  0.00000000000E+00 -0.14973669008E+04  0.14973669008E+04  0.25500000920E-02 0. -1.
    10030    2    1    2    0    0  0.00000000000E+00  0.00000000000E+00 -0.33141170152E+03  0.26633221002E+04  0.26426219732E+04 0.  0.
        4    1    3    3  502    0 -0.24178320572E+03  0.10821460071E+04 -0.88991797782E+03  0.14217787168E+04  0.12699999809E+01 0. -1.
       -4    1    3    3    0  502  0.24178320572E+03 -0.10821460071E+04  0.55850627630E+03  0.12415433834E+04  0.12699999809E+01 0.  1.
</event>
<event>
 5   0  0.5170532E-05  0.2643038E+04  0.7818609E-02  0.8353727E-01
        2   -1    0    0  501    0  0.00000000000E+00  0.00000000000E+00  0.25189319751E+04  0.25189319751E+04  0.25500000920E-02 0.  1.
       -2   -1    0    0    0  501  0.00000000000E+00  0.00000000000E+00 -0.69331455096E+03  0.69331455096E+03  0.25500000920E-02 0. -1.
    10030    2    1    2    0    0  0.00000000000E+00  0.00000000000E+00  0.18256174242E+04  0.32122465261E+04  0.26430377910E+04 0.  0.
        1    1    3    3  502    0 -0.90321499255E+03  0.69183789147E+03  0.17298853594E+04  0.20704927789E+04  0.50400001928E-02 0.  1.
       -1    1    3    3    0  502  0.90321499255E+03 -0.69183789147E+03  0.95732064728E+02  0.11417537471E+04  0.50400001928E-02 0. -1.
</event>
<event>
 5   0  0.5036452E-05  0.2367028E+04  0.7818609E-02  0.8451952E-01
        2   -1    0    0  501    0  0.00000000000E+00  0.00000000000E+00  0.23530039811E+04  0.23530039811E+04  0.25500000920E-02 0.  1.
       -2   -1    0    0    0  501  0.00000000000E+00  0.00000000000E+00 -0.59528373131E+03  0.59528373132E+03  0.25500000920E-02 0. -1.
    10030    2    1    2    0    0  0.00000000000E+00  0.00000000000E+00  0.17577202498E+04  0.29482877124E+04  0.23670276633E+04 0.  0.
        2    1    3    3  502    0 -0.10963701893E+04 -0.23970279620E+03  0.41078605612E+03  0.11950858574E+04  0.25500000920E-02 0.  1.
       -2    1    3    3    0  502  0.10963701893E+04  0.23970279620E+03  0.13469341937E+04  0.17532018551E+04  0.25500000920E-02 0. -1.
</event>
<event>
 5   0  0.2159405E-05  0.1889844E+04  0.7818609E-02  0.8659928E-01
       -1   -1    0    0    0  501  0.00000000000E+00  0.00000000000E+00  0.77314377303E+03  0.77314377304E+03  0.50400001928E-02 0.  1.
        1   -1    0    0  501    0  0.00000000000E+00  0.00000000000E+00 -0.11548663930E+04  0.11548663930E+04  0.50400001928E-02 0. -1.
    10030    2    1    2    0    0  0.00000000000E+00  0.00000000000E+00 -0.38172261998E+03  0.19280101661E+04  0.18898441845E+04 0.  0.
        3    1    3    3  502    0  0.93650778988E+03  0.10785901739E+03 -0.12476602101E+03  0.95091901776E+03  0.10100000352E+00 0. -1.
       -3    1    3    3    0  502 -0.93650778988E+03 -0.10785901739E+03 -0.25695659897E+03  0.97709114830E+03  0.10100000352E+00 0.  1.
</event>
<event>
 5   0  0.5182179E-05  0.2571275E+04  0.7818609E-02  0.8378024E-01
        2   -1    0    0  501    0  0.00000000000E+00  0.00000000000E+00  0.17448805005E+04  0.17448805005E+04  0.25500000920E-02 0.  1.
       -2   -1    0    0    0  501  0.00000000000E+00  0.00000000000E+00 -0.94726462273E+03  0.94726462273E+03  0.25500000920E-02 0. -1.
    10030    2    1    2    0    0  0.00000000000E+00  0.00000000000E+00  0.79761587773E+03  0.26921451232E+04  0.25712748348E+04 0.  0.
        3    1    3    3  502    0 -0.43242365155E+03 -0.10203012055E+04  0.10812601954E+04  0.15482662513E+04  0.10100000352E+00 0.  1.
       -3    1    3    3    0  502  0.43242365155E+03  0.10203012055E+04 -0.28364431770E+03  0.11438788719E+04  0.10100000352E+00 0. -1.
</event>
<event>
 5   0  0.4955675E-05  0.2595508E+04  0.7818609E-02  0.8369728E-01
       -2   -1    0    0    0  501  0.00000000000E+00  0.00000000000E+00  0.22405953695E+04  0.22405953695E+04  0.25500000920E-02 0.  1.
        2   -1    0    0  501    0  0.00000000000E+00  0.00000000000E+00 -0.75166007419E+03  0.75166007419E+03  0.25500000920E-02 0. -1.
    10030    2    1    2    0    0  0.00000000000E+00  0.00000000000E+00  0.14889352953E+04  0.29922554437E+04  0.25955084910E+04 0.  0.
        5    1    3    3  502    0  0.12810853026E+04 -0.12673209406E+02  0.98298365004E+03  0.16148124067E+04  0.46999998093E+01 0. -1.
       -5    1    3    3    0  502 -0.12810853026E+04  0.12673209406E+02  0.50595164525E+03  0.13774430369E+04  0.46999998093E+01 0.  1.
</event>
<event>
 5   0  0.5170532E-05  0.2565157E+04  0.7818609E-02  0.8380134E-01
       -2   -1    0    0    0  501  0.00000000000E+00  0.00000000000E+00  0.11626530134E+04  0.11626530134E+04  0.25500000920E-02 0. -1.
        2   -1    0    0  501    0  0.00000000000E+00  0.00000000000E+00 -0.14148736149E+04  0.14148736149E+04  0.25500000920E-02 0.  1.
    10030    2    1    2    0    0  0.00000000000E+00  0.00000000000E+00 -0.25222060148E+03  0.25775266283E+04  0.25651565815E+04 0.  0.
        1    1    3    3  502    0  0.11479110692E+04  0.56932907058E+03 -0.69521239433E+02  0.12832258633E+04  0.50400001928E-02 0. -1.
       -1    1    3    3    0  502 -0.11479110692E+04 -0.56932907058E+03 -0.18269936205E+03  0.12943007650E+04  0.50400001928E-02 0.  1.
</event>
<event>
 5   0  0.2159405E-05  0.2622135E+04  0.7818609E-02  0.8360721E-01
       -1   -1    0    0    0  501  0.00000000000E+00  0.00000000000E+00  0.10402475967E+04  0.10402475967E+04  0.50400001928E-02 0.  1.
        1   -1    0    0  501    0  0.00000000000E+00  0.00000000000E+00 -0.16523932683E+04  0.16523932683E+04  0.50400001928E-02 0. -1.
    10030    2    1    2    0    0  0.00000000000E+00  0.00000000000E+00 -0.61214567160E+03  0.26926408649E+04  0.26221351041E+04 0.  0.
        3    1    3    3  502    0  0.80038325802E+03  0.45821167031E+03  0.65082368570E+03  0.11287793294E+04  0.10100000352E+00 0.  1.
       -3    1    3    3    0  502 -0.80038325802E+03 -0.45821167031E+03 -0.12629693573E+04  0.15638615355E+04  0.10100000352E+00 0. -1.
</event>
<event>
 5   0  0.1954502E-05  0.2725164E+04  0.7818609E-02  0.8326886E-01
        1   -1    0    0  501    0  0.00000000000E+00  0.00000000000E+00  0.18402584327E+04  0.18402584327E+04  0.50400001928E-02 0. -1.
       -1   -1    0    0    0  501  0.00000000000E+00  0.00000000000E+00 -0.10088961830E+04  0.10088961830E+04  0.50400001928E-02 0.  1.
    10030    2    1    2    0    0  0.00000000000E+00  0.00000000000E+00  0.83136224968E+03  0.28491546157E+04  0.27251640013E+04 0.  0.
        4    1    3    3  502    0 -0.66969372199E+03 -0.10169394946E+03  0.16517577347E+04  0.17852553228E+04  0.12699999809E+01 0. -1.
       -4    1    3    3    0  502  0.66969372199E+03  0.10169394946E+03 -0.82039548501E+03  0.10638992929E+04  0.12699999809E+01 0.  1.
</event>
<event>
 5   0  0.1993815E-05  0.1380143E+04  0.7818609E-02  0.8968319E-01
        1   -1    0    0  501    0  0.00000000000E+00  0.00000000000E+00  0.66996472211E+03  0.66996472212E+03  0.50400001928E-02 0.  1.
       -1   -1    0    0    0  501  0.00000000000E+00  0.00000000000E+00 -0.71078143942E+03  0.71078143944E+03  0.50400001928E-02 0. -1.
    10030    2    1    2    0    0  0.00000000000E+00  0.00000000000E+00 -0.40816717315E+02  0.13807461616E+04  0.13801427311E+04 0.  0.
        5    1    3    3  502    0 -0.16038182011E+03 -0.22655072958E+03 -0.65245102443E+03  0.70905711376E+03  0.46999998093E+01 0. -1.
       -5    1    3    3    0  502  0.16038182011E+03  0.22655072958E+03  0.61163430712E+03  0.67168904780E+03  0.46999998093E+01 0.  1.
</event>
<event>
 5   0  0.5049803E-05  0.2583765E+04  0.7818609E-02  0.8373737E-01
       -2   -1    0    0    0  501  0.00000000000E+00  0.00000000000E+00  0.75884910381E+03  0.75884910382E+03  0.25500000920E-02 0. -1.
        2   -1    0    0  501    0  0.00000000000E+00  0.00000000000E+00 -0.21993316343E+04  0.21993316343E+04  0.25500000920E-02 0.  1.
    10030    2    1    2    0    0  0.00000000000E+00  0.00000000000E+00 -0.14404825305E+04  0.29581807381E+04  0.25837653451E+04 0.  0.
        4    1    3    3  502    0 -0.19325519119E+03 -0.10338146974E+04  0.13870038332E+03  0.10608297728E+04  0.12699999809E+01 0. -1.
       -4    1    3    3    0  502  0.19325519119E+03  0.10338146974E+04 -0.15791829138E+04  0.18973509653E+04  0.12699999809E+01 0.  1.
</event>
<event>
 5   0  0.4955675E-05  0.2566159E+04  0.7818609E-02  0.8379788E-01
       -2   -1    0    0    0  501  0.00000000000E+00  0.00000000000E+00  0.11214557130E+04  0.11214557130E+04  0.25500000920E-02 0.  1.
        2   -1    0    0  501    0  0.00000000000E+00  0.00000000000E+00 -0.14679959937E+04  0.14679959937E+04  0.25500000920E-02 0. -1.
    10030    2    1    2    0    0  0.00000000000E+00  0.00000000000E+00 -0.34654028071E+03  0.25894517068E+04  0.25661586030E+04 0.  0.
        5    1    3    3  502    0 -0.11516940507E+04 -0.33205449906E+02  0.39645069084E+03  0.12184814437E+04  0.46999998093E+01 0.  1.
       -5    1    3    3    0  502  0.11516940507E+04  0.33205449906E+02 -0.74299097155E+03  0.13709702631E+04  0.46999998093E+01 0. -1.
</event>
<event>
 5   0  0.5036452E-05  0.2679452E+04  0.7818609E-02  0.8341703E-01
        2   -1    0    0  501    0  0.00000000000E+00  0.00000000000E+00  0.22070099508E+04  0.22070099508E+04  0.25500000920E-02 0. -1.
       -2   -1    0    0    0  501  0.00000000000E+00  0.00000000000E+00 -0.81325662476E+03  0.81325662477E+03  0.25500000920E-02 0.  1.
    10030    2    1    2    0    0  0.00000000000E+00  0.00000000000E+00  0.13937533261E+04  0.30202665756E+04  0.26794517823E+04 0.  0.
        2    1    3    3  502    0  0.10720329275E+04  0.46183515443E+03 -0.44265584165E+02  0.11681206057E+04  0.25500000920E-02 0.  1.
       -2    1    3    3    0  502 -0.10720329275E+04 -0.46183515443E+03  0.14380189102E+04  0.18521459699E+04  0.25500000920E-02 0. -1.
</event>
<event>
 5   0  0.5182179E-05  0.2608679E+04  0.7818609E-02  0.8365259E-01
        2   -1    0    0  501    0  0.00000000000E+00  0.00000000000E+00  0.10404583083E+04  0.10404583083E+04  0.25500000920E-02 0.  1.
       -2   -1    0    0    0  501  0.00000000000E+00  0.00000000000E+00 -0.16351467538E+04  0.16351467538E+04  0.25500000920E-02 0. -1.
    10030    2    1    2    0    0  0.00000000000E+00  0.00000000000E+00 -0.59468844551E+03  0.26756050621E+04  0.26086793788E+04 0.  0.
        3    1    3    3  502    0 -0.12641551683E+04  0.21648987443E+02 -0.62610632666E+03  0.14108742363E+04  0.10100000352E+00 0. -1.
       -3    1    3    3    0  502  0.12641551683E+04 -0.21648987443E+02  0.31417881151E+02  0.12647308258E+04  0.10100000352E+00 0.  1.
</event>
<event>
 5   0  0.5036452E-05  0.2149608E+04  0.7818609E-02  0.8539700E-01
        2   -1    0    0  501    0  0.00000000000E+00  0.00000000000E+00  0.13580420698E+04  0.13580420698E+04  0.25500000920E-02 0.  1.
       -2   -1    0    0    0  501  0.00000000000E+00  0.00000000000E+00 -0.85063898220E+03  0.85063898220E+03  0.25500000920E-02 0. -1.
    10030    2    1    2    0    0  0.00000000000E+00  0.00000000000E+00  0.50740308763E+03  0.22086810520E+04  0.21496078936E+04 0.  0.
        2    1    3    3  502    0 -0.53184058644E+03  0.75926958472E+03  0.81257825426E+03  0.12327319786E+04  0.25500000920E-02 0.  1.
       -2    1    3    3    0  502  0.53184058644E+03 -0.75926958472E+03 -0.30517516662E+03  0.97594907347E+03  0.25500000920E-02 0. -1.
</event>
<event>
 5   0  0.5182179E-05  0.2400046E+04  0.7818609E-02  0.8439486E-01
        2   -1    0    0  501    0  0.00000000000E+00  0.00000000000E+00  0.21805955254E+04  0.21805955254E+04  0.25500000920E-02 0.  1.
       -2   -1    0    0    0  501  0.00000000000E+00  0.00000000000E+00 -0.66039536544E+03  0.66039536544E+03  0.25500000920E-02 0. -1.
    10030    2    1    2    0    0  0.00000000000E+00  0.00000000000E+00  0.15202001599E+04  0.28409908908E+04  0.24000459819E+04 0.  0.
        3    1    3    3  502    0 -0.65091163868E+03  0.49373377006E+03  0.18005628738E+04  0.19772419351E+04  0.10100000352E+00 0.  1.
       -3    1    3    3    0  502  0.65091163868E+03 -0.49373377006E+03 -0.28036271385E+03  0.86374895577E+03  0.10100000352E+00 0. -1.
</event>
<event>
 5   0  0.5182179E-05  0.2591544E+04  0.7818609E-02  0.8371079E-01
       -2   -1    0    0    0  501  0.00000000000E+00  0.00000000000E+00  0.12534411494E+04  0.12534411494E+04  0.25500000920E-02 0. -1.
        2   -1    0    0  501    0  0.00000000000E+00  0.00000000000E+00 -0.13395323659E+04  0.13395323659E+04  0.25500000920E-02 0.  1.
    10030    2    1    2    0    0  0.00000000000E+00  0.00000000000E+00 -0.86091216452E+02  0.25929735153E+04  0.25915439324E+04 0.  0.
        3    1    3    3  502    0  0.73198913441E+03  0.64920342420E+03 -0.89307402190E+03  0.13247091748E+04  0.10100000352E+00 0.  1.
       -3    1    3    3    0  502 -0.73198913441E+03 -0.64920342420E+03  0.80698280545E+03  0.12682643405E+04  0.10100000352E+00 0. -1.
</event>
<event>
 5   0  0.5049803E-05  0.2150942E+04  0.7818609E-02  0.8539129E-01
        2   -1    0    0  501    0  0.00000000000E+00  0.00000000000E+00  0.11544144197E+04  0.11544144197E+04  0.25500000920E-02 0. -1.
       -2   -1    0    0    0  501  0.00000000000E+00  0.00000000000E+00 -0.10019260169E+04  0.10019260169E+04  0.25500000920E-02 0.  1.
    10030    2    1    2    0    0  0.00000000000E+00  0.00000000000E+00  0.15248840286E+03  0.21563404366E+04  0.21509419717E+04 0.  0.
        4    1    3    3  502    0 -0.59552065611E+03  0.89533924424E+03  0.57248972383E+02  0.10768269461E+04  0.12699999809E+01 0. -1.
       -4    1    3    3    0  502  0.59552065611E+03 -0.89533924424E+03  0.95239430479E+02  0.10795134905E+04  0.12699999809E+01 0.  1.
</event>
<event>
 5   0  0.1993815E-05  0.2533342E+04  0.7818609E-02  0.8391203E-01
        1   -1    0    0  501    0  0.00000000000E+00  0.00000000000E+00  0.12031757522E+04  0.12031757522E+04  0.50400001928E-02 0.  1.
       -1   -1    0    0    0  501  0.00000000000E+00  0.00000000000E+00 -0.13335169150E+04  0.13335169150E+04  0.50400001928E-02 0. -1.
    10030    2    1    2    0    0  0.00000000000E+00  0.00000000000E+00 -0.13034116276E+03  0.25366926673E+04  0.25333418382E+04 0.  0.
        5    1    3    3  502    0 -0.26180034515E+03  0.10336773246E+04 -0.74974503141E+03  0.13035213593E+04  0.46999998093E+01 0. -1.
       -5    1    3    3    0  502  0.26180034515E+03 -0.10336773246E+04  0.61940386865E+03  0.12331713079E+04  0.46999998093E+01 0.  1.
</event>
<event>
 5   0  0.1954502E-05  0.2615006E+04  0.7818609E-02  0.8363122E-01
        1   -1    0    0  501    0  0.00000000000E+00  0.00000000000E+00  0.93877847177E+03  0.93877847179E+03  0.50400001928E-02 0. -1.
       -1   -1    0    0    0  501  0.00000000000E+00  0.00000000000E+00 -0.18210521814E+04  0.18210521814E+04  0.50400001928E-02 0.  1.
    10030    2    1    2    0    0  0.00000000000E+00  0.00000000000E+00 -0.88227370959E+03  0.27598306532E+04  0.26150063739E+04 0.  0.
        4    1    3    3  502    0  0.76503611810E+03 -0.44899255105E+03  0.57262795591E+03  0.10558309342E+04  0.12699999809E+01 0. -1.
       -4    1    3    3    0  502 -0.76503611810E+03  0.44899255105E+03 -0.14549016655E+04  0.17039997189E+04  0.12699999809E+01 0.  1.
</event>
<event>
 5   0  0.2072710E-05  0.2629488E+04  0.7818609E-02  0.8358253E-01
        1   -1    0    0  501    0  0.00000000000E+00  0.00000000000E+00  0.16637964372E+04  0.16637964372E+04  0.50400001928E-02 0. -1.
       -1   -1    0    0    0  501  0.00000000000E+00  0.00000000000E+00 -0.10389206241E+04  0.10389206242E+04  0.50400001928E-02 0.  1.
    10030    2    1    2    0    0  0.00000000000E+00  0.00000000000E+00  0.62487581309E+03  0.27027170614E+04  0.26294884925E+04 0.  0.
        2    1    3    3  502    0 -0.50657067614E+03 -0.50087978580E+03 -0.82335057356E+03  0.10887610283E+04  0.25500000920E-02 0.  1.
       -2    1    3    3    0  502  0.50657067614E+03  0.50087978580E+03  0.14482263867E+04  0.16139560331E+04  0.25500000920E-02 0. -1.
</event>
<event>
 5   0  0.2159405E-05  0.2390054E+04  0.7818609E-02  0.8443237E-01
       -1   -1    0    0    0  501  0.00000000000E+00  0.00000000000E+00  0.16505250121E+04  0.16505250121E+04  0.50400001928E-02 0.  1.
        1   -1    0    0  501    0  0.00000000000E+00  0.00000000000E+00 -0.86523361739E+03  0.86523361740E+03  0.50400001928E-02 0. -1.
    10030    2    1    2    0    0  0.00000000000E+00  0.00000000000E+00  0.78529139475E+03  0.25157586296E+04  0.23900541641E+04 0.  0.
        3    1    3    3  502    0  0.12410729182E+03  0.10506349909E+04 -0.19232928031E+03  0.10752799943E+04  0.10100000352E+00 0. -1.
       -3    1    3    3    0  502 -0.12410729182E+03 -0.10506349909E+04  0.97762067507E+03  0.14404786352E+04  0.10100000352E+00 0.  1.
</event>
<event>
 5   0  0.5170532E-05  0.2557932E+04  0.7818609E-02  0.8382633E-01
        2   -1    0    0  501    0  0.00000000000E+00  0.00000000000E+00  0.20783516155E+04  0.20783516155E+04  0.25500000920E-02 0.  1.
       -2   -1    0    0    0  501  0.00000000000E+00  0.00000000000E+00 -0.78704363376E+03  0.78704363377E+03  0.25500000920E-02 0. -1.
    10030    2    1    2    0    0  0.00000000000E+00  0.00000000000E+00  0.12913079817E+04  0.28653952492E+04  0.25579315141E+04 0.  0.
        1    1    3    3  502    0 -0.89781361254E+02 -0.58671176942E+02 -0.78199721412E+03  0.78931783380E+03  0.50400001928E-02 0. -1.
       -1    1    3    3    0  502  0.89781361254E+02  0.58671176942E+02  0.20733051958E+04  0.20760774154E+04  0.50400001928E-02 0.  1.
</event>
<event>
 5   0  0.2159405E-05  0.2782308E+04  0.7818609E-02  0.8308782E-01
       -1   -1    0    0    0  501  0.00000000000E+00  0.00000000000E+00  0.11483865921E+04  0.11483865921E+04  0.50400001928E-02 0.  1.
        1   -1    0    0  501    0  0.00000000000E+00  0.00000000000E+00 -0.16852418323E+04  0.16852418323E+04  0.50400001928E-02 0. -1.
    10030    2    1    2    0    0  0.00000000000E+00  0.00000000000E+00 -0.53685524027E+03  0.28336284244E+04  0.27823077649E+04 0.  0.
        3    1    3    3  502    0  0.84733520403E+03  0.46597556308E+03 -0.12869742772E+04  0.16097866237E+04  0.10100000352E+00 0. -1.
       -3    1    3    3    0  502 -0.84733520403E+03 -0.46597556308E+03  0.75011903694E+03  0.12238418007E+04  0.10100000352E+00 0.  1.
</event>
<event>
 5   0  0.5182179E-05  0.2758766E+04  0.7818609E-02  0.8316186E-01
        2   -1    0    0  501    0  0.00000000000E+00  0.00000000000E+00  0.26492462594E+04  0.26492462594E+04  0.25500000920E-02 0.  1.
       -2   -1    0    0    0  501  0.00000000000E+00  0.00000000000E+00 -0.71820306265E+03  0.71820306266E+03  0.25500000920E-02 0. -1.
    10030    2    1    2    0    0  0.00000000000E+00  0.00000000000E+00  0.19310431968E+04  0.33674493221E+04  0.27587655045E+04 0.  0.
        3    1    3    3  502    0  0.86192271293E+03  0.14107637345E+03  0.22687379119E+04  0.24310460772E+04  0.10100000352E+00 0.  1.
       -3    1    3    3    0  502 -0.86192271293E+03 -0.14107637345E+03 -0.33769471515E+03  0.93640324490E+03  0.10100000352E+00 0. -1.
</event>
<event>
 5   0  0.2163800E-05  0.2625628E+04  0.7818609E-02  0.8359548E-01
       -1   -1    0    0    0  501  0.00000000000E+00  0.00000000000E+00  0.13185458415E+04  0.13185458415E+04  0.50400001928E-02 0.  1.
        1   -1    0    0  501    0  0.00000000000E+00  0.00000000000E+00 -0.13071065855E+04  0.13071065855E+04  0.50400001928E-02 0. -1.
    10030    2    1    2    0    0  0.00000000000E+00  0.00000000000E+00  0.11439256035E+02  0.26256524270E+04  0.26256275080E+04 0.  0.
        1    1    3    3  502    0 -0.11111732529E+04 -0.15299200155E+03 -0.67646527034E+03  0.13098541188E+04  0.50400001928E-02 0. -1.
       -1    1    3    3    0  502  0.11111732529E+04  0.15299200155E+03  0.68790452638E+03  0.13157983082E+04  0.50400001928E-02 0.  1.
</event>
<event>
 5   0  0.5049803E-05  0.2631376E+04  0.7818609E-02  0.8357621E-01
        2   -1    0    0  501    0  0.00000000000E+00  0.00000000000E+00  0.16096277633E+04  0.16096277633E+04  0.25500000920E-02 0.  1.
       -2   -1    0    0    0  501  0.00000000000E+00  0.00000000000E+00 -0.10754253015E+04  0.10754253015E+04  0.25500000920E-02 0. -1.
    10030    2    1    2    0    0  0.00000000000E+00  0.00000000000E+00  0.53420246176E+03  0.26850530649E+04  0.26313756271E+04 0.  0.
        4    1    3    3  502    0 -0.32836253065E+03 -0.73111957076E+03 -0.79757891800E+03  0.11307039938E+04  0.12699999809E+01 0. -1.
       -4    1    3    3    0  502  0.32836253065E+03  0.73111957076E+03  0.13317813798E+04  0.15543490710E+04  0.12699999809E+01 0.  1.
</event>
<event>
 5   0  0.5049803E-05  0.2518800E+04  0.7818609E-02  0.8396318E-01
        2   -1    0    0  501    0  0.00000000000E+00  0.00000000000E+00  0.10181711181E+04  0.10181711181E+04  0.25500000920E-02 0.  1.
       -2   -1    0    0    0  501  0.00000000000E+00  0.00000000000E+00 -0.15577821560E+04  0.15577821560E+04  0.25500000920E-02 0. -1.
    10030    2    1    2    0    0  0.00000000000E+00  0.00000000000E+00 -0.53961103794E+03  0.25759532741E+04  0.25188003490E+04 0.  0.
        4    1    3    3  502    0 -0.62017367962E+03  0.10929819258E+04 -0.18508683431E+03  0.12702297556E+04  0.12699999809E+01 0.  1.
       -4    1    3    3    0  502  0.62017367962E+03 -0.10929819258E+04 -0.35452420363E+03  0.13057235185E+04  0.12699999809E+01 0. -1.
</event>
<event>
 5   0  0.1993815E-05  0.1646866E+04  0.7818609E-02  0.8792263E-01
       -1   -1    0    0    0  501  0.00000000000E+00  0.00000000000E+00  0.37160200429E+03  0.37160200433E+03  0.50400001928E-02 0.  1.
        1   -1    0    0  501    0  0.00000000000E+00  0.00000000000E+00 -0.18246443722E+04  0.18246443722E+04  0.50400001928E-02 0. -1.
    10030    2    1    2    0    0  0.00000000000E+00  0.00000000000E+00 -0.14530423679E+04  0.21962463766E+04  0.16468655147E+04 0.  0.
        5    1    3    3  502    0 -0.56702899557E+03 -0.38209163389E+03 -0.13383819428E+04  0.15029318725E+04  0.46999998093E+01 0. -1.
       -5    1    3    3    0  502  0.56702899557E+03  0.38209163389E+03 -0.11466042516E+03  0.69331450410E+03  0.46999998093E+01 0.  1.
</event>
<event>
 5   0  0.2159405E-05  0.2593277E+04  0.7818609E-02  0.8370489E-01
       -1   -1    0    0    0  501  0.00000000000E+00  0.00000000000E+00  0.61993402618E+03  0.61993402620E+03  0.50400001928E-02 0. -1.
        1   -1    0    0  501    0  0.00000000000E+00  0.00000000000E+00 -0.27120158019E+04  0.27120158019E+04  0.50400001928E-02 0.  1.
    10030    2    1    2    0    0  0.00000000000E+00  0.00000000000E+00 -0.20920817757E+04  0.33319498281E+04  0.25932765955E+04 0.  0.
        3    1    3    3  502    0  0.67313225927E+03  0.11369336486E+03 -0.24624223043E+04  0.25552997544E+04  0.10100000352E+00 0.  1.
       -3    1    3    3    0  502 -0.67313225927E+03 -0.11369336486E+03  0.37034052861E+03  0.77665007373E+03  0.10100000352E+00 0. -1.
</event>
<event>
 5   0  0.2072710E-05  0.2843986E+04  0.7818609E-02  0.8289741E-01
        1   -1    0    0  501    0  0.00000000000E+00  0.00000000000E+00  0.18829556716E+04  0.18829556716E+04  0.50400001928E-02 0. -1.
       -1   -1    0    0    0  501  0.00000000000E+00  0.00000000000E+00 -0.10738778265E+04  0.10738778265E+04  0.50400001928E-02 0.  1.
    10030    2    1    2    0    0  0.00000000000E+00  0.00000000000E+00  0.80907784511E+03  0.29568334980E+04  0.28439861771E+04 0.  0.
        2    1    3    3  502    0  0.13342625000E+04  0.40344094288E+03  0.11223677599E+03  0.13984341626E+04  0.25500000920E-02 0. -1.
       -2    1    3    3    0  502 -0.13342625000E+04 -0.40344094288E+03  0.69684106911E+03  0.15583993355E+04  0.25500000920E-02 0.  1.
</event>
<event>
 5   0  0.5049803E-05  0.2514727E+04  0.7818609E-02  0.8397758E-01
       -2   -1    0    0    0  501  0.00000000000E+00  0.00000000000E+00  0.13512434082E+04  0.13512434082E+04  0.25500000920E-02 0. -1.
        2   -1    0    0  501    0  0.00000000000E+00  0.00000000000E+00 -0.11700058317E+04  0.11700058317E+04  0.25500000920E-02 0.  1.
    10030    2    1    2    0    0  0.00000000000E+00  0.00000000000E+00  0.18123757650E+03  0.25212492400E+04  0.25147267587E+04 0.  0.
        4    1    3    3  502    0 -0.93471243827E+03  0.83783648484E+03  0.17603134516E+02  0.12553759600E+04  0.12699999809E+01 0.  1.
       -4    1    3    3    0  502  0.93471243827E+03 -0.83783648484E+03  0.16363444199E+03  0.12658732800E+04  0.12699999809E+01 0. -1.
</event>
<event>
 5   0  0.2159405E-05  0.2672833E+04  0.7818609E-02  0.8343874E-01
       -1   -1    0    0    0  501  0.00000000000E+00  0.00000000000E+00  0.16798913735E+04  0.16798913735E+04  0.50400001928E-02 0. -1.
        1   -1    0    0  501    0  0.00000000000E+00  0.00000000000E+00 -0.10631695486E+04  0.10631695486E+04  0.50400001928E-02 0.  1.
    10030    2    1    2    0    0  0.00000000000E+00  0.00000000000E+00  0.61672182494E+03  0.27430609222E+04  0.26728332184E+04 0.  0.
        3    1    3    3  502    0  0.88319879545E+03 -0.75806618293E+03  0.98235453268E+03  0.15230643086E+04  0.10100000352E+00 0.  1.
       -3    1    3    3    0  502 -0.88319879545E+03  0.75806618293E+03 -0.36563270774E+03  0.12199966136E+04  0.10100000352E+00 0. -1.
</event>
<event>
 5   0  0.5036452E-05  0.1435802E+04  0.7818609E-02  0.8928304E-01
       -2   -1    0    0    0  501  0.00000000000E+00  0.00000000000E+00  0.10287651666E+04  0.10287651666E+04  0.25500000920E-02 0.  1.
        2   -1    0    0  501    0  0.00000000000E+00  0.00000000000E+00 -0.50097111675E+03  0.50097111675E+03  0.25500000920E-02 0. -1.
    10030    2    1    2    0    0  0.00000000000E+00  0.00000000000E+00  0.52779404990E+03  0.15297362834E+04  0.14358017055E+04 0.  0.
        2    1    3    3  502    0  0.50041084729E+03 -0.49376567434E+03  0.10889324453E+03  0.71138828775E+03  0.25500000920E-02 0.  1.
       -2    1    3    3    0  502 -0.50041084729E+03  0.49376567434E+03  0.41890080536E+03  0.81834799565E+03  0.25500000920E-02 0. -1.
</event>
<event>
 5   0  0.5049803E-05  0.2628667E+04  0.7818609E-02  0.8358528E-01
       -2   -1    0    0    0  501  0.00000000000E+00  0.00000000000E+00  0.12839319562E+04  0.12839319562E+04  0.25500000920E-02 0. -1.
        2   -1    0    0  501    0  0.00000000000E+00  0.00000000000E+00 -0.13454553331E+04  0.13454553331E+04  0.25500000920E-02 0.  1.
    10030    2    1    2    0    0  0.00000000000E+00  0.00000000000E+00 -0.61523376832E+02  0.26293872893E+04  0.26286674174E+04 0.  0.
        4    1    3    3  502    0 -0.77281125322E+03 -0.61106950614E+03  0.83943535169E+03  0.12943324523E+04  0.12699999809E+01 0. -1.
       -4    1    3    3    0  502  0.77281125322E+03  0.61106950614E+03 -0.90095872852E+03  0.13350548370E+04  0.12699999809E+01 0.  1.
</event>
<event>
 5   0  0.1993815E-05  0.2672489E+04  0.7818609E-02  0.8343987E-01
       -1   -1    0    0    0  501  0.00000000000E+00  0.00000000000E+00  0.18445767125E+04  0.18445767125E+04  0.50400001928E-02 0.  1.
        1   -1    0    0  501    0  0.00000000000E+00  0.00000000000E+00 -0.96799943972E+03  0.96799943973E+03  0.50400001928E-02 0. -1.
    10030    2    1    2    0    0  0.00000000000E+00  0.00000000000E+00  0.87657727275E+03  0.28125761522E+04  0.26724888955E+04 0.  0.
        5    1    3    3  502    0 -0.79361239314E+03 -0.35341526867E+03 -0.63021612117E+03  0.10732741644E+04  0.46999998093E+01 0. -1.
       -5    1    3    3    0  502  0.79361239314E+03  0.35341526867E+03  0.15067933939E+04  0.17393019878E+04  0.46999998093E+01 0.  1.
</event>
<event>
 5   0  0.2072710E-05  0.2596123E+04  0.7818609E-02  0.8369519E-01
       -1   -1    0    0    0  501  0.00000000000E+00  0.00000000000E+00  0.76852499904E+03  0.76852499906E+03  0.50400001928E-02 0. -1.
        1   -1    0    0  501    0  0.00000000000E+00  0.00000000000E+00 -0.21924640848E+04  0.21924640848E+04  0.50400001928E-02 0.  1.
    10030    2    1    2    0    0  0.00000000000E+00  0.00000000000E+00 -0.14239390857E+04  0.29609890838E+04  0.25961228466E+04 0.  0.
        2    1    3    3  502    0  0.20150753154E+03  0.77465185721E+03  0.45354721971E+03  0.91999775307E+03  0.25500000920E-02 0. -1.
       -2    1    3    3    0  502 -0.20150753154E+03 -0.77465185721E+03 -0.18774863054E+04  0.20409913308E+04  0.25500000920E-02 0.  1.
</event>
<event>
 5   0  0.5036452E-05  0.1354796E+04  0.7818609E-02  0.8987206E-01
        2   -1    0    0  501    0  0.00000000000E+00  0.00000000000E+00  0.83288344294E+03  0.83288344294E+03  0.25500000920E-02 0. -1.
       -2   -1    0    0    0  501  0.00000000000E+00  0.00000000000E+00 -0.55093896129E+03  0.55093896129E+03  0.25500000920E-02 0.  1.
    10030    2    1    2    0    0  0.00000000000E+00  0.00000000000E+00  0.28194448165E+03  0.13838224042E+04  0.13547958354E+04 0.  0.
        2    1    3    3  502    0 -0.35011107858E+03  0.43451703785E+03  0.53323818110E+03  0.77183274181E+03  0.25500000920E-02 0.  1.
       -2    1    3    3    0  502  0.35011107858E+03 -0.43451703785E+03 -0.25129369945E+03  0.61198966243E+03  0.25500000920E-02 0. -1.
</event>
<event>
 5   0  0.5182179E-05  0.2598995E+04  0.7818609E-02  0.8368542E-01
        2   -1    0    0  501    0  0.00000000000E+00  0.00000000000E+00  0.14179597585E+04  0.14179597585E+04  0.25500000920E-02 0. -1.
       -2   -1    0    0    0  501  0.00000000000E+00  0.00000000000E+00 -0.11909325158E+04  0.11909325158E+04  0.25500000920E-02 0.  1.
    10030    2    1    2    0    0  0.00000000000E+00  0.00000000000E+00  0.22702724271E+03  0.26088922743E+04  0.25989954848E+04 0.  0.
        3    1    3    3  502    0  0.48133982184E+03 -0.11979462592E+04  0.26216909720E+03  0.13173822186E+04  0.10100000352E+00 0. -1.
       -3    1    3    3    0  502 -0.48133982184E+03  0.11979462592E+04 -0.35141854491E+02  0.12915100558E+04  0.10100000352E+00 0.  1.
</event>
<event>
 5   0  0.4955675E-05  0.2608770E+04  0.7818609E-02  0.8365228E-01
       -2   -1    0    0    0  501  0.00000000000E+00  0.00000000000E+00  0.91717672878E+03  0.91717672878E+03  0.25500000920E-02 0.  1.
        2   -1    0    0  501    0  0.00000000000E+00  0.00000000000E+00 -0.18550619301E+04  0.18550619301E+04  0.25500000920E-02 0. -1.
    10030    2    1    2    0    0  0.00000000000E+00  0.00000000000E+00 -0.93788520133E+03  0.27722386589E+04  0.26087695435E+04 0.  0.
        5    1    3    3  502    0  0.72063137168E+03 -0.10711288907E+04 -0.27078868051E+03  0.13190812234E+04  0.46999998093E+01 0.  1.
       -5    1    3    3    0  502 -0.72063137168E+03  0.10711288907E+04 -0.66709652082E+03  0.14531574355E+04  0.46999998093E+01 0. -1.
</event>
<event>
 5   0  0.2072710E-05  0.2480483E+04  0.7818609E-02  0.8409972E-01
       -1   -1    0    0    0  501  0.00000000000E+00  0.00000000000E+00  0.14155968286E+04  0.14155968286E+04  0.50400001928E-02 0. -1.
        1   -1    0    0  501    0  0.00000000000E+00  0.00000000000E+00 -0.10866080210E+04  0.10866080211E+04  0.50400001928E-02 0.  1.
    10030    2    1    2    0    0  0.00000000000E+00  0.00000000000E+00  0.32898880750E+03  0.25022048496E+04  0.24804829114E+04 0.  0.
        2    1    3    3  502    0  0.54526298927E+03  0.62831788334E+03 -0.76339975184E+03  0.11291033040E+04  0.25500000920E-02 0.  1.
       -2    1    3    3    0  502 -0.54526298927E+03 -0.62831788334E+03  0.10923885593E+04  0.13731015456E+04  0.25500000920E-02 0. -1.
</event>
<event>
 5   0  0.5036452E-05  0.3033131E+04  0.7818609E-02  0.8234333E-01
       -2   -1    0    0    0  501  0.00000000000E+00  0.00000000000E+00  0.10486435578E+04  0.10486435578E+04  0.25500000920E-02 0. -1.
        2   -1    0    0  501    0  0.00000000000E+00  0.00000000000E+00 -0.21932812556E+04  0.21932812556E+04  0.25500000920E-02 0.  1.
    10030    2    1    2    0    0  0.00000000000E+00  0.00000000000E+00 -0.11446376978E+04  0.32419248134E+04  0.30331305670E+04 0.  0.
        2    1    3    3  502    0 -0.10689514607E+04 -0.82047614710E+03 -0.13160118497E+04  0.18835406876E+04  0.25500000920E-02 0.  1.
       -2    1    3    3    0  502  0.10689514607E+04  0.82047614710E+03  0.17137415187E+03  0.13583841258E+04  0.25500000920E-02 0. -1.
</event>
<event>
 5   0  0.2072710E-05  0.2587941E+04  0.7818609E-02  0.8372309E-01
        1   -1    0    0  501    0  0.00000000000E+00  0.00000000000E+00  0.16189209717E+04  0.16189209718E+04  0.50400001928E-02 0.  1.
       -1   -1    0    0    0  501  0.00000000000E+00  0.00000000000E+00 -0.10342438592E+04  0.10342438592E+04  0.50400001928E-02 0. -1.
    10030    2    1    2    0    0  0.00000000000E+00  0.00000000000E+00  0.58467711253E+03  0.26531648310E+04  0.25879405508E+04 0.  0.
        2    1    3    3  502    0  0.12563867517E+04  0.63710614827E+02 -0.18269851443E+02  0.12581337368E+04  0.25500000920E-02 0. -1.
       -2    1    3    3    0  502 -0.12563867517E+04 -0.63710614827E+02  0.60294696398E+03  0.13950310941E+04  0.25500000920E-02 0.  1.
</event>
<event>
 5   0  0.4955675E-05  0.2569408E+04  0.7818609E-02  0.8378667E-01
        2   -1    0    0  501    0  0.00000000000E+00  0.00000000000E+00  0.11766816194E+04  0.11766816195E+04  0.25500000920E-02 0.  1.
       -2   -1    0    0    0  501  0.00000000000E+00  0.00000000000E+00 -0.14026436488E+04  0.14026436488E+04  0.25500000920E-02 0. -1.
    10030    2    1    2    0    0  0.00000000000E+00  0.00000000000E+00 -0.22596202931E+03  0.25793252682E+04  0.25694084923E+04 0.  0.
        5    1    3    3  502    0  0.11937915653E+04 -0.15195485823E+02  0.36326936892E+03  0.12479406751E+04  0.46999998093E+01 0. -1.
       -5    1    3    3    0  502 -0.11937915653E+04  0.15195485823E+02 -0.58923139823E+03  0.13313845931E+04  0.46999998093E+01 0.  1.
</event>
<event>
 5   0  0.2163800E-05  0.2686013E+04  0.7818609E-02  0.8339558E-01
       -1   -1    0    0    0  501  0.00000000000E+00  0.00000000000E+00  0.14411636483E+04  0.14411636483E+04  0.50400001928E-02 0. -1.
        1   -1    0    0  501    0  0.00000000000E+00  0.00000000000E+00 -0.12515346820E+04  0.12515346820E+04  0.50400001928E-02 0.  1.
    10030    2    1    2    0    0  0.00000000000E+00  0.00000000000E+00  0.18962896635E+03  0.26926983303E+04  0.26860128729E+04 0.  0.
        1    1    3    3  502    0 -0.49718671131E+03 -0.69066994492E+03  0.11363646929E+04  0.14196986702E+04  0.50400001928E-02 0. -1.
       -1    1    3    3    0  502  0.49718671131E+03  0.69066994492E+03 -0.94673572658E+03  0.12729996601E+04  0.50400001928E-02 0.  1.
</event>
<event>
 5   0  0.1954502E-05  0.2391822E+04  0.7818609E-02  0.8442572E-01
        1   -1    0    0  501    0  0.00000000000E+00  0.00000000000E+00  0.13363258954E+04  0.13363258954E+04  0.50400001928E-02 0.  1.
       -1   -1    0    0    0  501  0.00000000000E+00  0.00000000000E+00 -0.10702502189E+04  0.10702502189E+04  0.50400001928E-02 0. -1.
    10030    2    1    2    0    0  0.00000000000E+00  0.00000000000E+00  0.26607567646E+03  0.24065761143E+04  0.23918219683E+04 0.  0.
        4    1    3    3  502    0  0.10414183595E+04  0.54000665561E+03  0.36694137346E+03  0.12291488811E+04  0.12699999809E+01 0.  1.
       -4    1    3    3    0  502 -0.10414183595E+04 -0.54000665561E+03 -0.10086569700E+03  0.11774272331E+04  0.12699999809E+01 0. -1.
</event>
<event>
 5   0  0.2163800E-05  0.2660866E+04  0.7818609E-02  0.8347815E-01
        1   -1    0    0  501    0  0.00000000000E+00  0.00000000000E+00  0.17413776660E+04  0.17413776660E+04  0.50400001928E-02 0.  1.
       -1   -1    0    0    0  501  0.00000000000E+00  0.00000000000E+00 -0.10164665314E+04  0.10164665314E+04  0.50400001928E-02 0. -1.
    10030    2    1    2    0    0  0.00000000000E+00  0.00000000000E+00  0.72491113462E+03  0.27578441974E+04  0.26608661116E+04 0.  0.
        1    1    3    3  502    0  0.74250947172E+02  0.12815347162E+03 -0.10078953005E+04  0.10187195160E+04  0.50400001928E-02 0. -1.
       -1    1    3    3    0  502 -0.74250947172E+02 -0.12815347162E+03  0.17328064352E+04  0.17391246813E+04  0.50400001928E-02 0.  1.
</event>
<event>
 5   0  0.4955675E-05  0.2835675E+04  0.7818609E-02  0.8292278E-01
        2   -1    0    0  501    0  0.00000000000E+00  0.00000000000E+00  0.15524048317E+04  0.15524048317E+04  0.25500000920E-02 0. -1.
       -2   -1    0    0    0  501  0.00000000000E+00  0.00000000000E+00 -0.12949344563E+04  0.12949344563E+04  0.25500000920E-02 0.  1.
    10030    2    1    2    0    0  0.00000000000E+00  0.00000000000E+00  0.25747037536E+03  0.28473392880E+04  0.28356745277E+04 0.  0.
        5    1    3    3  502    0  0.11962253577E+04  0.62577313218E+03  0.56375318090E+03  0.14630061033E+04  0.46999998093E+01 0. -1.
       -5    1    3    3    0  502 -0.11962253577E+04 -0.62577313218E+03 -0.30628280554E+03  0.13843331847E+04  0.46999998093E+01 0.  1.
</event>
<event>
 5   0  0.1993815E-05  0.2587263E+04  0.7818609E-02  0.8372540E-01
        1   -1    0    0  501    0  0.00000000000E+00  0.00000000000E+00  0.20014871280E+04  0.20014871280E+04  0.50400001928E-02 0.  1.
       -1   -1    0    0    0  501  0.00000000000E+00  0.00000000000E+00 -0.83611968712E+03  0.83611968714E+03  0.50400001928E-02 0. -1.
    10030    2    1    2    0    0  0.00000000000E+00  0.00000000000E+00  0.11653674409E+04  0.28376068152E+04  0.25872632578E+04 0.  0.
        5    1    3    3  502    0  0.37215753817E+03 -0.39000632542E+03 -0.70704938154E+03  0.88912714783E+03  0.46999998093E+01 0. -1.
       -5    1    3    3    0  502 -0.37215753817E+03  0.39000632542E+03  0.18724168224E+04  0.19484796673E+04  0.46999998093E+01 0.  1.
</event>
<event>
 5   0  0.2159405E-05  0.1509008E+04  0.7818609E-02  0.8878485E-01
        1   -1    0    0  501    0  0.00000000000E+00  0.00000000000E+00  0.27248850871E+04  0.27248850871E+04  0.50400001928E-02 0. -1.
       -1   -1    0    0    0  501  0.00000000000E+00  0.00000000000E+00 -0.20891760195E+03  0.20891760201E+03  0.50400001928E-02 0.  1.
    10030    2    1    2    0    0  0.00000000000E+00  0.00000000000E+00  0.25159674851E+04  0.29338026891E+04  0.15090082281E+04 0.  0.
        3    1    3    3  502    0  0.15709297744E+03  0.13687603787E+03  0.26678427463E+04  0.26759667753E+04  0.10100000352E+00 0. -1.
       -3    1    3    3    0  502 -0.15709297744E+03 -0.13687603787E+03 -0.15187526115E+03  0.25783591382E+03  0.10100000352E+00 0.  1.
</event>
<event>
 5   0  0.5170532E-05  0.2608311E+04  0.7818609E-02  0.8365384E-01
       -2   -1    0    0    0  501  0.00000000000E+00  0.00000000000E+00  0.11827161292E+04  0.11827161292E+04  0.25500000920E-02 0.  1.
        2   -1    0    0  501    0  0.00000000000E+00  0.00000000000E+00 -0.14380640255E+04  0.14380640255E+04  0.25500000920E-02 0. -1.
    10030    2    1    2    0    0  0.00000000000E+00  0.00000000000E+00 -0.25534789629E+03  0.26207801547E+04  0.26083109613E+04 0.  0.
        1    1    3    3  502    0 -0.93097013655E+03 -0.44172433675E+03  0.67551958663E+03  0.12321333113E+04  0.50400001928E-02 0.  1.
       -1    1    3    3    0  502  0.93097013655E+03  0.44172433675E+03 -0.93086748292E+03  0.13886468434E+04  0.50400001928E-02 0. -1.
</event>
<event>
 5   0  0.2159405E-05  0.2692845E+04  0.7818609E-02  0.8337330E-01
       -1   -1    0    0    0  501  0.00000000000E+00  0.00000000000E+00  0.94775117767E+03  0.94775117768E+03  0.50400001928E-02 0. -1.
        1   -1    0    0  501    0  0.00000000000E+00  0.00000000000E+00 -0.19127954467E+04  0.19127954467E+04  0.50400001928E-02 0.  1.
    10030    2    1    2    0    0  0.00000000000E+00  0.00000000000E+00 -0.96504426900E+03  0.28605466244E+04  0.26928454373E+04 0.  0.
        3    1    3    3  502    0  0.11185310594E+04  0.52381316786E+03 -0.10519679355E+04  0.16223835900E+04  0.10100000352E+00 0. -1.
       -3    1    3    3    0  502 -0.11185310594E+04 -0.52381316786E+03  0.86923666485E+02  0.12381630344E+04  0.10100000352E+00 0.  1.
</event>
<event>
 5   0  0.5182179E-05  0.2742003E+04  0.7818609E-02  0.8321504E-01
       -2   -1    0    0    0  501  0.00000000000E+00  0.00000000000E+00  0.11233265703E+04  0.11233265703E+04  0.25500000920E-02 0. -1.
        2   -1    0    0  501    0  0.00000000000E+00  0.00000000000E+00 -0.16732848343E+04  0.16732848343E+04  0.25500000920E-02 0.  1.
    10030    2    1    2    0    0  0.00000000000E+00  0.00000000000E+00 -0.54995826402E+03  0.27966114047E+04  0.27420031467E+04 0.  0.
        3    1    3    3  502    0 -0.82235444233E+03 -0.10754042132E+04 -0.49581910113E+03  0.14417342480E+04  0.10100000352E+00 0.  1.
       -3    1    3    3    0  502  0.82235444233E+03  0.10754042132E+04 -0.54139162888E+02  0.13548771567E+04  0.10100000352E+00 0. -1.
</event>
<event>
 5   0  0.2163800E-05  0.2619632E+04  0.7818609E-02  0.8361563E-01
       -1   -1    0    0    0  501  0.00000000000E+00  0.00000000000E+00  0.15014703206E+04  0.15014703206E+04  0.50400001928E-02 0. -1.
        1   -1    0    0  501    0  0.00000000000E+00  0.00000000000E+00 -0.11426255580E+04  0.11426255580E+04  0.50400001928E-02 0.  1.
    10030    2    1    2    0    0  0.00000000000E+00  0.00000000000E+00  0.35884476261E+03  0.26440958786E+04  0.26196323123E+04 0.  0.
        1    1    3    3  502    0  0.65952658847E+03  0.11312697881E+04  0.14962195267E+03  0.13180035596E+04  0.50400001928E-02 0.  1.
       -1    1    3    3    0  502 -0.65952658847E+03 -0.11312697881E+04  0.20922280994E+03  0.13260923190E+04  0.50400001928E-02 0. -1.
</event>
<event>
 5   0  0.2163800E-05  0.2590638E+04  0.7818609E-02  0.8371388E-01
       -1   -1    0    0    0  501  0.00000000000E+00  0.00000000000E+00  0.66645270320E+03  0.66645270322E+03  0.50400001928E-02 0. -1.
        1   -1    0    0  501    0  0.00000000000E+00  0.00000000000E+00 -0.25175854287E+04  0.25175854287E+04  0.50400001928E-02 0.  1.
    10030    2    1    2    0    0  0.00000000000E+00  0.00000000000E+00 -0.18511327255E+04  0.31840381319E+04  0.25906382337E+04 0.  0.
        1    1    3    3  502    0  0.60278673824E+03 -0.53698498325E+03  0.31945343135E+03  0.86819077331E+03  0.50400001928E-02 0. -1.
       -1    1    3    3    0  502 -0.60278673824E+03  0.53698498325E+03 -0.21705861569E+04  0.23158473586E+04  0.50400001928E-02 0.  1.
</event>
<event>
 5   0  0.5170532E-05  0.2138101E+04  0.7818609E-02  0.8544643E-01
        2   -1    0    0  501    0  0.00000000000E+00  0.00000000000E+00  0.12469922174E+04  0.12469922174E+04  0.25500000920E-02 0. -1.
       -2   -1    0    0    0  501  0.00000000000E+00  0.00000000000E+00 -0.91650066603E+03  0.91650066603E+03  0.25500000920E-02 0.  1.
    10030    2    1    2    0    0  0.00000000000E+00  0.00000000000E+00  0.33049155133E+03  0.21634928834E+04  0.21381012116E+04 0.  0.
        1    1    3    3  502    0 -0.69860971023E+03 -0.80086868060E+03  0.48012083755E+02  0.10638380192E+04  0.50400001928E-02 0.  1.
       -1    1    3    3    0  502  0.69860971023E+03  0.80086868060E+03  0.28247946757E+03  0.10996548642E+04  0.50400001928E-02 0. -1.
</event>
<event>
 5   0  0.2159405E-05  0.2604551E+04  0.7818609E-02  0.8366657E-01
        1   -1    0    0  501    0  0.00000000000E+00  0.00000000000E+00  0.14384405009E+04  0.14384405010E+04  0.50400001928E-02 0. -1.
       -1   -1    0    0    0  501  0.00000000000E+00  0.00000000000E+00 -0.11789996548E+04  0.11789996548E+04  0.50400001928E-02 0.  1.
    10030    2    1    2    0    0  0.00000000000E+00  0.00000000000E+00  0.25944084613E+03  0.26174401558E+04  0.26045505210E+04 0.  0.
        3    1    3    3  502    0 -0.91851381476E+03  0.38573273148E+03  0.97259848774E+03  0.13922662089E+04  0.10100000352E+00 0. -1.
       -3    1    3    3    0  502  0.91851381476E+03 -0.38573273148E+03 -0.71315764161E+03  0.12251739468E+04  0.10100000352E+00 0.  1.
</event>
<event>
 5   0  0.2159405E-05  0.2442251E+04  0.7818609E-02  0.8423853E-01
        1   -1    0    0  501    0  0.00000000000E+00  0.00000000000E+00  0.25346245669E+04  0.25346245669E+04  0.50400001928E-02 0.  1.
       -1   -1    0    0    0  501  0.00000000000E+00  0.00000000000E+00 -0.58831101424E+03  0.58831101426E+03  0.50400001928E-02 0. -1.
    10030    2    1    2    0    0  0.00000000000E+00  0.00000000000E+00  0.19463135527E+04  0.31229355812E+04  0.24422510516E+04 0.  0.
        3    1    3    3  502    0 -0.10112652356E+04  0.57478902625E+03  0.14483625699E+04  0.18576312728E+04  0.10100000352E+00 0.  1.
       -3    1    3    3    0  502  0.10112652356E+04 -0.57478902625E+03  0.49795098280E+03  0.12653043084E+04  0.10100000352E+00 0. -1.
</event>
<event>
 5   0  0.5182179E-05  0.2569315E+04  0.7818609E-02  0.8378700E-01
       -2   -1    0    0    0  501  0.00000000000E+00  0.00000000000E+00  0.73463657792E+03  0.73463657792E+03  0.25500000920E-02 0.  1.
        2   -1    0    0  501    0  0.00000000000E+00  0.00000000000E+00 -0.22464777353E+04  0.22464777353E+04  0.25500000920E-02 0. -1.
    10030    2    1    2    0    0  0.00000000000E+00  0.00000000000E+00 -0.15118411574E+04  0.29811143132E+04  0.25693148626E+04 0.  0.
        3    1    3    3  502    0  0.18068723858E+03 -0.68851730438E+03  0.48489178214E+03  0.86129205686E+03  0.10100000352E+00 0.  1.
       -3    1    3    3    0  502 -0.18068723858E+03  0.68851730438E+03 -0.19967329395E+04  0.21198222564E+04  0.10100000352E+00 0. -1.
</event>
<event>
 5   0  0.4955675E-05  0.2363620E+04  0.7818609E-02  0.8453251E-01
       -2   -1    0    0    0  501  0.00000000000E+00  0.00000000000E+00  0.57304359565E+03  0.57304359566E+03  0.25500000920E-02 0.  1.
        2   -1    0    0  501    0  0.00000000000E+00  0.00000000000E+00 -0.24372931252E+04  0.24372931252E+04  0.25500000920E-02 0. -1.
    10030    2    1    2    0    0  0.00000000000E+00  0.00000000000E+00 -0.18642495295E+04  0.30103367208E+04  0.23636202877E+04 0.  0.
        5    1    3    3  502    0 -0.40535879325E+03  0.94843584830E+03 -0.19738512042E+03  0.10501567908E+04  0.46999998093E+01 0.  1.
       -5    1    3    3    0  502  0.40535879325E+03 -0.94843584830E+03 -0.16668644091E+04  0.19601799300E+04  0.46999998093E+01 0. -1.
</event>
<event>
 5   0  0.5036452E-05  0.1371805E+04  0.7818609E-02  0.8974484E-01
        2   -1    0    0  501    0  0.00000000000E+00  0.00000000000E+00  0.11250628715E+04  0.11250628715E+04  0.25500000920E-02 0.  1.
       -2   -1    0    0    0  501  0.00000000000E+00  0.00000000000E+00 -0.41816537009E+03  0.41816537010E+03  0.25500000920E-02 0. -1.
    10030    2    1    2    0    0  0.00000000000E+00  0.00000000000E+00  0.70689750141E+03  0.15432282416E+04  0.13718051349E+04 0.  0.
        2    1    3    3  502    0 -0.65488443159E+01  0.77943186051E+02  0.11200293074E+04  0.11227571763E+04  0.25500000920E-02 0.  1.
       -2    1    3    3    0  502  0.65488443159E+01 -0.77943186051E+02 -0.41313180597E+03  0.42047106527E+03  0.25500000920E-02 0. -1.
</event>
<event>
 5   0  0.5036452E-05  0.2510917E+04  0.7818609E-02  0.8399107E-01
        2   -1    0    0  501    0  0.00000000000E+00  0.00000000000E+00  0.13130882620E+04  0.13130882620E+04  0.25500000920E-02 0. -1.
       -2   -1    0    0    0  501  0.00000000000E+00  0.00000000000E+00 -0.12003580041E+04  0.12003580041E+04  0.25500000920E-02 0.  1.
    10030    2    1    2    0    0  0.00000000000E+00  0.00000000000E+00  0.11273025794E+03  0.25134462661E+04  0.25109169683E+04 0.  0.
        2    1    3    3  502    0  0.95311474654E+03 -0.81662073753E+03  0.86040502891E+02  0.12580540995E+04  0.25500000920E-02 0.  1.
       -2    1    3    3    0  502 -0.95311474654E+03  0.81662073753E+03  0.26689755052E+02  0.12553921666E+04  0.25500000920E-02 0. -1.
</event>
<event>
 5   0  0.5182179E-05  0.2395607E+04  0.7818609E-02  0.8441150E-01
       -2   -1    0    0    0  501  0.00000000000E+00  0.00000000000E+00  0.13890222607E+04  0.13890222607E+04  0.25500000920E-02 0. -1.
        2   -1    0    0  501    0  0.00000000000E+00  0.00000000000E+00 -0.10329086153E+04  0.10329086153E+04  0.25500000920E-02 0.  1.
    10030    2    1    2    0    0  0.00000000000E+00  0.00000000000E+00  0.35611364537E+03  0.24219308759E+04  0.23956068624E+04 0.  0.
        3    1    3    3  502    0 -0.63426502100E+03 -0.38997908769E+03  0.11266405418E+04  0.13504424187E+04  0.10100000352E+00 0. -1.
       -3    1    3    3    0  502  0.63426502100E+03  0.38997908769E+03 -0.77052689640E+03  0.10714884572E+04  0.10100000352E+00 0.  1.
</event>
<event>
 5   0  0.2072710E-05  0.2609250E+04  0.7818609E-02  0.8365066E-01
       -1   -1    0    0    0  501  0.00000000000E+00  0.00000000000E+00  0.13107446207E+04  0.13107446207E+04  0.50400001928E-02 0.  1.
        1   -1    0    0  501    0  0.00000000000E+00  0.00000000000E+00 -0.12985335224E+04  0.12985335224E+04  0.50400001928E-02 0. -1.
    10030    2    1    2    0    0  0.00000000000E+00  0.00000000000E+00  0.12211098326E+02  0.26092781431E+04  0.26092495697E+04 0.  0.
        2    1    3    3  502    0  0.49875652896E+03 -0.11364583599E+04 -0.39608059304E+03  0.13027568902E+04  0.25500000920E-02 0. -1.
       -2    1    3    3    0  502 -0.49875652896E+03  0.11364583599E+04  0.40829169137E+03  0.13065212528E+04  0.25500000920E-02 0.  1.
</event>
<event>
 5   0  0.5170532E-05  0.1628636E+04  0.7818609E-02  0.8803147E-01
        2   -1    0    0  501    0  0.00000000000E+00  0.00000000000E+00  0.81478789712E+03  0.81478789713E+03  0.25500000920E-02 0. -1.
       -2   -1    0    0    0  501  0.00000000000E+00  0.00000000000E+00 -0.81384796954E+03  0.81384796954E+03  0.25500000920E-02 0.  1.
    10030    2    1    2    0    0  0.00000000000E+00  0.00000000000E+00  0.93992758548E+00  0.16286358667E+04  0.16286355954E+04 0.  0.
        1    1    3    3  502    0  0.24925002156E+03 -0.58608932416E+03  0.50790202061E+03  0.81461078541E+03  0.50400001928E-02 0. -1.
       -1    1    3    3    0  502 -0.24925002156E+03  0.58608932416E+03 -0.50696209302E+03  0.81402508126E+03  0.50400001928E-02 0.  1.
</event>
<event>
 5   0  0.2159405E-05  0.2579270E+04  0.7818609E-02  0.8375277E-01
       -1   -1    0    0    0  501  0.00000000000E+00  0.00000000000E+00  0.11902352654E+04  0.11902352654E+04  0.50400001928E-02 0. -1.
        1   -1    0    0  501    0  0.00000000000E+00  0.00000000000E+00 -0.13973362952E+04  0.13973362952E+04  0.50400001928E-02 0.  1.
    10030    2    1    2    0    0  0.00000000000E+00  0.00000000000E+00 -0.20710102980E+03  0.25875715606E+04  0.25792703900E+04 0.  0.
        3    1    3    3  502    0  0.64665618850E+03 -0.98176083341E+03 -0.63548371791E+03  0.13363600286E+04  0.10100000352E+00 0. -1.
       -3    1    3    3    0  502 -0.64665618850E+03  0.98176083341E+03  0.42838268811E+03  0.12512115320E+04  0.10100000352E+00 0.  1.
</event>
<event>
 5   0  0.2159405E-05  0.2589215E+04  0.7818609E-02  0.8371874E-01
        1   -1    0    0  501    0  0.00000000000E+00  0.00000000000E+00  0.17726772344E+04  0.17726772344E+04  0.50400001928E-02 0. -1.
       -1   -1    0    0    0  501  0.00000000000E+00  0.00000000000E+00 -0.94546719080E+03  0.94546719082E+03  0.50400001928E-02 0.  1.
    10030    2    1    2    0    0  0.00000000000E+00  0.00000000000E+00  0.82721004356E+03  0.27181444252E+04  0.25892146802E+04 0.  0.
        3    1    3    3  502    0  0.54478953780E+03 -0.33355861702E+03 -0.76849909895E+03  0.99932370470E+03  0.10100000352E+00 0.  1.
       -3    1    3    3    0  502 -0.54478953780E+03  0.33355861702E+03  0.15957091425E+04  0.17188207205E+04  0.10100000352E+00 0. -1.
</event>
<event>
 5   0  0.1954502E-05  0.1446370E+04  0.7818609E-02  0.8920921E-01
       -1   -1    0    0    0  501  0.00000000000E+00  0.00000000000E+00  0.53707609129E+03  0.53707609131E+03  0.50400001928E-02 0.  1.
        1   -1    0    0  501    0  0.00000000000E+00  0.00000000000E+00 -0.97378427222E+03  0.97378427223E+03  0.50400001928E-02 0. -1.
    10030    2    1    2    0    0  0.00000000000E+00  0.00000000000E+00 -0.43670818093E+03  0.15108603635E+04  0.14463695941E+04 0.  0.
        4    1    3    3  502    0  0.41887409480E+03 -0.34676489772E+03  0.27965618150E+03  0.61148229274E+03  0.12699999809E+01 0.  1.
       -4    1    3    3    0  502 -0.41887409480E+03  0.34676489772E+03 -0.71636436243E+03  0.89937807080E+03  0.12699999809E+01 0. -1.
</event>
<event>
 5   0  0.5049803E-05  0.2580249E+04  0.7818609E-02  0.8374941E-01
        2   -1    0    0  501    0  0.00000000000E+00  0.00000000000E+00  0.19768742375E+04  0.19768742375E+04  0.25500000920E-02 0. -1.
       -2   -1    0    0    0  501  0.00000000000E+00  0.00000000000E+00 -0.84194610272E+03  0.84194610273E+03  0.25500000920E-02 0.  1.
    10030    2    1    2    0    0  0.00000000000E+00  0.00000000000E+00  0.11349281348E+04  0.28188203402E+04  0.25802492592E+04 0.  0.
        4    1    3    3  502    0 -0.10722805902E+03  0.60960340891E+03 -0.66914414475E+03  0.91152052755E+03  0.12699999809E+01 0.  1.
       -4    1    3    3    0  502  0.10722805902E+03 -0.60960340891E+03  0.18040722795E+04  0.19072998127E+04  0.12699999809E+01 0. -1.
</event>
<event>
 5   0  0.2159405E-05  0.2345666E+04  0.7818609E-02  0.8460130E-01
       -1   -1    0    0    0  501  0.00000000000E+00  0.00000000000E+00  0.71405159302E+03  0.71405159304E+03  0.50400001928E-02 0.  1.
        1   -1    0    0  501    0  0.00000000000E+00  0.00000000000E+00 -0.19263829156E+04  0.19263829156E+04  0.50400001928E-02 0. -1.
    10030    2    1    2    0    0  0.00000000000E+00  0.00000000000E+00 -0.12123313226E+04  0.26404345087E+04  0.23456656111E+04 0.  0.
        3    1    3    3  502    0  0.22717081314E+03 -0.59029401693E+03  0.50561519251E+03  0.80975325740E+03  0.10100000352E+00 0.  1.
       -3    1    3    3    0  502 -0.22717081314E+03  0.59029401693E+03 -0.17179465151E+04  0.18306812513E+04  0.10100000352E+00 0. -1.
</event>
<event>
 5   0  0.4955675E-05  0.1375246E+04  0.7818609E-02  0.8971934E-01
        2   -1    0    0  501    0  0.00000000000E+00  0.00000000000E+00  0.76557086203E+03  0.76557086203E+03  0.25500000920E-02 0.  1.
       -2   -1    0    0    0  501  0.00000000000E+00  0.00000000000E+00 -0.61761148599E+03  0.61761148599E+03  0.25500000920E-02 0. -1.
    10030    2    1    2    0    0  0.00000000000E+00  0.00000000000E+00  0.14795937604E+03  0.13831823480E+04  0.13752459529E+04 0.  0.
        5    1    3    3  502    0  0.40809751995E+03 -0.54965206716E+03  0.92476685719E+01  0.68466677303E+03  0.46999998093E+01 0. -1.
       -5    1    3    3    0  502 -0.40809751995E+03  0.54965206716E+03  0.13871170747E+03  0.69851557499E+03  0.46999998093E+01 0.  1.
</event>
<event>
 5   0  0.2159405E-05  0.1302409E+04  0.7818609E-02  0.9027657E-01
        1   -1    0    0  501    0  0.00000000000E+00  0.00000000000E+00  0.52847243073E+03  0.52847243075E+03  0.50400001928E-02 0. -1.
       -1   -1    0    0    0  501  0.00000000000E+00  0.00000000000E+00 -0.80244026973E+03  0.80244026975E+03  0.50400001928E-02 0.  1.
    10030    2    1    2    0    0  0.00000000000E+00  0.00000000000E+00 -0.27396783900E+03  0.13309127005E+04  0.13024093978E+04 0.  0.
        3    1    3    3  502    0  0.38051752472E+02 -0.49476085981E+03 -0.56791335097E+03  0.75416299875E+03  0.10100000352E+00 0.  1.
       -3    1    3    3    0  502 -0.38051752472E+02  0.49476085981E+03  0.29394551197E+03  0.57674970175E+03  0.10100000352E+00 0. -1.
</event>
<event>
 5   0  0.5170532E-05  0.2624516E+04  0.7818609E-02  0.8359921E-01
        2   -1    0    0  501    0  0.00000000000E+00  0.00000000000E+00  0.11496331026E+04  0.11496331026E+04  0.25500000920E-02 0.  1.
       -2   -1    0    0    0  501  0.00000000000E+00  0.00000000000E+00 -0.14978871300E+04  0.14978871300E+04  0.25500000920E-02 0. -1.
    10030    2    1    2    0    0  0.00000000000E+00  0.00000000000E+00 -0.34825402744E+03  0.26475202326E+04  0.26245156724E+04 0.  0.
        1    1    3    3  502    0  0.39147801232E+03 -0.30983390449E+03 -0.13983410860E+04  0.14847928729E+04  0.50400001928E-02 0. -1.
       -1    1    3    3    0  502 -0.39147801232E+03  0.30983390449E+03  0.10500870586E+04  0.11627273598E+04  0.50400001928E-02 0.  1.
</event>
<event>
 5   0  0.2159405E-05  0.2802428E+04  0.7818609E-02  0.8302515E-01
        1   -1    0    0  501    0  0.00000000000E+00  0.00000000000E+00  0.19947886213E+04  0.19947886213E+04  0.50400001928E-02 0.  1.
       -1   -1    0    0    0  501  0.00000000000E+00  0.00000000000E+00 -0.98426490749E+03  0.98426490750E+03  0.50400001928E-02 0. -1.
    10030    2    1    2    0    0  0.00000000000E+00  0.00000000000E+00  0.10105237138E+04  0.29790535288E+04  0.28024278316E+04 0.  0.
        3    1    3    3  502    0  0.16196086421E+03  0.80290889133E+03  0.17137996153E+04  0.18994744381E+04  0.10100000352E+00 0.  1.
       -3    1    3    3    0  502 -0.16196086421E+03 -0.80290889133E+03 -0.70327590149E+03  0.10795790907E+04  0.10100000352E+00 0. -1.
</event>
<event>
 5   0  0.4955675E-05  0.2591975E+04  0.7818609E-02  0.8370932E-01
       -2   -1    0    0    0  501  0.00000000000E+00  0.00000000000E+00  0.30164440408E+04  0.30164440408E+04  0.25500000920E-02 0.  1.
        2   -1    0    0  501    0  0.00000000000E+00  0.00000000000E+00 -0.55680928285E+03  0.55680928285E+03  0.25500000920E-02 0. -1.
    10030    2    1    2    0    0  0.00000000000E+00  0.00000000000E+00  0.24596347580E+04  0.35732533237E+04  0.25919753418E+04 0.  0.
        5    1    3    3  502    0  0.10671400431E+04 -0.12476770959E+03  0.22288927087E+04  0.24743362039E+04  0.46999998093E+01 0.  1.
       -5    1    3    3    0  502 -0.10671400431E+04  0.12476770959E+03  0.23074204923E+03  0.10989171198E+04  0.46999998093E+01 0. -1.
</event>
<event>
 5   0  0.5182179E-05  0.2556947E+04  0.7818609E-02  0.8382974E-01
       -2   -1    0    0    0  501  0.00000000000E+00  0.00000000000E+00  0.97102238544E+03  0.97102238545E+03  0.25500000920E-02 0.  1.
        2   -1    0    0  501    0  0.00000000000E+00  0.00000000000E+00 -0.16832716891E+04  0.16832716891E+04  0.25500000920E-02 0. -1.
    10030    2    1    2    0    0  0.00000000000E+00  0.00000000000E+00 -0.71224930363E+03  0.26542940745E+04  0.25569470005E+04 0.  0.
        3    1    3    3  502    0  0.10950839161E+04  0.42680836095E+03 -0.87838952530E+03  0.14672908126E+04  0.10100000352E+00 0. -1.
       -3    1    3    3    0  502 -0.10950839161E+04 -0.42680836095E+03  0.16614022167E+03  0.11870032619E+04  0.10100000352E+00 0.  1.
</event>
<event>
 5   0  0.5182179E-05  0.2472466E+04  0.7818609E-02  0.8412861E-01
        2   -1    0    0  501    0  0.00000000000E+00  0.00000000000E+00  0.15120337869E+04  0.15120337869E+04  0.25500000920E-02 0.  1.
       -2   -1    0    0    0  501  0.00000000000E+00  0.00000000000E+00 -0.10107395370E+04  0.10107395370E+04  0.25500000920E-02 0. -1.
    10030    2    1    2    0    0  0.00000000000E+00  0.00000000000E+00  0.50129424993E+03  0.25227733239E+04  0.24724662422E+04 0.  0.
        3    1    3    3  502    0 -0.72853393404E+03 -0.99862105583E+03  0.23398659786E+03  0.12580760885E+04  0.10100000352E+00 0.  1.
       -3    1    3    3    0  502  0.72853393404E+03  0.99862105583E+03  0.26730765208E+03  0.12646972354E+04  0.10100000352E+00 0. -1.
</event>
<event>
 5   0  0.2163800E-05  0.2746247E+04  0.7818609E-02  0.8320154E-01
        1   -1    0    0  501    0  0.00000000000E+00  0.00000000000E+00  0.13400722885E+04  0.13400722885E+04  0.50400001928E-02 0. -1.
       -1   -1    0    0    0  501  0.00000000000E+00  0.00000000000E+00 -0.14069898255E+04  0.14069898255E+04  0.50400001928E-02 0.  1.
    10030    2    1    2    0    0  0.00000000000E+00  0.00000000000E+00 -0.66917536990E+02  0.27470621140E+04  0.27462469484E+04 0.  0.
        1    1    3    3  502    0  0.13022328109E+04 -0.15450821924E+02  0.40189341147E+03  0.13629260199E+04  0.50400001928E-02 0. -1.
       -1    1    3    3    0  502 -0.13022328109E+04  0.15450821924E+02 -0.46881094846E+03  0.13841360941E+04  0.50400001928E-02 0.  1.
</event>
<event>
 5   0  0.1954502E-05  0.2661559E+04  0.7818609E-02  0.8347586E-01
       -1   -1    0    0    0  501  0.00000000000E+00  0.00000000000E+00  0.11349813059E+04  0.11349813059E+04  0.50400001928E-02 0.  1.
        1   -1    0    0  501    0  0.00000000000E+00  0.00000000000E+00 -0.15603555281E+04  0.15603555282E+04  0.50400001928E-02 0. -1.
    10030    2    1    2    0    0  0.00000000000E+00  0.00000000000E+00 -0.42537422230E+03  0.26953368340E+04  0.26615592084E+04 0.  0.
        4    1    3    3  502    0 -0.22510140488E+03 -0.86326727475E+02 -0.15380553368E+04  0.15568361437E+04  0.12699999809E+01 0. -1.
       -4    1    3    3    0  502  0.22510140488E+03  0.86326727475E+02  0.11126811145E+04  0.11385006903E+04  0.12699999809E+01 0.  1.
</event>
<event>
 5   0  0.2163800E-05  0.2076536E+04  0.7818609E-02  0.8571650E-01
        1   -1    0    0  501    0  0.00000000000E+00  0.00000000000E+00  0.12830984777E+04  0.12830984777E+04  0.50400001928E-02 0.  1.
       -1   -1    0    0    0  501  0.00000000000E+00  0.00000000000E+00 -0.84015434329E+03  0.84015434331E+03  0.50400001928E-02 0. -1.
    10030    2    1    2    0    0  0.00000000000E+00  0.00000000000E+00  0.44294413439E+03  0.21232528210E+04  0.20765363073E+04 0.  0.
        1    1    3    3  502    0 -0.62334698392E+03 -0.44502826367E+03  0.93823404360E+03  0.12111543000E+04  0.50400001928E-02 0.  1.
       -1    1    3    3    0  502  0.62334698392E+03  0.44502826367E+03 -0.49528990921E+03  0.91209852100E+03  0.50400001928E-02 0. -1.
</event>
<event>
 5   0  0.1698625E-05  0.2587330E+04  0.7818609E-02  0.8372518E-01
        3   -1    0    0  501    0  0.00000000000E+00  0.00000000000E+00  0.95159543964E+03  0.95159544500E+03  0.10100000352E+00 0.  1.
       -3   -1    0    0    0  501  0.00000000000E+00  0.00000000000E+00 -0.17586982309E+04  0.17586982338E+04  0.10100000352E+00 0. -1.
    10030    2    1    2    0    0  0.00000000000E+00  0.00000000000E+00 -0.80710279127E+03  0.27102936788E+04  0.25873300736E+04 0.  0.
        3    1    3    3  502    0  0.93577717550E+03  0.13171729427E+03 -0.13290213717E+04  0.16307440585E+04  0.10100000352E+00 0. -1.
       -3    1    3    3    0  502 -0.93577717550E+03 -0.13171729427E+03  0.52191858045E+03  0.10795496203E+04  0.10100000352E+00 0.  1.
</event>
<event>
 5   0  0.1993815E-05  0.1478077E+04  0.7818609E-02  0.8899164E-01
       -1   -1    0    0    0  501  0.00000000000E+00  0.00000000000E+00  0.44205394719E+03  0.44205394722E+03  0.50400001928E-02 0. -1.
        1   -1    0    0  501    0  0.00000000000E+00  0.00000000000E+00 -0.12355456160E+04  0.12355456160E+04  0.50400001928E-02 0.  1.
    10030    2    1    2    0    0  0.00000000000E+00  0.00000000000E+00 -0.79349166879E+03  0.16775995632E+04  0.14780768810E+04 0.  0.
        5    1    3    3  502    0 -0.15739745014E+03 -0.59798662488E+03  0.62600192234E+02  0.62153264991E+03  0.46999998093E+01 0. -1.
       -5    1    3    3    0  502  0.15739745014E+03  0.59798662488E+03 -0.85609186102E+03  0.10560669133E+04  0.46999998093E+01 0.  1.
</event>
<event>
 5   0  0.1954502E-05  0.2632918E+04  0.7818609E-02  0.8357105E-01
        1   -1    0    0  501    0  0.00000000000E+00  0.00000000000E+00  0.11940862190E+04  0.11940862190E+04  0.50400001928E-02 0. -1.
       -1   -1    0    0    0  501  0.00000000000E+00  0.00000000000E+00 -0.14513724155E+04  0.14513724155E+04  0.50400001928E-02 0.  1.
    10030    2    1    2    0    0  0.00000000000E+00  0.00000000000E+00 -0.25728619651E+03  0.26454586346E+04  0.26329176213E+04 0.  0.
        4    1    3    3  502    0  0.10281761340E+04  0.81864981327E+03 -0.52595682549E+02  0.13153332650E+04  0.12699999809E+01 0. -1.
       -4    1    3    3    0  502 -0.10281761340E+04 -0.81864981327E+03 -0.20469051396E+03  0.13301253696E+04  0.12699999809E+01 0.  1.
</event>
<event>
 5   0  0.2072710E-05  0.2530567E+04  0.7818609E-02  0.8392176E-01
        1   -1    0    0  501    0  0.00000000000E+00  0.00000000000E+00  0.17676272901E+04  0.17676272901E+04  0.50400001928E-02 0. -1.
       -1   -1    0    0    0  501  0.00000000000E+00  0.00000000000E+00 -0.90570162971E+03  0.90570162972E+03  0.50400001928E-02 0.  1.
    10030    2    1    2    0    0  0.00000000000E+00  0.00000000000E+00  0.86192566040E+03  0.26733289198E+04  0.25305674600E+04 0.  0.
        2    1    3    3  502    0  0.10490771877E+04 -0.62361911728E+03  0.78368384636E+03  0.14503875759E+04  0.25500000920E-02 0. -1.
       -2    1    3    3    0  502 -0.10490771877E+04  0.62361911728E+03  0.78241814034E+02  0.12229413439E+04  0.25500000920E-02 0.  1.
</event>
<event>
 5   0  0.5036452E-05  0.2447569E+04  0.7818609E-02  0.8421906E-01
        2   -1    0    0  501    0  0.00000000000E+00  0.00000000000E+00  0.89042129744E+03  0.89042129744E+03  0.25500000920E-02 0.  1.
       -2   -1    0    0    0  501  0.00000000000E+00  0.00000000000E+00 -0.16819554447E+04  0.16819554447E+04  0.25500000920E-02 0. -1.
    10030    2    1    2    0    0  0.00000000000E+00  0.00000000000E+00 -0.79153414723E+03  0.25723767421E+04  0.24475693651E+04 0.  0.
        2    1    3    3  502    0 -0.82778466242E+03  0.58838494228E+03 -0.11133914571E+04  0.15070052503E+04  0.25500000920E-02 0. -1.
       -2    1    3    3    0  502  0.82778466242E+03 -0.58838494228E+03  0.32185730988E+03  0.10653714918E+04  0.25500000920E-02 0.  1.
</event>
<event>
 5   0  0.1993815E-05  0.2517763E+04  0.7818609E-02  0.8396685E-01
        1   -1    0    0  501    0  0.00000000000E+00  0.00000000000E+00  0.11252866205E+04  0.11252866205E+04  0.50400001928E-02 0. -1.
       -1   -1    0    0    0  501  0.00000000000E+00  0.00000000000E+00 -0.14083366182E+04  0.14083366182E+04  0.50400001928E-02 0.  1.
    10030    2    1    2    0    0  0.00000000000E+00  0.00000000000E+00 -0.28304999773E+03  0.25336232387E+04  0.25177627796E+04 0.  0.
        5    1    3    3  502    0  0.21148956197E+03 -0.66495463015E+03 -0.11959173393E+04  0.13846056721E+04  0.46999998093E+01 0.  1.
       -5    1    3    3    0  502 -0.21148956197E+03  0.66495463015E+03  0.91286734154E+03  0.11490175665E+04  0.46999998093E+01 0. -1.
</event>
<event>
 5   0  0.2159405E-05  0.2614958E+04  0.7818609E-02  0.8363138E-01
       -1   -1    0    0    0  501  0.00000000000E+00  0.00000000000E+00  0.75636201693E+03  0.75636201695E+03  0.50400001928E-02 0.  1.
        1   -1    0    0  501    0  0.00000000000E+00  0.00000000000E+00 -0.22601626378E+04  0.22601626378E+04  0.50400001928E-02 0. -1.
    10030    2    1    2    0    0  0.00000000000E+00  0.00000000000E+00 -0.15038006209E+04  0.30165246548E+04  0.26149578745E+04 0.  0.
        3    1    3    3  502    0  0.79430708704E+03 -0.73676486321E+03  0.92455075490E+02  0.10873335106E+04  0.10100000352E+00 0.  1.
       -3    1    3    3    0  502 -0.79430708704E+03  0.73676486321E+03 -0.15962556964E+04  0.19291911441E+04  0.10100000352E+00 0. -1.
</event>
<event>
 5   0  0.5036452E-05  0.2568997E+04  0.7818609E-02  0.8378809E-01
        2   -1    0    0  501    0  0.00000000000E+00  0.00000000000E+00  0.11608068466E+04  0.11608068466E+04  0.25500000920E-02 0.  1.
       -2   -1    0    0    0  501  0.00000000000E+00  0.00000000000E+00 -0.14213702867E+04  0.14213702867E+04  0.25500000920E-02 0. -1.
    10030    2    1    2    0    0  0.00000000000E+00  0.00000000000E+00 -0.26056344007E+03  0.25821771333E+04  0.25689969719E+04 0.  0.
        2    1    3    3  502    0  0.99071369666E+02 -0.45621196661E+03 -0.13330797663E+04  0.14124610289E+04  0.25500000920E-02 0. -1.
       -2    1    3    3    0  502 -0.99071369666E+02  0.45621196661E+03  0.10725163263E+04  0.11697161044E+04  0.25500000920E-02 0.  1.
</event>
<event>
 5   0  0.2072710E-05  0.2579137E+04  0.7818609E-02  0.8375323E-01
       -1   -1    0    0    0  501  0.00000000000E+00  0.00000000000E+00  0.12398345253E+04  0.12398345253E+04  0.50400001928E-02 0.  1.
        1   -1    0    0  501    0  0.00000000000E+00  0.00000000000E+00 -0.13412972591E+04  0.13412972591E+04  0.50400001928E-02 0. -1.
    10030    2    1    2    0    0  0.00000000000E+00  0.00000000000E+00 -0.10146273385E+03  0.25811317844E+04  0.25791367940E+04 0.  0.
        2    1    3    3  502    0 -0.77605916559E+03 -0.42469991466E+03  0.88826344141E+03  0.12536545726E+04  0.25500000920E-02 0.  1.
       -2    1    3    3    0  502  0.77605916559E+03  0.42469991466E+03 -0.98972617527E+03  0.13274772119E+04  0.25500000920E-02 0. -1.
</event>
<event>
 5   0  0.1993815E-05  0.2649260E+04  0.7818609E-02  0.8351659E-01
        1   -1    0    0  501    0  0.00000000000E+00  0.00000000000E+00  0.17415416239E+04  0.17415416239E+04  0.50400001928E-02 0.  1.
       -1   -1    0    0    0  501  0.00000000000E+00  0.00000000000E+00 -0.10075240630E+04  0.10075240630E+04  0.50400001928E-02 0. -1.
    10030    2    1    2    0    0  0.00000000000E+00  0.00000000000E+00  0.73401756089E+03  0.27490656869E+04  0.26492603442E+04 0.  0.
        5    1    3    3  502    0 -0.26353229787E+03 -0.10160802476E+04 -0.47136071770E+03  0.11506829962E+04  0.46999998093E+01 0. -1.
       -5    1    3    3    0  502  0.26353229787E+03  0.10160802476E+04  0.12053782786E+04  0.15983826907E+04  0.46999998093E+01 0.  1.
</event>
<event>
 5   0  0.5170532E-05  0.2564296E+04  0.7818609E-02  0.8380431E-01
       -2   -1    0    0    0  501  0.00000000000E+00  0.00000000000E+00  0.59903506499E+03  0.59903506499E+03  0.25500000920E-02 0. -1.
        2   -1    0    0  501    0  0.00000000000E+00  0.00000000000E+00 -0.27442523542E+04  0.27442523542E+04  0.25500000920E-02 0.  1.
    10030    2    1    2    0    0  0.00000000000E+00  0.00000000000E+00 -0.21452172892E+04  0.33432874192E+04  0.25642959169E+04 0.  0.
        1    1    3    3  502    0  0.45548078651E+03 -0.58214720175E+03 -0.24385020103E+04  0.25480679280E+04  0.50400001928E-02 0.  1.
       -1    1    3    3    0  502 -0.45548078651E+03  0.58214720175E+03  0.29328472116E+03  0.79521949113E+03  0.50400001928E-02 0. -1.
</event>
<event>
 5   0  0.5036452E-05  0.2588216E+04  0.7818609E-02  0.8372215E-01
        2   -1    0    0  501    0  0.00000000000E+00  0.00000000000E+00  0.28437507754E+04  0.28437507754E+04  0.25500000920E-02 0. -1.
       -2   -1    0    0    0  501  0.00000000000E+00  0.00000000000E+00 -0.58891081758E+03  0.58891081759E+03  0.25500000920E-02 0.  1.
    10030    2    1    2    0    0  0.00000000000E+00  0.00000000000E+00  0.22548399578E+04  0.34326615930E+04  0.25882160606E+04 0.  0.
        2    1    3    3  502    0  0.22116655411E+03  0.10181296050E+04  0.21454642028E+04  0.23850616727E+04  0.25500000920E-02 0. -1.
       -2    1    3    3    0  502 -0.22116655411E+03 -0.10181296050E+04  0.10937575502E+03  0.10475999203E+04  0.25500000920E-02 0.  1.
</event>
<event>
 5   0  0.5049803E-05  0.2558566E+04  0.7818609E-02  0.8382413E-01
       -2   -1    0    0    0  501  0.00000000000E+00  0.00000000000E+00  0.82748346982E+03  0.82748346982E+03  0.25500000920E-02 0.  1.
        2   -1    0    0  501    0  0.00000000000E+00  0.00000000000E+00 -0.19777619588E+04  0.19777619588E+04  0.25500000920E-02 0. -1.
    10030    2    1    2    0    0  0.00000000000E+00  0.00000000000E+00 -0.11502784889E+04  0.28052454286E+04  0.25585662611E+04 0.  0.
        4    1    3    3  502    0  0.69128961185E+03  0.86575221376E+03 -0.12764627375E+04  0.16901973128E+04  0.12699999809E+01 0. -1.
       -4    1    3    3    0  502 -0.69128961185E+03 -0.86575221376E+03  0.12618424853E+03  0.11150481158E+04  0.12699999809E+01 0.  1.
</event>
<event>
 5   0  0.4955675E-05  0.2616641E+04  0.7818609E-02  0.8362571E-01
        2   -1    0    0  501    0  0.00000000000E+00  0.00000000000E+00  0.10878372612E+04  0.10878372612E+04  0.25500000920E-02 0. -1.
       -2   -1    0    0    0  501  0.00000000000E+00  0.00000000000E+00 -0.15734912910E+04  0.15734912910E+04  0.25500000920E-02 0.  1.
    10030    2    1    2    0    0  0.00000000000E+00  0.00000000000E+00 -0.48565402984E+03  0.26613285522E+04  0.26166409433E+04 0.  0.
        5    1    3    3  502    0 -0.10725569654E+04 -0.46766402761E+03  0.35248294234E+03  0.12220288055E+04  0.46999998093E+01 0. -1.
       -5    1    3    3    0  502  0.10725569654E+04  0.46766402761E+03 -0.83813697217E+03  0.14392997467E+04  0.46999998093E+01 0.  1.
</event>
<event>
 5   0  0.5049803E-05  0.2171594E+04  0.7818609E-02  0.8530345E-01
        2   -1    0    0  501    0  0.00000000000E+00  0.00000000000E+00  0.63572359036E+03  0.63572359036E+03  0.25500000920E-02 0. -1.
       -2   -1    0    0    0  501  0.00000000000E+00  0.00000000000E+00 -0.18545096645E+04  0.18545096645E+04  0.25500000920E-02 0.  1.
    10030    2    1    2    0    0  0.00000000000E+00  0.00000000000E+00 -0.12187860742E+04  0.24902332549E+04  0.21715943841E+04 0.  0.
        4    1    3    3  502    0 -0.68586903771E+03 -0.51887047801E+03  0.15066607001E+03  0.87312358083E+03  0.12699999809E+01 0. -1.
       -4    1    3    3    0  502  0.68586903771E+03  0.51887047801E+03 -0.13694521442E+04  0.16171096741E+04  0.12699999809E+01 0.  1.
</event>
<event>
 5   0  0.5170532E-05  0.2533523E+04  0.7818609E-02  0.8391139E-01
        2   -1    0    0  501    0  0.00000000000E+00  0.00000000000E+00  0.92954551192E+03  0.92954551192E+03  0.25500000920E-02 0. -1.
       -2   -1    0    0    0  501  0.00000000000E+00  0.00000000000E+00 -0.17263112867E+04  0.17263112867E+04  0.25500000920E-02 0.  1.
    10030    2    1    2    0    0  0.00000000000E+00  0.00000000000E+00 -0.79676577475E+03  0.26558567986E+04  0.25335231664E+04 0.  0.
        1    1    3    3  502    0  0.73512052469E+03 -0.90592407636E+03 -0.91575666448E+03  0.14831422341E+04  0.50400001928E-02 0. -1.
       -1    1    3    3    0  502 -0.73512052469E+03  0.90592407636E+03  0.11899088973E+03  0.11727145645E+04  0.50400001928E-02 0.  1.
</event>
<event>
 5   0  0.1954502E-05  0.2628710E+04  0.7818609E-02  0.8358514E-01
       -1   -1    0    0    0  501  0.00000000000E+00  0.00000000000E+00  0.11753419741E+04  0.11753419741E+04  0.50400001928E-02 0. -1.
        1   -1    0    0  501    0  0.00000000000E+00  0.00000000000E+00 -0.14698093643E+04  0.14698093643E+04  0.50400001928E-02 0.  1.
    10030    2    1    2    0    0  0.00000000000E+00  0.00000000000E+00 -0.29446739018E+03  0.26451513384E+04  0.26287096757E+04 0.  0.
        4    1    3    3  502    0 -0.53130826812E+03 -0.10708019046E+04  0.40264726058E+03  0.12613610205E+04  0.12699999809E+01 0. -1.
       -4    1    3    3    0  502  0.53130826812E+03  0.10708019046E+04 -0.69711465076E+03  0.13837903179E+04  0.12699999809E+01 0.  1.
</event>
<event>
 5   0  0.5036452E-05  0.2712542E+04  0.7818609E-02  0.8330947E-01
       -2   -1    0    0    0  501  0.00000000000E+00  0.00000000000E+00  0.95106471693E+03  0.95106471693E+03  0.25500000920E-02 0.  1.
        2   -1    0    0  501    0  0.00000000000E+00  0.00000000000E+00 -0.19341180462E+04  0.19341180462E+04  0.25500000920E-02 0. -1.
    10030    2    1    2    0    0  0.00000000000E+00  0.00000000000E+00 -0.98305332928E+03  0.28851827631E+04  0.27125422999E+04 0.  0.
        2    1    3    3  502    0 -0.87086497530E+03 -0.10073475136E+04 -0.76543672315E+03  0.15359193324E+04  0.25500000920E-02 0. -1.
       -2    1    3    3    0  502  0.87086497530E+03  0.10073475136E+04 -0.21761660613E+03  0.13492634308E+04  0.25500000920E-02 0.  1.
</event>
<event>
 5   0  0.5182179E-05  0.2632371E+04  0.7818609E-02  0.8357288E-01
       -2   -1    0    0    0  501  0.00000000000E+00  0.00000000000E+00  0.18617682686E+04  0.18617682686E+04  0.25500000920E-02 0.  1.
        2   -1    0    0  501    0  0.00000000000E+00  0.00000000000E+00 -0.93048335142E+03  0.93048335143E+03  0.25500000920E-02 0. -1.
    10030    2    1    2    0    0  0.00000000000E+00  0.00000000000E+00  0.93128491713E+03  0.27922516200E+04  0.26323710818E+04 0.  0.
        3    1    3    3  502    0 -0.96092318841E+03 -0.83694184568E+03  0.81504092160E+03  0.15126588317E+04  0.10100000352E+00 0.  1.
       -3    1    3    3    0  502  0.96092318841E+03  0.83694184568E+03  0.11624399553E+03  0.12795927883E+04  0.10100000352E+00 0. -1.
</event>
<event>
 5   0  0.2072710E-05  0.2143963E+04  0.7818609E-02  0.8542121E-01
       -1   -1    0    0    0  501  0.00000000000E+00  0.00000000000E+00  0.59421970857E+03  0.59421970859E+03  0.50400001928E-02 0. -1.
        1   -1    0    0  501    0  0.00000000000E+00  0.00000000000E+00 -0.19338706612E+04  0.19338706612E+04  0.50400001928E-02 0.  1.
    10030    2    1    2    0    0  0.00000000000E+00  0.00000000000E+00 -0.13396509526E+04  0.25280903698E+04  0.21439627429E+04 0.  0.
        2    1    3    3  502    0  0.10053715147E+04 -0.36508725783E+03 -0.75389829119E+03  0.13085958971E+04  0.25500000920E-02 0.  1.
       -2    1    3    3    0  502 -0.10053715147E+04  0.36508725783E+03 -0.58575266142E+03  0.12194944727E+04  0.25500000920E-02 0. -1.
</event>
<event>
 5   0  0.5170532E-05  0.2489257E+04  0.7818609E-02  0.8406823E-01
       -2   -1    0    0    0  501  0.00000000000E+00  0.00000000000E+00  0.56116299186E+03  0.56116299187E+03  0.25500000920E-02 0.  1.
        2   -1    0    0  501    0  0.00000000000E+00  0.00000000000E+00 -0.27605176827E+04  0.27605176827E+04  0.25500000920E-02 0. -1.
    10030    2    1    2    0    0  0.00000000000E+00  0.00000000000E+00 -0.21993546908E+04  0.33216806745E+04  0.24892572080E+04 0.  0.
        1    1    3    3  502    0  0.12300105208E+03 -0.33779761578E+02  0.55241799616E+03  0.56695323759E+03  0.50400001928E-02 0.  1.
       -1    1    3    3    0  502 -0.12300105208E+03  0.33779761578E+02 -0.27517726870E+04  0.27547274369E+04  0.50400001928E-02 0. -1.
</event>
<event>
 5   0  0.2163800E-05  0.1881129E+04  0.7818609E-02  0.8664307E-01
       -1   -1    0    0    0  501  0.00000000000E+00  0.00000000000E+00  0.48562189710E+03  0.48562189713E+03  0.50400001928E-02 0. -1.
        1   -1    0    0  501    0  0.00000000000E+00  0.00000000000E+00 -0.18217090260E+04  0.18217090260E+04  0.50400001928E-02 0.  1.
    10030    2    1    2    0    0  0.00000000000E+00  0.00000000000E+00 -0.13360871289E+04  0.23073309232E+04  0.18811292281E+04 0.  0.
        1    1    3    3  502    0 -0.24876518874E+03 -0.90157443161E+03 -0.54574789991E+03  0.10828487176E+04  0.50400001928E-02 0.  1.
       -1    1    3    3    0  502  0.24876518874E+03  0.90157443161E+03 -0.79033922902E+03  0.12244822056E+04  0.50400001928E-02 0. -1.
</event>
<event>
 5   0  0.5036452E-05  0.2593653E+04  0.7818609E-02  0.8370360E-01
       -2   -1    0    0    0  501  0.00000000000E+00  0.00000000000E+00  0.90113272184E+03  0.90113272184E+03  0.25500000920E-02 0.  1.
        2   -1    0    0  501    0  0.00000000000E+00  0.00000000000E+00 -0.18662728254E+04  0.18662728254E+04  0.25500000920E-02 0. -1.
    10030    2    1    2    0    0  0.00000000000E+00  0.00000000000E+00 -0.96514010355E+03  0.27674055472E+04  0.25936534162E+04 0.  0.
        2    1    3    3  502    0  0.83764404017E+03 -0.94853374039E+03 -0.78510623205E+03  0.14892130775E+04  0.25500000920E-02 0.  1.
       -2    1    3    3    0  502 -0.83764404017E+03  0.94853374039E+03 -0.18003387150E+03  0.12781924697E+04  0.25500000920E-02 0. -1.
</event>
<event>
 5   0  0.1993815E-05  0.1897329E+04  0.7818609E-02  0.8656187E-01
        1   -1    0    0  501    0  0.00000000000E+00  0.00000000000E+00  0.13672758353E+04  0.13672758353E+04  0.50400001928E-02 0.  1.
       -1   -1    0    0    0  501  0.00000000000E+00  0.00000000000E+00 -0.65821712991E+03  0.65821712993E+03  0.50400001928E-02 0. -1.
    10030    2    1    2    0    0  0.00000000000E+00  0.00000000000E+00  0.70905870539E+03  0.20254929652E+04  0.18973290449E+04 0.  0.
        5    1    3    3  502    0  0.18296916622E+03 -0.92269702303E+03  0.22336935741E+03  0.96683166680E+03  0.46999998093E+01 0. -1.
       -5    1    3    3    0  502 -0.18296916622E+03  0.92269702303E+03  0.48568934798E+03  0.10586612984E+04  0.46999998093E+01 0.  1.
</event>
<event>
 5   0  0.4955675E-05  0.2614042E+04  0.7818609E-02  0.8363447E-01
        2   -1    0    0  501    0  0.00000000000E+00  0.00000000000E+00  0.19553576302E+04  0.19553576302E+04  0.25500000920E-02 0.  1.
       -2   -1    0    0    0  501  0.00000000000E+00  0.00000000000E+00 -0.87365261548E+03  0.87365261549E+03  0.25500000920E-02 0. -1.
    10030    2    1    2    0    0  0.00000000000E+00  0.00000000000E+00  0.10817050147E+04  0.28290102457E+04  0.26140415512E+04 0.  0.
        5    1    3    3  502    0  0.37358199840E+03  0.68469405307E+03  0.16758658238E+04  0.18484906830E+04  0.46999998093E+01 0.  1.
       -5    1    3    3    0  502 -0.37358199840E+03 -0.68469405307E+03 -0.59416080904E+03  0.98051956270E+03  0.46999998093E+01 0. -1.
</event>
<event>
 5   0  0.1954502E-05  0.2603835E+04  0.7818609E-02  0.8366900E-01
       -1   -1    0    0    0  501  0.00000000000E+00  0.00000000000E+00  0.55267325067E+03  0.55267325069E+03  0.50400001928E-02 0.  1.
        1   -1    0    0  501    0  0.00000000000E+00  0.00000000000E+00 -0.30668926546E+04  0.30668926546E+04  0.50400001928E-02 0. -1.
    10030    2    1    2    0    0  0.00000000000E+00  0.00000000000E+00 -0.25142194040E+04  0.36195659053E+04  0.26038352735E+04 0.  0.
        4    1    3    3  502    0 -0.11076635040E+04  0.14788885782E+03 -0.21856632874E+04  0.24547739552E+04  0.12699999809E+01 0.  1.
       -4    1    3    3    0  502  0.11076635040E+04 -0.14788885782E+03 -0.32855611654E+03  0.11647919501E+04  0.12699999809E+01 0. -1.
</event>
<event>
 5   0  0.5049803E-05  0.2683914E+04  0.7818609E-02  0.8340243E-01
        2   -1    0    0  501    0  0.00000000000E+00  0.00000000000E+00  0.14716766981E+04  0.14716766981E+04  0.25500000920E-02 0.  1.
       -2   -1    0    0    0  501  0.00000000000E+00  0.00000000000E+00 -0.12236712681E+04  0.12236712681E+04  0.25500000920E-02 0. -1.
    10030    2    1    2    0    0  0.00000000000E+00  0.00000000000E+00  0.24800542997E+03  0.26953479662E+04  0.26839139267E+04 0.  0.
        4    1    3    3  502    0  0.58516656462E+03 -0.29094054217E+03  0.13010798979E+04  0.14559796774E+04  0.12699999809E+01 0.  1.
       -4    1    3    3    0  502 -0.58516656462E+03  0.29094054217E+03 -0.10530744679E+04  0.12393682888E+04  0.12699999809E+01 0. -1.
</event>
<event>
 5   0  0.2163800E-05  0.2622584E+04  0.7818609E-02  0.8360570E-01
        1   -1    0    0  501    0  0.00000000000E+00  0.00000000000E+00  0.11281318331E+04  0.11281318331E+04  0.50400001928E-02 0.  1.
       -1   -1    0    0    0  501  0.00000000000E+00  0.00000000000E+00 -0.15241895356E+04  0.15241895356E+04  0.50400001928E-02 0. -1.
    10030    2    1    2    0    0  0.00000000000E+00  0.00000000000E+00 -0.39605770257E+03  0.26523213687E+04  0.26225840195E+04 0.  0.
        1    1    3    3  502    0 -0.22908364695E+03 -0.50122155523E+03 -0.14013880730E+04  0.15058522158E+04  0.50400001928E-02 0. -1.
       -1    1    3    3    0  502  0.22908364695E+03  0.50122155523E+03  0.10053303704E+04  0.11464691529E+04  0.50400001928E-02 0.  1.
</event>
<event>
 5   0  0.5170532E-05  0.1697570E+04  0.7818609E-02  0.8762752E-01
        2   -1    0    0  501    0  0.00000000000E+00  0.00000000000E+00  0.10110951523E+04  0.10110951523E+04  0.25500000920E-02 0.  1.
       -2   -1    0    0    0  501  0.00000000000E+00  0.00000000000E+00 -0.71253004435E+03  0.71253004436E+03  0.25500000920E-02 0. -1.
    10030    2    1    2    0    0  0.00000000000E+00  0.00000000000E+00  0.29856510793E+03  0.17236251966E+04  0.16975696436E+04 0.  0.
        1    1    3    3  502    0 -0.56730659929E+03 -0.57024851150E+03 -0.12582923848E+03  0.81415793293E+03  0.50400001928E-02 0. -1.
       -1    1    3    3    0  502  0.56730659929E+03  0.57024851150E+03  0.42439434641E+03  0.90946726371E+03  0.50400001928E-02 0.  1.
</event>
<event>
 5   0  0.1954502E-05  0.2467157E+04  0.7818609E-02  0.8414780E-01
        1   -1    0    0  501    0  0.00000000000E+00  0.00000000000E+00  0.77579511878E+03  0.77579511880E+03  0.50400001928E-02 0. -1.
       -1   -1    0    0    0  501  0.00000000000E+00  0.00000000000E+00 -0.19614924126E+04  0.19614924126E+04  0.50400001928E-02 0.  1.
    10030    2    1    2    0    0  0.00000000000E+00  0.00000000000E+00 -0.11856972938E+04  0.27372875314E+04  0.24671572623E+04 0.  0.
        4    1    3    3  502    0  0.11357721528E+04  0.35889971216E+03 -0.23689885019E+03  0.12144587538E+04  0.12699999809E+01 0. -1.
       -4    1    3    3    0  502 -0.11357721528E+04 -0.35889971216E+03 -0.94879844363E+03  0.15228287776E+04  0.12699999809E+01 0.  1.
</event>
<event>
 5   0  0.5182179E-05  0.2438304E+04  0.7818609E-02  0.8425301E-01
       -2   -1    0    0    0  501  0.00000000000E+00  0.00000000000E+00  0.15089692647E+04  0.15089692647E+04  0.25500000920E-02 0. -1.
        2   -1    0    0  501    0  0.00000000000E+00  0.00000000000E+00 -0.98499769915E+03  0.98499769915E+03  0.25500000920E-02 0.  1.
    10030    2    1    2    0    0  0.00000000000E+00  0.00000000000E+00  0.52397156556E+03  0.24939669639E+04  0.24383037168E+04 0.  0.
        3    1    3    3  502    0 -0.88226716835E+03  0.40727081469E+03 -0.49107343376E+03  0.10887690299E+04  0.10100000352E+00 0.  1.
       -3    1    3    3    0  502  0.88226716835E+03 -0.40727081469E+03  0.10150449993E+04  0.14051979340E+04  0.10100000352E+00 0. -1.
</event>
<event>
 5   0  0.2159405E-05  0.2630977E+04  0.7818609E-02  0.8357755E-01
        1   -1    0    0  501    0  0.00000000000E+00  0.00000000000E+00  0.19418368027E+04  0.19418368027E+04  0.50400001928E-02 0. -1.
       -1   -1    0    0    0  501  0.00000000000E+00  0.00000000000E+00 -0.89117136561E+03  0.89117136562E+03  0.50400001928E-02 0.  1.
    10030    2    1    2    0    0  0.00000000000E+00  0.00000000000E+00  0.10506654371E+04  0.28330081683E+04  0.26309765147E+04 0.  0.
        3    1    3    3  502    0  0.80719668166E+03  0.15081350812E+03 -0.58130012680E+03  0.10060919663E+04  0.10100000352E+00 0.  1.
       -3    1    3    3    0  502 -0.80719668166E+03 -0.15081350812E+03  0.16319655639E+04  0.18269162020E+04  0.10100000352E+00 0. -1.
</event>
<event>
 5   0  0.5170532E-05  0.2655376E+04  0.7818609E-02  0.8349631E-01
        2   -1    0    0  501    0  0.00000000000E+00  0.00000000000E+00  0.11218938055E+04  0.11218938055E+04  0.25500000920E-02 0.  1.
       -2   -1    0    0    0  501  0.00000000000E+00  0.00000000000E+00 -0.15712323432E+04  0.15712323432E+04  0.25500000920E-02 0. -1.
    10030    2    1    2    0    0  0.00000000000E+00  0.00000000000E+00 -0.44933853764E+03  0.26931261487E+04  0.26553763069E+04 0.  0.
        1    1    3    3  502    0 -0.51935979995E+03  0.63967837800E+03  0.83120393042E+03  0.11703943793E+04  0.50400001928E-02 0.  1.
       -1    1    3    3    0  502  0.51935979995E+03 -0.63967837800E+03 -0.12805424681E+04  0.15227317694E+04  0.50400001928E-02 0. -1.
</event>
<event>
 5   0  0.1954502E-05  0.2514842E+04  0.7818609E-02  0.8397717E-01
        1   -1    0    0  501    0  0.00000000000E+00  0.00000000000E+00  0.14051392227E+04  0.14051392227E+04  0.50400001928E-02 0.  1.
       -1   -1    0    0    0  501  0.00000000000E+00  0.00000000000E+00 -0.11252321874E+04  0.11252321874E+04  0.50400001928E-02 0. -1.
    10030    2    1    2    0    0  0.00000000000E+00  0.00000000000E+00  0.27990703537E+03  0.25303714101E+04  0.25148422465E+04 0.  0.
        4    1    3    3  502    0  0.74176852104E+03 -0.76260667682E+02  0.11586628737E+04  0.13778742671E+04  0.12699999809E+01 0.  1.
       -4    1    3    3    0  502 -0.74176852104E+03  0.76260667682E+02 -0.87875583833E+03  0.11524971430E+04  0.12699999809E+01 0. -1.
</event>
<event>
 5   0  0.5182179E-05  0.2588627E+04  0.7818609E-02  0.8372075E-01
        2   -1    0    0  501    0  0.00000000000E+00  0.00000000000E+00  0.13083367357E+04  0.13083367357E+04  0.25500000920E-02 0. -1.
       -2   -1    0    0    0  501  0.00000000000E+00  0.00000000000E+00 -0.12804406900E+04  0.12804406900E+04  0.25500000920E-02 0.  1.
    10030    2    1    2    0    0  0.00000000000E+00  0.00000000000E+00  0.27896045701E+02  0.25887774257E+04  0.25886271208E+04 0.  0.
        3    1    3    3  502    0  0.19429767983E+03 -0.31348753401E+03  0.12546737422E+04  0.13077584761E+04  0.10100000352E+00 0. -1.
       -3    1    3    3    0  502 -0.19429767983E+03  0.31348753401E+03 -0.12267776965E+04  0.12810189496E+04  0.10100000352E+00 0.  1.
</event>
<event>
 5   0  0.1954502E-05  0.2634666E+04  0.7818609E-02  0.8356520E-01
        1   -1    0    0  501    0  0.00000000000E+00  0.00000000000E+00  0.24521105334E+04  0.24521105334E+04  0.50400001928E-02 0.  1.
       -1   -1    0    0    0  501  0.00000000000E+00  0.00000000000E+00 -0.70770328066E+03  0.70770328068E+03  0.50400001928E-02 0. -1.
    10030    2    1    2    0    0  0.00000000000E+00  0.00000000000E+00  0.17444072527E+04  0.31598138141E+04  0.26346663311E+04 0.  0.
        4    1    3    3  502    0  0.39690251435E+03 -0.85868807287E+03  0.19717199806E+04  0.21869060581E+04  0.12699999809E+01 0.  1.
       -4    1    3    3    0  502 -0.39690251435E+03  0.85868807287E+03 -0.22731272787E+03  0.97290775592E+03  0.12699999809E+01 0. -1.
</event>
<event>
 5   0  0.1698625E-05  0.2612576E+04  0.7818609E-02  0.8363942E-01
       -3   -1    0    0    0  501  0.00000000000E+00  0.00000000000E+00  0.13557884595E+04  0.13557884632E+04  0.10100000352E+00 0.  1.
        3   -1    0    0  501    0  0.00000000000E+00  0.00000000000E+00 -0.12585946087E+04  0.12585946128E+04  0.10100000352E+00 0. -1.
    10030    2    1    2    0    0  0.00000000000E+00  0.00000000000E+00  0.97193850739E+02  0.26143830760E+04  0.26125757833E+04 0.  0.
        3    1    3    3  502    0  0.76846389603E+03 -0.27068396059E+03  0.10703720595E+04  0.13451776544E+04  0.10100000352E+00 0.  1.
       -3    1    3    3    0  502 -0.76846389603E+03  0.27068396059E+03 -0.97317820876E+03  0.12692054216E+04  0.10100000352E+00 0. -1.
</event>
<event>
 5   0  0.1954502E-05  0.2639029E+04  0.7818609E-02  0.8355064E-01
       -1   -1    0    0    0  501  0.00000000000E+00  0.00000000000E+00  0.14479886938E+04  0.14479886938E+04  0.50400001928E-02 0.  1.
        1   -1    0    0  501    0  0.00000000000E+00  0.00000000000E+00 -0.12024391214E+04  0.12024391214E+04  0.50400001928E-02 0. -1.
    10030    2    1    2    0    0  0.00000000000E+00  0.00000000000E+00  0.24554957239E+03  0.26504278152E+04  0.26390288008E+04 0.  0.
        4    1    3    3  502    0 -0.10091260169E+04  0.77793107667E+03  0.46719127501E+03  0.13571224625E+04  0.12699999809E+01 0.  1.
       -4    1    3    3    0  502  0.10091260169E+04 -0.77793107667E+03 -0.22164170262E+03  0.12933053527E+04  0.12699999809E+01 0. -1.
</event>
<event>
 5   0  0.1993815E-05  0.2494103E+04  0.7818609E-02  0.8405089E-01
        1   -1    0    0  501    0  0.00000000000E+00  0.00000000000E+00  0.13448258405E+04  0.13448258405E+04  0.50400001928E-02 0.  1.
       -1   -1    0    0    0  501  0.00000000000E+00  0.00000000000E+00 -0.11563859727E+04  0.11563859727E+04  0.50400001928E-02 0. -1.
    10030    2    1    2    0    0  0.00000000000E+00  0.00000000000E+00  0.18843986778E+03  0.25012118133E+04  0.24941032358E+04 0.  0.
        5    1    3    3  502    0  0.58499819257E+02  0.46926227318E+03  0.12514092163E+04  0.13377878855E+04  0.46999998093E+01 0.  1.
       -5    1    3    3    0  502 -0.58499819257E+02 -0.46926227318E+03 -0.10629693485E+04  0.11634239278E+04  0.46999998093E+01 0. -1.
</event>
<event>
 5   0  0.5036452E-05  0.2565681E+04  0.7818609E-02  0.8379953E-01
       -2   -1    0    0    0  501  0.00000000000E+00  0.00000000000E+00  0.61839832813E+03  0.61839832814E+03  0.25500000920E-02 0. -1.
        2   -1    0    0  501    0  0.00000000000E+00  0.00000000000E+00 -0.26611966831E+04  0.26611966831E+04  0.25500000920E-02 0.  1.
    10030    2    1    2    0    0  0.00000000000E+00  0.00000000000E+00 -0.20427983550E+04  0.32795950113E+04  0.25656808685E+04 0.  0.
        2    1    3    3  502    0  0.17972187136E+03 -0.11466993336E+04 -0.32306894717E+03  0.12048206744E+04  0.25500000920E-02 0. -1.
       -2    1    3    3    0  502 -0.17972187136E+03  0.11466993336E+04 -0.17197294078E+04  0.20747743369E+04  0.25500000920E-02 0.  1.
</event>
<event>
 5   0  0.5049803E-05  0.2623104E+04  0.7818609E-02  0.8360395E-01
       -2   -1    0    0    0  501  0.00000000000E+00  0.00000000000E+00  0.11494216552E+04  0.11494216552E+04  0.25500000920E-02 0.  1.
        2   -1    0    0  501    0  0.00000000000E+00  0.00000000000E+00 -0.14965513098E+04  0.14965513098E+04  0.25500000920E-02 0. -1.
    10030    2    1    2    0    0  0.00000000000E+00  0.00000000000E+00 -0.34712965459E+03  0.26459729651E+04  0.26231038742E+04 0.  0.
        4    1    3    3  502    0  0.97505693515E+03 -0.56383842859E+03 -0.85137331170E+03  0.14119093204E+04  0.12699999809E+01 0. -1.
       -4    1    3    3    0  502 -0.97505693515E+03  0.56383842859E+03  0.50424365711E+03  0.12340636446E+04  0.12699999809E+01 0.  1.
</event>
<event>
 5   0  0.4955675E-05  0.2540303E+04  0.7818609E-02  0.8388766E-01
        2   -1    0    0  501    0  0.00000000000E+00  0.00000000000E+00  0.23280985917E+04  0.23280985917E+04  0.25500000920E-02 0.  1.
       -2   -1    0    0    0  501  0.00000000000E+00  0.00000000000E+00 -0.69296234741E+03  0.69296234741E+03  0.25500000920E-02 0. -1.
    10030    2    1    2    0    0  0.00000000000E+00  0.00000000000E+00  0.16351362443E+04  0.30210609391E+04  0.25403028678E+04 0.  0.
        5    1    3    3  502    0  0.31431183213E+03  0.11464211391E+04  0.28546681002E+03  0.12225329221E+04  0.46999998093E+01 0. -1.
       -5    1    3    3    0  502 -0.31431183213E+03 -0.11464211391E+04  0.13496694342E+04  0.17985280170E+04  0.46999998093E+01 0.  1.
</event>
<event>
 5   0  0.1698625E-05  0.1416948E+04  0.7818609E-02  0.8941641E-01
       -4   -1    0    0    0  501  0.00000000000E+00  0.00000000000E+00  0.71157505577E+03  0.71157618910E+03  0.12699999809E+01 0. -1.
        4   -1    0    0  501    0  0.00000000000E+00  0.00000000000E+00 -0.70538448077E+03  0.70538562405E+03  0.12699999809E+01 0.  1.
    10030    2    1    2    0    0  0.00000000000E+00  0.00000000000E+00  0.61905749975E+01  0.14169618132E+04  0.14169482901E+04 0.  0.
        5    1    3    3  502    0 -0.25692606734E+03 -0.27541225494E+03 -0.59695261265E+03  0.70585935284E+03  0.46999998093E+01 0.  1.
       -5    1    3    3    0  502  0.25692606734E+03  0.27541225494E+03  0.60314318765E+03  0.71110246031E+03  0.46999998093E+01 0. -1.
</event>
<event>
 5   0  0.1954502E-05  0.2769009E+04  0.7818609E-02  0.8312955E-01
       -1   -1    0    0    0  501  0.00000000000E+00  0.00000000000E+00  0.84441836554E+03  0.84441836555E+03  0.50400001928E-02 0. -1.
        1   -1    0    0  501    0  0.00000000000E+00  0.00000000000E+00 -0.22700273076E+04  0.22700273076E+04  0.50400001928E-02 0.  1.
    10030    2    1    2    0    0  0.00000000000E+00  0.00000000000E+00 -0.14256089421E+04  0.31144456732E+04  0.27690090277E+04 0.  0.
        4    1    3    3  502    0 -0.13147830237E+04 -0.23923825104E+03 -0.30577233517E+03  0.13709076096E+04  0.12699999809E+01 0. -1.
       -4    1    3    3    0  502  0.13147830237E+04  0.23923825104E+03 -0.11198366069E+04  0.17435380636E+04  0.12699999809E+01 0.  1.
</event>
<event>
 5   0  0.2163800E-05  0.2663041E+04  0.7818609E-02  0.8347097E-01
        1   -1    0    0  501    0  0.00000000000E+00  0.00000000000E+00  0.23955678766E+04  0.23955678766E+04  0.50400001928E-02 0.  1.
       -1   -1    0    0    0  501  0.00000000000E+00  0.00000000000E+00 -0.74009447636E+03  0.74009447638E+03  0.50400001928E-02 0. -1.
    10030    2    1    2    0    0  0.00000000000E+00  0.00000000000E+00  0.16554734002E+04  0.31356623530E+04  0.26630407832E+04 0.  0.
        1    1    3    3  502    0 -0.29912683506E+03 -0.12961410962E+04  0.75819640746E+03  0.15311173688E+04  0.50400001928E-02 0. -1.
       -1    1    3    3    0  502  0.29912683506E+03  0.12961410962E+04  0.89727699275E+03  0.16045449842E+04  0.50400001928E-02 0.  1.
</event>
<event>
 5   0  0.5182179E-05  0.2282295E+04  0.7818609E-02  0.8484935E-01
       -2   -1    0    0    0  501  0.00000000000E+00  0.00000000000E+00  0.14960401902E+04  0.14960401902E+04  0.25500000920E-02 0. -1.
        2   -1    0    0  501    0  0.00000000000E+00  0.00000000000E+00 -0.87044290975E+03  0.87044290975E+03  0.25500000920E-02 0.  1.
    10030    2    1    2    0    0  0.00000000000E+00  0.00000000000E+00  0.62559728046E+03  0.23664831000E+04  0.22822949645E+04 0.  0.
        3    1    3    3  502    0 -0.95584861976E+03 -0.58649818020E+03  0.53175350184E+03  0.12411238843E+04  0.10100000352E+00 0. -1.
       -3    1    3    3    0  502  0.95584861976E+03  0.58649818020E+03  0.93843778615E+02  0.11253592157E+04  0.10100000352E+00 0.  1.
</event>
<event>
 5   0  0.5170532E-05  0.2569725E+04  0.7818609E-02  0.8378558E-01
       -2   -1    0    0    0  501  0.00000000000E+00  0.00000000000E+00  0.15657125869E+04  0.15657125869E+04  0.25500000920E-02 0.  1.
        2   -1    0    0  501    0  0.00000000000E+00  0.00000000000E+00 -0.10543899231E+04  0.10543899231E+04  0.25500000920E-02 0. -1.
    10030    2    1    2    0    0  0.00000000000E+00  0.00000000000E+00  0.51132266388E+03  0.26201025100E+04  0.25697249457E+04 0.  0.
        1    1    3    3  502    0  0.12406021114E+04 -0.18013063380E+03 -0.31517824405E+02  0.12540071839E+04  0.50400001928E-02 0. -1.
       -1    1    3    3    0  502 -0.12406021114E+04  0.18013063380E+03  0.54284048829E+03  0.13660953261E+04  0.50400001928E-02 0.  1.
</event>
<event>
 5   0  0.4955675E-05  0.2488243E+04  0.7818609E-02  0.8407186E-01
       -2   -1    0    0    0  501  0.00000000000E+00  0.00000000000E+00  0.11292946613E+04  0.11292946614E+04  0.25500000920E-02 0. -1.
        2   -1    0    0  501    0  0.00000000000E+00  0.00000000000E+00 -0.13706242391E+04  0.13706242391E+04  0.25500000920E-02 0.  1.
    10030    2    1    2    0    0  0.00000000000E+00  0.00000000000E+00 -0.24132957774E+03  0.24999189004E+04  0.24882432646E+04 0.  0.
        5    1    3    3  502    0 -0.46509324198E+03 -0.99106005297E+03 -0.71445817457E+03  0.13072812725E+04  0.46999998093E+01 0. -1.
       -5    1    3    3    0  502  0.46509324198E+03  0.99106005297E+03  0.47312859684E+03  0.11926376279E+04  0.46999998093E+01 0.  1.
</event>
<event>
 5   0  0.1993815E-05  0.2575552E+04  0.7818609E-02  0.8376553E-01
        1   -1    0    0  501    0  0.00000000000E+00  0.00000000000E+00  0.74097164720E+03  0.74097164722E+03  0.50400001928E-02 0. -1.
       -1   -1    0    0    0  501  0.00000000000E+00  0.00000000000E+00 -0.22380970318E+04  0.22380970318E+04  0.50400001928E-02 0.  1.
    10030    2    1    2    0    0  0.00000000000E+00  0.00000000000E+00 -0.14971253845E+04  0.29790686790E+04  0.25755515481E+04 0.  0.
        5    1    3    3  502    0  0.96534345040E+02  0.30419658353E+03 -0.21916194878E+04  0.22147398291E+04  0.46999998093E+01 0.  1.
       -5    1    3    3    0  502 -0.96534345040E+02 -0.30419658353E+03  0.69449410330E+03  0.76432884985E+03  0.46999998093E+01 0. -1.
</event>
<event>
 5   0  0.5036452E-05  0.1377725E+04  0.7818609E-02  0.8970102E-01
        2   -1    0    0  501    0  0.00000000000E+00  0.00000000000E+00  0.47917648479E+03  0.47917648479E+03  0.25500000920E-02 0.  1.
       -2   -1    0    0    0  501  0.00000000000E+00  0.00000000000E+00 -0.99030577584E+03  0.99030577584E+03  0.25500000920E-02 0. -1.
    10030    2    1    2    0    0  0.00000000000E+00  0.00000000000E+00 -0.51112929105E+03  0.14694822606E+04  0.13777245596E+04 0.  0.
        2    1    3    3  502    0  0.34046369605E+01  0.69423415171E+02  0.47542671689E+03  0.48048076472E+03  0.25500000920E-02 0.  1.
       -2    1    3    3    0  502 -0.34046369605E+01 -0.69423415171E+02 -0.98655600794E+03  0.98900149592E+03  0.25500000920E-02 0. -1.
</event>
<event>
 5   0  0.2163800E-05  0.2701843E+04  0.7818609E-02  0.8334407E-01
        1   -1    0    0  501    0  0.00000000000E+00  0.00000000000E+00  0.13730862900E+04  0.13730862900E+04  0.50400001928E-02 0. -1.
       -1   -1    0    0    0  501  0.00000000000E+00  0.00000000000E+00 -0.13291144279E+04  0.13291144279E+04  0.50400001928E-02 0.  1.
    10030    2    1    2    0    0  0.00000000000E+00  0.00000000000E+00  0.43971862126E+02  0.27022007179E+04  0.27018429257E+04 0.  0.
        1    1    3    3  502    0 -0.29915388881E+03 -0.89263089354E+03  0.99098256194E+03  0.13668684646E+04  0.50400001928E-02 0.  1.
       -1    1    3    3    0  502  0.29915388881E+03  0.89263089354E+03 -0.94701069982E+03  0.13353322534E+04  0.50400001928E-02 0. -1.
</event>
<event>
 5   0  0.5182179E-05  0.2653251E+04  0.7818609E-02  0.8350335E-01
        2   -1    0    0  501    0  0.00000000000E+00  0.00000000000E+00  0.19318187627E+04  0.19318187627E+04  0.25500000920E-02 0.  1.
       -2   -1    0    0    0  501  0.00000000000E+00  0.00000000000E+00 -0.91102490741E+03  0.91102490741E+03  0.25500000920E-02 0. -1.
    10030    2    1    2    0    0  0.00000000000E+00  0.00000000000E+00  0.10207938553E+04  0.28428436701E+04  0.26532508433E+04 0.  0.
        3    1    3    3  502    0 -0.14825013483E+03 -0.28593220834E+03 -0.86849749196E+03  0.92629543559E+03  0.10100000352E+00 0. -1.
       -3    1    3    3    0  502  0.14825013483E+03  0.28593220834E+03  0.18892913473E+04  0.19165482345E+04  0.10100000352E+00 0.  1.
</event>
<event>
 5   0  0.5036452E-05  0.2576118E+04  0.7818609E-02  0.8376359E-01
        2   -1    0    0  501    0  0.00000000000E+00  0.00000000000E+00  0.58592092020E+03  0.58592092020E+03  0.25500000920E-02 0. -1.
       -2   -1    0    0    0  501  0.00000000000E+00  0.00000000000E+00 -0.28316044522E+04  0.28316044522E+04  0.25500000920E-02 0.  1.
    10030    2    1    2    0    0  0.00000000000E+00  0.00000000000E+00 -0.22456835320E+04  0.34175253724E+04  0.25761182320E+04 0.  0.
        2    1    3    3  502    0 -0.56607869555E+03 -0.36839459385E+03 -0.25778562925E+04  0.26648644865E+04  0.25500000920E-02 0.  1.
       -2    1    3    3    0  502  0.56607869555E+03  0.36839459385E+03  0.33217276054E+03  0.75266088591E+03  0.25500000920E-02 0. -1.
</event>
<event>
 5   0  0.2159405E-05  0.1848587E+04  0.7818609E-02  0.8680880E-01
        1   -1    0    0  501    0  0.00000000000E+00  0.00000000000E+00  0.15992689123E+04  0.15992689123E+04  0.50400001928E-02 0.  1.
       -1   -1    0    0    0  501  0.00000000000E+00  0.00000000000E+00 -0.53419329492E+03  0.53419329494E+03  0.50400001928E-02 0. -1.
    10030    2    1    2    0    0  0.00000000000E+00  0.00000000000E+00  0.10650756173E+04  0.21334622072E+04  0.18485872765E+04 0.  0.
        3    1    3    3  502    0  0.73952314872E+03  0.52055526828E+03  0.75286727348E+03  0.11767248687E+04  0.10100000352E+00 0.  1.
       -3    1    3    3    0  502 -0.73952314872E+03 -0.52055526828E+03  0.31220834387E+03  0.95673733857E+03  0.10100000352E+00 0. -1.
</event>
<event>
 5   0  0.4955675E-05  0.2529292E+04  0.7818609E-02  0.8392624E-01
       -2   -1    0    0    0  501  0.00000000000E+00  0.00000000000E+00  0.13939829277E+04  0.13939829277E+04  0.25500000920E-02 0. -1.
        2   -1    0    0  501    0  0.00000000000E+00  0.00000000000E+00 -0.11473088445E+04  0.11473088445E+04  0.25500000920E-02 0.  1.
    10030    2    1    2    0    0  0.00000000000E+00  0.00000000000E+00  0.24667408316E+03  0.25412917723E+04  0.25292915546E+04 0.  0.
        5    1    3    3  502    0 -0.40625654881E+03 -0.10356258238E+04  0.72764021803E+03  0.13293034294E+04  0.46999998093E+01 0. -1.
       -5    1    3    3    0  502  0.40625654881E+03  0.10356258238E+04 -0.48096613488E+03  0.12119883429E+04  0.46999998093E+01 0.  1.
</event>
<event>
 5   0  0.5036452E-05  0.2562566E+04  0.7818609E-02  0.8381029E-01
        2   -1    0    0  501    0  0.00000000000E+00  0.00000000000E+00  0.13916533083E+04  0.13916533083E+04  0.25500000920E-02 0. -1.
       -2   -1    0    0    0  501  0.00000000000E+00  0.00000000000E+00 -0.11796656401E+04  0.11796656401E+04  0.25500000920E-02 0.  1.
    10030    2    1    2    0    0  0.00000000000E+00  0.00000000000E+00  0.21198766819E+03  0.25713189485E+04  0.25625655823E+04 0.  0.
        2    1    3    3  502    0  0.14949796718E+03 -0.12231520963E+04  0.45824125050E+03  0.13146998655E+04  0.25500000920E-02 0. -1.
       -2    1    3    3    0  502 -0.14949796718E+03  0.12231520963E+04 -0.24625358231E+03  0.12566190829E+04  0.25500000920E-02 0.  1.
</event>
<event>
 5   0  0.1698625E-05  0.2672488E+04  0.7818609E-02  0.8343987E-01
       -4   -1    0    0    0  501  0.00000000000E+00  0.00000000000E+00  0.12947132994E+04  0.12947139222E+04  0.12699999809E+01 0. -1.
        4   -1    0    0  501    0  0.00000000000E+00  0.00000000000E+00 -0.13791054770E+04  0.13791060618E+04  0.12699999809E+01 0.  1.
    10030    2    1    2    0    0  0.00000000000E+00  0.00000000000E+00 -0.84392177647E+02  0.26738199840E+04  0.26724878423E+04 0.  0.
        1    1    3    3  502    0 -0.48745448743E+03  0.10392371971E+04  0.64219312013E+03  0.13153090256E+04  0.50400001928E-02 0. -1.
       -1    1    3    3    0  502  0.48745448743E+03 -0.10392371971E+04 -0.72658529777E+03  0.13585109584E+04  0.50400001928E-02 0.  1.
</event>
<event>
 5   0  0.2163800E-05  0.2590860E+04  0.7818609E-02  0.8371313E-01
       -1   -1    0    0    0  501  0.00000000000E+00  0.00000000000E+00  0.72658901383E+03  0.72658901385E+03  0.50400001928E-02 0.  1.
        1   -1    0    0  501    0  0.00000000000E+00  0.00000000000E+00 -0.23096119531E+04  0.23096119531E+04  0.50400001928E-02 0. -1.
    10030    2    1    2    0    0  0.00000000000E+00  0.00000000000E+00 -0.15830229392E+04  0.30362009669E+04  0.25908598351E+04 0.  0.
        1    1    3    3  502    0 -0.79000952505E+03 -0.71848694339E+03  0.67891893371E+02  0.10700223580E+04  0.50400001928E-02 0.  1.
       -1    1    3    3    0  502  0.79000952505E+03  0.71848694339E+03 -0.16509148326E+04  0.19661786089E+04  0.50400001928E-02 0. -1.
</event>
<event>
 5   0  0.5049803E-05  0.2549798E+04  0.7818609E-02  0.8385456E-01
       -2   -1    0    0    0  501  0.00000000000E+00  0.00000000000E+00  0.92725792619E+03  0.92725792619E+03  0.25500000920E-02 0.  1.
        2   -1    0    0  501    0  0.00000000000E+00  0.00000000000E+00 -0.17528750684E+04  0.17528750684E+04  0.25500000920E-02 0. -1.
    10030    2    1    2    0    0  0.00000000000E+00  0.00000000000E+00 -0.82561714222E+03  0.26801329946E+04  0.25497978750E+04 0.  0.
        4    1    3    3  502    0 -0.13604848343E+03 -0.11467019917E+04  0.15511609054E+03  0.11651168448E+04  0.12699999809E+01 0.  1.
       -4    1    3    3    0  502  0.13604848343E+03  0.11467019917E+04 -0.98073323275E+03  0.15150161498E+04  0.12699999809E+01 0. -1.
</event>
<event>
 5   0  0.5182179E-05  0.2662410E+04  0.7818609E-02  0.8347306E-01
       -2   -1    0    0    0  501  0.00000000000E+00  0.00000000000E+00  0.18281570921E+04  0.18281570921E+04  0.25500000920E-02 0.  1.
        2   -1    0    0  501    0  0.00000000000E+00  0.00000000000E+00 -0.96934068562E+03  0.96934068562E+03  0.25500000920E-02 0. -1.
    10030    2    1    2    0    0  0.00000000000E+00  0.00000000000E+00  0.85881640649E+03  0.27974977777E+04  0.26624102231E+04 0.  0.
        3    1    3    3  502    0  0.10944319765E+04 -0.17770220419E+03 -0.34468586501E+03  0.11611062744E+04  0.10100000352E+00 0. -1.
       -3    1    3    3    0  502 -0.10944319765E+04  0.17770220419E+03  0.12035022715E+04  0.16363915034E+04  0.10100000352E+00 0.  1.
</event>
<event>
 5   0  0.1698625E-05  0.1692028E+04  0.7818609E-02  0.8765924E-01
        4   -1    0    0  501    0  0.00000000000E+00  0.00000000000E+00  0.12357835920E+04  0.12357842446E+04  0.12699999809E+01 0.  1.
       -4   -1    0    0    0  501  0.00000000000E+00  0.00000000000E+00 -0.57917740935E+03  0.57917880175E+03  0.12699999809E+01 0. -1.
    10030    2    1    2    0    0  0.00000000000E+00  0.00000000000E+00  0.65660618264E+03  0.18149630463E+04  0.16920281264E+04 0.  0.
        5    1    3    3  502    0 -0.44551724468E+03 -0.71553934933E+03  0.40591717041E+03  0.93556026796E+03  0.46999998093E+01 0.  1.
       -5    1    3    3    0  502  0.44551724468E+03  0.71553934933E+03  0.25068901222E+03  0.87940277836E+03  0.46999998093E+01 0. -1.
</event>
<event>
 5   0  0.5182179E-05  0.2787010E+04  0.7818609E-02  0.8307313E-01
        2   -1    0    0  501    0  0.00000000000E+00  0.00000000000E+00  0.21663063755E+04  0.21663063755E+04  0.25500000920E-02 0.  1.
       -2   -1    0    0    0  501  0.00000000000E+00  0.00000000000E+00 -0.89639056804E+03  0.89639056805E+03  0.25500000920E-02 0. -1.
    10030    2    1    2    0    0  0.00000000000E+00  0.00000000000E+00  0.12699158074E+04  0.30626969435E+04  0.27870102996E+04 0.  0.
        3    1    3    3  502    0  0.81376136254E+02  0.10974817249E+03  0.21589283015E+04  0.21632471329E+04  0.10100000352E+00 0.  1.
       -3    1    3    3    0  502 -0.81376136254E+02 -0.10974817249E+03 -0.88901249408E+03  0.89944981058E+03  0.10100000352E+00 0. -1.
</event>
<event>
 5   0  0.2159405E-05  0.2223591E+04  0.7818609E-02  0.8508673E-01
        1   -1    0    0  501    0  0.00000000000E+00  0.00000000000E+00  0.24798442639E+04  0.24798442639E+04  0.50400001928E-02 0. -1.
       -1   -1    0    0    0  501  0.00000000000E+00  0.00000000000E+00 -0.49845429541E+03  0.49845429544E+03  0.50400001928E-02 0.  1.
    10030    2    1    2    0    0  0.00000000000E+00  0.00000000000E+00  0.19813899685E+04  0.29782985593E+04  0.22235908125E+04 0.  0.
        3    1    3    3  502    0  0.55580107435E+03  0.95947910114E+03  0.10992948724E+04  0.15613981575E+04  0.10100000352E+00 0. -1.
       -3    1    3    3    0  502 -0.55580107435E+03 -0.95947910114E+03  0.88209509610E+03  0.14169004018E+04  0.10100000352E+00 0.  1.
</event>
<event>
 5   0  0.2159405E-05  0.2232955E+04  0.7818609E-02  0.8504835E-01
       -1   -1    0    0    0  501  0.00000000000E+00  0.00000000000E+00  0.75984578606E+03  0.75984578608E+03  0.50400001928E-02 0.  1.
        1   -1    0    0  501    0  0.00000000000E+00  0.00000000000E+00 -0.16404935177E+04  0.16404935177E+04  0.50400001928E-02 0. -1.
    10030    2    1    2    0    0  0.00000000000E+00  0.00000000000E+00 -0.88064773166E+03  0.24003393038E+04  0.22329550703E+04 0.  0.
        3    1    3    3  502    0  0.14696078919E+03  0.25735902888E+03  0.71679095450E+03  0.77564194443E+03  0.10100000352E+00 0.  1.
       -3    1    3    3    0  502 -0.14696078919E+03 -0.25735902888E+03 -0.15974386862E+04  0.16246973594E+04  0.10100000352E+00 0. -1.
</event>
<event>
 5   0  0.5049803E-05  0.2573097E+04  0.7818609E-02  0.8377397E-01
        2   -1    0    0  501    0  0.00000000000E+00  0.00000000000E+00  0.17296492741E+04  0.17296492741E+04  0.25500000920E-02 0.  1.
       -2   -1    0    0    0  501  0.00000000000E+00  0.00000000000E+00 -0.95696099961E+03  0.95696099962E+03  0.25500000920E-02 0. -1.
    10030    2    1    2    0    0  0.00000000000E+00  0.00000000000E+00  0.77268827450E+03  0.26866102737E+04  0.25730968877E+04 0.  0.
        4    1    3    3  502    0 -0.82026501913E+03  0.86814416373E+03 -0.11297486722E+03  0.11996974302E+04  0.12699999809E+01 0. -1.
       -4    1    3    3    0  502  0.82026501913E+03 -0.86814416373E+03  0.88566314172E+03  0.14869128435E+04  0.12699999809E+01 0.  1.
</event>
<event>
 5   0  0.1993815E-05  0.2522716E+04  0.7818609E-02  0.8394937E-01
       -1   -1    0    0    0  501  0.00000000000E+00  0.00000000000E+00  0.10522556679E+04  0.10522556679E+04  0.50400001928E-02 0. -1.
        1   -1    0    0  501    0  0.00000000000E+00  0.00000000000E+00 -0.15120124674E+04  0.15120124674E+04  0.50400001928E-02 0.  1.
    10030    2    1    2    0    0  0.00000000000E+00  0.00000000000E+00 -0.45975679950E+03  0.25642681352E+04  0.25227157499E+04 0.  0.
        5    1    3    3  502    0 -0.17124080234E+03 -0.12382645612E+04 -0.40111403217E+03  0.13128355162E+04  0.46999998093E+01 0.  1.
       -5    1    3    3    0  502  0.17124080234E+03  0.12382645612E+04 -0.58642767330E+02  0.12514326190E+04  0.46999998093E+01 0. -1.
</event>
<event>
 5   0  0.1993815E-05  0.2550436E+04  0.7818609E-02  0.8385235E-01
       -1   -1    0    0    0  501  0.00000000000E+00  0.00000000000E+00  0.14111511099E+04  0.14111511099E+04  0.50400001928E-02 0.  1.
        1   -1    0    0  501    0  0.00000000000E+00  0.00000000000E+00 -0.11523787552E+04  0.11523787552E+04  0.50400001928E-02 0. -1.
    10030    2    1    2    0    0  0.00000000000E+00  0.00000000000E+00  0.25877235465E+03  0.25635298651E+04  0.25504356957E+04 0.  0.
        5    1    3    3  502    0  0.16254246121E+03 -0.50591278170E+03 -0.10357852194E+04  0.11641481457E+04  0.46999998093E+01 0. -1.
       -5    1    3    3    0  502 -0.16254246121E+03  0.50591278170E+03  0.12945575740E+04  0.13993817195E+04  0.46999998093E+01 0.  1.
</event>
<event>
 5   0  0.1698625E-05  0.2123690E+04  0.7818609E-02  0.8550879E-01
       -3   -1    0    0    0  501  0.00000000000E+00  0.00000000000E+00  0.92953983401E+03  0.92953983949E+03  0.10100000352E+00 0.  1.
        3   -1    0    0  501    0  0.00000000000E+00  0.00000000000E+00 -0.12129819900E+04  0.12129819942E+04  0.10100000352E+00 0. -1.
    10030    2    1    2    0    0  0.00000000000E+00  0.00000000000E+00 -0.28344215599E+03  0.21425218337E+04  0.21236902674E+04 0.  0.
        5    1    3    3  502    0 -0.60504580794E+02  0.96296031366E+03  0.30553797974E+03  0.10120913580E+04  0.46999998093E+01 0.  1.
       -5    1    3    3    0  502  0.60504580794E+02 -0.96296031366E+03 -0.58898013573E+03  0.11304304756E+04  0.46999998093E+01 0. -1.
</event>
<event>
 5   0  0.2159405E-05  0.1378072E+04  0.7818609E-02  0.8969846E-01
       -1   -1    0    0    0  501  0.00000000000E+00  0.00000000000E+00  0.32859268374E+03  0.32859268378E+03  0.50400001928E-02 0.  1.
        1   -1    0    0  501    0  0.00000000000E+00  0.00000000000E+00 -0.14448602000E+04  0.14448602000E+04  0.50400001928E-02 0. -1.
    10030    2    1    2    0    0  0.00000000000E+00  0.00000000000E+00 -0.11162675162E+04  0.17734528838E+04  0.13780718280E+04 0.  0.
        3    1    3    3  502    0  0.40860318130E+02 -0.67637543889E+03 -0.39731040336E+03  0.78549911951E+03  0.10100000352E+00 0.  1.
       -3    1    3    3    0  502 -0.40860318130E+02  0.67637543889E+03 -0.71895711289E+03  0.98795376426E+03  0.10100000352E+00 0. -1.
</event>
<event>
 5   0  0.5170532E-05  0.2491112E+04  0.7818609E-02  0.8406159E-01
       -2   -1    0    0    0  501  0.00000000000E+00  0.00000000000E+00  0.18188696681E+04  0.18188696681E+04  0.25500000920E-02 0. -1.
        2   -1    0    0  501    0  0.00000000000E+00  0.00000000000E+00 -0.85295271763E+03  0.85295271764E+03  0.25500000920E-02 0.  1.
    10030    2    1    2    0    0  0.00000000000E+00  0.00000000000E+00  0.96591695051E+03  0.26718223858E+04  0.24911120621E+04 0.  0.
        1    1    3    3  502    0 -0.55392238573E+03  0.58636904579E+03  0.15008857109E+04  0.17039121411E+04  0.50400001928E-02 0. -1.
       -1    1    3    3    0  502  0.55392238573E+03 -0.58636904579E+03 -0.53496876037E+03  0.96791024473E+03  0.50400001928E-02 0.  1.
</event>
<event>
 5   0  0.2072710E-05  0.2529846E+04  0.7818609E-02  0.8392429E-01
        1   -1    0    0  501    0  0.00000000000E+00  0.00000000000E+00  0.15310739564E+04  0.15310739564E+04  0.50400001928E-02 0.  1.
       -1   -1    0    0    0  501  0.00000000000E+00  0.00000000000E+00 -0.10450374745E+04  0.10450374745E+04  0.50400001928E-02 0. -1.
    10030    2    1    2    0    0  0.00000000000E+00  0.00000000000E+00  0.48603648194E+03  0.25761114309E+04  0.25298455769E+04 0.  0.
        2    1    3    3  502    0 -0.72469403877E+03  0.10111364189E+04  0.47622921402E+03  0.13320557690E+04  0.25500000920E-02 0.  1.
       -2    1    3    3    0  502  0.72469403877E+03 -0.10111364189E+04  0.98072679220E+01  0.12440556619E+04  0.25500000920E-02 0. -1.
</event>
<event>
 5   0  0.2159405E-05  0.2577650E+04  0.7818609E-02  0.8375833E-01
       -1   -1    0    0    0  501  0.00000000000E+00  0.00000000000E+00  0.11311769777E+04  0.11311769777E+04  0.50400001928E-02 0. -1.
        1   -1    0    0  501    0  0.00000000000E+00  0.00000000000E+00 -0.14684433657E+04  0.14684433657E+04  0.50400001928E-02 0.  1.
    10030    2    1    2    0    0  0.00000000000E+00  0.00000000000E+00 -0.33726638797E+03  0.25996203434E+04  0.25776495715E+04 0.  0.
        3    1    3    3  502    0 -0.90737408470E+02 -0.73903557687E+03  0.89231368650E+03  0.11621663334E+04  0.10100000352E+00 0. -1.
       -3    1    3    3    0  502  0.90737408470E+02  0.73903557687E+03 -0.12295800745E+04  0.14374540100E+04  0.10100000352E+00 0.  1.
</event>
<event>
 5   0  0.2072710E-05  0.2465476E+04  0.7818609E-02  0.8415389E-01
       -1   -1    0    0    0  501  0.00000000000E+00  0.00000000000E+00  0.15631894443E+04  0.15631894443E+04  0.50400001928E-02 0.  1.
        1   -1    0    0  501    0  0.00000000000E+00  0.00000000000E+00 -0.97214229710E+03  0.97214229711E+03  0.50400001928E-02 0. -1.
    10030    2    1    2    0    0  0.00000000000E+00  0.00000000000E+00  0.59104714723E+03  0.25353317415E+04  0.24654756760E+04 0.  0.
        2    1    3    3  502    0 -0.87264283245E+03 -0.55029058345E+03 -0.39836728406E+03  0.11059031297E+04  0.25500000920E-02 0. -1.
       -2    1    3    3    0  502  0.87264283245E+03  0.55029058345E+03  0.98941443128E+03  0.14294286118E+04  0.25500000920E-02 0.  1.
</event>
<event>
 5   0  0.2159405E-05  0.2607573E+04  0.7818609E-02  0.8365634E-01
        1   -1    0    0  501    0  0.00000000000E+00  0.00000000000E+00  0.17385445739E+04  0.17385445739E+04  0.50400001928E-02 0. -1.
       -1   -1    0    0    0  501  0.00000000000E+00  0.00000000000E+00 -0.97774812481E+03  0.97774812482E+03  0.50400001928E-02 0.  1.
    10030    2    1    2    0    0  0.00000000000E+00  0.00000000000E+00  0.76079644908E+03  0.27162926987E+04  0.26075725854E+04 0.  0.
        3    1    3    3  502    0 -0.12351844739E+04  0.37273665896E+03  0.57596329616E+03  0.14129214523E+04  0.10100000352E+00 0. -1.
       -3    1    3    3    0  502  0.12351844739E+04 -0.37273665896E+03  0.18483315292E+03  0.13033712465E+04  0.10100000352E+00 0.  1.
</event>
<event>
 5   0  0.4955675E-05  0.1594060E+04  0.7818609E-02  0.8824206E-01
        2   -1    0    0  501    0  0.00000000000E+00  0.00000000000E+00  0.12201628065E+04  0.12201628065E+04  0.25500000920E-02 0. -1.
       -2   -1    0    0    0  501  0.00000000000E+00  0.00000000000E+00 -0.52063260992E+03  0.52063260993E+03  0.25500000920E-02 0.  1.
    10030    2    1    2    0    0  0.00000000000E+00  0.00000000000E+00  0.69953019655E+03  0.17407954164E+04  0.15940596557E+04 0.  0.
        5    1    3    3  502    0 -0.27710318029E+03 -0.52729004458E+03  0.92805101750E+03  0.11027791006E+04  0.46999998093E+01 0. -1.
       -5    1    3    3    0  502  0.27710318029E+03  0.52729004458E+03 -0.22852082095E+03  0.63801631581E+03  0.46999998093E+01 0.  1.
</event>
<event>
 5   0  0.5170532E-05  0.2608401E+04  0.7818609E-02  0.8365353E-01
       -2   -1    0    0    0  501  0.00000000000E+00  0.00000000000E+00  0.13349663865E+04  0.13349663865E+04  0.25500000920E-02 0. -1.
        2   -1    0    0  501    0  0.00000000000E+00  0.00000000000E+00 -0.12741433124E+04  0.12741433124E+04  0.25500000920E-02 0.  1.
    10030    2    1    2    0    0  0.00000000000E+00  0.00000000000E+00  0.60823074154E+02  0.26091096989E+04  0.26084006545E+04 0.  0.
        1    1    3    3  502    0  0.84027745647E+03  0.52796810049E+03 -0.81605840092E+03  0.12848221016E+04  0.50400001928E-02 0.  1.
       -1    1    3    3    0  502 -0.84027745647E+03 -0.52796810049E+03  0.87688147508E+03  0.13242875973E+04  0.50400001928E-02 0. -1.
</event>
<event>
 5   0  0.2163800E-05  0.2575844E+04  0.7818609E-02  0.8376453E-01
        1   -1    0    0  501    0  0.00000000000E+00  0.00000000000E+00  0.21010781073E+04  0.21010781073E+04  0.50400001928E-02 0. -1.
       -1   -1    0    0    0  501  0.00000000000E+00  0.00000000000E+00 -0.78947239129E+03  0.78947239130E+03  0.50400001928E-02 0.  1.
    10030    2    1    2    0    0  0.00000000000E+00  0.00000000000E+00  0.13116057160E+04  0.28905504986E+04  0.25758440618E+04 0.  0.
        1    1    3    3  502    0  0.32441927596E+03 -0.16175789506E+03 -0.73104042689E+03  0.81598626765E+03  0.50400001928E-02 0.  1.
       -1    1    3    3    0  502 -0.32441927596E+03  0.16175789506E+03  0.20426461429E+04  0.20745642309E+04  0.50400001928E-02 0. -1.
</event>
<event>
 5   0  0.5036452E-05  0.2554990E+04  0.7818609E-02  0.8383653E-01
       -2   -1    0    0    0  501  0.00000000000E+00  0.00000000000E+00  0.81573140553E+03  0.81573140553E+03  0.25500000920E-02 0.  1.
        2   -1    0    0  501    0  0.00000000000E+00  0.00000000000E+00 -0.20006503377E+04  0.20006503377E+04  0.25500000920E-02 0. -1.
    10030    2    1    2    0    0  0.00000000000E+00  0.00000000000E+00 -0.11849189322E+04  0.28163817432E+04  0.25549898723E+04 0.  0.
        2    1    3    3  502    0 -0.12368433100E+04 -0.85693139231E+02 -0.93197811868E+03  0.15510344617E+04  0.25500000920E-02 0. -1.
       -2    1    3    3    0  502  0.12368433100E+04  0.85693139231E+02 -0.25294081349E+03  0.12653472815E+04  0.25500000920E-02 0.  1.
</event>
<event>
 5   0  0.4955675E-05  0.2602978E+04  0.7818609E-02  0.8367190E-01
       -2   -1    0    0    0  501  0.00000000000E+00  0.00000000000E+00  0.11426980722E+04  0.11426980722E+04  0.25500000920E-02 0.  1.
        2   -1    0    0  501    0  0.00000000000E+00  0.00000000000E+00 -0.14823458669E+04  0.14823458669E+04  0.25500000920E-02 0. -1.
    10030    2    1    2    0    0  0.00000000000E+00  0.00000000000E+00 -0.33964779475E+03  0.26250439391E+04  0.26029781132E+04 0.  0.
        5    1    3    3  502    0  0.22244152998E+03 -0.67253056734E+02 -0.14612451221E+04  0.14796156949E+04  0.46999998093E+01 0. -1.
       -5    1    3    3    0  502 -0.22244152998E+03  0.67253056734E+02  0.11215973273E+04  0.11454282442E+04  0.46999998093E+01 0.  1.
</event>
<event>
 5   0  0.2072710E-05  0.1510837E+04  0.7818609E-02  0.8877279E-01
        1   -1    0    0  501    0  0.00000000000E+00  0.00000000000E+00  0.78838036516E+03  0.78838036517E+03  0.50400001928E-02 0.  1.
       -1   -1    0    0    0  501  0.00000000000E+00  0.00000000000E+00 -0.72383441434E+03  0.72383441435E+03  0.50400001928E-02 0. -1.
    10030    2    1    2    0    0  0.00000000000E+00  0.00000000000E+00  0.64545950821E+02  0.15122147795E+04  0.15108366423E+04 0.  0.
        2    1    3    3  502    0 -0.57819596906E+03 -0.56860901755E+02 -0.45098530939E+03  0.73548044847E+03  0.25500000920E-02 0. -1.
       -2    1    3    3    0  502  0.57819596906E+03  0.56860901755E+02  0.51553126021E+03  0.77673433106E+03  0.25500000920E-02 0.  1.
</event>
<event>
 5   0  0.5036452E-05  0.2524934E+04  0.7818609E-02  0.8394156E-01
       -2   -1    0    0    0  501  0.00000000000E+00  0.00000000000E+00  0.12660648379E+04  0.12660648379E+04  0.25500000920E-02 0. -1.
        2   -1    0    0  501    0  0.00000000000E+00  0.00000000000E+00 -0.12588798686E+04  0.12588798686E+04  0.25500000920E-02 0.  1.
    10030    2    1    2    0    0  0.00000000000E+00  0.00000000000E+00  0.71849692914E+01  0.25249447065E+04  0.25249344837E+04 0.  0.
        2    1    3    3  502    0  0.39672419707E+03 -0.29345293873E+03 -0.11584444146E+04  0.12591656672E+04  0.25500000920E-02 0.  1.
       -2    1    3    3    0  502 -0.39672419707E+03  0.29345293873E+03  0.11656293839E+04  0.12657790393E+04  0.25500000920E-02 0. -1.
</event>
<event>
 5   0  0.5182179E-05  0.2650382E+04  0.7818609E-02  0.8351286E-01
       -2   -1    0    0    0  501  0.00000000000E+00  0.00000000000E+00  0.10695829809E+04  0.10695829809E+04  0.25500000920E-02 0.  1.
        2   -1    0    0  501    0  0.00000000000E+00  0.00000000000E+00 -0.16418843887E+04  0.16418843887E+04  0.25500000920E-02 0. -1.
    10030    2    1    2    0    0  0.00000000000E+00  0.00000000000E+00 -0.57230140778E+03  0.27114673696E+04  0.26503823111E+04 0.  0.
        3    1    3    3  502    0  0.82921093542E+03 -0.89406237644E+03  0.24464569195E+03  0.12437000576E+04  0.10100000352E+00 0.  1.
       -3    1    3    3    0  502 -0.82921093542E+03  0.89406237644E+03 -0.81694709973E+03  0.14677673121E+04  0.10100000352E+00 0. -1.
</event>
<event>
 5   0  0.1698625E-05  0.2606515E+04  0.7818609E-02  0.8365992E-01
       -3   -1    0    0    0  501  0.00000000000E+00  0.00000000000E+00  0.15540130210E+04  0.15540130242E+04  0.10100000352E+00 0.  1.
        3   -1    0    0  501    0  0.00000000000E+00  0.00000000000E+00 -0.10929639525E+04  0.10929639572E+04  0.10100000352E+00 0. -1.
    10030    2    1    2    0    0  0.00000000000E+00  0.00000000000E+00  0.46104906842E+03  0.26469769815E+04  0.26065150866E+04 0.  0.
        3    1    3    3  502    0 -0.98192949220E+03  0.64774940260E+02  0.10982468502E+04  0.14746279106E+04  0.10100000352E+00 0.  1.
       -3    1    3    3    0  502  0.98192949220E+03 -0.64774940260E+02 -0.63719778181E+03  0.11723490708E+04  0.10100000352E+00 0. -1.
</event>
<event>
 5   0  0.1993815E-05  0.2595183E+04  0.7818609E-02  0.8369839E-01
        1   -1    0    0  501    0  0.00000000000E+00  0.00000000000E+00  0.11950417033E+04  0.11950417033E+04  0.50400001928E-02 0. -1.
       -1   -1    0    0    0  501  0.00000000000E+00  0.00000000000E+00 -0.14089414366E+04  0.14089414366E+04  0.50400001928E-02 0.  1.
    10030    2    1    2    0    0  0.00000000000E+00  0.00000000000E+00 -0.21389973329E+03  0.26039831399E+04  0.25951830566E+04 0.  0.
        5    1    3    3  502    0 -0.98702398660E+03 -0.82392372347E+03  0.68729621834E+02  0.12875606794E+04  0.46999998093E+01 0. -1.
       -5    1    3    3    0  502  0.98702398660E+03  0.82392372347E+03 -0.28262935512E+03  0.13164224605E+04  0.46999998093E+01 0.  1.
</event>
<event>
 5   0  0.5170532E-05  0.2601079E+04  0.7818609E-02  0.8367835E-01
        2   -1    0    0  501    0  0.00000000000E+00  0.00000000000E+00  0.14470454970E+04  0.14470454970E+04  0.25500000920E-02 0.  1.
       -2   -1    0    0    0  501  0.00000000000E+00  0.00000000000E+00 -0.11688667021E+04  0.11688667021E+04  0.25500000920E-02 0. -1.
    10030    2    1    2    0    0  0.00000000000E+00  0.00000000000E+00  0.27817879490E+03  0.26159121992E+04  0.26010792360E+04 0.  0.
        1    1    3    3  502    0  0.12164316827E+04 -0.38355540559E+03  0.39466950061E+03  0.13351347507E+04  0.50400001928E-02 0.  1.
       -1    1    3    3    0  502 -0.12164316827E+04  0.38355540559E+03 -0.11649070570E+03  0.12807774485E+04  0.50400001928E-02 0. -1.
</event>
<event>
 5   0  0.1954502E-05  0.1294949E+04  0.7818609E-02  0.9033580E-01
       -1   -1    0    0    0  501  0.00000000000E+00  0.00000000000E+00  0.54176174367E+03  0.54176174369E+03  0.50400001928E-02 0.  1.
        1   -1    0    0  501    0  0.00000000000E+00  0.00000000000E+00 -0.77381478875E+03  0.77381478877E+03  0.50400001928E-02 0. -1.
    10030    2    1    2    0    0  0.00000000000E+00  0.00000000000E+00 -0.23205304509E+03  0.13155765325E+04  0.12949490326E+04 0.  0.
        4    1    3    3  502    0  0.19535467525E+02  0.34064108449E+03 -0.67506795703E+03  0.75639694767E+03  0.12699999809E+01 0. -1.
       -4    1    3    3    0  502 -0.19535467525E+02 -0.34064108449E+03  0.44301491194E+03  0.55917958479E+03  0.12699999809E+01 0.  1.
</event>
<event>
 5   0  0.2072710E-05  0.1378734E+04  0.7818609E-02  0.8969358E-01
        1   -1    0    0  501    0  0.00000000000E+00  0.00000000000E+00  0.51409337704E+03  0.51409337706E+03  0.50400001928E-02 0. -1.
       -1   -1    0    0    0  501  0.00000000000E+00  0.00000000000E+00 -0.92439749459E+03  0.92439749460E+03  0.50400001928E-02 0.  1.
    10030    2    1    2    0    0  0.00000000000E+00  0.00000000000E+00 -0.41030411755E+03  0.14384908717E+04  0.13787336650E+04 0.  0.
        2    1    3    3  502    0 -0.61374464433E+03 -0.16238264771E+03 -0.48545211595E+03  0.79919607707E+03  0.25500000920E-02 0.  1.
       -2    1    3    3    0  502  0.61374464433E+03  0.16238264771E+03  0.75147998402E+02  0.63929479459E+03  0.25500000920E-02 0. -1.
</event>
<event>
 5   0  0.5049803E-05  0.1416488E+04  0.7818609E-02  0.8941970E-01
        2   -1    0    0  501    0  0.00000000000E+00  0.00000000000E+00  0.62829239965E+03  0.62829239965E+03  0.25500000920E-02 0. -1.
       -2   -1    0    0    0  501  0.00000000000E+00  0.00000000000E+00 -0.79836933246E+03  0.79836933246E+03  0.25500000920E-02 0.  1.
    10030    2    1    2    0    0  0.00000000000E+00  0.00000000000E+00 -0.17007693281E+03  0.14266617321E+04  0.14164877461E+04 0.  0.
        4    1    3    3  502    0  0.30938288673E+03 -0.27116740636E+03 -0.66568443383E+03  0.78255153902E+03  0.12699999809E+01 0.  1.
       -4    1    3    3    0  502 -0.30938288673E+03  0.27116740636E+03  0.49560750103E+03  0.64411019309E+03  0.12699999809E+01 0. -1.
</event>
<event>
 5   0  0.5036452E-05  0.2268188E+04  0.7818609E-02  0.8490571E-01
        2   -1    0    0  501    0  0.00000000000E+00  0.00000000000E+00  0.14119608999E+04  0.14119608999E+04  0.25500000920E-02 0. -1.
       -2   -1    0    0    0  501  0.00000000000E+00  0.00000000000E+00 -0.91090979579E+03  0.91090979579E+03  0.25500000920E-02 0.  1.
    10030    2    1    2    0    0  0.00000000000E+00  0.00000000000E+00  0.50105110416E+03  0.23228706957E+04  0.22681878362E+04 0.  0.
        2    1    3    3  502    0 -0.10874795944E+04 -0.31556541502E+03  0.31509814279E+03  0.11753638752E+04  0.25500000920E-02 0.  1.
       -2    1    3    3    0  502  0.10874795944E+04  0.31556541502E+03  0.18595296137E+03  0.11475068206E+04  0.25500000920E-02 0. -1.
</event>
<event>
 5   0  0.4955675E-05  0.2468016E+04  0.7818609E-02  0.8414469E-01
       -2   -1    0    0    0  501  0.00000000000E+00  0.00000000000E+00  0.80266553446E+03  0.80266553447E+03  0.25500000920E-02 0.  1.
        2   -1    0    0  501    0  0.00000000000E+00  0.00000000000E+00 -0.18971480564E+04  0.18971480564E+04  0.25500000920E-02 0. -1.
    10030    2    1    2    0    0  0.00000000000E+00  0.00000000000E+00 -0.10944825219E+04  0.26998135909E+04  0.24680156877E+04 0.  0.
        5    1    3    3  502    0 -0.33825691166E+03  0.63268731101E+03 -0.16455520275E+04  0.17951530679E+04  0.46999998093E+01 0. -1.
       -5    1    3    3    0  502  0.33825691166E+03 -0.63268731101E+03  0.55106950562E+03  0.90466052297E+03  0.46999998093E+01 0.  1.
</event>
<event>
 5   0  0.2072710E-05  0.2616207E+04  0.7818609E-02  0.8362717E-01
       -1   -1    0    0    0  501  0.00000000000E+00  0.00000000000E+00  0.12983492519E+04  0.12983492520E+04  0.50400001928E-02 0. -1.
        1   -1    0    0  501    0  0.00000000000E+00  0.00000000000E+00 -0.13179308256E+04  0.13179308256E+04  0.50400001928E-02 0.  1.
    10030    2    1    2    0    0  0.00000000000E+00  0.00000000000E+00 -0.19581573675E+02  0.26162800776E+04  0.26162067973E+04 0.  0.
        2    1    3    3  502    0  0.34173016350E+03  0.97116051955E+03  0.79720284585E+03  0.13021000871E+04  0.25500000920E-02 0. -1.
       -2    1    3    3    0  502 -0.34173016350E+03 -0.97116051955E+03 -0.81678441953E+03  0.13141799905E+04  0.25500000920E-02 0.  1.
</event>
<event>
 5   0  0.5049803E-05  0.2652831E+04  0.7818609E-02  0.8350474E-01
        2   -1    0    0  501    0  0.00000000000E+00  0.00000000000E+00  0.93044372329E+03  0.93044372330E+03  0.25500000920E-02 0. -1.
       -2   -1    0    0    0  501  0.00000000000E+00  0.00000000000E+00 -0.18909028114E+04  0.18909028114E+04  0.25500000920E-02 0.  1.
    10030    2    1    2    0    0  0.00000000000E+00  0.00000000000E+00 -0.96045908806E+03  0.28213465347E+04  0.26528314324E+04 0.  0.
        4    1    3    3  502    0  0.70615931260E+03 -0.48298966916E+03 -0.15582435103E+04  0.17776570101E+04  0.12699999809E+01 0.  1.
       -4    1    3    3    0  502 -0.70615931260E+03  0.48298966916E+03  0.59778442223E+03  0.10436895246E+04  0.12699999809E+01 0. -1.
</event>
<event>
 5   0  0.5182179E-05  0.2585258E+04  0.7818609E-02  0.8373226E-01
       -2   -1    0    0    0  501  0.00000000000E+00  0.00000000000E+00  0.64820056213E+03  0.64820056214E+03  0.25500000920E-02 0.  1.
        2   -1    0    0  501    0  0.00000000000E+00  0.00000000000E+00 -0.25777359970E+04  0.25777359970E+04  0.25500000920E-02 0. -1.
    10030    2    1    2    0    0  0.00000000000E+00  0.00000000000E+00 -0.19295354348E+04  0.32259365591E+04  0.25852581475E+04 0.  0.
        3    1    3    3  502    0  0.47732668450E+03  0.77002008158E+02  0.53111794367E+03  0.71823140651E+03  0.10100000352E+00 0.  1.
       -3    1    3    3    0  502 -0.47732668450E+03 -0.77002008158E+02 -0.24606533785E+04  0.25077051526E+04  0.10100000352E+00 0. -1.
</event>
<event>
 5   0  0.1993815E-05  0.2514314E+04  0.7818609E-02  0.8397904E-01
       -1   -1    0    0    0  501  0.00000000000E+00  0.00000000000E+00  0.10148110771E+04  0.10148110771E+04  0.50400001928E-02 0. -1.
        1   -1    0    0  501    0  0.00000000000E+00  0.00000000000E+00 -0.15573777542E+04  0.15573777542E+04  0.50400001928E-02 0.  1.
    10030    2    1    2    0    0  0.00000000000E+00  0.00000000000E+00 -0.54256667714E+03  0.25721888314E+04  0.25143143767E+04 0.  0.
        5    1    3    3  502    0 -0.10724606553E+04  0.61654621058E+03 -0.50031378338E+03  0.13344051330E+04  0.46999998093E+01 0.  1.
       -5    1    3    3    0  502  0.10724606553E+04 -0.61654621058E+03 -0.42252893765E+02  0.12377836984E+04  0.46999998093E+01 0. -1.
</event>
<event>
 5   0  0.5182179E-05  0.2524293E+04  0.7818609E-02  0.8394382E-01
        2   -1    0    0  501    0  0.00000000000E+00  0.00000000000E+00  0.13607795946E+04  0.13607795946E+04  0.25500000920E-02 0. -1.
       -2   -1    0    0    0  501  0.00000000000E+00  0.00000000000E+00 -0.11706621862E+04  0.11706621862E+04  0.25500000920E-02 0.  1.
    10030    2    1    2    0    0  0.00000000000E+00  0.00000000000E+00  0.19011740839E+03  0.25314417807E+04  0.25242925465E+04 0.  0.
        3    1    3    3  502    0 -0.11615584637E+03 -0.12192822206E+04 -0.21055329547E+03  0.12427686891E+04  0.10100000352E+00 0. -1.
       -3    1    3    3    0  502  0.11615584637E+03  0.12192822206E+04  0.40067070386E+03  0.12886730917E+04  0.10100000352E+00 0.  1.
</event>
<event>
 5   0  0.2072710E-05  0.2459719E+04  0.7818609E-02  0.8417478E-01
       -1   -1    0    0    0  501  0.00000000000E+00  0.00000000000E+00  0.77111731175E+03  0.77111731177E+03  0.50400001928E-02 0.  1.
        1   -1    0    0  501    0  0.00000000000E+00  0.00000000000E+00 -0.19615108853E+04  0.19615108853E+04  0.50400001928E-02 0. -1.
    10030    2    1    2    0    0  0.00000000000E+00  0.00000000000E+00 -0.11903935735E+04  0.27326281971E+04  0.24597194969E+04 0.  0.
        2    1    3    3  502    0 -0.11847202577E+04  0.81978640496E+02 -0.23991395971E+03  0.12115450031E+04  0.25500000920E-02 0.  1.
       -2    1    3    3    0  502  0.11847202577E+04 -0.81978640496E+02 -0.95047961382E+03  0.15210831939E+04  0.25500000920E-02 0. -1.
</event>
<event>
 5   0  0.2163800E-05  0.2544922E+04  0.7818609E-02  0.8387154E-01
       -1   -1    0    0    0  501  0.00000000000E+00  0.00000000000E+00  0.87321017398E+03  0.87321017399E+03  0.50400001928E-02 0.  1.
        1   -1    0    0  501    0  0.00000000000E+00  0.00000000000E+00 -0.18542585854E+04  0.18542585854E+04  0.50400001928E-02 0. -1.
    10030    2    1    2    0    0  0.00000000000E+00  0.00000000000E+00 -0.98104841142E+03  0.27274687594E+04  0.25449223658E+04 0.  0.
        1    1    3    3  502    0 -0.39741546224E+03 -0.11682922891E+04 -0.15792254845E+03  0.12441002587E+04  0.50400001928E-02 0.  1.
       -1    1    3    3    0  502  0.39741546224E+03  0.11682922891E+04 -0.82312586298E+03  0.14833685007E+04  0.50400001928E-02 0. -1.
</event>
<event>
 5   0  0.5049803E-05  0.2508541E+04  0.7818609E-02  0.8399949E-01
        2   -1    0    0  501    0  0.00000000000E+00  0.00000000000E+00  0.19507534617E+04  0.19507534617E+04  0.25500000920E-02 0.  1.
       -2   -1    0    0    0  501  0.00000000000E+00  0.00000000000E+00 -0.80645476430E+03  0.80645476431E+03  0.25500000920E-02 0. -1.
    10030    2    1    2    0    0  0.00000000000E+00  0.00000000000E+00  0.11442986974E+04  0.27572082260E+04  0.25085409490E+04 0.  0.
        4    1    3    3  502    0 -0.12251107822E+04 -0.13572025722E+03  0.82727118300E+03  0.14844849746E+04  0.12699999809E+01 0.  1.
       -4    1    3    3    0  502  0.12251107822E+04  0.13572025722E+03  0.31702751441E+03  0.12727232514E+04  0.12699999809E+01 0. -1.
</event>
<event>
 5   0  0.5049803E-05  0.2704452E+04  0.7818609E-02  0.8333562E-01
       -2   -1    0    0    0  501  0.00000000000E+00  0.00000000000E+00  0.10686341225E+04  0.10686341225E+04  0.25500000920E-02 0.  1.
        2   -1    0    0  501    0  0.00000000000E+00  0.00000000000E+00 -0.17110768948E+04  0.17110768949E+04  0.25500000920E-02 0. -1.
    10030    2    1    2    0    0  0.00000000000E+00  0.00000000000E+00 -0.64244277233E+03  0.27797110174E+04  0.27044520008E+04 0.  0.
        4    1    3    3  502    0 -0.83189492582E+03  0.10243283517E+04 -0.17679964727E+02  0.13197014563E+04  0.12699999809E+01 0. -1.
       -4    1    3    3    0  502  0.83189492582E+03 -0.10243283517E+04 -0.62476280760E+03  0.14600095611E+04  0.12699999809E+01 0.  1.
</event>
<event>
 5   0  0.5049803E-05  0.2030364E+04  0.7818609E-02  0.8592555E-01
       -2   -1    0    0    0  501  0.00000000000E+00  0.00000000000E+00  0.14331503839E+04  0.14331503839E+04  0.25500000920E-02 0.  1.
        2   -1    0    0  501    0  0.00000000000E+00  0.00000000000E+00 -0.71911093149E+03  0.71911093150E+03  0.25500000920E-02 0. -1.
    10030    2    1    2    0    0  0.00000000000E+00  0.00000000000E+00  0.71403945239E+03  0.21522613154E+04  0.20303636202E+04 0.  0.
        4    1    3    3  502    0  0.62220002997E+03 -0.79973521852E+03  0.42307628138E+03  0.10980457412E+04  0.12699999809E+01 0.  1.
       -4    1    3    3    0  502 -0.62220002997E+03  0.79973521852E+03  0.29096317101E+03  0.10542155742E+04  0.12699999809E+01 0. -1.
</event>
<event>
 5   0  0.2159405E-05  0.1882944E+04  0.7818609E-02  0.8663393E-01
       -1   -1    0    0    0  501  0.00000000000E+00  0.00000000000E+00  0.43910510360E+03  0.43910510362E+03  0.50400001928E-02 0.  1.
        1   -1    0    0  501    0  0.00000000000E+00  0.00000000000E+00 -0.20185823352E+04  0.20185823353E+04  0.50400001928E-02 0. -1.
    10030    2    1    2    0    0  0.00000000000E+00  0.00000000000E+00 -0.15794772316E+04  0.24576874389E+04  0.18829442960E+04 0.  0.
        3    1    3    3  502    0  0.41655394448E+02 -0.38306943623E+03 -0.19109453696E+04  0.19494074948E+04  0.10100000352E+00 0. -1.
       -3    1    3    3    0  502 -0.41655394448E+02  0.38306943623E+03  0.33146813798E+03  0.50827994408E+03  0.10100000352E+00 0.  1.
</event>
<event>
 5   0  0.4955675E-05  0.2618668E+04  0.7818609E-02  0.8361888E-01
        2   -1    0    0  501    0  0.00000000000E+00  0.00000000000E+00  0.95846868806E+03  0.95846868806E+03  0.25500000920E-02 0. -1.
       -2   -1    0    0    0  501  0.00000000000E+00  0.00000000000E+00 -0.17886395232E+04  0.17886395232E+04  0.25500000920E-02 0.  1.
    10030    2    1    2    0    0  0.00000000000E+00  0.00000000000E+00 -0.83017083513E+03  0.27471082113E+04  0.26186675827E+04 0.  0.
        5    1    3    3  502    0 -0.56424648723E+03 -0.17045451050E+03  0.81140570752E+03  0.10029108389E+04  0.46999998093E+01 0. -1.
       -5    1    3    3    0  502  0.56424648723E+03  0.17045451050E+03 -0.16415765427E+04  0.17441973724E+04  0.46999998093E+01 0.  1.
</event>
<event>
 5   0  0.5182179E-05  0.2592559E+04  0.7818609E-02  0.8370733E-01
       -2   -1    0    0    0  501  0.00000000000E+00  0.00000000000E+00  0.88476459603E+03  0.88476459603E+03  0.25500000920E-02 0. -1.
        2   -1    0    0  501    0  0.00000000000E+00  0.00000000000E+00 -0.18991945388E+04  0.18991945388E+04  0.25500000920E-02 0.  1.
    10030    2    1    2    0    0  0.00000000000E+00  0.00000000000E+00 -0.10144299428E+04  0.27839591348E+04  0.25925586504E+04 0.  0.
        3    1    3    3  502    0  0.82127820715E+03 -0.95107150440E+03 -0.16543226101E+03  0.12674394436E+04  0.10100000352E+00 0.  1.
       -3    1    3    3    0  502 -0.82127820715E+03  0.95107150440E+03 -0.84899768174E+03  0.15165196912E+04  0.10100000352E+00 0. -1.
</event>
<event>
 5   0  0.2072710E-05  0.2638031E+04  0.7818609E-02  0.8355397E-01
        1   -1    0    0  501    0  0.00000000000E+00  0.00000000000E+00  0.13294085893E+04  0.13294085893E+04  0.50400001928E-02 0. -1.
       -1   -1    0    0    0  501  0.00000000000E+00  0.00000000000E+00 -0.13087034023E+04  0.13087034024E+04  0.50400001928E-02 0.  1.
    10030    2    1    2    0    0  0.00000000000E+00  0.00000000000E+00  0.20705186944E+02  0.26381119916E+04  0.26380307382E+04 0.  0.
        2    1    3    3  502    0  0.64959339606E+03  0.83509849264E+03 -0.77735210501E+03  0.13128737060E+04  0.25500000920E-02 0. -1.
       -2    1    3    3    0  502 -0.64959339606E+03 -0.83509849264E+03  0.79805729196E+03  0.13252382857E+04  0.25500000920E-02 0.  1.
</event>
<event>
 5   0  0.2163800E-05  0.2671028E+04  0.7818609E-02  0.8344467E-01
       -1   -1    0    0    0  501  0.00000000000E+00  0.00000000000E+00  0.10222901659E+04  0.10222901660E+04  0.50400001928E-02 0.  1.
        1   -1    0    0  501    0  0.00000000000E+00  0.00000000000E+00 -0.17447083971E+04  0.17447083971E+04  0.50400001928E-02 0. -1.
    10030    2    1    2    0    0  0.00000000000E+00  0.00000000000E+00 -0.72241823113E+03  0.27669985630E+04  0.26710284437E+04 0.  0.
        1    1    3    3  502    0  0.98849322099E+03  0.83719016278E+03 -0.24584422711E+02  0.12956120602E+04  0.50400001928E-02 0. -1.
       -1    1    3    3    0  502 -0.98849322099E+03 -0.83719016278E+03 -0.69783380842E+03  0.14713865029E+04  0.50400001928E-02 0.  1.
</event>
<event>
 5   0  0.2072710E-05  0.2603025E+04  0.7818609E-02  0.8367175E-01
        1   -1    0    0  501    0  0.00000000000E+00  0.00000000000E+00  0.12935218963E+04  0.12935218963E+04  0.50400001928E-02 0. -1.
       -1   -1    0    0    0  501  0.00000000000E+00  0.00000000000E+00 -0.13095520082E+04  0.13095520082E+04  0.50400001928E-02 0.  1.
    10030    2    1    2    0    0  0.00000000000E+00  0.00000000000E+00 -0.16030111930E+02  0.26030739045E+04  0.26030245462E+04 0.  0.
        2    1    3    3  502    0  0.29413795334E+02 -0.43473591505E+03  0.12184150279E+04  0.12939844155E+04  0.25500000920E-02 0. -1.
       -2    1    3    3    0  502 -0.29413795334E+02  0.43473591505E+03 -0.12344451398E+04  0.13090894891E+04  0.25500000920E-02 0.  1.
</event>
<event>
 5   0  0.5182179E-05  0.2636639E+04  0.7818609E-02  0.8355861E-01
        2   -1    0    0  501    0  0.00000000000E+00  0.00000000000E+00  0.14053077464E+04  0.14053077464E+04  0.25500000920E-02 0.  1.
       -2   -1    0    0    0  501  0.00000000000E+00  0.00000000000E+00 -0.12367158503E+04  0.12367158503E+04  0.25500000920E-02 0. -1.
    10030    2    1    2    0    0  0.00000000000E+00  0.00000000000E+00  0.16859189610E+03  0.26420235968E+04  0.26366390459E+04 0.  0.
        3    1    3    3  502    0  0.48875674261E+03 -0.12217862178E+04  0.46248403023E+01  0.13159278532E+04  0.10100000352E+00 0. -1.
       -3    1    3    3    0  502 -0.48875674261E+03  0.12217862178E+04  0.16396705580E+03  0.13260957436E+04  0.10100000352E+00 0.  1.
</event>
<event>
 5   0  0.2072710E-05  0.2536311E+04  0.7818609E-02  0.8390163E-01
        1   -1    0    0  501    0  0.00000000000E+00  0.00000000000E+00  0.15014274896E+04  0.15014274896E+04  0.50400001928E-02 0.  1.
       -1   -1    0    0    0  501  0.00000000000E+00  0.00000000000E+00 -0.10711263612E+04  0.10711263612E+04  0.50400001928E-02 0. -1.
    10030    2    1    2    0    0  0.00000000000E+00  0.00000000000E+00  0.43030112841E+03  0.25725538508E+04  0.25363111509E+04 0.  0.
        2    1    3    3  502    0 -0.57398551024E+03  0.91949795405E+03  0.88279867281E+03  0.13979518412E+04  0.25500000920E-02 0. -1.
       -2    1    3    3    0  502  0.57398551024E+03 -0.91949795405E+03 -0.45249754441E+03  0.11746020097E+04  0.25500000920E-02 0.  1.
</event>
<event>
 5   0  0.5049803E-05  0.2537102E+04  0.7818609E-02  0.8389886E-01
       -2   -1    0    0    0  501  0.00000000000E+00  0.00000000000E+00  0.15497578510E+04  0.15497578510E+04  0.25500000920E-02 0.  1.
        2   -1    0    0  501    0  0.00000000000E+00  0.00000000000E+00 -0.10383693952E+04  0.10383693952E+04  0.25500000920E-02 0. -1.
    10030    2    1    2    0    0  0.00000000000E+00  0.00000000000E+00  0.51138845581E+03  0.25881272462E+04  0.25371015923E+04 0.  0.
        4    1    3    3  502    0  0.56295316757E+02 -0.19077601185E+03 -0.10223616776E+04  0.10415323625E+04  0.12699999809E+01 0. -1.
       -4    1    3    3    0  502 -0.56295316757E+02  0.19077601185E+03  0.15337501334E+04  0.15465948837E+04  0.12699999809E+01 0.  1.
</event>
<event>
 5   0  0.2159405E-05  0.1357215E+04  0.7818609E-02  0.8985384E-01
        1   -1    0    0  501    0  0.00000000000E+00  0.00000000000E+00  0.71779292388E+03  0.71779292389E+03  0.50400001928E-02 0.  1.
       -1   -1    0    0    0  501  0.00000000000E+00  0.00000000000E+00 -0.64156146663E+03  0.64156146665E+03  0.50400001928E-02 0. -1.
    10030    2    1    2    0    0  0.00000000000E+00  0.00000000000E+00  0.76231457246E+02  0.13593543905E+04  0.13572152092E+04 0.  0.
        3    1    3    3  502    0 -0.89931490876E+02 -0.66962535854E+03  0.10163869329E+03  0.68323951000E+03  0.10100000352E+00 0. -1.
       -3    1    3    3    0  502  0.89931490876E+02  0.66962535854E+03 -0.25407236048E+02  0.67611488055E+03  0.10100000352E+00 0.  1.
</event>
<event>
 5   0  0.2163800E-05  0.2601649E+04  0.7818609E-02  0.8367641E-01
        1   -1    0    0  501    0  0.00000000000E+00  0.00000000000E+00  0.12364247928E+04  0.12364247928E+04  0.50400001928E-02 0. -1.
       -1   -1    0    0    0  501  0.00000000000E+00  0.00000000000E+00 -0.13685780466E+04  0.13685780466E+04  0.50400001928E-02 0.  1.
    10030    2    1    2    0    0  0.00000000000E+00  0.00000000000E+00 -0.13215325380E+03  0.26050028394E+04  0.26016485756E+04 0.  0.
        1    1    3    3  502    0 -0.12126194595E+04  0.41207510452E+03  0.16201518701E+03  0.12909301942E+04  0.50400001928E-02 0. -1.
       -1    1    3    3    0  502  0.12126194595E+04 -0.41207510452E+03 -0.29416844081E+03  0.13140726453E+04  0.50400001928E-02 0.  1.
</event>
<event>
 5   0  0.5049803E-05  0.2615390E+04  0.7818609E-02  0.8362992E-01
        2   -1    0    0  501    0  0.00000000000E+00  0.00000000000E+00  0.12807915516E+04  0.12807915516E+04  0.25500000920E-02 0.  1.
       -2   -1    0    0    0  501  0.00000000000E+00  0.00000000000E+00 -0.13351633950E+04  0.13351633950E+04  0.25500000920E-02 0. -1.
    10030    2    1    2    0    0  0.00000000000E+00  0.00000000000E+00 -0.54371843411E+02  0.26159549466E+04  0.26153898343E+04 0.  0.
        4    1    3    3  502    0  0.10155234260E+04 -0.18612450280E+03 -0.82993906737E+03  0.13246624580E+04  0.12699999809E+01 0. -1.
       -4    1    3    3    0  502 -0.10155234260E+04  0.18612450280E+03  0.77556722396E+03  0.12912924886E+04  0.12699999809E+01 0.  1.
</event>
<event>
 5   0  0.4955675E-05  0.2641450E+04  0.7818609E-02  0.8354256E-01
       -2   -1    0    0    0  501  0.00000000000E+00  0.00000000000E+00  0.13755357890E+04  0.13755357890E+04  0.25500000920E-02 0. -1.
        2   -1    0    0  501    0  0.00000000000E+00  0.00000000000E+00 -0.12680984488E+04  0.12680984488E+04  0.25500000920E-02 0.  1.
    10030    2    1    2    0    0  0.00000000000E+00  0.00000000000E+00  0.10743734012E+03  0.26436342378E+04  0.26414502080E+04 0.  0.
        5    1    3    3  502    0  0.10389041478E+03  0.10623362638E+04 -0.72470405246E+03  0.12901820063E+04  0.46999998093E+01 0.  1.
       -5    1    3    3    0  502 -0.10389041478E+03 -0.10623362638E+04  0.83214139258E+03  0.13534522315E+04  0.46999998093E+01 0. -1.
</event>
<event>
 5   0  0.2072710E-05  0.2482837E+04  0.7818609E-02  0.8409126E-01
        1   -1    0    0  501    0  0.00000000000E+00  0.00000000000E+00  0.13063769050E+04  0.13063769051E+04  0.50400001928E-02 0.  1.
       -1   -1    0    0    0  501  0.00000000000E+00  0.00000000000E+00 -0.11796900116E+04  0.11796900116E+04  0.50400001928E-02 0. -1.
    10030    2    1    2    0    0  0.00000000000E+00  0.00000000000E+00  0.12668689344E+03  0.24860669167E+04  0.24828369147E+04 0.  0.
        2    1    3    3  502    0  0.53885471889E+03  0.96612565645E+02  0.11789838462E+04  0.12998851124E+04  0.25500000920E-02 0.  1.
       -2    1    3    3    0  502 -0.53885471889E+03 -0.96612565645E+02 -0.10522969528E+04  0.11861818042E+04  0.25500000920E-02 0. -1.
</event>
<event>
 5   0  0.1954502E-05  0.2594327E+04  0.7818609E-02  0.8370131E-01
        1   -1    0    0  501    0  0.00000000000E+00  0.00000000000E+00  0.18007598069E+04  0.18007598069E+04  0.50400001928E-02 0.  1.
       -1   -1    0    0    0  501  0.00000000000E+00  0.00000000000E+00 -0.93440206548E+03  0.93440206549E+03  0.50400001928E-02 0. -1.
    10030    2    1    2    0    0  0.00000000000E+00  0.00000000000E+00  0.86635774142E+03  0.27351618724E+04  0.25943274142E+04 0.  0.
        4    1    3    3  502    0 -0.87028806294E+03 -0.27206386775E+03  0.14058748488E+04  0.16756806868E+04  0.12699999809E+01 0.  1.
       -4    1    3    3    0  502  0.87028806294E+03  0.27206386775E+03 -0.53951710738E+03  0.10594811856E+04  0.12699999809E+01 0. -1.
</event>
<event>
 5   0  0.2163800E-05  0.2614863E+04  0.7818609E-02  0.8363170E-01
        1   -1    0    0  501    0  0.00000000000E+00  0.00000000000E+00  0.29145817193E+04  0.29145817193E+04  0.50400001928E-02 0. -1.
       -1   -1    0    0    0  501  0.00000000000E+00  0.00000000000E+00 -0.58649139548E+03  0.58649139550E+03  0.50400001928E-02 0.  1.
    10030    2    1    2    0    0  0.00000000000E+00  0.00000000000E+00  0.23280903238E+04  0.35010731148E+04  0.26148629791E+04 0.  0.
        1    1    3    3  502    0 -0.11622207671E+04  0.53085693314E+03  0.79296846271E+03  0.15037836207E+04  0.50400001928E-02 0. -1.
       -1    1    3    3    0  502  0.11622207671E+04 -0.53085693314E+03  0.15351218611E+04  0.19972894941E+04  0.50400001928E-02 0.  1.
</event>
<event>
 5   0  0.1993815E-05  0.2699178E+04  0.7818609E-02  0.8335272E-01
        1   -1    0    0  501    0  0.00000000000E+00  0.00000000000E+00  0.13665632874E+04  0.13665632874E+04  0.50400001928E-02 0.  1.
       -1   -1    0    0    0  501  0.00000000000E+00  0.00000000000E+00 -0.13328254076E+04  0.13328254076E+04  0.50400001928E-02 0. -1.
    10030    2    1    2    0    0  0.00000000000E+00  0.00000000000E+00  0.33737879793E+02  0.26993886951E+04  0.26991778531E+04 0.  0.
        5    1    3    3  502    0  0.75431090822E+03  0.10558932182E+04 -0.35393319592E+03  0.13450599361E+04  0.46999998093E+01 0. -1.
       -5    1    3    3    0  502 -0.75431090822E+03 -0.10558932182E+04  0.38767107571E+03  0.13543287590E+04  0.46999998093E+01 0.  1.
</event>
<event>
 5   0  0.2159405E-05  0.2501831E+04  0.7818609E-02  0.8402334E-01
        1   -1    0    0  501    0  0.00000000000E+00  0.00000000000E+00  0.15498199430E+04  0.15498199431E+04  0.50400001928E-02 0.  1.
       -1   -1    0    0    0  501  0.00000000000E+00  0.00000000000E+00 -0.10096587950E+04  0.10096587950E+04  0.50400001928E-02 0. -1.
    10030    2    1    2    0    0  0.00000000000E+00  0.00000000000E+00  0.54016114806E+03  0.25594787380E+04  0.25018307986E+04 0.  0.
        3    1    3    3  502    0  0.52383818122E+03 -0.21276387845E+02  0.14320018311E+04  0.15249552057E+04  0.10100000352E+00 0.  1.
       -3    1    3    3    0  502 -0.52383818122E+03  0.21276387845E+02 -0.89184068308E+03  0.10345235323E+04  0.10100000352E+00 0. -1.
</event>
<event>
 5   0  0.5170532E-05  0.2594846E+04  0.7818609E-02  0.8369954E-01
       -2   -1    0    0    0  501  0.00000000000E+00  0.00000000000E+00  0.11943060021E+04  0.11943060021E+04  0.25500000920E-02 0. -1.
        2   -1    0    0  501    0  0.00000000000E+00  0.00000000000E+00 -0.14094431790E+04  0.14094431790E+04  0.25500000920E-02 0.  1.
    10030    2    1    2    0    0  0.00000000000E+00  0.00000000000E+00 -0.21513717693E+03  0.26037491812E+04  0.25948460057E+04 0.  0.
        1    1    3    3  502    0  0.10557794952E+04 -0.43323692971E+03 -0.72689116377E+03  0.13530466894E+04  0.50400001928E-02 0.  1.
       -1    1    3    3    0  502 -0.10557794952E+04  0.43323692971E+03  0.51175398685E+03  0.12507024917E+04  0.50400001928E-02 0. -1.
</event>
<event>
 5   0  0.1993815E-05  0.2503567E+04  0.7818609E-02  0.8401716E-01
       -1   -1    0    0    0  501  0.00000000000E+00  0.00000000000E+00  0.11834856769E+04  0.11834856769E+04  0.50400001928E-02 0. -1.
        1   -1    0    0  501    0  0.00000000000E+00  0.00000000000E+00 -0.13240224267E+04  0.13240224268E+04  0.50400001928E-02 0.  1.
    10030    2    1    2    0    0  0.00000000000E+00  0.00000000000E+00 -0.14053674987E+03  0.25075081036E+04  0.25035667181E+04 0.  0.
        5    1    3    3  502    0 -0.59664058888E+03  0.80769361771E+03 -0.81883412838E+03  0.12957084519E+04  0.46999998093E+01 0.  1.
       -5    1    3    3    0  502  0.59664058888E+03 -0.80769361771E+03  0.67829737851E+03  0.12117996518E+04  0.46999998093E+01 0. -1.
</event>
<event>
 5   0  0.2163800E-05  0.2688542E+04  0.7818609E-02  0.8338732E-01
       -1   -1    0    0    0  501  0.00000000000E+00  0.00000000000E+00  0.79884491548E+03  0.79884491550E+03  0.50400001928E-02 0.  1.
        1   -1    0    0  501    0  0.00000000000E+00  0.00000000000E+00 -0.22620966597E+04  0.22620966597E+04  0.50400001928E-02 0. -1.
    10030    2    1    2    0    0  0.00000000000E+00  0.00000000000E+00 -0.14632517442E+04  0.30609415752E+04  0.26885419208E+04 0.  0.
        1    1    3    3  502    0  0.22768824984E+03  0.66045718913E+03  0.57594042110E+03  0.90540212418E+03  0.50400001928E-02 0.  1.
       -1    1    3    3    0  502 -0.22768824984E+03 -0.66045718913E+03 -0.20391921653E+04  0.21555394510E+04  0.50400001928E-02 0. -1.
</event>
<event>
 5   0  0.2159405E-05  0.2641630E+04  0.7818609E-02  0.8354196E-01
       -1   -1    0    0    0  501  0.00000000000E+00  0.00000000000E+00  0.73519123533E+03  0.73519123535E+03  0.50400001928E-02 0. -1.
        1   -1    0    0  501    0  0.00000000000E+00  0.00000000000E+00 -0.23729226967E+04  0.23729226967E+04  0.50400001928E-02 0.  1.
    10030    2    1    2    0    0  0.00000000000E+00  0.00000000000E+00 -0.16377314614E+04  0.31081139321E+04  0.26416297763E+04 0.  0.
        3    1    3    3  502    0 -0.29839633054E+03 -0.84380208272E+03  0.32400773099E+03  0.95185258566E+03  0.10100000352E+00 0. -1.
       -3    1    3    3    0  502  0.29839633054E+03  0.84380208272E+03 -0.19617391924E+04  0.21562613464E+04  0.10100000352E+00 0.  1.
</event>
<event>
 5   0  0.1954502E-05  0.2579403E+04  0.7818609E-02  0.8375231E-01
        1   -1    0    0  501    0  0.00000000000E+00  0.00000000000E+00  0.13679472227E+04  0.13679472227E+04  0.50400001928E-02 0.  1.
       -1   -1    0    0    0  501  0.00000000000E+00  0.00000000000E+00 -0.12159315904E+04  0.12159315904E+04  0.50400001928E-02 0. -1.
    10030    2    1    2    0    0  0.00000000000E+00  0.00000000000E+00  0.15201563234E+03  0.25838788131E+04  0.25794032194E+04 0.  0.
        4    1    3    3  502    0 -0.18919983757E+03 -0.73362949695E+03  0.11215236263E+04  0.13534495463E+04  0.12699999809E+01 0.  1.
       -4    1    3    3    0  502  0.18919983757E+03  0.73362949695E+03 -0.96950799393E+03  0.12304292668E+04  0.12699999809E+01 0. -1.
</event>
<event>
 5   0  0.2159405E-05  0.2613579E+04  0.7818609E-02  0.8363603E-01
       -1   -1    0    0    0  501  0.00000000000E+00  0.00000000000E+00  0.58245377836E+03  0.58245377838E+03  0.50400001928E-02 0. -1.
        1   -1    0    0  501    0  0.00000000000E+00  0.00000000000E+00 -0.29319037564E+04  0.29319037564E+04  0.50400001928E-02 0.  1.
    10030    2    1    2    0    0  0.00000000000E+00  0.00000000000E+00 -0.23494499781E+04  0.35143575348E+04  0.26135787119E+04 0.  0.
        3    1    3    3  502    0 -0.10286532530E+04 -0.61325709211E+03 -0.18779242603E+04  0.22272878830E+04  0.10100000352E+00 0.  1.
       -3    1    3    3    0  502  0.10286532530E+04  0.61325709211E+03 -0.47152571776E+03  0.12870696518E+04  0.10100000352E+00 0. -1.
</event>
<event>
 5   0  0.5170532E-05  0.2677717E+04  0.7818609E-02  0.8342271E-01
       -2   -1    0    0    0  501  0.00000000000E+00  0.00000000000E+00  0.14539888131E+04  0.14539888131E+04  0.25500000920E-02 0.  1.
        2   -1    0    0  501    0  0.00000000000E+00  0.00000000000E+00 -0.12328448991E+04  0.12328448991E+04  0.25500000920E-02 0. -1.
    10030    2    1    2    0    0  0.00000000000E+00  0.00000000000E+00  0.22114391397E+03  0.26868337122E+04  0.26777174545E+04 0.  0.
        1    1    3    3  502    0  0.10598690212E+04 -0.79219980246E+03  0.31532505113E+03  0.13602693693E+04  0.50400001928E-02 0.  1.
       -1    1    3    3    0  502 -0.10598690212E+04  0.79219980246E+03 -0.94181137159E+02  0.13265643429E+04  0.50400001928E-02 0. -1.
</event>
<event>
 5   0  0.4955675E-05  0.2585038E+04  0.7818609E-02  0.8373301E-01
        2   -1    0    0  501    0  0.00000000000E+00  0.00000000000E+00  0.18450497997E+04  0.18450497997E+04  0.25500000920E-02 0. -1.
       -2   -1    0    0    0  501  0.00000000000E+00  0.00000000000E+00 -0.90545289741E+03  0.90545289741E+03  0.25500000920E-02 0.  1.
    10030    2    1    2    0    0  0.00000000000E+00  0.00000000000E+00  0.93959690225E+03  0.27505026971E+04  0.25850382488E+04 0.  0.
        5    1    3    3  502    0  0.58735845481E+03  0.99591947936E+03  0.10844768521E+04  0.15852311177E+04  0.46999998093E+01 0. -1.
       -5    1    3    3    0  502 -0.58735845481E+03 -0.99591947936E+03 -0.14487994984E+03  0.11652715794E+04  0.46999998093E+01 0.  1.
</event>
<event>
 5   0  0.2159405E-05  0.2543046E+04  0.7818609E-02  0.8387809E-01
        1   -1    0    0  501    0  0.00000000000E+00  0.00000000000E+00  0.89581993890E+03  0.89581993891E+03  0.50400001928E-02 0. -1.
       -1   -1    0    0    0  501  0.00000000000E+00  0.00000000000E+00 -0.18047944011E+04  0.18047944011E+04  0.50400001928E-02 0.  1.
    10030    2    1    2    0    0  0.00000000000E+00  0.00000000000E+00 -0.90897446217E+03  0.27006143400E+04  0.25430460555E+04 0.  0.
        3    1    3    3  502    0  0.97851441080E+03 -0.63612879206E+03  0.81377326864E+02  0.11699455422E+04  0.10100000352E+00 0. -1.
       -3    1    3    3    0  502 -0.97851441080E+03  0.63612879206E+03 -0.99035178903E+03  0.15306687978E+04  0.10100000352E+00 0.  1.
</event>
<event>
 5   0  0.2072710E-05  0.2425234E+04  0.7818609E-02  0.8430116E-01
        1   -1    0    0  501    0  0.00000000000E+00  0.00000000000E+00  0.22768036899E+04  0.22768036899E+04  0.50400001928E-02 0. -1.
       -1   -1    0    0    0  501  0.00000000000E+00  0.00000000000E+00 -0.64583502763E+03  0.64583502765E+03  0.50400001928E-02 0.  1.
    10030    2    1    2    0    0  0.00000000000E+00  0.00000000000E+00  0.16309686623E+04  0.29226387176E+04  0.24252336580E+04 0.  0.
        2    1    3    3  502    0  0.30647558679E+03  0.42956547698E+03 -0.50021630728E+03  0.72709706256E+03  0.25500000920E-02 0.  1.
       -2    1    3    3    0  502 -0.30647558679E+03 -0.42956547698E+03  0.21311849696E+04  0.21955416550E+04  0.25500000920E-02 0. -1.
</event>
<event>
 5   0  0.1954502E-05  0.2503184E+04  0.7818609E-02  0.8401852E-01
        1   -1    0    0  501    0  0.00000000000E+00  0.00000000000E+00  0.20404248932E+04  0.20404248932E+04  0.50400001928E-02 0. -1.
       -1   -1    0    0    0  501  0.00000000000E+00  0.00000000000E+00 -0.76772361056E+03  0.76772361058E+03  0.50400001928E-02 0.  1.
    10030    2    1    2    0    0  0.00000000000E+00  0.00000000000E+00  0.12727012826E+04  0.28081485037E+04  0.25031838655E+04 0.  0.
        4    1    3    3  502    0 -0.11722011309E+04 -0.43683316455E+03  0.68125258147E+03  0.14244245848E+04  0.12699999809E+01 0.  1.
       -4    1    3    3    0  502  0.11722011309E+04  0.43683316455E+03  0.59144870113E+03  0.13837239190E+04  0.12699999809E+01 0. -1.
</event>
<event>
 5   0  0.2072710E-05  0.2564572E+04  0.7818609E-02  0.8380336E-01
       -1   -1    0    0    0  501  0.00000000000E+00  0.00000000000E+00  0.18204138204E+04  0.18204138204E+04  0.50400001928E-02 0.  1.
        1   -1    0    0  501    0  0.00000000000E+00  0.00000000000E+00 -0.90323247065E+03  0.90323247066E+03  0.50400001928E-02 0. -1.
    10030    2    1    2    0    0  0.00000000000E+00  0.00000000000E+00  0.91718134972E+03  0.27236462910E+04  0.25645715998E+04 0.  0.
        2    1    3    3  502    0 -0.77090019003E+02 -0.63707119848E+03 -0.72042964127E+03  0.96479088459E+03  0.25500000920E-02 0. -1.
       -2    1    3    3    0  502  0.77090019003E+02  0.63707119848E+03  0.16376109910E+04  0.17588554064E+04  0.25500000920E-02 0.  1.
</event>
<event>
 5   0  0.2163800E-05  0.2052842E+04  0.7818609E-02  0.8582306E-01
        1   -1    0    0  501    0  0.00000000000E+00  0.00000000000E+00  0.89366799148E+03  0.89366799149E+03  0.50400001928E-02 0. -1.
       -1   -1    0    0    0  501  0.00000000000E+00  0.00000000000E+00 -0.11788944252E+04  0.11788944252E+04  0.50400001928E-02 0.  1.
    10030    2    1    2    0    0  0.00000000000E+00  0.00000000000E+00 -0.28522643375E+03  0.20725624167E+04  0.20528421402E+04 0.  0.
        1    1    3    3  502    0 -0.11481853111E+03 -0.71507763826E+03  0.59171205531E+03  0.93522322482E+03  0.50400001928E-02 0. -1.
       -1    1    3    3    0  502  0.11481853111E+03  0.71507763826E+03 -0.87693848906E+03  0.11373391919E+04  0.50400001928E-02 0.  1.
</event>
<event>
 5   0  0.1993815E-05  0.2543977E+04  0.7818609E-02  0.8387484E-01
        1   -1    0    0  501    0  0.00000000000E+00  0.00000000000E+00  0.10890026255E+04  0.10890026255E+04  0.50400001928E-02 0.  1.
       -1   -1    0    0    0  501  0.00000000000E+00  0.00000000000E+00 -0.14857220343E+04  0.14857220343E+04  0.50400001928E-02 0. -1.
    10030    2    1    2    0    0  0.00000000000E+00  0.00000000000E+00 -0.39671940887E+03  0.25747246598E+04  0.25439773553E+04 0.  0.
        5    1    3    3  502    0  0.89741360970E+03 -0.63779570286E+03 -0.84308216831E+03  0.13867026278E+04  0.46999998093E+01 0. -1.
       -5    1    3    3    0  502 -0.89741360970E+03  0.63779570286E+03  0.44636275944E+03  0.11880220320E+04  0.46999998093E+01 0.  1.
</event>
<event>
 5   0  0.4955675E-05  0.2551043E+04  0.7818609E-02  0.8385023E-01
       -2   -1    0    0    0  501  0.00000000000E+00  0.00000000000E+00  0.20276282917E+04  0.20276282917E+04  0.25500000920E-02 0.  1.
        2   -1    0    0  501    0  0.00000000000E+00  0.00000000000E+00 -0.80239341782E+03  0.80239341782E+03  0.25500000920E-02 0. -1.
    10030    2    1    2    0    0  0.00000000000E+00  0.00000000000E+00  0.12252348739E+04  0.28300217095E+04  0.25510433905E+04 0.  0.
        5    1    3    3  502    0 -0.51128498727E+03  0.77622362334E+03 -0.35640456178E+03  0.99548066445E+03  0.46999998093E+01 0. -1.
       -5    1    3    3    0  502  0.51128498727E+03 -0.77622362334E+03  0.15816394357E+04  0.18345410451E+04  0.46999998093E+01 0.  1.
</event>
<event>
 5   0  0.5049803E-05  0.2611470E+04  0.7818609E-02  0.8364315E-01
       -2   -1    0    0    0  501  0.00000000000E+00  0.00000000000E+00  0.60832046202E+03  0.60832046203E+03  0.25500000920E-02 0.  1.
        2   -1    0    0  501    0  0.00000000000E+00  0.00000000000E+00 -0.28027069587E+04  0.28027069587E+04  0.25500000920E-02 0. -1.
    10030    2    1    2    0    0  0.00000000000E+00  0.00000000000E+00 -0.21943864966E+04  0.34110274207E+04  0.26114700780E+04 0.  0.
        4    1    3    3  502    0  0.76265469500E+03 -0.61954635411E+03  0.26009705705E+02  0.98293335806E+03  0.12699999809E+01 0.  1.
       -4    1    3    3    0  502 -0.76265469500E+03  0.61954635411E+03 -0.22203962023E+04  0.24280940626E+04  0.12699999809E+01 0. -1.
</event>
<event>
 5   0  0.1993815E-05  0.2575375E+04  0.7818609E-02  0.8376614E-01
       -1   -1    0    0    0  501  0.00000000000E+00  0.00000000000E+00  0.11574603100E+04  0.11574603100E+04  0.50400001928E-02 0.  1.
        1   -1    0    0  501    0  0.00000000000E+00  0.00000000000E+00 -0.14325665975E+04  0.14325665975E+04  0.50400001928E-02 0. -1.
    10030    2    1    2    0    0  0.00000000000E+00  0.00000000000E+00 -0.27510628745E+03  0.25900269075E+04  0.25753749071E+04 0.  0.
        5    1    3    3  502    0  0.49159887725E+03 -0.11890943137E+04 -0.87247112788E+02  0.12896700709E+04  0.46999998093E+01 0.  1.
       -5    1    3    3    0  502 -0.49159887725E+03  0.11890943137E+04 -0.18785917466E+03  0.13003568366E+04  0.46999998093E+01 0. -1.
</event>
<event>
 5   0  0.1698625E-05  0.2611940E+04  0.7818609E-02  0.8364157E-01
        3   -1    0    0  501    0  0.00000000000E+00  0.00000000000E+00  0.79488461557E+03  0.79488462198E+03  0.10100000352E+00 0.  1.
       -3   -1    0    0    0  501  0.00000000000E+00  0.00000000000E+00 -0.21456674581E+04  0.21456674604E+04  0.10100000352E+00 0. -1.
    10030    2    1    2    0    0  0.00000000000E+00  0.00000000000E+00 -0.13507828425E+04  0.29405520824E+04  0.26119403251E+04 0.  0.
        5    1    3    3  502    0  0.28957528260E+03 -0.12293998702E+04 -0.30156425492E+03  0.12985534163E+04  0.46999998093E+01 0.  1.
       -5    1    3    3    0  502 -0.28957528260E+03  0.12293998702E+04 -0.10492185876E+04  0.16419986661E+04  0.46999998093E+01 0. -1.
</event>
<event>
 5   0  0.5182179E-05  0.2357404E+04  0.7818609E-02  0.8455625E-01
       -2   -1    0    0    0  501  0.00000000000E+00  0.00000000000E+00  0.83142649875E+03  0.83142649876E+03  0.25500000920E-02 0.  1.
        2   -1    0    0  501    0  0.00000000000E+00  0.00000000000E+00 -0.16710302466E+04  0.16710302466E+04  0.25500000920E-02 0. -1.
    10030    2    1    2    0    0  0.00000000000E+00  0.00000000000E+00 -0.83960374783E+03  0.25024567453E+04  0.23574043584E+04 0.  0.
        3    1    3    3  502    0 -0.40977958691E+03  0.68350814920E+03 -0.13417068516E+04  0.15605383641E+04  0.10100000352E+00 0. -1.
       -3    1    3    3    0  502  0.40977958691E+03 -0.68350814920E+03  0.50210310381E+03  0.94191838124E+03  0.10100000352E+00 0.  1.
</event>
<event>
 5   0  0.5049803E-05  0.2429238E+04  0.7818609E-02  0.8428638E-01
        2   -1    0    0  501    0  0.00000000000E+00  0.00000000000E+00  0.12659763903E+04  0.12659763903E+04  0.25500000920E-02 0.  1.
       -2   -1    0    0    0  501  0.00000000000E+00  0.00000000000E+00 -0.11653450601E+04  0.11653450601E+04  0.25500000920E-02 0. -1.
    10030    2    1    2    0    0  0.00000000000E+00  0.00000000000E+00  0.10063133026E+03  0.24313214504E+04  0.24292380144E+04 0.  0.
        4    1    3    3  502    0  0.78560473749E+03  0.63542387424E+03  0.72495565293E+03  0.12435837789E+04  0.12699999809E+01 0. -1.
       -4    1    3    3    0  502 -0.78560473749E+03 -0.63542387424E+03 -0.62432432267E+03  0.11877376715E+04  0.12699999809E+01 0.  1.
</event>
<event>
 5   0  0.5049803E-05  0.2620894E+04  0.7818609E-02  0.8361138E-01
        2   -1    0    0  501    0  0.00000000000E+00  0.00000000000E+00  0.96308693368E+03  0.96308693368E+03  0.25500000920E-02 0.  1.
       -2   -1    0    0    0  501  0.00000000000E+00  0.00000000000E+00 -0.17830906737E+04  0.17830906737E+04  0.25500000920E-02 0. -1.
    10030    2    1    2    0    0  0.00000000000E+00  0.00000000000E+00 -0.82000374002E+03  0.27461776074E+04  0.26208939921E+04 0.  0.
        4    1    3    3  502    0  0.10608953328E+04 -0.63164751776E+03 -0.87007187689E+03  0.15104648879E+04  0.12699999809E+01 0. -1.
       -4    1    3    3    0  502 -0.10608953328E+04  0.63164751776E+03  0.50068136867E+02  0.12357127195E+04  0.12699999809E+01 0.  1.
</event>
<event>
 5   0  0.2163800E-05  0.2623068E+04  0.7818609E-02  0.8360407E-01
       -1   -1    0    0    0  501  0.00000000000E+00  0.00000000000E+00  0.15114681262E+04  0.15114681262E+04  0.50400001928E-02 0.  1.
        1   -1    0    0  501    0  0.00000000000E+00  0.00000000000E+00 -0.11380470044E+04  0.11380470044E+04  0.50400001928E-02 0. -1.
    10030    2    1    2    0    0  0.00000000000E+00  0.00000000000E+00  0.37342112184E+03  0.26495151306E+04  0.26230682593E+04 0.  0.
        1    1    3    3  502    0  0.11325796179E+04  0.61541659744E+02 -0.47840996415E+03  0.12310158653E+04  0.50400001928E-02 0. -1.
       -1    1    3    3    0  502 -0.11325796179E+04 -0.61541659744E+02  0.85183108599E+03  0.14184992653E+04  0.50400001928E-02 0.  1.
</event>
<event>
 5   0  0.1993815E-05  0.2207854E+04  0.7818609E-02  0.8515166E-01
       -1   -1    0    0    0  501  0.00000000000E+00  0.00000000000E+00  0.66086655523E+03  0.66086655525E+03  0.50400001928E-02 0. -1.
        1   -1    0    0  501    0  0.00000000000E+00  0.00000000000E+00 -0.18440251095E+04  0.18440251095E+04  0.50400001928E-02 0.  1.
    10030    2    1    2    0    0  0.00000000000E+00  0.00000000000E+00 -0.11831585542E+04  0.25048916647E+04  0.22078537288E+04 0.  0.
        5    1    3    3  502    0 -0.21886309924E+03 -0.69719838262E+02  0.63344250292E+03  0.67382001050E+03  0.46999998093E+01 0. -1.
       -5    1    3    3    0  502  0.21886309924E+03  0.69719838262E+02 -0.18166010572E+04  0.18310716542E+04  0.46999998093E+01 0.  1.
</event>
<event>
 5   0  0.2159405E-05  0.2366540E+04  0.7818609E-02  0.8452138E-01
        1   -1    0    0  501    0  0.00000000000E+00  0.00000000000E+00  0.18560283790E+04  0.18560283791E+04  0.50400001928E-02 0.  1.
       -1   -1    0    0    0  501  0.00000000000E+00  0.00000000000E+00 -0.75436782084E+03  0.75436782085E+03  0.50400001928E-02 0. -1.
    10030    2    1    2    0    0  0.00000000000E+00  0.00000000000E+00  0.11016605582E+04  0.26103961999E+04  0.23665401613E+04 0.  0.
        3    1    3    3  502    0  0.45952940034E+03  0.10652169401E+04  0.80780308201E+03  0.14136478447E+04  0.10100000352E+00 0. -1.
       -3    1    3    3    0  502 -0.45952940034E+03 -0.10652169401E+04  0.29385747620E+03  0.11967483552E+04  0.10100000352E+00 0.  1.
</event>
<event>
 5   0  0.5049803E-05  0.2596604E+04  0.7818609E-02  0.8369356E-01
        2   -1    0    0  501    0  0.00000000000E+00  0.00000000000E+00  0.14027995848E+04  0.14027995848E+04  0.25500000920E-02 0.  1.
       -2   -1    0    0    0  501  0.00000000000E+00  0.00000000000E+00 -0.12015886861E+04  0.12015886861E+04  0.25500000920E-02 0. -1.
    10030    2    1    2    0    0  0.00000000000E+00  0.00000000000E+00  0.20121089871E+03  0.26043882709E+04  0.25966040207E+04 0.  0.
        4    1    3    3  502    0 -0.11142915363E+03  0.12899208770E+04  0.19719665277E+03  0.13096566183E+04  0.12699999809E+01 0. -1.
       -4    1    3    3    0  502  0.11142915363E+03 -0.12899208770E+04  0.40142459409E+01  0.12947316526E+04  0.12699999809E+01 0.  1.
</event>
<event>
 5   0  0.1954502E-05  0.1312173E+04  0.7818609E-02  0.9019967E-01
       -1   -1    0    0    0  501  0.00000000000E+00  0.00000000000E+00  0.37137672762E+03  0.37137672766E+03  0.50400001928E-02 0.  1.
        1   -1    0    0  501    0  0.00000000000E+00  0.00000000000E+00 -0.11590647119E+04  0.11590647119E+04  0.50400001928E-02 0. -1.
    10030    2    1    2    0    0  0.00000000000E+00  0.00000000000E+00 -0.78768798428E+03  0.15304414396E+04  0.13121732505E+04 0.  0.
        4    1    3    3  502    0  0.27194591235E+03  0.51959096478E+03 -0.73691223766E+03  0.94179117050E+03  0.12699999809E+01 0. -1.
       -4    1    3    3    0  502 -0.27194591235E+03 -0.51959096478E+03 -0.50775746627E+02  0.58865026907E+03  0.12699999809E+01 0.  1.
</event>
<event>
 5   0  0.5182179E-05  0.2543330E+04  0.7818609E-02  0.8387710E-01
       -2   -1    0    0    0  501  0.00000000000E+00  0.00000000000E+00  0.92126956540E+03  0.92126956540E+03  0.25500000920E-02 0. -1.
        2   -1    0    0  501    0  0.00000000000E+00  0.00000000000E+00 -0.17553298284E+04  0.17553298284E+04  0.25500000920E-02 0.  1.
    10030    2    1    2    0    0  0.00000000000E+00  0.00000000000E+00 -0.83406026297E+03  0.26765993938E+04  0.25433300597E+04 0.  0.
        3    1    3    3  502    0 -0.48759544507E+03 -0.11665892754E+04 -0.27407381655E+03  0.12937528058E+04  0.10100000352E+00 0. -1.
       -3    1    3    3    0  502  0.48759544507E+03  0.11665892754E+04 -0.55998644642E+03  0.13828465880E+04  0.10100000352E+00 0.  1.
</event>
<event>
 5   0  0.1993815E-05  0.2618211E+04  0.7818609E-02  0.8362042E-01
        1   -1    0    0  501    0  0.00000000000E+00  0.00000000000E+00  0.12143546138E+04  0.12143546138E+04  0.50400001928E-02 0. -1.
       -1   -1    0    0    0  501  0.00000000000E+00  0.00000000000E+00 -0.14112491872E+04  0.14112491872E+04  0.50400001928E-02 0.  1.
    10030    2    1    2    0    0  0.00000000000E+00  0.00000000000E+00 -0.19689457344E+03  0.26256038010E+04  0.26182108103E+04 0.  0.
        5    1    3    3  502    0 -0.88175048435E+03  0.89860863407E+03  0.26138826158E+03  0.12858177581E+04  0.46999998093E+01 0.  1.
       -5    1    3    3    0  502  0.88175048435E+03 -0.89860863407E+03 -0.45828283501E+03  0.13397860429E+04  0.46999998093E+01 0. -1.
</event>
<event>
 5   0  0.5182179E-05  0.2881588E+04  0.7818609E-02  0.8278377E-01
       -2   -1    0    0    0  501  0.00000000000E+00  0.00000000000E+00  0.14685489726E+04  0.14685489726E+04  0.25500000920E-02 0. -1.
        2   -1    0    0  501    0  0.00000000000E+00  0.00000000000E+00 -0.14135632518E+04  0.14135632518E+04  0.25500000920E-02 0.  1.
    10030    2    1    2    0    0  0.00000000000E+00  0.00000000000E+00  0.54985720787E+02  0.28821122244E+04  0.28815876604E+04 0.  0.
        3    1    3    3  502    0  0.69722533879E+02 -0.50678954705E+03 -0.13196710288E+04  0.14153545532E+04  0.10100000352E+00 0.  1.
       -3    1    3    3    0  502 -0.69722533879E+02  0.50678954705E+03  0.13746567496E+04  0.14667576712E+04  0.10100000352E+00 0. -1.
</event>
<event>
 5   0  0.5170532E-05  0.2627459E+04  0.7818609E-02  0.8358933E-01
        2   -1    0    0  501    0  0.00000000000E+00  0.00000000000E+00  0.24361972017E+04  0.24361972017E+04  0.25500000920E-02 0.  1.
       -2   -1    0    0    0  501  0.00000000000E+00  0.00000000000E+00 -0.70843436515E+03  0.70843436516E+03  0.25500000920E-02 0. -1.
    10030    2    1    2    0    0  0.00000000000E+00  0.00000000000E+00  0.17277628366E+04  0.31446315669E+04  0.26274594710E+04 0.  0.
        1    1    3    3  502    0 -0.99077239660E+03 -0.53107567983E+03  0.16775649494E+04  0.20193799739E+04  0.50400001928E-02 0.  1.
       -1    1    3    3    0  502  0.99077239660E+03  0.53107567983E+03  0.50197887169E+02  0.11252515930E+04  0.50400001928E-02 0. -1.
</event>
<event>
 5   0  0.1993815E-05  0.2037308E+04  0.7818609E-02  0.8589374E-01
        1   -1    0    0  501    0  0.00000000000E+00  0.00000000000E+00  0.11192361885E+04  0.11192361885E+04  0.50400001928E-02 0. -1.
       -1   -1    0    0    0  501  0.00000000000E+00  0.00000000000E+00 -0.92711093059E+03  0.92711093060E+03  0.50400001928E-02 0.  1.
    10030    2    1    2    0    0  0.00000000000E+00  0.00000000000E+00  0.19212525788E+03  0.20463471191E+04  0.20373081301E+04 0.  0.
        5    1    3    3  502    0 -0.53594483976E+03  0.61170194359E+03  0.71214998981E+03  0.10810161132E+04  0.46999998093E+01 0. -1.
       -5    1    3    3    0  502  0.53594483976E+03 -0.61170194359E+03 -0.52002473193E+03  0.96533100586E+03  0.46999998093E+01 0.  1.
</event>
<event>
 5   0  0.2072710E-05  0.2484595E+04  0.7818609E-02  0.8408494E-01
       -1   -1    0    0    0  501  0.00000000000E+00  0.00000000000E+00  0.10191533023E+04  0.10191533023E+04  0.50400001928E-02 0. -1.
        1   -1    0    0  501    0  0.00000000000E+00  0.00000000000E+00 -0.15142997943E+04  0.15142997943E+04  0.50400001928E-02 0.  1.
    10030    2    1    2    0    0  0.00000000000E+00  0.00000000000E+00 -0.49514649204E+03  0.25334530966E+04  0.24845954488E+04 0.  0.
        2    1    3    3  502    0  0.12269289797E+02 -0.10238561729E+04  0.46973110472E+03  0.11265342024E+04  0.25500000920E-02 0. -1.
       -2    1    3    3    0  502 -0.12269289797E+02  0.10238561729E+04 -0.96487759675E+03  0.14069188943E+04  0.25500000920E-02 0.  1.
</event>
<event>
 5   0  0.5036452E-05  0.2704518E+04  0.7818609E-02  0.8333541E-01
        2   -1    0    0  501    0  0.00000000000E+00  0.00000000000E+00  0.10053239113E+04  0.10053239113E+04  0.25500000920E-02 0. -1.
       -2   -1    0    0    0  501  0.00000000000E+00  0.00000000000E+00 -0.18189205178E+04  0.18189205178E+04  0.25500000920E-02 0.  1.
    10030    2    1    2    0    0  0.00000000000E+00  0.00000000000E+00 -0.81359660650E+03  0.28242444291E+04  0.27045179159E+04 0.  0.
        2    1    3    3  502    0 -0.51165949699E+03  0.12200157076E+04 -0.69913866935E+03  0.14963384132E+04  0.25500000920E-02 0. -1.
       -2    1    3    3    0  502  0.51165949699E+03 -0.12200157076E+04 -0.11445793715E+03  0.13279060159E+04  0.25500000920E-02 0.  1.
</event>
<event>
 5   0  0.5036452E-05  0.2730831E+04  0.7818609E-02  0.8325070E-01
       -2   -1    0    0    0  501  0.00000000000E+00  0.00000000000E+00  0.12100325200E+04  0.12100325200E+04  0.25500000920E-02 0. -1.
        2   -1    0    0  501    0  0.00000000000E+00  0.00000000000E+00 -0.15407511794E+04  0.15407511794E+04  0.25500000920E-02 0.  1.
    10030    2    1    2    0    0  0.00000000000E+00  0.00000000000E+00 -0.33071865944E+03  0.27507836994E+04  0.27308306665E+04 0.  0.
        2    1    3    3  502    0 -0.38051576336E+02  0.12492811870E+04 -0.71911014709E+03  0.14419676870E+04  0.25500000920E-02 0.  1.
       -2    1    3    3    0  502  0.38051576336E+02 -0.12492811870E+04  0.38839148765E+03  0.13088160124E+04  0.25500000920E-02 0. -1.
</event>
<event>
 5   0  0.2159405E-05  0.1916445E+04  0.7818609E-02  0.8646714E-01
       -1   -1    0    0    0  501  0.00000000000E+00  0.00000000000E+00  0.76608140740E+03  0.76608140741E+03  0.50400001928E-02 0.  1.
        1   -1    0    0  501    0  0.00000000000E+00  0.00000000000E+00 -0.11985548783E+04  0.11985548783E+04  0.50400001928E-02 0. -1.
    10030    2    1    2    0    0  0.00000000000E+00  0.00000000000E+00 -0.43247347090E+03  0.19646362857E+04  0.19164452594E+04 0.  0.
        3    1    3    3  502    0 -0.33462580547E+03  0.27145842334E+03  0.66116282039E+03  0.78917703372E+03  0.10100000352E+00 0.  1.
       -3    1    3    3    0  502  0.33462580547E+03 -0.27145842334E+03 -0.10936362913E+04  0.11754592520E+04  0.10100000352E+00 0. -1.
</event>
<event>
 5   0  0.2072710E-05  0.2585482E+04  0.7818609E-02  0.8373149E-01
        1   -1    0    0  501    0  0.00000000000E+00  0.00000000000E+00  0.20551843247E+04  0.20551843247E+04  0.50400001928E-02 0. -1.
       -1   -1    0    0    0  501  0.00000000000E+00  0.00000000000E+00 -0.81315281030E+03  0.81315281032E+03  0.50400001928E-02 0.  1.
    10030    2    1    2    0    0  0.00000000000E+00  0.00000000000E+00  0.12420315144E+04  0.28683371350E+04  0.25854817032E+04 0.  0.
        2    1    3    3  502    0  0.11530009466E+04 -0.41196007354E+03  0.10811922458E+04  0.16334316507E+04  0.25500000920E-02 0.  1.
       -2    1    3    3    0  502 -0.11530009466E+04  0.41196007354E+03  0.16083926857E+03  0.12349054844E+04  0.25500000920E-02 0. -1.
</event>
<event>
 5   0  0.5170532E-05  0.2629842E+04  0.7818609E-02  0.8358135E-01
       -2   -1    0    0    0  501  0.00000000000E+00  0.00000000000E+00  0.12118213654E+04  0.12118213654E+04  0.25500000920E-02 0. -1.
        2   -1    0    0  501    0  0.00000000000E+00  0.00000000000E+00 -0.14267920030E+04  0.14267920030E+04  0.25500000920E-02 0.  1.
    10030    2    1    2    0    0  0.00000000000E+00  0.00000000000E+00 -0.21497063758E+03  0.26386133684E+04  0.26298418456E+04 0.  0.
        1    1    3    3  502    0  0.90086231624E+03 -0.72707305275E+03 -0.73312659498E+03  0.13702783444E+04  0.50400001928E-02 0.  1.
       -1    1    3    3    0  502 -0.90086231624E+03  0.72707305275E+03  0.51815595740E+03  0.12683350240E+04  0.50400001928E-02 0. -1.
</event>
<event>
 5   0  0.1954502E-05  0.2573953E+04  0.7818609E-02  0.8377103E-01
       -1   -1    0    0    0  501  0.00000000000E+00  0.00000000000E+00  0.17030231969E+04  0.17030231969E+04  0.50400001928E-02 0. -1.
        1   -1    0    0  501    0  0.00000000000E+00  0.00000000000E+00 -0.97256922032E+03  0.97256922034E+03  0.50400001928E-02 0.  1.
    10030    2    1    2    0    0  0.00000000000E+00  0.00000000000E+00  0.73045397661E+03  0.26755924173E+04  0.25739525581E+04 0.  0.
        4    1    3    3  502    0 -0.12838773065E+04 -0.89053923276E+02  0.37135825532E+03  0.13394700841E+04  0.12699999809E+01 0.  1.
       -4    1    3    3    0  502  0.12838773065E+04  0.89053923276E+02  0.35909572129E+03  0.13361223332E+04  0.12699999809E+01 0. -1.
</event>
<event>
 5   0  0.5170532E-05  0.2598155E+04  0.7818609E-02  0.8368828E-01
        2   -1    0    0  501    0  0.00000000000E+00  0.00000000000E+00  0.18576494253E+04  0.18576494253E+04  0.25500000920E-02 0.  1.
       -2   -1    0    0    0  501  0.00000000000E+00  0.00000000000E+00 -0.90846090661E+03  0.90846090661E+03  0.25500000920E-02 0. -1.
    10030    2    1    2    0    0  0.00000000000E+00  0.00000000000E+00  0.94918851870E+03  0.27661103319E+04  0.25981546383E+04 0.  0.
        1    1    3    3  502    0 -0.11060602042E+04 -0.55680053852E+03  0.56518535794E+02  0.12395928202E+04  0.50400001928E-02 0. -1.
       -1    1    3    3    0  502  0.11060602042E+04  0.55680053852E+03  0.89266998290E+03  0.15265175117E+04  0.50400001928E-02 0.  1.
</event>
<event>
 5   0  0.2163800E-05  0.2590632E+04  0.7818609E-02  0.8371390E-01
        1   -1    0    0  501    0  0.00000000000E+00  0.00000000000E+00  0.13505552459E+04  0.13505552459E+04  0.50400001928E-02 0.  1.
       -1   -1    0    0    0  501  0.00000000000E+00  0.00000000000E+00 -0.12423357271E+04  0.12423357271E+04  0.50400001928E-02 0. -1.
    10030    2    1    2    0    0  0.00000000000E+00  0.00000000000E+00  0.10821951882E+03  0.25928909729E+04  0.25906316090E+04 0.  0.
        1    1    3    3  502    0 -0.30371958020E+02 -0.88795304630E+03  0.99751335467E+03  0.13358203326E+04  0.50400001928E-02 0.  1.
       -1    1    3    3    0  502  0.30371958020E+02  0.88795304630E+03 -0.88929383585E+03  0.12570706403E+04  0.50400001928E-02 0. -1.
</event>
<event>
 5   0  0.5049803E-05  0.2743365E+04  0.7818609E-02  0.8321070E-01
        2   -1    0    0  501    0  0.00000000000E+00  0.00000000000E+00  0.27315664682E+04  0.27315664682E+04  0.25500000920E-02 0.  1.
       -2   -1    0    0    0  501  0.00000000000E+00  0.00000000000E+00 -0.68880379489E+03  0.68880379489E+03  0.25500000920E-02 0. -1.
    10030    2    1    2    0    0  0.00000000000E+00  0.00000000000E+00  0.20427626733E+04  0.34203702631E+04  0.27433653415E+04 0.  0.
        4    1    3    3  502    0  0.57156310669E+03 -0.37441842832E+03  0.25042823562E+04  0.25958245852E+04  0.12699999809E+01 0.  1.
       -4    1    3    3    0  502 -0.57156310669E+03  0.37441842832E+03 -0.46151968290E+03  0.82454567793E+03  0.12699999809E+01 0. -1.
</event>
<event>
 5   0  0.1698625E-05  0.2589901E+04  0.7818609E-02  0.8371640E-01
       -3   -1    0    0    0  501  0.00000000000E+00  0.00000000000E+00  0.13937674824E+04  0.13937674860E+04  0.10100000352E+00 0.  1.
        3   -1    0    0  501    0  0.00000000000E+00  0.00000000000E+00 -0.12031391983E+04  0.12031392026E+04  0.10100000352E+00 0. -1.
    10030    2    1    2    0    0  0.00000000000E+00  0.00000000000E+00  0.19062828403E+03  0.25969066886E+04  0.25899006171E+04 0.  0.
        5    1    3    3  502    0 -0.58506680880E+02  0.31985462441E+03 -0.11615295477E+04  0.12061935966E+04  0.46999998093E+01 0. -1.
       -5    1    3    3    0  502  0.58506680880E+02 -0.31985462441E+03  0.13521578317E+04  0.13907130920E+04  0.46999998093E+01 0.  1.
</event>
<event>
 5   0  0.5182179E-05  0.2587307E+04  0.7818609E-02  0.8372525E-01
       -2   -1    0    0    0  501  0.00000000000E+00  0.00000000000E+00  0.79066073578E+03  0.79066073578E+03  0.25500000920E-02 0. -1.
        2   -1    0    0  501    0  0.00000000000E+00  0.00000000000E+00 -0.21166345613E+04  0.21166345613E+04  0.25500000920E-02 0.  1.
    10030    2    1    2    0    0  0.00000000000E+00  0.00000000000E+00 -0.13259738255E+04  0.29072952971E+04  0.25873073568E+04 0.  0.
        3    1    3    3  502    0 -0.29656550178E+03 -0.78082497413E+01  0.75192058511E+03  0.80832953807E+03  0.10100000352E+00 0. -1.
       -3    1    3    3    0  502  0.29656550178E+03  0.78082497413E+01 -0.20778944106E+04  0.20989657590E+04  0.10100000352E+00 0.  1.
</event>
<event>
 5   0  0.5036452E-05  0.2664755E+04  0.7818609E-02  0.8346532E-01
        2   -1    0    0  501    0  0.00000000000E+00  0.00000000000E+00  0.16245707927E+04  0.16245707927E+04  0.25500000920E-02 0.  1.
       -2   -1    0    0    0  501  0.00000000000E+00  0.00000000000E+00 -0.10927377106E+04  0.10927377106E+04  0.25500000920E-02 0. -1.
    10030    2    1    2    0    0  0.00000000000E+00  0.00000000000E+00  0.53183308214E+03  0.27173085033E+04  0.26647549746E+04 0.  0.
        2    1    3    3  502    0 -0.12696736969E+04  0.12993502364E+03 -0.12408583828E+03  0.12823227761E+04  0.25500000920E-02 0. -1.
       -2    1    3    3    0  502  0.12696736969E+04 -0.12993502364E+03  0.65591892042E+03  0.14349857271E+04  0.25500000920E-02 0.  1.
</event>
<event>
 5   0  0.5170532E-05  0.1668105E+04  0.7818609E-02  0.8779767E-01
       -2   -1    0    0    0  501  0.00000000000E+00  0.00000000000E+00  0.51598143791E+03  0.51598143792E+03  0.25500000920E-02 0.  1.
        2   -1    0    0  501    0  0.00000000000E+00  0.00000000000E+00 -0.13481947379E+04  0.13481947379E+04  0.25500000920E-02 0. -1.
    10030    2    1    2    0    0  0.00000000000E+00  0.00000000000E+00 -0.83221330002E+03  0.18641761759E+04  0.16681048642E+04 0.  0.
        1    1    3    3  502    0  0.50182892655E+02  0.43934630246E+03  0.37419341188E+03  0.57927903960E+03  0.50400001928E-02 0.  1.
       -1    1    3    3    0  502 -0.50182892655E+02 -0.43934630246E+03 -0.12064067119E+04  0.12848971363E+04  0.50400001928E-02 0. -1.
</event>
<event>
 5   0  0.1954502E-05  0.2565674E+04  0.7818609E-02  0.8379955E-01
        1   -1    0    0  501    0  0.00000000000E+00  0.00000000000E+00  0.15763416466E+04  0.15763416466E+04  0.50400001928E-02 0.  1.
       -1   -1    0    0    0  501  0.00000000000E+00  0.00000000000E+00 -0.10439809071E+04  0.10439809071E+04  0.50400001928E-02 0. -1.
    10030    2    1    2    0    0  0.00000000000E+00  0.00000000000E+00  0.53236073953E+03  0.26203225537E+04  0.25656738546E+04 0.  0.
        4    1    3    3  502    0  0.74588568550E+03 -0.68557928342E+03  0.10699016088E+04  0.14734501943E+04  0.12699999809E+01 0.  1.
       -4    1    3    3    0  502 -0.74588568550E+03  0.68557928342E+03 -0.53754086925E+03  0.11468723594E+04  0.12699999809E+01 0. -1.
</event>
<event>
 5   0  0.5036452E-05  0.1356584E+04  0.7818609E-02  0.8985859E-01
        2   -1    0    0  501    0  0.00000000000E+00  0.00000000000E+00  0.33390887945E+03  0.33390887946E+03  0.25500000920E-02 0. -1.
       -2   -1    0    0    0  501  0.00000000000E+00  0.00000000000E+00 -0.13778618988E+04  0.13778618988E+04  0.25500000920E-02 0.  1.
    10030    2    1    2    0    0  0.00000000000E+00  0.00000000000E+00 -0.10439530194E+04  0.17117707783E+04  0.13565844208E+04 0.  0.
        2    1    3    3  502    0  0.30941273246E+03  0.99950957469E+02  0.22915742886E+03  0.39779336359E+03  0.25500000920E-02 0. -1.
       -2    1    3    3    0  502 -0.30941273246E+03 -0.99950957469E+02 -0.12731104482E+04  0.13139774147E+04  0.25500000920E-02 0.  1.
</event>
<event>
 5   0  0.1993815E-05  0.2418353E+04  0.7818609E-02  0.8432664E-01
       -1   -1    0    0    0  501  0.00000000000E+00  0.00000000000E+00  0.10238445802E+04  0.10238445802E+04  0.50400001928E-02 0.  1.
        1   -1    0    0  501    0  0.00000000000E+00  0.00000000000E+00 -0.14280558702E+04  0.14280558702E+04  0.50400001928E-02 0. -1.
    10030    2    1    2    0    0  0.00000000000E+00  0.00000000000E+00 -0.40421129003E+03  0.24519004505E+04  0.24183525492E+04 0.  0.
        5    1    3    3  502    0  0.57190581266E+03  0.26406345332E+03 -0.12485472215E+04  0.13984627347E+04  0.46999998093E+01 0. -1.
       -5    1    3    3    0  502 -0.57190581266E+03 -0.26406345332E+03  0.84433593146E+03  0.10534377158E+04  0.46999998093E+01 0.  1.
</event>
<event>
 5   0  0.1954502E-05  0.2588168E+04  0.7818609E-02  0.8372231E-01
        1   -1    0    0  501    0  0.00000000000E+00  0.00000000000E+00  0.15734751913E+04  0.15734751913E+04  0.50400001928E-02 0.  1.
       -1   -1    0    0    0  501  0.00000000000E+00  0.00000000000E+00 -0.10643021862E+04  0.10643021862E+04  0.50400001928E-02 0. -1.
    10030    2    1    2    0    0  0.00000000000E+00  0.00000000000E+00  0.50917300504E+03  0.26377773775E+04  0.25881677581E+04 0.  0.
        4    1    3    3  502    0 -0.51021543830E+03  0.10226296043E+04 -0.36414187542E+03  0.11994548843E+04  0.12699999809E+01 0. -1.
       -4    1    3    3    0  502  0.51021543830E+03 -0.10226296043E+04  0.87331488046E+03  0.14383224932E+04  0.12699999809E+01 0.  1.
</event>
<event>
 5   0  0.1954502E-05  0.2380610E+04  0.7818609E-02  0.8446799E-01
        1   -1    0    0  501    0  0.00000000000E+00  0.00000000000E+00  0.15945170449E+04  0.15945170449E+04  0.50400001928E-02 0. -1.
       -1   -1    0    0    0  501  0.00000000000E+00  0.00000000000E+00 -0.88856108342E+03  0.88856108343E+03  0.50400001928E-02 0.  1.
    10030    2    1    2    0    0  0.00000000000E+00  0.00000000000E+00  0.70595596146E+03  0.24830781283E+04  0.23806098319E+04 0.  0.
        4    1    3    3  502    0  0.95609694745E+02 -0.79828178072E+03  0.12684994204E+04  0.15018280220E+04  0.12699999809E+01 0. -1.
       -4    1    3    3    0  502 -0.95609694745E+02  0.79828178072E+03 -0.56254345892E+03  0.98125010636E+03  0.12699999809E+01 0.  1.
</event>
<event>
 5   0  0.1993815E-05  0.2425130E+04  0.7818609E-02  0.8430155E-01
        1   -1    0    0  501    0  0.00000000000E+00  0.00000000000E+00  0.23639348183E+04  0.23639348183E+04  0.50400001928E-02 0. -1.
       -1   -1    0    0    0  501  0.00000000000E+00  0.00000000000E+00 -0.62197729260E+03  0.62197729262E+03  0.50400001928E-02 0.  1.
    10030    2    1    2    0    0  0.00000000000E+00  0.00000000000E+00  0.17419575257E+04  0.29859121109E+04  0.24251299167E+04 0.  0.
        5    1    3    3  502    0  0.46657065010E+03  0.24604223836E+03  0.22152666810E+04  0.22772030020E+04  0.46999998093E+01 0. -1.
       -5    1    3    3    0  502 -0.46657065010E+03 -0.24604223836E+03 -0.47330915527E+03  0.70870910891E+03  0.46999998093E+01 0.  1.
</event>
<event>
 5   0  0.5182179E-05  0.2586964E+04  0.7818609E-02  0.8372643E-01
       -2   -1    0    0    0  501  0.00000000000E+00  0.00000000000E+00  0.69342609761E+03  0.69342609762E+03  0.25500000920E-02 0. -1.
        2   -1    0    0  501    0  0.00000000000E+00  0.00000000000E+00 -0.24127951407E+04  0.24127951407E+04  0.25500000920E-02 0.  1.
    10030    2    1    2    0    0  0.00000000000E+00  0.00000000000E+00 -0.17193690431E+04  0.31062212383E+04  0.25869635628E+04 0.  0.
        3    1    3    3  502    0  0.79293941612E+03  0.19285686918E+03  0.34532037231E+03  0.88611108748E+03  0.10100000352E+00 0. -1.
       -3    1    3    3    0  502 -0.79293941612E+03 -0.19285686918E+03 -0.20646894154E+04  0.22201101508E+04  0.10100000352E+00 0.  1.
</event>
<event>
 5   0  0.5049803E-05  0.2730167E+04  0.7818609E-02  0.8325283E-01
        2   -1    0    0  501    0  0.00000000000E+00  0.00000000000E+00  0.14887924911E+04  0.14887924911E+04  0.25500000920E-02 0. -1.
       -2   -1    0    0    0  501  0.00000000000E+00  0.00000000000E+00 -0.12516539095E+04  0.12516539095E+04  0.25500000920E-02 0.  1.
    10030    2    1    2    0    0  0.00000000000E+00  0.00000000000E+00  0.23713858154E+03  0.27404464006E+04  0.27301669853E+04 0.  0.
        4    1    3    3  502    0  0.10621031769E+04 -0.39763002618E+02 -0.74128140846E+03  0.12958178862E+04  0.12699999809E+01 0.  1.
       -4    1    3    3    0  502 -0.10621031769E+04  0.39763002618E+02  0.97841998999E+03  0.14446285144E+04  0.12699999809E+01 0. -1.
</event>
<event>
 5   0  0.4955675E-05  0.2667759E+04  0.7818609E-02  0.8345542E-01
       -2   -1    0    0    0  501  0.00000000000E+00  0.00000000000E+00  0.10052244427E+04  0.10052244427E+04  0.25500000920E-02 0. -1.
        2   -1    0    0  501    0  0.00000000000E+00  0.00000000000E+00 -0.17699872901E+04  0.17699872901E+04  0.25500000920E-02 0.  1.
    10030    2    1    2    0    0  0.00000000000E+00  0.00000000000E+00 -0.76476284741E+03  0.27752117328E+04  0.26677589750E+04 0.  0.
        5    1    3    3  502    0  0.63241861269E+03 -0.47808131382E+03  0.73353094234E+03  0.10800948003E+04  0.46999998093E+01 0. -1.
       -5    1    3    3    0  502 -0.63241861269E+03  0.47808131382E+03 -0.14982937897E+04  0.16951169325E+04  0.46999998093E+01 0.  1.
</event>
<event>
 5   0  0.2072710E-05  0.2584685E+04  0.7818609E-02  0.8373422E-01
        1   -1    0    0  501    0  0.00000000000E+00  0.00000000000E+00  0.17922249951E+04  0.17922249951E+04  0.50400001928E-02 0.  1.
       -1   -1    0    0    0  501  0.00000000000E+00  0.00000000000E+00 -0.93188585879E+03  0.93188585880E+03  0.50400001928E-02 0. -1.
    10030    2    1    2    0    0  0.00000000000E+00  0.00000000000E+00  0.86033913634E+03  0.27241108539E+04  0.25846849934E+04 0.  0.
        2    1    3    3  502    0  0.59926515637E+03  0.28415628077E+03  0.15991846854E+04  0.17312582642E+04  0.25500000920E-02 0.  1.
       -2    1    3    3    0  502 -0.59926515637E+03 -0.28415628077E+03 -0.73884554904E+03  0.99285258970E+03  0.25500000920E-02 0. -1.
</event>
<event>
 5   0  0.2072710E-05  0.2478965E+04  0.7818609E-02  0.8410518E-01
        1   -1    0    0  501    0  0.00000000000E+00  0.00000000000E+00  0.18996948205E+04  0.18996948205E+04  0.50400001928E-02 0.  1.
       -1   -1    0    0    0  501  0.00000000000E+00  0.00000000000E+00 -0.80871796584E+03  0.80871796586E+03  0.50400001928E-02 0. -1.
    10030    2    1    2    0    0  0.00000000000E+00  0.00000000000E+00  0.10909768546E+04  0.27084127863E+04  0.24789653737E+04 0.  0.
        2    1    3    3  502    0 -0.43172720694E+03 -0.11234922939E+04  0.22194739078E+03  0.12238806968E+04  0.25500000920E-02 0. -1.
       -2    1    3    3    0  502  0.43172720694E+03  0.11234922939E+04  0.86902946385E+03  0.14845320895E+04  0.25500000920E-02 0.  1.
</event>
<event>
 5   0  0.1698625E-05  0.2591407E+04  0.7818609E-02  0.8371126E-01
       -3   -1    0    0    0  501  0.00000000000E+00  0.00000000000E+00  0.28199854180E+04  0.28199854198E+04  0.10100000352E+00 0.  1.
        3   -1    0    0  501    0  0.00000000000E+00  0.00000000000E+00 -0.59533891979E+03  0.59533892836E+03  0.10100000352E+00 0. -1.
    10030    2    1    2    0    0  0.00000000000E+00  0.00000000000E+00  0.22246464982E+04  0.34153243481E+04  0.25914066375E+04 0.  0.
        5    1    3    3  502    0 -0.63195491439E+03 -0.65252907794E+03  0.23300218787E+04  0.25008369113E+04  0.46999998093E+01 0.  1.
       -5    1    3    3    0  502  0.63195491439E+03  0.65252907794E+03 -0.10537538055E+03  0.91448743688E+03  0.46999998093E+01 0. -1.
</event>
<event>
 5   0  0.1954502E-05  0.2547539E+04  0.7818609E-02  0.8386243E-01
        1   -1    0    0  501    0  0.00000000000E+00  0.00000000000E+00  0.28284860097E+04  0.28284860097E+04  0.50400001928E-02 0.  1.
       -1   -1    0    0    0  501  0.00000000000E+00  0.00000000000E+00 -0.57362445347E+03  0.57362445349E+03  0.50400001928E-02 0. -1.
    10030    2    1    2    0    0  0.00000000000E+00  0.00000000000E+00  0.22548615562E+04  0.34021104632E+04  0.25475390018E+04 0.  0.
        4    1    3    3  502    0 -0.17928771403E+03  0.18993321356E+03 -0.53747852600E+03  0.59758136587E+03  0.12699999809E+01 0. -1.
       -4    1    3    3    0  502  0.17928771403E+03 -0.18993321356E+03  0.27923400822E+04  0.28045290973E+04  0.12699999809E+01 0.  1.
</event>
<event>
 5   0  0.2159405E-05  0.2303418E+04  0.7818609E-02  0.8476575E-01
        1   -1    0    0  501    0  0.00000000000E+00  0.00000000000E+00  0.15856351000E+04  0.15856351000E+04  0.50400001928E-02 0.  1.
       -1   -1    0    0    0  501  0.00000000000E+00  0.00000000000E+00 -0.83653125887E+03  0.83653125889E+03  0.50400001928E-02 0. -1.
    10030    2    1    2    0    0  0.00000000000E+00  0.00000000000E+00  0.74910384114E+03  0.24221663589E+04  0.23034177444E+04 0.  0.
        3    1    3    3  502    0 -0.88181917438E+03 -0.39977045924E+03 -0.28131038235E+03  0.10082445228E+04  0.10100000352E+00 0. -1.
       -3    1    3    3    0  502  0.88181917438E+03  0.39977045924E+03  0.10304142235E+04  0.14139218361E+04  0.10100000352E+00 0.  1.
</event>
<event>
 5   0  0.5049803E-05  0.2665597E+04  0.7818609E-02  0.8346255E-01
        2   -1    0    0  501    0  0.00000000000E+00  0.00000000000E+00  0.13367106022E+04  0.13367106022E+04  0.25500000920E-02 0. -1.
       -2   -1    0    0    0  501  0.00000000000E+00  0.00000000000E+00 -0.13288979373E+04  0.13288979373E+04  0.25500000920E-02 0.  1.
    10030    2    1    2    0    0  0.00000000000E+00  0.00000000000E+00  0.78126649120E+01  0.26656085394E+04  0.26655970903E+04 0.  0.
        4    1    3    3  502    0  0.47476722649E+03 -0.11292766317E+03 -0.12363383959E+04  0.13291692212E+04  0.12699999809E+01 0.  1.
       -4    1    3    3    0  502 -0.47476722649E+03  0.11292766317E+03  0.12441510608E+04  0.13364393183E+04  0.12699999809E+01 0. -1.
</event>
<event>
 5   0  0.4955675E-05  0.1325792E+04  0.7818609E-02  0.9009359E-01
        2   -1    0    0  501    0  0.00000000000E+00  0.00000000000E+00  0.26012187572E+03  0.26012187573E+03  0.25500000920E-02 0.  1.
       -2   -1    0    0    0  501  0.00000000000E+00  0.00000000000E+00 -0.16893266217E+04  0.16893266217E+04  0.25500000920E-02 0. -1.
    10030    2    1    2    0    0  0.00000000000E+00  0.00000000000E+00 -0.14292047459E+04  0.19494484974E+04  0.13257915516E+04 0.  0.
        5    1    3    3  502    0  0.39082849725E+03 -0.41236630177E+03 -0.21247339148E+03  0.60659699405E+03  0.46999998093E+01 0.  1.
       -5    1    3    3    0  502 -0.39082849725E+03  0.41236630177E+03 -0.12167313545E+04  0.13428515033E+04  0.46999998093E+01 0. -1.
</event>
<event>
 5   0  0.1993815E-05  0.2526151E+04  0.7818609E-02  0.8393728E-01
        1   -1    0    0  501    0  0.00000000000E+00  0.00000000000E+00  0.15063286102E+04  0.15063286102E+04  0.50400001928E-02 0.  1.
       -1   -1    0    0    0  501  0.00000000000E+00  0.00000000000E+00 -0.10591044712E+04  0.10591044712E+04  0.50400001928E-02 0. -1.
    10030    2    1    2    0    0  0.00000000000E+00  0.00000000000E+00  0.44722413897E+03  0.25654330814E+04  0.25261507209E+04 0.  0.
        5    1    3    3  502    0 -0.39963956992E+03  0.11170775235E+04 -0.21644275115E+03  0.12060031235E+04  0.46999998093E+01 0. -1.
       -5    1    3    3    0  502  0.39963956992E+03 -0.11170775235E+04  0.66366689011E+03  0.13594299579E+04  0.46999998093E+01 0.  1.
</event>
<event>
 5   0  0.5170532E-05  0.2577920E+04  0.7818609E-02  0.8375740E-01
       -2   -1    0    0    0  501  0.00000000000E+00  0.00000000000E+00  0.10445744932E+04  0.10445744932E+04  0.25500000920E-02 0.  1.
        2   -1    0    0  501    0  0.00000000000E+00  0.00000000000E+00 -0.15905208960E+04  0.15905208960E+04  0.25500000920E-02 0. -1.
    10030    2    1    2    0    0  0.00000000000E+00  0.00000000000E+00 -0.54594640282E+03  0.26350953893E+04  0.25779197497E+04 0.  0.
        1    1    3    3  502    0 -0.74374421486E+03  0.32966249522E+03  0.74899352556E+03  0.11058137814E+04  0.50400001928E-02 0.  1.
       -1    1    3    3    0  502  0.74374421486E+03 -0.32966249522E+03 -0.12949399284E+04  0.15292816078E+04  0.50400001928E-02 0. -1.
</event>
<event>
 5   0  0.5036452E-05  0.2599753E+04  0.7818609E-02  0.8368285E-01
        2   -1    0    0  501    0  0.00000000000E+00  0.00000000000E+00  0.14452027781E+04  0.14452027781E+04  0.25500000920E-02 0. -1.
       -2   -1    0    0    0  501  0.00000000000E+00  0.00000000000E+00 -0.11691641808E+04  0.11691641808E+04  0.25500000920E-02 0.  1.
    10030    2    1    2    0    0  0.00000000000E+00  0.00000000000E+00  0.27603859735E+03  0.26143669589E+04  0.25997533130E+04 0.  0.
        2    1    3    3  502    0  0.53866413593E+03 -0.14903310887E+03  0.13182044932E+04  0.14317936321E+04  0.25500000920E-02 0. -1.
       -2    1    3    3    0  502 -0.53866413593E+03  0.14903310887E+03 -0.10421658959E+04  0.11825733269E+04  0.25500000920E-02 0.  1.
</event>
<event>
 5   0  0.5036452E-05  0.2560591E+04  0.7818609E-02  0.8381712E-01
       -2   -1    0    0    0  501  0.00000000000E+00  0.00000000000E+00  0.12622713060E+04  0.12622713060E+04  0.25500000920E-02 0. -1.
        2   -1    0    0  501    0  0.00000000000E+00  0.00000000000E+00 -0.12985772077E+04  0.12985772077E+04  0.25500000920E-02 0.  1.
    10030    2    1    2    0    0  0.00000000000E+00  0.00000000000E+00 -0.36305901661E+02  0.25608485137E+04  0.25605911410E+04 0.  0.
        2    1    3    3  502    0  0.39205203460E+03  0.70681510433E+03 -0.10111597749E+04  0.12945024063E+04  0.25500000920E-02 0.  1.
       -2    1    3    3    0  502 -0.39205203460E+03 -0.70681510433E+03  0.97485387323E+03  0.12663461074E+04  0.25500000920E-02 0. -1.
</event>
<event>
 5   0  0.1954502E-05  0.1954694E+04  0.7818609E-02  0.8628100E-01
       -1   -1    0    0    0  501  0.00000000000E+00  0.00000000000E+00  0.15514196079E+04  0.15514196079E+04  0.50400001928E-02 0. -1.
        1   -1    0    0  501    0  0.00000000000E+00  0.00000000000E+00 -0.61569895887E+03  0.61569895889E+03  0.50400001928E-02 0.  1.
    10030    2    1    2    0    0  0.00000000000E+00  0.00000000000E+00  0.93572064905E+03  0.21671185668E+04  0.19546942854E+04 0.  0.
        4    1    3    3  502    0 -0.13513181480E+03  0.75191837314E+02  0.15377687979E+04  0.15455254473E+04  0.12699999809E+01 0. -1.
       -4    1    3    3    0  502  0.13513181480E+03 -0.75191837314E+02 -0.60204814882E+03  0.62159311947E+03  0.12699999809E+01 0.  1.
</event>
<event>
 5   0  0.2163800E-05  0.2610210E+04  0.7818609E-02  0.8364741E-01
        1   -1    0    0  501    0  0.00000000000E+00  0.00000000000E+00  0.19605933690E+04  0.19605933690E+04  0.50400001928E-02 0. -1.
       -1   -1    0    0    0  501  0.00000000000E+00  0.00000000000E+00 -0.86876740903E+03  0.86876740905E+03  0.50400001928E-02 0.  1.
    10030    2    1    2    0    0  0.00000000000E+00  0.00000000000E+00  0.10918259600E+04  0.28293607781E+04  0.26102104294E+04 0.  0.
        1    1    3    3  502    0 -0.83555546788E+03 -0.98905922077E+03  0.36810228895E+03  0.13460647745E+04  0.50400001928E-02 0.  1.
       -1    1    3    3    0  502  0.83555546788E+03  0.98905922077E+03  0.72372367106E+03  0.14832960036E+04  0.50400001928E-02 0. -1.
</event>
<event>
 5   0  0.4955675E-05  0.2391073E+04  0.7818609E-02  0.8442853E-01
        2   -1    0    0  501    0  0.00000000000E+00  0.00000000000E+00  0.16495613917E+04  0.16495613917E+04  0.25500000920E-02 0. -1.
       -2   -1    0    0    0  501  0.00000000000E+00  0.00000000000E+00 -0.86647723561E+03  0.86647723561E+03  0.25500000920E-02 0.  1.
    10030    2    1    2    0    0  0.00000000000E+00  0.00000000000E+00  0.78308415605E+03  0.25160386273E+04  0.23910728928E+04 0.  0.
        5    1    3    3  502    0 -0.43378287476E+03 -0.52034362018E+03  0.14280938175E+04  0.15806325022E+04  0.46999998093E+01 0. -1.
       -5    1    3    3    0  502  0.43378287476E+03  0.52034362018E+03 -0.64500966142E+03  0.93540612507E+03  0.46999998093E+01 0.  1.
</event>
<event>
 5   0  0.1993815E-05  0.2583864E+04  0.7818609E-02  0.8373703E-01
        1   -1    0    0  501    0  0.00000000000E+00  0.00000000000E+00  0.12737466857E+04  0.12737466857E+04  0.50400001928E-02 0. -1.
       -1   -1    0    0    0  501  0.00000000000E+00  0.00000000000E+00 -0.13103765140E+04  0.13103765140E+04  0.50400001928E-02 0.  1.
    10030    2    1    2    0    0  0.00000000000E+00  0.00000000000E+00 -0.36629828307E+02  0.25841231998E+04  0.25838635736E+04 0.  0.
        5    1    3    3  502    0 -0.11546682551E+04 -0.57598908242E+03  0.45279597932E+02  0.12911601506E+04  0.46999998093E+01 0.  1.
       -5    1    3    3    0  502  0.11546682551E+04  0.57598908242E+03 -0.81909426240E+02  0.12929630492E+04  0.46999998093E+01 0. -1.
</event>
<event>
 5   0  0.5036452E-05  0.2568825E+04  0.7818609E-02  0.8378868E-01
        2   -1    0    0  501    0  0.00000000000E+00  0.00000000000E+00  0.11601586851E+04  0.11601586852E+04  0.25500000920E-02 0.  1.
       -2   -1    0    0    0  501  0.00000000000E+00  0.00000000000E+00 -0.14219736677E+04  0.14219736677E+04  0.25500000920E-02 0. -1.
    10030    2    1    2    0    0  0.00000000000E+00  0.00000000000E+00 -0.26181498255E+03  0.25821323529E+04  0.25688247123E+04 0.  0.
        2    1    3    3  502    0 -0.11382576201E+04 -0.52487259749E+03  0.15089004889E+03  0.12624933506E+04  0.25500000920E-02 0. -1.
       -2    1    3    3    0  502  0.11382576201E+04  0.52487259749E+03 -0.41270503144E+03  0.13196390023E+04  0.25500000920E-02 0.  1.
</event>
<event>
 5   0  0.5049803E-05  0.2517826E+04  0.7818609E-02  0.8396662E-01
       -2   -1    0    0    0  501  0.00000000000E+00  0.00000000000E+00  0.87632823907E+03  0.87632823907E+03  0.25500000920E-02 0.  1.
        2   -1    0    0  501    0  0.00000000000E+00  0.00000000000E+00 -0.18085251717E+04  0.18085251717E+04  0.25500000920E-02 0. -1.
    10030    2    1    2    0    0  0.00000000000E+00  0.00000000000E+00 -0.93219693266E+03  0.26848534108E+04  0.25178257915E+04 0.  0.
        4    1    3    3  502    0  0.12423689932E+04 -0.20288319007E+03 -0.45036276937E+03  0.13369631787E+04  0.12699999809E+01 0. -1.
       -4    1    3    3    0  502 -0.12423689932E+04  0.20288319007E+03 -0.48183416329E+03  0.13478902322E+04  0.12699999809E+01 0.  1.
</event>
<event>
 5   0  0.1954502E-05  0.2241619E+04  0.7818609E-02  0.8501302E-01
       -1   -1    0    0    0  501  0.00000000000E+00  0.00000000000E+00  0.87964000234E+03  0.87964000236E+03  0.50400001928E-02 0.  1.
        1   -1    0    0  501    0  0.00000000000E+00  0.00000000000E+00 -0.14281001347E+04  0.14281001347E+04  0.50400001928E-02 0. -1.
    10030    2    1    2    0    0  0.00000000000E+00  0.00000000000E+00 -0.54846013235E+03  0.23077401371E+04  0.22416190630E+04 0.  0.
        4    1    3    3  502    0 -0.73184921843E+03  0.78741612340E+03  0.52276276785E+02  0.10762722016E+04  0.12699999809E+01 0.  1.
       -4    1    3    3    0  502  0.73184921843E+03 -0.78741612340E+03 -0.60073640913E+03  0.12314679355E+04  0.12699999809E+01 0. -1.
</event>
<event>
 5   0  0.4955675E-05  0.2346089E+04  0.7818609E-02  0.8459968E-01
       -2   -1    0    0    0  501  0.00000000000E+00  0.00000000000E+00  0.69500384104E+03  0.69500384104E+03  0.25500000920E-02 0.  1.
        2   -1    0    0  501    0  0.00000000000E+00  0.00000000000E+00 -0.19798924298E+04  0.19798924298E+04  0.25500000920E-02 0. -1.
    10030    2    1    2    0    0  0.00000000000E+00  0.00000000000E+00 -0.12848885887E+04  0.26748962708E+04  0.23460885265E+04 0.  0.
        5    1    3    3  502    0 -0.29751250976E+03  0.81530062817E+03 -0.15422123216E+04  0.17696524355E+04  0.46999998093E+01 0. -1.
       -5    1    3    3    0  502  0.29751250976E+03 -0.81530062817E+03  0.25732373288E+03  0.90524383525E+03  0.46999998093E+01 0.  1.
</event>
<event>
 5   0  0.5182179E-05  0.2149654E+04  0.7818609E-02  0.8539681E-01
        2   -1    0    0  501    0  0.00000000000E+00  0.00000000000E+00  0.11168260290E+04  0.11168260290E+04  0.25500000920E-02 0.  1.
       -2   -1    0    0    0  501  0.00000000000E+00  0.00000000000E+00 -0.10344070418E+04  0.10344070418E+04  0.25500000920E-02 0. -1.
    10030    2    1    2    0    0  0.00000000000E+00  0.00000000000E+00  0.82418987196E+02  0.21512330707E+04  0.21496536547E+04 0.  0.
        3    1    3    3  502    0  0.35032956552E+03  0.44787884677E+03 -0.87156066654E+03  0.10406460837E+04  0.10100000352E+00 0. -1.
       -3    1    3    3    0  502 -0.35032956552E+03 -0.44787884677E+03  0.95397965373E+03  0.11105869870E+04  0.10100000352E+00 0.  1.
</event>
<event>
 5   0  0.5049803E-05  0.2595534E+04  0.7818609E-02  0.8369720E-01
        2   -1    0    0  501    0  0.00000000000E+00  0.00000000000E+00  0.12794916679E+04  0.12794916679E+04  0.25500000920E-02 0. -1.
       -2   -1    0    0    0  501  0.00000000000E+00  0.00000000000E+00 -0.13163029328E+04  0.13163029328E+04  0.25500000920E-02 0.  1.
    10030    2    1    2    0    0  0.00000000000E+00  0.00000000000E+00 -0.36811264925E+02  0.25957946007E+04  0.25955335752E+04 0.  0.
        4    1    3    3  502    0  0.75062223437E+02  0.43845962770E+03 -0.12376737752E+04  0.13151878836E+04  0.12699999809E+01 0.  1.
       -4    1    3    3    0  502 -0.75062223437E+02 -0.43845962770E+03  0.12008625103E+04  0.12806067171E+04  0.12699999809E+01 0. -1.
</event>
<event>
 5   0  0.2072710E-05  0.2583896E+04  0.7818609E-02  0.8373692E-01
       -1   -1    0    0    0  501  0.00000000000E+00  0.00000000000E+00  0.10890884296E+04  0.10890884296E+04  0.50400001928E-02 0.  1.
        1   -1    0    0  501    0  0.00000000000E+00  0.00000000000E+00 -0.15325931737E+04  0.15325931737E+04  0.50400001928E-02 0. -1.
    10030    2    1    2    0    0  0.00000000000E+00  0.00000000000E+00 -0.44350474417E+03  0.26216816033E+04  0.25838958901E+04 0.  0.
        2    1    3    3  502    0  0.48488865791E+03  0.51574649556E+03  0.87480083557E+03  0.11253390423E+04  0.25500000920E-02 0.  1.
       -2    1    3    3    0  502 -0.48488865791E+03 -0.51574649556E+03 -0.13183055797E+04  0.14963425610E+04  0.25500000920E-02 0. -1.
</event>
<event>
 5   0  0.4955675E-05  0.3364669E+04  0.7818609E-02  0.8146633E-01
        2   -1    0    0  501    0  0.00000000000E+00  0.00000000000E+00  0.21133196381E+04  0.21133196381E+04  0.25500000920E-02 0.  1.
       -2   -1    0    0    0  501  0.00000000000E+00  0.00000000000E+00 -0.13392435055E+04  0.13392435055E+04  0.25500000920E-02 0. -1.
    10030    2    1    2    0    0  0.00000000000E+00  0.00000000000E+00  0.77407613269E+03  0.34525631436E+04  0.33646691370E+04 0.  0.
        5    1    3    3  502    0 -0.97883289286E+03  0.78060541720E+03  0.15401227342E+04  0.19848069870E+04  0.46999998093E+01 0.  1.
       -5    1    3    3    0  502  0.97883289286E+03 -0.78060541720E+03 -0.76604660147E+03  0.14677561566E+04  0.46999998093E+01 0. -1.
</event>
<event>
 5   0  0.1993815E-05  0.1968374E+04  0.7818609E-02  0.8621551E-01
        1   -1    0    0  501    0  0.00000000000E+00  0.00000000000E+00  0.14364460285E+04  0.14364460285E+04  0.50400001928E-02 0.  1.
       -1   -1    0    0    0  501  0.00000000000E+00  0.00000000000E+00 -0.67431991739E+03  0.67431991741E+03  0.50400001928E-02 0. -1.
    10030    2    1    2    0    0  0.00000000000E+00  0.00000000000E+00  0.76212611107E+03  0.21107659459E+04  0.19683741182E+04 0.  0.
        5    1    3    3  502    0  0.57972919923E+03  0.78381674985E+03  0.52552054518E+03  0.11075416810E+04  0.46999998093E+01 0. -1.
       -5    1    3    3    0  502 -0.57972919923E+03 -0.78381674985E+03  0.23660556589E+03  0.10032242649E+04  0.46999998093E+01 0.  1.
</event>
<event>
 5   0  0.5049803E-05  0.2576111E+04  0.7818609E-02  0.8376361E-01
       -2   -1    0    0    0  501  0.00000000000E+00  0.00000000000E+00  0.13721714099E+04  0.13721714099E+04  0.25500000920E-02 0. -1.
        2   -1    0    0  501    0  0.00000000000E+00  0.00000000000E+00 -0.12090955723E+04  0.12090955723E+04  0.25500000920E-02 0.  1.
    10030    2    1    2    0    0  0.00000000000E+00  0.00000000000E+00  0.16307583762E+03  0.25812669821E+04  0.25761105381E+04 0.  0.
        4    1    3    3  502    0 -0.29975709937E+03 -0.51551969842E+03 -0.10624434012E+04  0.12183605672E+04  0.12699999809E+01 0.  1.
       -4    1    3    3    0  502  0.29975709937E+03  0.51551969842E+03  0.12255192389E+04  0.13629064149E+04  0.12699999809E+01 0. -1.
</event>
<event>
 5   0  0.2163800E-05  0.2734525E+04  0.7818609E-02  0.8323889E-01
        1   -1    0    0  501    0  0.00000000000E+00  0.00000000000E+00  0.11729739233E+04  0.11729739233E+04  0.50400001928E-02 0.  1.
       -1   -1    0    0    0  501  0.00000000000E+00  0.00000000000E+00 -0.15937329287E+04  0.15937329287E+04  0.50400001928E-02 0. -1.
    10030    2    1    2    0    0  0.00000000000E+00  0.00000000000E+00 -0.42075900542E+03  0.27667068521E+04  0.27345253088E+04 0.  0.
        1    1    3    3  502    0 -0.74383207394E+02 -0.11794623261E+04 -0.90603419340E+03  0.14891481457E+04  0.50400001928E-02 0. -1.
       -1    1    3    3    0  502  0.74383207394E+02  0.11794623261E+04  0.48527518799E+03  0.12775587064E+04  0.50400001928E-02 0.  1.
</event>
<event>
 5   0  0.4955675E-05  0.2563243E+04  0.7818609E-02  0.8380795E-01
        2   -1    0    0  501    0  0.00000000000E+00  0.00000000000E+00  0.15740784033E+04  0.15740784033E+04  0.25500000920E-02 0. -1.
       -2   -1    0    0    0  501  0.00000000000E+00  0.00000000000E+00 -0.10435019507E+04  0.10435019507E+04  0.25500000920E-02 0.  1.
    10030    2    1    2    0    0  0.00000000000E+00  0.00000000000E+00  0.53057645263E+03  0.26175803540E+04  0.25632431679E+04 0.  0.
        5    1    3    3  502    0 -0.30033517800E+03 -0.46000925374E+03  0.14477295308E+04  0.15484678289E+04  0.46999998093E+01 0. -1.
       -5    1    3    3    0  502  0.30033517800E+03  0.46000925374E+03 -0.91715307816E+03  0.10691125252E+04  0.46999998093E+01 0.  1.
</event>
<event>
 5   0  0.1993815E-05  0.2508934E+04  0.7818609E-02  0.8399810E-01
       -1   -1    0    0    0  501  0.00000000000E+00  0.00000000000E+00  0.75132759261E+03  0.75132759263E+03  0.50400001928E-02 0.  1.
        1   -1    0    0  501    0  0.00000000000E+00  0.00000000000E+00 -0.20945429629E+04  0.20945429629E+04  0.50400001928E-02 0. -1.
    10030    2    1    2    0    0  0.00000000000E+00  0.00000000000E+00 -0.13432153703E+04  0.28458705555E+04  0.25089343730E+04 0.  0.
        5    1    3    3  502    0 -0.10260057056E+04 -0.40414934644E+03 -0.13499513166E+04  0.17431050024E+04  0.46999998093E+01 0. -1.
       -5    1    3    3    0  502  0.10260057056E+04  0.40414934644E+03  0.67359463752E+01  0.11027655531E+04  0.46999998093E+01 0.  1.
</event>
<event>
 5   0  0.1993815E-05  0.2476063E+04  0.7818609E-02  0.8411563E-01
        1   -1    0    0  501    0  0.00000000000E+00  0.00000000000E+00  0.16172355244E+04  0.16172355244E+04  0.50400001928E-02 0.  1.
       -1   -1    0    0    0  501  0.00000000000E+00  0.00000000000E+00 -0.94774205497E+03  0.94774205499E+03  0.50400001928E-02 0. -1.
    10030    2    1    2    0    0  0.00000000000E+00  0.00000000000E+00  0.66949346944E+03  0.25649775794E+04  0.24760631004E+04 0.  0.
        5    1    3    3  502    0  0.74853716831E+03  0.77536192886E+03  0.96589205776E+03  0.14472261642E+04  0.46999998093E+01 0.  1.
       -5    1    3    3    0  502 -0.74853716831E+03 -0.77536192886E+03 -0.29639858832E+03  0.11177514152E+04  0.46999998093E+01 0. -1.
</event>
<event>
 5   0  0.4955675E-05  0.2608602E+04  0.7818609E-02  0.8365285E-01
       -2   -1    0    0    0  501  0.00000000000E+00  0.00000000000E+00  0.56772821764E+03  0.56772821764E+03  0.25500000920E-02 0.  1.
        2   -1    0    0  501    0  0.00000000000E+00  0.00000000000E+00 -0.29965063798E+04  0.29965063798E+04  0.25500000920E-02 0. -1.
    10030    2    1    2    0    0  0.00000000000E+00  0.00000000000E+00 -0.24287781622E+04  0.35642345975E+04  0.26086020978E+04 0.  0.
        5    1    3    3  502    0 -0.82483712458E+03  0.82106201396E+03 -0.40989500433E+03  0.12339104981E+04  0.46999998093E+01 0.  1.
       -5    1    3    3    0  502  0.82483712458E+03 -0.82106201396E+03 -0.20188831579E+04  0.23303240993E+04  0.46999998093E+01 0. -1.
</event>
<event>
 5   0  0.2163800E-05  0.1383111E+04  0.7818609E-02  0.8966135E-01
       -1   -1    0    0    0  501  0.00000000000E+00  0.00000000000E+00  0.17461775635E+04  0.17461775635E+04  0.50400001928E-02 0. -1.
        1   -1    0    0  501    0  0.00000000000E+00  0.00000000000E+00 -0.27388323827E+03  0.27388323831E+03  0.50400001928E-02 0.  1.
    10030    2    1    2    0    0  0.00000000000E+00  0.00000000000E+00  0.14722943252E+04  0.20200608018E+04  0.13831106474E+04 0.  0.
        1    1    3    3  502    0 -0.19019487153E+03 -0.60899432460E+03  0.11258641265E+04  0.12940704030E+04  0.50400001928E-02 0. -1.
       -1    1    3    3    0  502  0.19019487153E+03  0.60899432460E+03  0.34643019873E+03  0.72599039882E+03  0.50400001928E-02 0.  1.
</event>
<event>
 5   0  0.1954502E-05  0.2626322E+04  0.7818609E-02  0.8359315E-01
       -1   -1    0    0    0  501  0.00000000000E+00  0.00000000000E+00  0.15011299379E+04  0.15011299379E+04  0.50400001928E-02 0.  1.
        1   -1    0    0  501    0  0.00000000000E+00  0.00000000000E+00 -0.11487295373E+04  0.11487295373E+04  0.50400001928E-02 0. -1.
    10030    2    1    2    0    0  0.00000000000E+00  0.00000000000E+00  0.35240040056E+03  0.26498594752E+04  0.26263223709E+04 0.  0.
        4    1    3    3  502    0 -0.10993177792E+04 -0.66922076731E+03  0.43937236647E+03  0.13599285659E+04  0.12699999809E+01 0. -1.
       -4    1    3    3    0  502  0.10993177792E+04  0.66922076731E+03 -0.86971965904E+02  0.12899309093E+04  0.12699999809E+01 0.  1.
</event>
<event>
 5   0  0.1993815E-05  0.2584206E+04  0.7818609E-02  0.8373586E-01
       -1   -1    0    0    0  501  0.00000000000E+00  0.00000000000E+00  0.89997108070E+03  0.89997108072E+03  0.50400001928E-02 0. -1.
        1   -1    0    0  501    0  0.00000000000E+00  0.00000000000E+00 -0.18550929279E+04  0.18550929279E+04  0.50400001928E-02 0.  1.
    10030    2    1    2    0    0  0.00000000000E+00  0.00000000000E+00 -0.95512184723E+03  0.27550640087E+04  0.25842058642E+04 0.  0.
        5    1    3    3  502    0 -0.26594746481E+03 -0.50482118204E+02 -0.18245141359E+04  0.18444919139E+04  0.46999998093E+01 0.  1.
       -5    1    3    3    0  502  0.26594746481E+03  0.50482118204E+02  0.86939228864E+03  0.91057209480E+03  0.46999998093E+01 0. -1.
</event>
<event>
 5   0  0.1954502E-05  0.2530097E+04  0.7818609E-02  0.8392341E-01
        1   -1    0    0  501    0  0.00000000000E+00  0.00000000000E+00  0.98742580556E+03  0.98742580557E+03  0.50400001928E-02 0. -1.
       -1   -1    0    0    0  501  0.00000000000E+00  0.00000000000E+00 -0.16207270121E+04  0.16207270121E+04  0.50400001928E-02 0.  1.
    10030    2    1    2    0    0  0.00000000000E+00  0.00000000000E+00 -0.63330120654E+03  0.26081528177E+04  0.25300969749E+04 0.  0.
        4    1    3    3  502    0 -0.54804729508E+03 -0.30981546909E+03 -0.14477738808E+04  0.15787312264E+04  0.12699999809E+01 0.  1.
       -4    1    3    3    0  502  0.54804729508E+03  0.30981546909E+03  0.81447267424E+03  0.10294215912E+04  0.12699999809E+01 0. -1.
</event>
<event>
 5   0  0.1954502E-05  0.2559446E+04  0.7818609E-02  0.8382109E-01
       -1   -1    0    0    0  501  0.00000000000E+00  0.00000000000E+00  0.11219061137E+04  0.11219061137E+04  0.50400001928E-02 0. -1.
        1   -1    0    0  501    0  0.00000000000E+00  0.00000000000E+00 -0.14597392040E+04  0.14597392040E+04  0.50400001928E-02 0.  1.
    10030    2    1    2    0    0  0.00000000000E+00  0.00000000000E+00 -0.33783309030E+03  0.25816453178E+04  0.25594455161E+04 0.  0.
        4    1    3    3  502    0  0.49956400721E+03 -0.41879365695E+03  0.94187839690E+03  0.11454644699E+04  0.12699999809E+01 0. -1.
       -4    1    3    3    0  502 -0.49956400721E+03  0.41879365695E+03 -0.12797114872E+04  0.14361808479E+04  0.12699999809E+01 0.  1.
</event>
<event>
 5   0  0.1954502E-05  0.2584692E+04  0.7818609E-02  0.8373420E-01
       -1   -1    0    0    0  501  0.00000000000E+00  0.00000000000E+00  0.99753329645E+03  0.99753329646E+03  0.50400001928E-02 0.  1.
        1   -1    0    0  501    0  0.00000000000E+00  0.00000000000E+00 -0.16742884321E+04  0.16742884321E+04  0.50400001928E-02 0. -1.
    10030    2    1    2    0    0  0.00000000000E+00  0.00000000000E+00 -0.67675513566E+03  0.26718217286E+04  0.25846922129E+04 0.  0.
        4    1    3    3  502    0  0.35329136343E+03  0.18011952223E+03 -0.16098402361E+04  0.16579641216E+04  0.12699999809E+01 0. -1.
       -4    1    3    3    0  502 -0.35329136343E+03 -0.18011952223E+03  0.93308510043E+03  0.10138576070E+04  0.12699999809E+01 0.  1.
</event>
<event>
 5   0  0.2159405E-05  0.1351892E+04  0.7818609E-02  0.8989397E-01
        1   -1    0    0  501    0  0.00000000000E+00  0.00000000000E+00  0.67468147877E+03  0.67468147879E+03  0.50400001928E-02 0.  1.
       -1   -1    0    0    0  501  0.00000000000E+00  0.00000000000E+00 -0.67721269333E+03  0.67721269335E+03  0.50400001928E-02 0. -1.
    10030    2    1    2    0    0  0.00000000000E+00  0.00000000000E+00 -0.25312145602E+01  0.13518941721E+04  0.13518918025E+04 0.  0.
        3    1    3    3  502    0  0.74131403734E+02  0.56928952388E+03  0.35554984995E+03  0.67527900384E+03  0.10100000352E+00 0.  1.
       -3    1    3    3    0  502 -0.74131403734E+02 -0.56928952388E+03 -0.35808106451E+03  0.67661516831E+03  0.10100000352E+00 0. -1.
</event>
<event>
 5   0  0.5036452E-05  0.2541924E+04  0.7818609E-02  0.8388200E-01
        2   -1    0    0  501    0  0.00000000000E+00  0.00000000000E+00  0.14843624381E+04  0.14843624381E+04  0.25500000920E-02 0.  1.
       -2   -1    0    0    0  501  0.00000000000E+00  0.00000000000E+00 -0.10882416008E+04  0.10882416008E+04  0.25500000920E-02 0. -1.
    10030    2    1    2    0    0  0.00000000000E+00  0.00000000000E+00  0.39612083723E+03  0.25726040389E+04  0.25419244330E+04 0.  0.
        2    1    3    3  502    0  0.10307573958E+04  0.79350931757E+01  0.95055373828E+03  0.14021683865E+04  0.25500000920E-02 0.  1.
       -2    1    3    3    0  502 -0.10307573958E+04 -0.79350931757E+01 -0.55443290106E+03  0.11704356524E+04  0.25500000920E-02 0. -1.
</event>
<event>
 5   0  0.2159405E-05  0.2598506E+04  0.7818609E-02  0.8368709E-01
        1   -1    0    0  501    0  0.00000000000E+00  0.00000000000E+00  0.21891815564E+04  0.21891815564E+04  0.50400001928E-02 0.  1.
       -1   -1    0    0    0  501  0.00000000000E+00  0.00000000000E+00 -0.77109118353E+03  0.77109118355E+03  0.50400001928E-02 0. -1.
    10030    2    1    2    0    0  0.00000000000E+00  0.00000000000E+00  0.14180903729E+04  0.29602727400E+04  0.25985061842E+04 0.  0.
        3    1    3    3  502    0  0.11318487157E+04  0.13983923708E+03 -0.42826991490E-01  0.11404545320E+04  0.10100000352E+00 0.  1.
       -3    1    3    3    0  502 -0.11318487157E+04 -0.13983923708E+03  0.14181331999E+04  0.18198182080E+04  0.10100000352E+00 0. -1.
</event>
<event>
 5   0  0.2163800E-05  0.2630351E+04  0.7818609E-02  0.8357964E-01
       -1   -1    0    0    0  501  0.00000000000E+00  0.00000000000E+00  0.77899889997E+03  0.77899889999E+03  0.50400001928E-02 0. -1.
        1   -1    0    0  501    0  0.00000000000E+00  0.00000000000E+00 -0.22203973218E+04  0.22203973218E+04  0.50400001928E-02 0.  1.
    10030    2    1    2    0    0  0.00000000000E+00  0.00000000000E+00 -0.14413984218E+04  0.29993962218E+04  0.26303513615E+04 0.  0.
        1    1    3    3  502    0  0.51521425174E+03 -0.12057645787E+04 -0.60456105795E+03  0.14438864281E+04  0.50400001928E-02 0.  1.
       -1    1    3    3    0  502 -0.51521425174E+03  0.12057645787E+04 -0.83683736385E+03  0.15555097936E+04  0.50400001928E-02 0. -1.
</event>
<event>
 5   0  0.1698625E-05  0.2563385E+04  0.7818609E-02  0.8380746E-01
        4   -1    0    0  501    0  0.00000000000E+00  0.00000000000E+00  0.17755276065E+04  0.17755280607E+04  0.12699999809E+01 0. -1.
       -4   -1    0    0    0  501  0.00000000000E+00  0.00000000000E+00 -0.92520872878E+03  0.92520960042E+03  0.12699999809E+01 0.  1.
    10030    2    1    2    0    0  0.00000000000E+00  0.00000000000E+00  0.85031887775E+03  0.27007376612E+04  0.25633848171E+04 0.  0.
        4    1    3    3  502    0 -0.58562773362E+03  0.11370979275E+04  0.33839207716E+03  0.13230503958E+04  0.12699999809E+01 0.  1.
       -4    1    3    3    0  502  0.58562773362E+03 -0.11370979275E+04  0.51192680059E+03  0.13776872654E+04  0.12699999809E+01 0. -1.
</event>
<event>
 5   0  0.2072710E-05  0.2594445E+04  0.7818609E-02  0.8370090E-01
       -1   -1    0    0    0  501  0.00000000000E+00  0.00000000000E+00  0.77602636818E+03  0.77602636819E+03  0.50400001928E-02 0. -1.
        1   -1    0    0  501    0  0.00000000000E+00  0.00000000000E+00 -0.21684660540E+04  0.21684660540E+04  0.50400001928E-02 0.  1.
    10030    2    1    2    0    0  0.00000000000E+00  0.00000000000E+00 -0.13924396858E+04  0.29444924222E+04  0.25944454794E+04 0.  0.
        2    1    3    3  502    0  0.30314705710E+03  0.74062339788E+03  0.46249332996E+03  0.92429499403E+03  0.25500000920E-02 0. -1.
       -2    1    3    3    0  502 -0.30314705710E+03 -0.74062339788E+03 -0.18549330158E+04  0.20201974282E+04  0.25500000920E-02 0.  1.
</event>
<event>
 5   0  0.1993815E-05  0.2593672E+04  0.7818609E-02  0.8370354E-01
        1   -1    0    0  501    0  0.00000000000E+00  0.00000000000E+00  0.12759155041E+04  0.12759155041E+04  0.50400001928E-02 0.  1.
       -1   -1    0    0    0  501  0.00000000000E+00  0.00000000000E+00 -0.13180999643E+04  0.13180999643E+04  0.50400001928E-02 0. -1.
    10030    2    1    2    0    0  0.00000000000E+00  0.00000000000E+00 -0.42184460279E+02  0.25940154684E+04  0.25936724392E+04 0.  0.
        5    1    3    3  502    0  0.48482758501E+03 -0.65895906949E+03 -0.10274445931E+04  0.13133732616E+04  0.46999998093E+01 0. -1.
       -5    1    3    3    0  502 -0.48482758501E+03  0.65895906949E+03  0.98526013283E+03  0.12806422068E+04  0.46999998093E+01 0.  1.
</event>
<event>
 5   0  0.1954502E-05  0.2564804E+04  0.7818609E-02  0.8380256E-01
       -1   -1    0    0    0  501  0.00000000000E+00  0.00000000000E+00  0.98878211835E+03  0.98878211836E+03  0.50400001928E-02 0.  1.
        1   -1    0    0  501    0  0.00000000000E+00  0.00000000000E+00 -0.16632126674E+04  0.16632126674E+04  0.50400001928E-02 0. -1.
    10030    2    1    2    0    0  0.00000000000E+00  0.00000000000E+00 -0.67443054905E+03  0.26519947858E+04  0.25648040429E+04 0.  0.
        4    1    3    3  502    0 -0.34340385796E+03 -0.10713880479E+04  0.29913690132E+03  0.11641662499E+04  0.12699999809E+01 0.  1.
       -4    1    3    3    0  502  0.34340385796E+03  0.10713880479E+04 -0.97356745037E+03  0.14878285359E+04  0.12699999809E+01 0. -1.
</event>
<event>
 5   0  0.1954502E-05  0.2754391E+04  0.7818609E-02  0.8317570E-01
       -1   -1    0    0    0  501  0.00000000000E+00  0.00000000000E+00  0.13545735744E+04  0.13545735744E+04  0.50400001928E-02 0. -1.
        1   -1    0    0  501    0  0.00000000000E+00  0.00000000000E+00 -0.14001948071E+04  0.14001948071E+04  0.50400001928E-02 0.  1.
    10030    2    1    2    0    0  0.00000000000E+00  0.00000000000E+00 -0.45621232767E+02  0.27547683815E+04  0.27543905930E+04 0.  0.
        4    1    3    3  502    0  0.73878683836E+03 -0.44183460933E+03  0.10523444848E+04  0.13595787370E+04  0.12699999809E+01 0. -1.
       -4    1    3    3    0  502 -0.73878683836E+03  0.44183460933E+03 -0.10979657175E+04  0.13951896446E+04  0.12699999809E+01 0.  1.
</event>
<event>
 5   0  0.5049803E-05  0.2525157E+04  0.7818609E-02  0.8394078E-01
       -2   -1    0    0    0  501  0.00000000000E+00  0.00000000000E+00  0.10033454105E+04  0.10033454105E+04  0.25500000920E-02 0.  1.
        2   -1    0    0  501    0  0.00000000000E+00  0.00000000000E+00 -0.15887892241E+04  0.15887892241E+04  0.25500000920E-02 0. -1.
    10030    2    1    2    0    0  0.00000000000E+00  0.00000000000E+00 -0.58544381365E+03  0.25921346346E+04  0.25251569268E+04 0.  0.
        4    1    3    3  502    0 -0.77505100724E+03 -0.26673541279E+03 -0.12785330673E+04  0.15187166495E+04  0.12699999809E+01 0. -1.
       -4    1    3    3    0  502  0.77505100724E+03  0.26673541279E+03  0.69308925368E+03  0.10734179851E+04  0.12699999809E+01 0.  1.
</event>
<event>
 5   0  0.2159405E-05  0.2599320E+04  0.7818609E-02  0.8368432E-01
       -1   -1    0    0    0  501  0.00000000000E+00  0.00000000000E+00  0.80443798062E+03  0.80443798064E+03  0.50400001928E-02 0. -1.
        1   -1    0    0  501    0  0.00000000000E+00  0.00000000000E+00 -0.20997474638E+04  0.20997474638E+04  0.50400001928E-02 0.  1.
    10030    2    1    2    0    0  0.00000000000E+00  0.00000000000E+00 -0.12953094831E+04  0.29041854444E+04  0.25993203801E+04 0.  0.
        3    1    3    3  502    0 -0.55666576405E+03  0.35548005074E+03 -0.18982540647E+04  0.20098784401E+04  0.10100000352E+00 0.  1.
       -3    1    3    3    0  502  0.55666576405E+03 -0.35548005074E+03  0.60294458159E+03  0.89430700434E+03  0.10100000352E+00 0. -1.
</event>
<event>
 5   0  0.5036452E-05  0.2573943E+04  0.7818609E-02  0.8377106E-01
        2   -1    0    0  501    0  0.00000000000E+00  0.00000000000E+00  0.27026534625E+04  0.27026534625E+04  0.25500000920E-02 0.  1.
       -2   -1    0    0    0  501  0.00000000000E+00  0.00000000000E+00 -0.61284040767E+03  0.61284040767E+03  0.25500000920E-02 0. -1.
    10030    2    1    2    0    0  0.00000000000E+00  0.00000000000E+00  0.20898130548E+04  0.33154938701E+04  0.25739426953E+04 0.  0.
        2    1    3    3  502    0  0.48749596115E+03 -0.39239724730E+02  0.25782875782E+04  0.26242634974E+04  0.25500000920E-02 0.  1.
       -2    1    3    3    0  502 -0.48749596115E+03  0.39239724730E+02 -0.48847452339E+03  0.69123037270E+03  0.25500000920E-02 0. -1.
</event>
<event>
 5   0  0.4955675E-05  0.2612232E+04  0.7818609E-02  0.8364058E-01
       -2   -1    0    0    0  501  0.00000000000E+00  0.00000000000E+00  0.12062410275E+04  0.12062410275E+04  0.25500000920E-02 0. -1.
        2   -1    0    0  501    0  0.00000000000E+00  0.00000000000E+00 -0.14142605576E+04  0.14142605576E+04  0.25500000920E-02 0.  1.
    10030    2    1    2    0    0  0.00000000000E+00  0.00000000000E+00 -0.20801953009E+03  0.26205015852E+04  0.26122320787E+04 0.  0.
        5    1    3    3  502    0  0.89632426911E+03 -0.94608351318E+03 -0.17447499790E+02  0.13033793441E+04  0.46999998093E+01 0.  1.
       -5    1    3    3    0  502 -0.89632426911E+03  0.94608351318E+03 -0.19057203030E+03  0.13171222411E+04  0.46999998093E+01 0. -1.
</event>
<event>
 5   0  0.5182179E-05  0.2591248E+04  0.7818609E-02  0.8371180E-01
       -2   -1    0    0    0  501  0.00000000000E+00  0.00000000000E+00  0.14695997966E+04  0.14695997966E+04  0.25500000920E-02 0.  1.
        2   -1    0    0  501    0  0.00000000000E+00  0.00000000000E+00 -0.11422443331E+04  0.11422443331E+04  0.25500000920E-02 0. -1.
    10030    2    1    2    0    0  0.00000000000E+00  0.00000000000E+00  0.32735546354E+03  0.26118441297E+04  0.25912483784E+04 0.  0.
        3    1    3    3  502    0  0.11349312131E+04  0.59335895885E+03 -0.34091662373E+02  0.12811346394E+04  0.10100000352E+00 0. -1.
       -3    1    3    3    0  502 -0.11349312131E+04 -0.59335895885E+03  0.36144712592E+03  0.13307094903E+04  0.10100000352E+00 0.  1.
</event>
<event>
 5   0  0.2072710E-05  0.2652240E+04  0.7818609E-02  0.8350670E-01
        1   -1    0    0  501    0  0.00000000000E+00  0.00000000000E+00  0.11903896445E+04  0.11903896445E+04  0.50400001928E-02 0. -1.
       -1   -1    0    0    0  501  0.00000000000E+00  0.00000000000E+00 -0.14773263621E+04  0.14773263621E+04  0.50400001928E-02 0.  1.
    10030    2    1    2    0    0  0.00000000000E+00  0.00000000000E+00 -0.28693671761E+03  0.26677160066E+04  0.26522398104E+04 0.  0.
        2    1    3    3  502    0 -0.58191676873E+02 -0.93013125621E+03 -0.10924052263E+04  0.14359246511E+04  0.25500000920E-02 0.  1.
       -2    1    3    3    0  502  0.58191676873E+02  0.93013125621E+03  0.80546850871E+03  0.12317913555E+04  0.25500000920E-02 0. -1.
</event>
<event>
 5   0  0.5182179E-05  0.2408899E+04  0.7818609E-02  0.8436179E-01
       -2   -1    0    0    0  501  0.00000000000E+00  0.00000000000E+00  0.12129707639E+04  0.12129707639E+04  0.25500000920E-02 0.  1.
        2   -1    0    0  501    0  0.00000000000E+00  0.00000000000E+00 -0.11959880979E+04  0.11959880979E+04  0.25500000920E-02 0. -1.
    10030    2    1    2    0    0  0.00000000000E+00  0.00000000000E+00  0.16982665993E+02  0.24089588617E+04  0.24088989988E+04 0.  0.
        3    1    3    3  502    0  0.63729785764E+03 -0.99086821890E+03  0.25895753369E+03  0.12062451662E+04  0.10100000352E+00 0. -1.
       -3    1    3    3    0  502 -0.63729785764E+03  0.99086821890E+03 -0.24197486770E+03  0.12027136955E+04  0.10100000352E+00 0.  1.
</event>
<event>
 5   0  0.1993815E-05  0.2601492E+04  0.7818609E-02  0.8367695E-01
        1   -1    0    0  501    0  0.00000000000E+00  0.00000000000E+00  0.13953810350E+04  0.13953810350E+04  0.50400001928E-02 0. -1.
       -1   -1    0    0    0  501  0.00000000000E+00  0.00000000000E+00 -0.12125293239E+04  0.12125293239E+04  0.50400001928E-02 0.  1.
    10030    2    1    2    0    0  0.00000000000E+00  0.00000000000E+00  0.18285171113E+03  0.26079103589E+04  0.26014922048E+04 0.  0.
        5    1    3    3  502    0 -0.66406188642E+03 -0.37000093921E+03 -0.96665879790E+03  0.12297683544E+04  0.46999998093E+01 0.  1.
       -5    1    3    3    0  502  0.66406188642E+03  0.37000093921E+03  0.11495105090E+04  0.13781420044E+04  0.46999998093E+01 0. -1.
</event>
<event>
 5   0  0.2159405E-05  0.2581061E+04  0.7818609E-02  0.8374663E-01
       -1   -1    0    0    0  501  0.00000000000E+00  0.00000000000E+00  0.72165928233E+03  0.72165928235E+03  0.50400001928E-02 0. -1.
        1   -1    0    0  501    0  0.00000000000E+00  0.00000000000E+00 -0.23078331126E+04  0.23078331126E+04  0.50400001928E-02 0.  1.
    10030    2    1    2    0    0  0.00000000000E+00  0.00000000000E+00 -0.15861738303E+04  0.30294923950E+04  0.25810611677E+04 0.  0.
        3    1    3    3  502    0  0.69453194831E+03  0.55503939020E+03 -0.18910355051E+04  0.20896072941E+04  0.10100000352E+00 0.  1.
       -3    1    3    3    0  502 -0.69453194831E+03 -0.55503939020E+03  0.30486167478E+03  0.93988510088E+03  0.10100000352E+00 0. -1.
</event>
<event>
 5   0  0.2163800E-05  0.2612039E+04  0.7818609E-02  0.8364123E-01
        1   -1    0    0  501    0  0.00000000000E+00  0.00000000000E+00  0.18104236334E+04  0.18104236334E+04  0.50400001928E-02 0.  1.
       -1   -1    0    0    0  501  0.00000000000E+00  0.00000000000E+00 -0.94214808070E+03  0.94214808072E+03  0.50400001928E-02 0. -1.
    10030    2    1    2    0    0  0.00000000000E+00  0.00000000000E+00  0.86827555271E+03  0.27525717141E+04  0.26120391663E+04 0.  0.
        1    1    3    3  502    0 -0.18349323481E+03  0.12828887662E+04  0.60475541674E+03  0.14301057540E+04  0.50400001928E-02 0.  1.
       -1    1    3    3    0  502  0.18349323481E+03 -0.12828887662E+04  0.26352013597E+03  0.13224659601E+04  0.50400001928E-02 0. -1.
</event>
<event>
 5   0  0.5049803E-05  0.2600829E+04  0.7818609E-02  0.8367920E-01
        2   -1    0    0  501    0  0.00000000000E+00  0.00000000000E+00  0.15701153167E+04  0.15701153167E+04  0.25500000920E-02 0. -1.
       -2   -1    0    0    0  501  0.00000000000E+00  0.00000000000E+00 -0.10770406027E+04  0.10770406027E+04  0.25500000920E-02 0.  1.
    10030    2    1    2    0    0  0.00000000000E+00  0.00000000000E+00  0.49307471403E+03  0.26471559194E+04  0.26008290579E+04 0.  0.
        4    1    3    3  502    0  0.69281237237E+02  0.49269105039E+03 -0.97633440743E+03  0.10957987265E+04  0.12699999809E+01 0.  1.
       -4    1    3    3    0  502 -0.69281237237E+02 -0.49269105039E+03  0.14694091215E+04  0.15513571929E+04  0.12699999809E+01 0. -1.
</event>
<event>
 5   0  0.1954502E-05  0.2463173E+04  0.7818609E-02  0.8416224E-01
       -1   -1    0    0    0  501  0.00000000000E+00  0.00000000000E+00  0.10602690771E+04  0.10602690771E+04  0.50400001928E-02 0. -1.
        1   -1    0    0  501    0  0.00000000000E+00  0.00000000000E+00 -0.14305855083E+04  0.14305855083E+04  0.50400001928E-02 0.  1.
    10030    2    1    2    0    0  0.00000000000E+00  0.00000000000E+00 -0.37031643119E+03  0.24908545854E+04  0.24631732189E+04 0.  0.
        4    1    3    3  502    0 -0.19569276955E+03 -0.11817526630E+04  0.10436147015E+03  0.12023842755E+04  0.12699999809E+01 0.  1.
       -4    1    3    3    0  502  0.19569276955E+03  0.11817526630E+04 -0.47467790134E+03  0.12884703099E+04  0.12699999809E+01 0. -1.
</event>
<event>
 5   0  0.2072710E-05  0.2420534E+04  0.7818609E-02  0.8431856E-01
       -1   -1    0    0    0  501  0.00000000000E+00  0.00000000000E+00  0.18435159977E+04  0.18435159977E+04  0.50400001928E-02 0.  1.
        1   -1    0    0  501    0  0.00000000000E+00  0.00000000000E+00 -0.79453934050E+03  0.79453934052E+03  0.50400001928E-02 0. -1.
    10030    2    1    2    0    0  0.00000000000E+00  0.00000000000E+00  0.10489766572E+04  0.26380553382E+04  0.24205338131E+04 0.  0.
        2    1    3    3  502    0 -0.50790759970E+03 -0.80410225134E+03 -0.29123433066E+03  0.99466979234E+03  0.25500000920E-02 0. -1.
       -2    1    3    3    0  502  0.50790759970E+03  0.80410225134E+03  0.13402109879E+04  0.16433855459E+04  0.25500000920E-02 0.  1.
</event>
<event>
 5   0  0.1993815E-05  0.2582947E+04  0.7818609E-02  0.8374017E-01
        1   -1    0    0  501    0  0.00000000000E+00  0.00000000000E+00  0.13217629002E+04  0.13217629002E+04  0.50400001928E-02 0. -1.
       -1   -1    0    0    0  501  0.00000000000E+00  0.00000000000E+00 -0.12618781795E+04  0.12618781795E+04  0.50400001928E-02 0.  1.
    10030    2    1    2    0    0  0.00000000000E+00  0.00000000000E+00  0.59884720719E+02  0.25836410797E+04  0.25829469698E+04 0.  0.
        5    1    3    3  502    0 -0.10909470084E+04 -0.69045853364E+03 -0.14238475696E+01  0.12910935207E+04  0.46999998093E+01 0.  1.
       -5    1    3    3    0  502  0.10909470084E+04  0.69045853364E+03  0.61308568289E+02  0.12925475590E+04  0.46999998093E+01 0. -1.
</event>
<event>
 5   0  0.5036452E-05  0.2102824E+04  0.7818609E-02  0.8560000E-01
        2   -1    0    0  501    0  0.00000000000E+00  0.00000000000E+00  0.13926504253E+04  0.13926504253E+04  0.25500000920E-02 0. -1.
       -2   -1    0    0    0  501  0.00000000000E+00  0.00000000000E+00 -0.79378655269E+03  0.79378655269E+03  0.25500000920E-02 0.  1.
    10030    2    1    2    0    0  0.00000000000E+00  0.00000000000E+00  0.59886387259E+03  0.21864369780E+04  0.21028239871E+04 0.  0.
        2    1    3    3  502    0 -0.55332499284E+03 -0.78744163131E+03  0.73962643953E+03  0.12137875187E+04  0.25500000920E-02 0. -1.
       -2    1    3    3    0  502  0.55332499284E+03  0.78744163131E+03 -0.14076256694E+03  0.97264945930E+03  0.25500000920E-02 0.  1.
</event>
<event>
 5   0  0.5049803E-05  0.2615856E+04  0.7818609E-02  0.8362835E-01
       -2   -1    0    0    0  501  0.00000000000E+00  0.00000000000E+00  0.12935433421E+04  0.12935433421E+04  0.25500000920E-02 0.  1.
        2   -1    0    0  501    0  0.00000000000E+00  0.00000000000E+00 -0.13224723101E+04  0.13224723101E+04  0.25500000920E-02 0. -1.
    10030    2    1    2    0    0  0.00000000000E+00  0.00000000000E+00 -0.28928967986E+02  0.26160156522E+04  0.26158556932E+04 0.  0.
        4    1    3    3  502    0 -0.22054493973E+03  0.97624529797E+03 -0.85652469393E+03  0.13173196713E+04  0.12699999809E+01 0. -1.
       -4    1    3    3    0  502  0.22054493973E+03 -0.97624529797E+03  0.82759572595E+03  0.12986959809E+04  0.12699999809E+01 0.  1.
</event>
<event>
 5   0  0.5036452E-05  0.2584286E+04  0.7818609E-02  0.8373559E-01
       -2   -1    0    0    0  501  0.00000000000E+00  0.00000000000E+00  0.24710412693E+04  0.24710412693E+04  0.25500000920E-02 0. -1.
        2   -1    0    0  501    0  0.00000000000E+00  0.00000000000E+00 -0.67567991743E+03  0.67567991743E+03  0.25500000920E-02 0.  1.
    10030    2    1    2    0    0  0.00000000000E+00  0.00000000000E+00  0.17953613519E+04  0.31467211868E+04  0.25842855576E+04 0.  0.
        2    1    3    3  502    0 -0.43411804714E+03  0.34060798722E+03  0.23203686138E+04  0.23850750059E+04  0.25500000920E-02 0. -1.
       -2    1    3    3    0  502  0.43411804714E+03 -0.34060798722E+03 -0.52500726189E+03  0.76164618088E+03  0.25500000920E-02 0.  1.
</event>
<event>
 5   0  0.1954502E-05  0.2327623E+04  0.7818609E-02  0.8467109E-01
        1   -1    0    0  501    0  0.00000000000E+00  0.00000000000E+00  0.12798989045E+04  0.12798989045E+04  0.50400001928E-02 0.  1.
       -1   -1    0    0    0  501  0.00000000000E+00  0.00000000000E+00 -0.10582535599E+04  0.10582535599E+04  0.50400001928E-02 0. -1.
    10030    2    1    2    0    0  0.00000000000E+00  0.00000000000E+00  0.22164534460E+03  0.23381524643E+04  0.23276233131E+04 0.  0.
        4    1    3    3  502    0 -0.28693702347E+03  0.33148307670E+03 -0.97212737595E+03  0.10664178982E+04  0.12699999809E+01 0. -1.
       -4    1    3    3    0  502  0.28693702347E+03 -0.33148307670E+03  0.11937727205E+04  0.12717345662E+04  0.12699999809E+01 0.  1.
</event>
<event>
 5   0  0.4955675E-05  0.2622568E+04  0.7818609E-02  0.8360576E-01
        2   -1    0    0  501    0  0.00000000000E+00  0.00000000000E+00  0.18421788072E+04  0.18421788072E+04  0.25500000920E-02 0. -1.
       -2   -1    0    0    0  501  0.00000000000E+00  0.00000000000E+00 -0.93338695871E+03  0.93338695872E+03  0.25500000920E-02 0.  1.
    10030    2    1    2    0    0  0.00000000000E+00  0.00000000000E+00  0.90879184852E+03  0.27755657660E+04  0.26225679585E+04 0.  0.
        5    1    3    3  502    0 -0.10881998786E+04  0.52450489064E+03  0.99421022923E+03  0.15645320150E+04  0.46999998093E+01 0. -1.
       -5    1    3    3    0  502  0.10881998786E+04 -0.52450489064E+03 -0.85418380709E+02  0.12110337509E+04  0.46999998093E+01 0.  1.
</event>
<event>
 5   0  0.2072710E-05  0.2598508E+04  0.7818609E-02  0.8368708E-01
       -1   -1    0    0    0  501  0.00000000000E+00  0.00000000000E+00  0.27718811257E+04  0.27718811257E+04  0.50400001928E-02 0.  1.
        1   -1    0    0  501    0  0.00000000000E+00  0.00000000000E+00 -0.60899488673E+03  0.60899488675E+03  0.50400001928E-02 0. -1.
    10030    2    1    2    0    0  0.00000000000E+00  0.00000000000E+00  0.21628862389E+04  0.33808760124E+04  0.25985083661E+04 0.  0.
        2    1    3    3  502    0 -0.88914900055E+03 -0.62133387791E+03  0.15099138266E+03  0.10951895410E+04  0.25500000920E-02 0. -1.
       -2    1    3    3    0  502  0.88914900055E+03  0.62133387791E+03  0.20118948563E+04  0.22856864714E+04  0.25500000920E-02 0.  1.
</event>
<event>
 5   0  0.2163800E-05  0.2384155E+04  0.7818609E-02  0.8445459E-01
        1   -1    0    0  501    0  0.00000000000E+00  0.00000000000E+00  0.57908202533E+03  0.57908202536E+03  0.50400001928E-02 0. -1.
       -1   -1    0    0    0  501  0.00000000000E+00  0.00000000000E+00 -0.24539689029E+04  0.24539689029E+04  0.50400001928E-02 0.  1.
    10030    2    1    2    0    0  0.00000000000E+00  0.00000000000E+00 -0.18748868775E+04  0.30330509282E+04  0.23841554332E+04 0.  0.
        1    1    3    3  502    0 -0.11272595701E+04  0.16100972960E+03 -0.13861625292E+04  0.17939021236E+04  0.50400001928E-02 0.  1.
       -1    1    3    3    0  502  0.11272595701E+04 -0.16100972960E+03 -0.48872434833E+03  0.12391488047E+04  0.50400001928E-02 0. -1.
</event>
<event>
 5   0  0.1993815E-05  0.2626859E+04  0.7818609E-02  0.8359135E-01
        1   -1    0    0  501    0  0.00000000000E+00  0.00000000000E+00  0.64989055382E+03  0.64989055384E+03  0.50400001928E-02 0.  1.
       -1   -1    0    0    0  501  0.00000000000E+00  0.00000000000E+00 -0.26544426472E+04  0.26544426472E+04  0.50400001928E-02 0. -1.
    10030    2    1    2    0    0  0.00000000000E+00  0.00000000000E+00 -0.20045520934E+04  0.33043332011E+04  0.26268591147E+04 0.  0.
        5    1    3    3  502    0 -0.35127379898E+03  0.26004336648E+03 -0.25602784519E+04  0.25973185549E+04  0.46999998093E+01 0. -1.
       -5    1    3    3    0  502  0.35127379898E+03 -0.26004336648E+03  0.55572635853E+03  0.70701464615E+03  0.46999998093E+01 0.  1.
</event>
<event>
 5   0  0.1954502E-05  0.1339383E+04  0.7818609E-02  0.8998904E-01
        1   -1    0    0  501    0  0.00000000000E+00  0.00000000000E+00  0.42874685214E+03  0.42874685217E+03  0.50400001928E-02 0. -1.
       -1   -1    0    0    0  501  0.00000000000E+00  0.00000000000E+00 -0.10460402981E+04  0.10460402982E+04  0.50400001928E-02 0.  1.
    10030    2    1    2    0    0  0.00000000000E+00  0.00000000000E+00 -0.61729344600E+03  0.14747871503E+04  0.13393826713E+04 0.  0.
        4    1    3    3  502    0 -0.41261268284E+03 -0.30386304528E+03 -0.78339975454E+03  0.93610830818E+03  0.12699999809E+01 0.  1.
       -4    1    3    3    0  502  0.41261268284E+03  0.30386304528E+03  0.16610630854E+03  0.53867884214E+03  0.12699999809E+01 0. -1.
</event>
<event>
 5   0  0.5170532E-05  0.2615108E+04  0.7818609E-02  0.8363087E-01
       -2   -1    0    0    0  501  0.00000000000E+00  0.00000000000E+00  0.11457715665E+04  0.11457715665E+04  0.25500000920E-02 0.  1.
        2   -1    0    0  501    0  0.00000000000E+00  0.00000000000E+00 -0.14921797672E+04  0.14921797672E+04  0.25500000920E-02 0. -1.
    10030    2    1    2    0    0  0.00000000000E+00  0.00000000000E+00 -0.34640820065E+03  0.26379513337E+04  0.26151077602E+04 0.  0.
        1    1    3    3  502    0 -0.10006778294E+04  0.74351742885E+03  0.22460463223E+03  0.12667365654E+04  0.50400001928E-02 0.  1.
       -1    1    3    3    0  502  0.10006778294E+04 -0.74351742885E+03 -0.57101283288E+03  0.13712147682E+04  0.50400001928E-02 0. -1.
</event>
<event>
 5   0  0.2163800E-05  0.2588019E+04  0.7818609E-02  0.8372282E-01
        1   -1    0    0  501    0  0.00000000000E+00  0.00000000000E+00  0.16117535245E+04  0.16117535245E+04  0.50400001928E-02 0. -1.
       -1   -1    0    0    0  501  0.00000000000E+00  0.00000000000E+00 -0.10389059855E+04  0.10389059855E+04  0.50400001928E-02 0.  1.
    10030    2    1    2    0    0  0.00000000000E+00  0.00000000000E+00  0.57284753898E+03  0.26506595101E+04  0.25880188437E+04 0.  0.
        1    1    3    3  502    0 -0.11411106860E+04 -0.46721166125E+03  0.68840274125E+03  0.14122034798E+04  0.50400001928E-02 0. -1.
       -1    1    3    3    0  502  0.11411106860E+04  0.46721166125E+03 -0.11555520226E+03  0.12384560303E+04  0.50400001928E-02 0.  1.
</event>
<event>
 5   0  0.5182179E-05  0.2641630E+04  0.7818609E-02  0.8354196E-01
       -2   -1    0    0    0  501  0.00000000000E+00  0.00000000000E+00  0.68974325681E+03  0.68974325682E+03  0.25500000920E-02 0.  1.
        2   -1    0    0  501    0  0.00000000000E+00  0.00000000000E+00 -0.25292780634E+04  0.25292780634E+04  0.25500000920E-02 0. -1.
    10030    2    1    2    0    0  0.00000000000E+00  0.00000000000E+00 -0.18395348066E+04  0.32190213202E+04  0.26416301700E+04 0.  0.
        3    1    3    3  502    0  0.11352787923E+03 -0.89023513172E+03  0.26114649528E+03  0.93466821456E+03  0.10100000352E+00 0.  1.
       -3    1    3    3    0  502 -0.11352787923E+03  0.89023513172E+03 -0.21006813018E+04  0.22843531056E+04  0.10100000352E+00 0. -1.
</event>
<event>
 5   0  0.5170532E-05  0.2561084E+04  0.7818609E-02  0.8381542E-01
       -2   -1    0    0    0  501  0.00000000000E+00  0.00000000000E+00  0.80984010427E+03  0.80984010428E+03  0.25500000920E-02 0. -1.
        2   -1    0    0  501    0  0.00000000000E+00  0.00000000000E+00 -0.20248290538E+04  0.20248290538E+04  0.25500000920E-02 0.  1.
    10030    2    1    2    0    0  0.00000000000E+00  0.00000000000E+00 -0.12149889495E+04  0.28346691580E+04  0.25610839674E+04 0.  0.
        1    1    3    3  502    0  0.45530863036E+03  0.11237534596E+04 -0.15159585908E+03  0.12219284313E+04  0.50400001928E-02 0. -1.
       -1    1    3    3    0  502 -0.45530863036E+03 -0.11237534596E+04 -0.10633930904E+04  0.16127407267E+04  0.50400001928E-02 0.  1.
</event>
<event>
 5   0  0.5170532E-05  0.2490109E+04  0.7818609E-02  0.8406518E-01
        2   -1    0    0  501    0  0.00000000000E+00  0.00000000000E+00  0.17292900630E+04  0.17292900630E+04  0.25500000920E-02 0.  1.
       -2   -1    0    0    0  501  0.00000000000E+00  0.00000000000E+00 -0.89641481136E+03  0.89641481137E+03  0.25500000920E-02 0. -1.
    10030    2    1    2    0    0  0.00000000000E+00  0.00000000000E+00  0.83287525159E+03  0.26257048743E+04  0.24901094157E+04 0.  0.
        1    1    3    3  502    0 -0.18483413032E+03 -0.74816841762E+03  0.14475625719E+04  0.16399259241E+04  0.50400001928E-02 0.  1.
       -1    1    3    3    0  502  0.18483413032E+03  0.74816841762E+03 -0.61468732036E+03  0.98577895021E+03  0.50400001928E-02 0. -1.
</event>
<event>
 5   0  0.4955675E-05  0.2567336E+04  0.7818609E-02  0.8379382E-01
       -2   -1    0    0    0  501  0.00000000000E+00  0.00000000000E+00  0.18645110568E+04  0.18645110568E+04  0.25500000920E-02 0.  1.
        2   -1    0    0  501    0  0.00000000000E+00  0.00000000000E+00 -0.88377277898E+03  0.88377277898E+03  0.25500000920E-02 0. -1.
    10030    2    1    2    0    0  0.00000000000E+00  0.00000000000E+00  0.98073827780E+03  0.27482838358E+04  0.25673364548E+04 0.  0.
        5    1    3    3  502    0 -0.88785217896E+03 -0.51492435436E+03 -0.33491061004E+03  0.10796368784E+04  0.46999998093E+01 0. -1.
       -5    1    3    3    0  502  0.88785217896E+03  0.51492435436E+03  0.13156488878E+04  0.16686469574E+04  0.46999998093E+01 0.  1.
</event>
<event>
 5   0  0.1993815E-05  0.2408392E+04  0.7818609E-02  0.8436368E-01
        1   -1    0    0  501    0  0.00000000000E+00  0.00000000000E+00  0.13112085442E+04  0.13112085442E+04  0.50400001928E-02 0. -1.
       -1   -1    0    0    0  501  0.00000000000E+00  0.00000000000E+00 -0.11059173361E+04  0.11059173361E+04  0.50400001928E-02 0.  1.
    10030    2    1    2    0    0  0.00000000000E+00  0.00000000000E+00  0.20529120811E+03  0.24171258803E+04  0.24083922109E+04 0.  0.
        5    1    3    3  502    0  0.39453789377E+03  0.99036931617E+03 -0.45936242416E+03  0.11608305039E+04  0.46999998093E+01 0.  1.
       -5    1    3    3    0  502 -0.39453789377E+03 -0.99036931617E+03  0.66465363227E+03  0.12562953765E+04  0.46999998093E+01 0. -1.
</event>
<event>
 5   0  0.5182179E-05  0.2579957E+04  0.7818609E-02  0.8375041E-01
       -2   -1    0    0    0  501  0.00000000000E+00  0.00000000000E+00  0.14406514379E+04  0.14406514379E+04  0.25500000920E-02 0.  1.
        2   -1    0    0  501    0  0.00000000000E+00  0.00000000000E+00 -0.11550641666E+04  0.11550641666E+04  0.25500000920E-02 0. -1.
    10030    2    1    2    0    0  0.00000000000E+00  0.00000000000E+00  0.28558727133E+03  0.25957156045E+04  0.25799572496E+04 0.  0.
        3    1    3    3  502    0 -0.49715191528E+03  0.22021753953E+03 -0.10341330048E+04  0.11683693224E+04  0.10100000352E+00 0. -1.
       -3    1    3    3    0  502  0.49715191528E+03 -0.22021753953E+03  0.13197202761E+04  0.14273462821E+04  0.10100000352E+00 0.  1.
</event>
<event>
 5   0  0.1954502E-05  0.2579840E+04  0.7818609E-02  0.8375082E-01
        1   -1    0    0  501    0  0.00000000000E+00  0.00000000000E+00  0.14338020246E+04  0.14338020246E+04  0.50400001928E-02 0.  1.
       -1   -1    0    0    0  501  0.00000000000E+00  0.00000000000E+00 -0.11604764351E+04  0.11604764351E+04  0.50400001928E-02 0. -1.
    10030    2    1    2    0    0  0.00000000000E+00  0.00000000000E+00  0.27332558943E+03  0.25942784597E+04  0.25798398882E+04 0.  0.
        4    1    3    3  502    0 -0.37138371909E+03 -0.33319038597E+03 -0.10595113366E+04  0.11711138226E+04  0.12699999809E+01 0. -1.
       -4    1    3    3    0  502  0.37138371909E+03  0.33319038597E+03  0.13328369260E+04  0.14231646371E+04  0.12699999809E+01 0.  1.
</event>
<event>
 5   0  0.2163800E-05  0.2684019E+04  0.7818609E-02  0.8340209E-01
        1   -1    0    0  501    0  0.00000000000E+00  0.00000000000E+00  0.58296421463E+03  0.58296421465E+03  0.50400001928E-02 0. -1.
       -1   -1    0    0    0  501  0.00000000000E+00  0.00000000000E+00 -0.30893656095E+04  0.30893656095E+04  0.50400001928E-02 0.  1.
    10030    2    1    2    0    0  0.00000000000E+00  0.00000000000E+00 -0.25064013949E+04  0.36723298242E+04  0.26840190732E+04 0.  0.
        1    1    3    3  502    0  0.44116057077E+03  0.12663036311E+04 -0.11802595190E+04  0.17863818370E+04  0.50400001928E-02 0. -1.
       -1    1    3    3    0  502 -0.44116057077E+03 -0.12663036311E+04 -0.13261418759E+04  0.18859479872E+04  0.50400001928E-02 0.  1.
</event>
<event>
 5   0  0.2159405E-05  0.2584884E+04  0.7818609E-02  0.8373354E-01
        1   -1    0    0  501    0  0.00000000000E+00  0.00000000000E+00  0.16759267317E+04  0.16759267318E+04  0.50400001928E-02 0.  1.
       -1   -1    0    0    0  501  0.00000000000E+00  0.00000000000E+00 -0.99670605027E+03  0.99670605028E+03  0.50400001928E-02 0. -1.
    10030    2    1    2    0    0  0.00000000000E+00  0.00000000000E+00  0.67922068148E+03  0.26726327820E+04  0.25848839923E+04 0.  0.
        3    1    3    3  502    0  0.34460859188E+03  0.45783966854E+03 -0.85817778393E+03  0.10319115091E+04  0.10100000352E+00 0. -1.
       -3    1    3    3    0  502 -0.34460859188E+03 -0.45783966854E+03  0.15373984654E+04  0.16407212729E+04  0.10100000352E+00 0.  1.
</event>
<event>
 5   0  0.2159405E-05  0.2350512E+04  0.7818609E-02  0.8458267E-01
        1   -1    0    0  501    0  0.00000000000E+00  0.00000000000E+00  0.13109498702E+04  0.13109498702E+04  0.50400001928E-02 0. -1.
       -1   -1    0    0    0  501  0.00000000000E+00  0.00000000000E+00 -0.10536073517E+04  0.10536073517E+04  0.50400001928E-02 0.  1.
    10030    2    1    2    0    0  0.00000000000E+00  0.00000000000E+00  0.25734251850E+03  0.23645572219E+04  0.23505117919E+04 0.  0.
        3    1    3    3  502    0 -0.11105237459E+04  0.36557434948E+03  0.82949729041E+01  0.11691776649E+04  0.10100000352E+00 0.  1.
       -3    1    3    3    0  502  0.11105237459E+04 -0.36557434948E+03  0.24904754560E+03  0.11953795571E+04  0.10100000352E+00 0. -1.
</event>
<event>
 5   0  0.5036452E-05  0.2551897E+04  0.7818609E-02  0.8384727E-01
        2   -1    0    0  501    0  0.00000000000E+00  0.00000000000E+00  0.12489490443E+04  0.12489490443E+04  0.25500000920E-02 0. -1.
       -2   -1    0    0    0  501  0.00000000000E+00  0.00000000000E+00 -0.13035313331E+04  0.13035313331E+04  0.25500000920E-02 0.  1.
    10030    2    1    2    0    0  0.00000000000E+00  0.00000000000E+00 -0.54582288757E+02  0.25524803774E+04  0.25518967163E+04 0.  0.
        2    1    3    3  502    0  0.94509313351E+03 -0.33574384881E+03 -0.81621690780E+03  0.12931105922E+04  0.25500000920E-02 0.  1.
       -2    1    3    3    0  502 -0.94509313351E+03  0.33574384881E+03  0.76163461904E+03  0.12593697852E+04  0.25500000920E-02 0. -1.
</event>
<event>
 5   0  0.1993815E-05  0.2115450E+04  0.7818609E-02  0.8554468E-01
        1   -1    0    0  501    0  0.00000000000E+00  0.00000000000E+00  0.74573387873E+03  0.74573387874E+03  0.50400001928E-02 0.  1.
       -1   -1    0    0    0  501  0.00000000000E+00  0.00000000000E+00 -0.15002437155E+04  0.15002437156E+04  0.50400001928E-02 0. -1.
    10030    2    1    2    0    0  0.00000000000E+00  0.00000000000E+00 -0.75450983682E+03  0.22459775943E+04  0.21154503682E+04 0.  0.
        5    1    3    3  502    0 -0.73766815280E+03  0.67881314589E+03 -0.19067983113E+02  0.10026600963E+04  0.46999998093E+01 0. -1.
       -5    1    3    3    0  502  0.73766815280E+03 -0.67881314589E+03 -0.73544185371E+03  0.12433174980E+04  0.46999998093E+01 0.  1.
</event>
<event>
 5   0  0.4955675E-05  0.1295344E+04  0.7818609E-02  0.9033266E-01
       -2   -1    0    0    0  501  0.00000000000E+00  0.00000000000E+00  0.40520828378E+03  0.40520828379E+03  0.25500000920E-02 0. -1.
        2   -1    0    0  501    0  0.00000000000E+00  0.00000000000E+00 -0.10352180831E+04  0.10352180831E+04  0.25500000920E-02 0.  1.
    10030    2    1    2    0    0  0.00000000000E+00  0.00000000000E+00 -0.63000979931E+03  0.14404263669E+04  0.12953438814E+04 0.  0.
        5    1    3    3  502    0 -0.31615510776E+03 -0.34947427178E+03 -0.80902786992E+03  0.93628761773E+03  0.46999998093E+01 0.  1.
       -5    1    3    3    0  502  0.31615510776E+03  0.34947427178E+03  0.17901807061E+03  0.50413874916E+03  0.46999998093E+01 0. -1.
</event>
<event>
 5   0  0.2072710E-05  0.1761445E+04  0.7818609E-02  0.8727076E-01
       -1   -1    0    0    0  501  0.00000000000E+00  0.00000000000E+00  0.10508559996E+04  0.10508559996E+04  0.50400001928E-02 0.  1.
        1   -1    0    0  501    0  0.00000000000E+00  0.00000000000E+00 -0.73813320091E+03  0.73813320093E+03  0.50400001928E-02 0. -1.
    10030    2    1    2    0    0  0.00000000000E+00  0.00000000000E+00  0.31272279865E+03  0.17889892005E+04  0.17614445239E+04 0.  0.
        2    1    3    3  502    0 -0.60257437996E+03  0.17665723322E+03  0.78356840012E+03  0.10041330087E+04  0.25500000920E-02 0.  1.
       -2    1    3    3    0  502  0.60257437996E+03 -0.17665723322E+03 -0.47084560147E+03  0.78485619183E+03  0.25500000920E-02 0. -1.
</event>
<event>
 5   0  0.2072710E-05  0.2571841E+04  0.7818609E-02  0.8377829E-01
       -1   -1    0    0    0  501  0.00000000000E+00  0.00000000000E+00  0.14090246877E+04  0.14090246877E+04  0.50400001928E-02 0. -1.
        1   -1    0    0  501    0  0.00000000000E+00  0.00000000000E+00 -0.11735719099E+04  0.11735719099E+04  0.50400001928E-02 0.  1.
    10030    2    1    2    0    0  0.00000000000E+00  0.00000000000E+00  0.23545277785E+03  0.25825965976E+04  0.25718412033E+04 0.  0.
        2    1    3    3  502    0  0.81749651421E+03 -0.50039219755E+03 -0.74312110776E+03  0.12128156838E+04  0.25500000920E-02 0.  1.
       -2    1    3    3    0  502 -0.81749651421E+03  0.50039219755E+03  0.97857388561E+03  0.13697809138E+04  0.25500000920E-02 0. -1.
</event>
<event>
 5   0  0.2163800E-05  0.2676214E+04  0.7818609E-02  0.8342764E-01
        1   -1    0    0  501    0  0.00000000000E+00  0.00000000000E+00  0.18695018207E+04  0.18695018207E+04  0.50400001928E-02 0. -1.
       -1   -1    0    0    0  501  0.00000000000E+00  0.00000000000E+00 -0.95775812186E+03  0.95775812187E+03  0.50400001928E-02 0.  1.
    10030    2    1    2    0    0  0.00000000000E+00  0.00000000000E+00  0.91174369889E+03  0.28272599426E+04  0.26762141564E+04 0.  0.
        1    1    3    3  502    0 -0.74103446029E+03  0.10091512396E+04  0.95476695436E+03  0.15745152374E+04  0.50400001928E-02 0. -1.
       -1    1    3    3    0  502  0.74103446029E+03 -0.10091512396E+04 -0.43023255475E+02  0.12527447052E+04  0.50400001928E-02 0.  1.
</event>
<event>
 5   0  0.2072710E-05  0.2620195E+04  0.7818609E-02  0.8361374E-01
        1   -1    0    0  501    0  0.00000000000E+00  0.00000000000E+00  0.22932661885E+04  0.22932661885E+04  0.50400001928E-02 0.  1.
       -1   -1    0    0    0  501  0.00000000000E+00  0.00000000000E+00 -0.74843246612E+03  0.74843246614E+03  0.50400001928E-02 0. -1.
    10030    2    1    2    0    0  0.00000000000E+00  0.00000000000E+00  0.15448337224E+04  0.30416986546E+04  0.26201945492E+04 0.  0.
        2    1    3    3  502    0  0.68224203714E+03  0.10610657538E+04  0.11829113859E+04  0.17293334201E+04  0.25500000920E-02 0.  1.
       -2    1    3    3    0  502 -0.68224203714E+03 -0.10610657538E+04  0.36192233650E+03  0.13123652345E+04  0.25500000920E-02 0. -1.
</event>
<event>
 5   0  0.5170532E-05  0.2593241E+04  0.7818609E-02  0.8370501E-01
       -2   -1    0    0    0  501  0.00000000000E+00  0.00000000000E+00  0.32951399287E+04  0.32951399287E+04  0.25500000920E-02 0.  1.
        2   -1    0    0  501    0  0.00000000000E+00  0.00000000000E+00 -0.51021333684E+03  0.51021333684E+03  0.25500000920E-02 0. -1.
    10030    2    1    2    0    0  0.00000000000E+00  0.00000000000E+00  0.27849265919E+04  0.38053532656E+04  0.25932407049E+04 0.  0.
        1    1    3    3  502    0  0.69462621402E+03 -0.15580463723E+03  0.29827237059E+04  0.30664998562E+04  0.50400001928E-02 0.  1.
       -1    1    3    3    0  502 -0.69462621402E+03  0.15580463723E+03 -0.19779711403E+03  0.73885340936E+03  0.50400001928E-02 0. -1.
</event>
<event>
 5   0  0.5170532E-05  0.2589910E+04  0.7818609E-02  0.8371637E-01
       -2   -1    0    0    0  501  0.00000000000E+00  0.00000000000E+00  0.16642588812E+04  0.16642588812E+04  0.25500000920E-02 0. -1.
        2   -1    0    0  501    0  0.00000000000E+00  0.00000000000E+00 -0.10076004889E+04  0.10076004889E+04  0.25500000920E-02 0.  1.
    10030    2    1    2    0    0  0.00000000000E+00  0.00000000000E+00  0.65665839232E+03  0.26718593701E+04  0.25899096991E+04 0.  0.
        1    1    3    3  502    0 -0.37463542799E+03 -0.79024018942E+00  0.16071306832E+04  0.16502185799E+04  0.50400001928E-02 0. -1.
       -1    1    3    3    0  502  0.37463542799E+03  0.79024018942E+00 -0.95047229092E+03  0.10216407902E+04  0.50400001928E-02 0.  1.
</event>
<event>
 5   0  0.1954502E-05  0.2622525E+04  0.7818609E-02  0.8360590E-01
       -1   -1    0    0    0  501  0.00000000000E+00  0.00000000000E+00  0.10915866653E+04  0.10915866653E+04  0.50400001928E-02 0.  1.
        1   -1    0    0  501    0  0.00000000000E+00  0.00000000000E+00 -0.15751465779E+04  0.15751465779E+04  0.50400001928E-02 0. -1.
    10030    2    1    2    0    0  0.00000000000E+00  0.00000000000E+00 -0.48355991268E+03  0.26667332432E+04  0.26225247380E+04 0.  0.
        4    1    3    3  502    0  0.43464142516E+03 -0.68949784665E+03  0.80270960652E+03  0.11439688695E+04  0.12699999809E+01 0. -1.
       -4    1    3    3    0  502 -0.43464142516E+03  0.68949784665E+03 -0.12862695192E+04  0.15227643737E+04  0.12699999809E+01 0.  1.
</event>
<event>
 5   0  0.4955675E-05  0.2542712E+04  0.7818609E-02  0.8387925E-01
       -2   -1    0    0    0  501  0.00000000000E+00  0.00000000000E+00  0.19194741580E+04  0.19194741580E+04  0.25500000920E-02 0. -1.
        2   -1    0    0  501    0  0.00000000000E+00  0.00000000000E+00 -0.84207762761E+03  0.84207762761E+03  0.25500000920E-02 0.  1.
    10030    2    1    2    0    0  0.00000000000E+00  0.00000000000E+00  0.10773965304E+04  0.27615517856E+04  0.25427121310E+04 0.  0.
        5    1    3    3  502    0  0.61094924508E+03  0.74738823423E+03 -0.35983696527E+03  0.10302198233E+04  0.46999998093E+01 0.  1.
       -5    1    3    3    0  502 -0.61094924508E+03 -0.74738823423E+03  0.14372334957E+04  0.17313319623E+04  0.46999998093E+01 0. -1.
</event>
<event>
 5   0  0.1993815E-05  0.2571739E+04  0.7818609E-02  0.8377865E-01
        1   -1    0    0  501    0  0.00000000000E+00  0.00000000000E+00  0.21507086564E+04  0.21507086564E+04  0.50400001928E-02 0.  1.
       -1   -1    0    0    0  501  0.00000000000E+00  0.00000000000E+00 -0.76879779681E+03  0.76879779683E+03  0.50400001928E-02 0. -1.
    10030    2    1    2    0    0  0.00000000000E+00  0.00000000000E+00  0.13819108596E+04  0.29195064532E+04  0.25717387710E+04 0.  0.
        5    1    3    3  502    0 -0.31564182688E+03 -0.52966237404E+03  0.19719348639E+04  0.20660883792E+04  0.46999998093E+01 0.  1.
       -5    1    3    3    0  502  0.31564182688E+03  0.52966237404E+03 -0.59002400431E+03  0.85341807399E+03  0.46999998093E+01 0. -1.
</event>
<event>
 5   0  0.2072710E-05  0.1689667E+04  0.7818609E-02  0.8767280E-01
        1   -1    0    0  501    0  0.00000000000E+00  0.00000000000E+00  0.10107100758E+04  0.10107100758E+04  0.50400001928E-02 0. -1.
       -1   -1    0    0    0  501  0.00000000000E+00  0.00000000000E+00 -0.70618008827E+03  0.70618008828E+03  0.50400001928E-02 0.  1.
    10030    2    1    2    0    0  0.00000000000E+00  0.00000000000E+00  0.30452998754E+03  0.17168901641E+04  0.16896666305E+04 0.  0.
        2    1    3    3  502    0 -0.77174432131E+02 -0.43745644608E+03 -0.57793649787E+03  0.72892704077E+03  0.25500000920E-02 0.  1.
       -2    1    3    3    0  502  0.77174432131E+02  0.43745644608E+03  0.88246648541E+03  0.98796312333E+03  0.25500000920E-02 0. -1.
</event>
<event>
 5   0  0.4955675E-05  0.2580602E+04  0.7818609E-02  0.8374820E-01
        2   -1    0    0  501    0  0.00000000000E+00  0.00000000000E+00  0.56123676046E+03  0.56123676046E+03  0.25500000920E-02 0.  1.
       -2   -1    0    0    0  501  0.00000000000E+00  0.00000000000E+00 -0.29664434338E+04  0.29664434338E+04  0.25500000920E-02 0. -1.
    10030    2    1    2    0    0  0.00000000000E+00  0.00000000000E+00 -0.24052066733E+04  0.35276801943E+04  0.25806023350E+04 0.  0.
        5    1    3    3  502    0  0.90786517494E+03 -0.52655129105E+03 -0.22286536794E+04  0.24634112021E+04  0.46999998093E+01 0. -1.
       -5    1    3    3    0  502 -0.90786517494E+03  0.52655129105E+03 -0.17655299393E+03  0.10642689921E+04  0.46999998093E+01 0.  1.
</event>
<event>
 5   0  0.5170532E-05  0.2596181E+04  0.7818609E-02  0.8369499E-01
       -2   -1    0    0    0  501  0.00000000000E+00  0.00000000000E+00  0.17361256759E+04  0.17361256759E+04  0.25500000920E-02 0. -1.
        2   -1    0    0  501    0  0.00000000000E+00  0.00000000000E+00 -0.97057464570E+03  0.97057464570E+03  0.25500000920E-02 0.  1.
    10030    2    1    2    0    0  0.00000000000E+00  0.00000000000E+00  0.76555103018E+03  0.27067003216E+04  0.25961814750E+04 0.  0.
        1    1    3    3  502    0  0.67922452951E+03  0.18117770994E+03  0.15204996842E+04  0.16751389834E+04  0.50400001928E-02 0. -1.
       -1    1    3    3    0  502 -0.67922452951E+03 -0.18117770994E+03 -0.75494865405E+03  0.10315613381E+04  0.50400001928E-02 0.  1.
</event>
<event>
 5   0  0.1954502E-05  0.1724691E+04  0.7818609E-02  0.8747406E-01
        1   -1    0    0  501    0  0.00000000000E+00  0.00000000000E+00  0.15239635646E+04  0.15239635646E+04  0.50400001928E-02 0.  1.
       -1   -1    0    0    0  501  0.00000000000E+00  0.00000000000E+00 -0.48796409596E+03  0.48796409598E+03  0.50400001928E-02 0. -1.
    10030    2    1    2    0    0  0.00000000000E+00  0.00000000000E+00  0.10359994687E+04  0.20119276606E+04  0.17246907005E+04 0.  0.
        4    1    3    3  502    0  0.51877983598E+02 -0.49589715387E+03  0.13387632255E+04  0.14285985787E+04  0.12699999809E+01 0.  1.
       -4    1    3    3    0  502 -0.51877983598E+02  0.49589715387E+03 -0.30276375682E+03  0.58332908186E+03  0.12699999809E+01 0. -1.
</event>
<event>
 5   0  0.1698625E-05  0.2559398E+04  0.7818609E-02  0.8382125E-01
       -3   -1    0    0    0  501  0.00000000000E+00  0.00000000000E+00  0.12840311104E+04  0.12840311144E+04  0.10100000352E+00 0.  1.
        3   -1    0    0  501    0  0.00000000000E+00  0.00000000000E+00 -0.12753811857E+04  0.12753811897E+04  0.10100000352E+00 0. -1.
    10030    2    1    2    0    0  0.00000000000E+00  0.00000000000E+00  0.86499246885E+01  0.25594123041E+04  0.25593976872E+04 0.  0.
        4    1    3    3  502    0  0.12055452497E+04 -0.21553504701E+03  0.37558549908E+03  0.12809608837E+04  0.12699999809E+01 0. -1.
       -4    1    3    3    0  502 -0.12055452497E+04  0.21553504701E+03 -0.36693557439E+03  0.12784514204E+04  0.12699999809E+01 0.  1.
</event>
<event>
 5   0  0.1993815E-05  0.1332015E+04  0.7818609E-02  0.9004556E-01
       -1   -1    0    0    0  501  0.00000000000E+00  0.00000000000E+00  0.40421248246E+03  0.40421248249E+03  0.50400001928E-02 0. -1.
        1   -1    0    0  501    0  0.00000000000E+00  0.00000000000E+00 -0.10973577289E+04  0.10973577289E+04  0.50400001928E-02 0.  1.
    10030    2    1    2    0    0  0.00000000000E+00  0.00000000000E+00 -0.69314524645E+03  0.15015702114E+04  0.13320145521E+04 0.  0.
        5    1    3    3  502    0  0.30176505405E+03  0.53422882265E+03 -0.63854146034E+03  0.88556189471E+03  0.46999998093E+01 0.  1.
       -5    1    3    3    0  502 -0.30176505405E+03 -0.53422882265E+03 -0.54603786110E+02  0.61600831670E+03  0.46999998093E+01 0. -1.
</event>
<event>
 5   0  0.2159405E-05  0.2587267E+04  0.7818609E-02  0.8372539E-01
       -1   -1    0    0    0  501  0.00000000000E+00  0.00000000000E+00  0.21183070759E+04  0.21183070759E+04  0.50400001928E-02 0. -1.
        1   -1    0    0  501    0  0.00000000000E+00  0.00000000000E+00 -0.79001176328E+03  0.79001176330E+03  0.50400001928E-02 0.  1.
    10030    2    1    2    0    0  0.00000000000E+00  0.00000000000E+00  0.13282953126E+04  0.29083188392E+04  0.25872669041E+04 0.  0.
        3    1    3    3  502    0  0.88496058754E+03 -0.91291651134E+02 -0.39153796397E+03  0.97200380375E+03  0.10100000352E+00 0.  1.
       -3    1    3    3    0  502 -0.88496058754E+03  0.91291651134E+02  0.17198332766E+04  0.19363150355E+04  0.10100000352E+00 0. -1.
</event>
<event>
 5   0  0.1993815E-05  0.2604169E+04  0.7818609E-02  0.8366786E-01
        1   -1    0    0  501    0  0.00000000000E+00  0.00000000000E+00  0.11322190584E+04  0.11322190584E+04  0.50400001928E-02 0.  1.
       -1   -1    0    0    0  501  0.00000000000E+00  0.00000000000E+00 -0.14974348027E+04  0.14974348028E+04  0.50400001928E-02 0. -1.
    10030    2    1    2    0    0  0.00000000000E+00  0.00000000000E+00 -0.36521574435E+03  0.26296538612E+04  0.26041691361E+04 0.  0.
        5    1    3    3  502    0  0.10932648876E+04 -0.31562488742E+03  0.45647981395E+03  0.12260681443E+04  0.46999998093E+01 0.  1.
       -5    1    3    3    0  502 -0.10932648876E+04  0.31562488742E+03 -0.82169555830E+03  0.14035857168E+04  0.46999998093E+01 0. -1.
</event>
<event>
 5   0  0.1954502E-05  0.2750670E+04  0.7818609E-02  0.8318749E-01
       -1   -1    0    0    0  501  0.00000000000E+00  0.00000000000E+00  0.14245552791E+04  0.14245552791E+04  0.50400001928E-02 0. -1.
        1   -1    0    0  501    0  0.00000000000E+00  0.00000000000E+00 -0.13278148709E+04  0.13278148709E+04  0.50400001928E-02 0.  1.
    10030    2    1    2    0    0  0.00000000000E+00  0.00000000000E+00  0.96740408219E+02  0.27523701500E+04  0.27506695069E+04 0.  0.
        4    1    3    3  502    0  0.10303716498E+04 -0.87607364653E+03 -0.20153067726E+03  0.13674015496E+04  0.12699999809E+01 0.  1.
       -4    1    3    3    0  502 -0.10303716498E+04  0.87607364653E+03  0.29827108548E+03  0.13849686005E+04  0.12699999809E+01 0. -1.
</event>
<event>
 5   0  0.1993815E-05  0.2523732E+04  0.7818609E-02  0.8394579E-01
       -1   -1    0    0    0  501  0.00000000000E+00  0.00000000000E+00  0.98705227683E+03  0.98705227684E+03  0.50400001928E-02 0. -1.
        1   -1    0    0  501    0  0.00000000000E+00  0.00000000000E+00 -0.16131926934E+04  0.16131926934E+04  0.50400001928E-02 0.  1.
    10030    2    1    2    0    0  0.00000000000E+00  0.00000000000E+00 -0.62614041661E+03  0.26002449703E+04  0.25237317774E+04 0.  0.
        5    1    3    3  502    0 -0.23854246555E+03  0.12187886592E+04 -0.54330669548E+03  0.13555635577E+04  0.46999998093E+01 0.  1.
       -5    1    3    3    0  502  0.23854246555E+03 -0.12187886592E+04 -0.82833721129E+02  0.12446814126E+04  0.46999998093E+01 0. -1.
</event>
<event>
 5   0  0.5049803E-05  0.2270963E+04  0.7818609E-02  0.8489459E-01
       -2   -1    0    0    0  501  0.00000000000E+00  0.00000000000E+00  0.81137493418E+03  0.81137493419E+03  0.25500000920E-02 0. -1.
        2   -1    0    0  501    0  0.00000000000E+00  0.00000000000E+00 -0.15890529824E+04  0.15890529824E+04  0.25500000920E-02 0.  1.
    10030    2    1    2    0    0  0.00000000000E+00  0.00000000000E+00 -0.77767804823E+03  0.24004279166E+04  0.22709625792E+04 0.  0.
        4    1    3    3  502    0  0.60469570005E+03  0.82038436900E+03 -0.91800770139E+03  0.13716512513E+04  0.12699999809E+01 0.  1.
       -4    1    3    3    0  502 -0.60469570005E+03 -0.82038436900E+03  0.14032965316E+03  0.10287766653E+04  0.12699999809E+01 0. -1.
</event>
<event>
 5   0  0.1993815E-05  0.2601007E+04  0.7818609E-02  0.8367859E-01
       -1   -1    0    0    0  501  0.00000000000E+00  0.00000000000E+00  0.18263540428E+04  0.18263540429E+04  0.50400001928E-02 0. -1.
        1   -1    0    0  501    0  0.00000000000E+00  0.00000000000E+00 -0.92605752240E+03  0.92605752241E+03  0.50400001928E-02 0.  1.
    10030    2    1    2    0    0  0.00000000000E+00  0.00000000000E+00  0.90029652045E+03  0.27524115653E+04  0.26010066513E+04 0.  0.
        5    1    3    3  502    0 -0.10929262159E+04  0.18255297967E+03 -0.27026942891E+03  0.11405616853E+04  0.46999998093E+01 0.  1.
       -5    1    3    3    0  502  0.10929262159E+04 -0.18255297967E+03  0.11705659494E+04  0.16118498800E+04  0.46999998093E+01 0. -1.
</event>
<event>
 5   0  0.5182179E-05  0.1897018E+04  0.7818609E-02  0.8656342E-01
        2   -1    0    0  501    0  0.00000000000E+00  0.00000000000E+00  0.17626372628E+04  0.17626372628E+04  0.25500000920E-02 0.  1.
       -2   -1    0    0    0  501  0.00000000000E+00  0.00000000000E+00 -0.51041076065E+03  0.51041076065E+03  0.25500000920E-02 0. -1.
    10030    2    1    2    0    0  0.00000000000E+00  0.00000000000E+00  0.12522265021E+04  0.22730480234E+04  0.18970176868E+04 0.  0.
        3    1    3    3  502    0  0.73007239542E+03  0.49804588124E+03  0.21344172927E+03  0.90918248134E+03  0.10100000352E+00 0. -1.
       -3    1    3    3    0  502 -0.73007239542E+03 -0.49804588124E+03  0.10387847728E+04  0.13638655421E+04  0.10100000352E+00 0.  1.
</event>
<event>
 5   0  0.4955675E-05  0.2597803E+04  0.7818609E-02  0.8368948E-01
        2   -1    0    0  501    0  0.00000000000E+00  0.00000000000E+00  0.21825833587E+04  0.21825833587E+04  0.25500000920E-02 0.  1.
       -2   -1    0    0    0  501  0.00000000000E+00  0.00000000000E+00 -0.77300356687E+03  0.77300356687E+03  0.25500000920E-02 0. -1.
    10030    2    1    2    0    0  0.00000000000E+00  0.00000000000E+00  0.14095797918E+04  0.29555869256E+04  0.25978027032E+04 0.  0.
        5    1    3    3  502    0 -0.18397991009E+03 -0.12068542643E+04  0.20010009447E+03  0.12370965849E+04  0.46999998093E+01 0.  1.
       -5    1    3    3    0  502  0.18397991009E+03  0.12068542643E+04  0.12094796973E+04  0.17184903406E+04  0.46999998093E+01 0. -1.
</event>
<event>
 5   0  0.2072710E-05  0.2513912E+04  0.7818609E-02  0.8398046E-01
        1   -1    0    0  501    0  0.00000000000E+00  0.00000000000E+00  0.23018008974E+04  0.23018008974E+04  0.50400001928E-02 0. -1.
       -1   -1    0    0    0  501  0.00000000000E+00  0.00000000000E+00 -0.68639211890E+03  0.68639211892E+03  0.50400001928E-02 0.  1.
    10030    2    1    2    0    0  0.00000000000E+00  0.00000000000E+00  0.16154087785E+04  0.29881930163E+04  0.25139116892E+04 0.  0.
        2    1    3    3  502    0  0.16718057194E+03  0.40407486163E+03 -0.59305888880E+03  0.73684780180E+03  0.25500000920E-02 0.  1.
       -2    1    3    3    0  502 -0.16718057194E+03 -0.40407486163E+03  0.22084676673E+04  0.22513452145E+04  0.25500000920E-02 0. -1.
</event>
<event>
 5   0  0.4955675E-05  0.2691050E+04  0.7818609E-02  0.8337915E-01
        2   -1    0    0  501    0  0.00000000000E+00  0.00000000000E+00  0.24897211722E+04  0.24897211722E+04  0.25500000920E-02 0. -1.
       -2   -1    0    0    0  501  0.00000000000E+00  0.00000000000E+00 -0.72716474250E+03  0.72716474250E+03  0.25500000920E-02 0.  1.
    10030    2    1    2    0    0  0.00000000000E+00  0.00000000000E+00  0.17625564297E+04  0.32168859147E+04  0.26910499476E+04 0.  0.
        5    1    3    3  502    0 -0.30277429813E+03  0.15218517758E+03  0.24378652066E+04  0.24613088915E+04  0.46999998093E+01 0. -1.
       -5    1    3    3    0  502  0.30277429813E+03 -0.15218517758E+03 -0.67530877688E+03  0.75557702321E+03  0.46999998093E+01 0.  1.
</event>
<event>
 5   0  0.1993815E-05  0.2441921E+04  0.7818609E-02  0.8423973E-01
       -1   -1    0    0    0  501  0.00000000000E+00  0.00000000000E+00  0.10944694656E+04  0.10944694656E+04  0.50400001928E-02 0. -1.
        1   -1    0    0  501    0  0.00000000000E+00  0.00000000000E+00 -0.13620709861E+04  0.13620709861E+04  0.50400001928E-02 0.  1.
    10030    2    1    2    0    0  0.00000000000E+00  0.00000000000E+00 -0.26760152053E+03  0.24565404518E+04  0.24419214601E+04 0.  0.
        5    1    3    3  502    0  0.55561380248E+03 -0.25240829561E+03 -0.11976317264E+04  0.13441579101E+04  0.46999998093E+01 0.  1.
       -5    1    3    3    0  502 -0.55561380248E+03  0.25240829561E+03  0.93003020587E+03  0.11123825417E+04  0.46999998093E+01 0. -1.
</event>
<event>
 5   0  0.2072710E-05  0.2556993E+04  0.7818609E-02  0.8382958E-01
        1   -1    0    0  501    0  0.00000000000E+00  0.00000000000E+00  0.15958455580E+04  0.15958455580E+04  0.50400001928E-02 0. -1.
       -1   -1    0    0    0  501  0.00000000000E+00  0.00000000000E+00 -0.10242551976E+04  0.10242551976E+04  0.50400001928E-02 0.  1.
    10030    2    1    2    0    0  0.00000000000E+00  0.00000000000E+00  0.57159036046E+03  0.26201007556E+04  0.25569928489E+04 0.  0.
        2    1    3    3  502    0  0.94222154246E+03  0.17739860886E+03  0.11524237821E+04  0.14991104946E+04  0.25500000920E-02 0. -1.
       -2    1    3    3    0  502 -0.94222154246E+03 -0.17739860886E+03 -0.58083342166E+03  0.11209902610E+04  0.25500000920E-02 0.  1.
</event>
<event>
 5   0  0.4955675E-05  0.2341279E+04  0.7818609E-02  0.8461821E-01
       -2   -1    0    0    0  501  0.00000000000E+00  0.00000000000E+00  0.93132717630E+03  0.93132717630E+03  0.25500000920E-02 0. -1.
        2   -1    0    0  501    0  0.00000000000E+00  0.00000000000E+00 -0.14714448097E+04  0.14714448097E+04  0.25500000920E-02 0.  1.
    10030    2    1    2    0    0  0.00000000000E+00  0.00000000000E+00 -0.54011763341E+03  0.24027719860E+04  0.23412787444E+04 0.  0.
        5    1    3    3  502    0  0.20958690386E+03  0.90549500757E+03  0.46034082836E+03  0.10371999071E+04  0.46999998093E+01 0. -1.
       -5    1    3    3    0  502 -0.20958690386E+03 -0.90549500757E+03 -0.10004584618E+04  0.13655720789E+04  0.46999998093E+01 0.  1.
</event>
<event>
 5   0  0.5170532E-05  0.2555267E+04  0.7818609E-02  0.8383557E-01
        2   -1    0    0  501    0  0.00000000000E+00  0.00000000000E+00  0.23542822009E+04  0.23542822009E+04  0.25500000920E-02 0.  1.
       -2   -1    0    0    0  501  0.00000000000E+00  0.00000000000E+00 -0.69335266940E+03  0.69335266940E+03  0.25500000920E-02 0. -1.
    10030    2    1    2    0    0  0.00000000000E+00  0.00000000000E+00  0.16609295315E+04  0.30476348703E+04  0.25552673821E+04 0.  0.
        1    1    3    3  502    0  0.84729153839E+03 -0.68995211662E+03  0.40755395429E+02  0.10934339836E+04  0.50400001928E-02 0. -1.
       -1    1    3    3    0  502 -0.84729153839E+03  0.68995211662E+03  0.16201741361E+04  0.19542008867E+04  0.50400001928E-02 0.  1.
</event>
<event>
 5   0  0.2072710E-05  0.2747337E+04  0.7818609E-02  0.8319807E-01
       -1   -1    0    0    0  501  0.00000000000E+00  0.00000000000E+00  0.79653456789E+03  0.79653456791E+03  0.50400001928E-02 0.  1.
        1   -1    0    0  501    0  0.00000000000E+00  0.00000000000E+00 -0.23689687585E+04  0.23689687585E+04  0.50400001928E-02 0. -1.
    10030    2    1    2    0    0  0.00000000000E+00  0.00000000000E+00 -0.15724341906E+04  0.31655033264E+04  0.27473372610E+04 0.  0.
        2    1    3    3  502    0  0.54614683261E+03 -0.11301420901E+04 -0.14317779722E+03  0.12633279021E+04  0.25500000920E-02 0.  1.
       -2    1    3    3    0  502 -0.54614683261E+03  0.11301420901E+04 -0.14292563934E+04  0.19021754243E+04  0.25500000920E-02 0. -1.
</event>
<event>
 5   0  0.5170532E-05  0.2580250E+04  0.7818609E-02  0.8374941E-01
       -2   -1    0    0    0  501  0.00000000000E+00  0.00000000000E+00  0.14054999840E+04  0.14054999840E+04  0.25500000920E-02 0.  1.
        2   -1    0    0  501    0  0.00000000000E+00  0.00000000000E+00 -0.11842208834E+04  0.11842208834E+04  0.25500000920E-02 0. -1.
    10030    2    1    2    0    0  0.00000000000E+00  0.00000000000E+00  0.22127910057E+03  0.25897208674E+04  0.25802499357E+04 0.  0.
        1    1    3    3  502    0 -0.12005705716E+04  0.39810746514E+03 -0.14438596961E+03  0.12730697387E+04  0.50400001928E-02 0.  1.
       -1    1    3    3    0  502  0.12005705716E+04 -0.39810746514E+03  0.36566507018E+03  0.13166511288E+04  0.50400001928E-02 0. -1.
</event>
<event>
 5   0  0.1954502E-05  0.2608797E+04  0.7818609E-02  0.8365219E-01
       -1   -1    0    0    0  501  0.00000000000E+00  0.00000000000E+00  0.14229150219E+04  0.14229150219E+04  0.50400001928E-02 0. -1.
        1   -1    0    0  501    0  0.00000000000E+00  0.00000000000E+00 -0.11957533427E+04  0.11957533427E+04  0.50400001928E-02 0.  1.
    10030    2    1    2    0    0  0.00000000000E+00  0.00000000000E+00  0.22716167920E+03  0.26186683646E+04  0.26087969594E+04 0.  0.
        4    1    3    3  502    0 -0.12217919615E+03  0.26329662222E+02 -0.11897283826E+04  0.11962759900E+04  0.12699999809E+01 0.  1.
       -4    1    3    3    0  502  0.12217919615E+03 -0.26329662222E+02  0.14168900618E+04  0.14223923746E+04  0.12699999809E+01 0. -1.
</event>
<event>
 5   0  0.5182179E-05  0.2292431E+04  0.7818609E-02  0.8480912E-01
        2   -1    0    0  501    0  0.00000000000E+00  0.00000000000E+00  0.15755264213E+04  0.15755264213E+04  0.25500000920E-02 0. -1.
       -2   -1    0    0    0  501  0.00000000000E+00  0.00000000000E+00 -0.83388608004E+03  0.83388608005E+03  0.25500000920E-02 0.  1.
    10030    2    1    2    0    0  0.00000000000E+00  0.00000000000E+00  0.74164034124E+03  0.24094125013E+04  0.22924306327E+04 0.  0.
        3    1    3    3  502    0 -0.32780563362E+03  0.55670429190E+03  0.13659367369E+04  0.15110127006E+04  0.10100000352E+00 0. -1.
       -3    1    3    3    0  502  0.32780563362E+03 -0.55670429190E+03 -0.62429639566E+03  0.89839980070E+03  0.10100000352E+00 0.  1.
</event>
<event>
 5   0  0.1954502E-05  0.2282906E+04  0.7818609E-02  0.8484692E-01
        1   -1    0    0  501    0  0.00000000000E+00  0.00000000000E+00  0.17445035163E+04  0.17445035163E+04  0.50400001928E-02 0. -1.
       -1   -1    0    0    0  501  0.00000000000E+00  0.00000000000E+00 -0.74686882629E+03  0.74686882631E+03  0.50400001928E-02 0.  1.
    10030    2    1    2    0    0  0.00000000000E+00  0.00000000000E+00  0.99763469001E+03  0.24913723426E+04  0.22829063001E+04 0.  0.
        4    1    3    3  502    0 -0.15746179172E+03 -0.11293645089E+04  0.55505212179E+03  0.12682045894E+04  0.12699999809E+01 0.  1.
       -4    1    3    3    0  502  0.15746179172E+03  0.11293645089E+04  0.44258256822E+03  0.12231677532E+04  0.12699999809E+01 0. -1.
</event>
<event>
 5   0  0.5182179E-05  0.2448580E+04  0.7818609E-02  0.8421537E-01
        2   -1    0    0  501    0  0.00000000000E+00  0.00000000000E+00  0.16821486332E+04  0.16821486332E+04  0.25500000920E-02 0. -1.
       -2   -1    0    0    0  501  0.00000000000E+00  0.00000000000E+00 -0.89105415720E+03  0.89105415721E+03  0.25500000920E-02 0.  1.
    10030    2    1    2    0    0  0.00000000000E+00  0.00000000000E+00  0.79109447596E+03  0.25732027904E+04  0.24485796149E+04 0.  0.
        3    1    3    3  502    0  0.38733256893E+03  0.24686097526E+03 -0.79707801858E+03  0.91994577990E+03  0.10100000352E+00 0.  1.
       -3    1    3    3    0  502 -0.38733256893E+03 -0.24686097526E+03  0.15881724945E+04  0.16532570105E+04  0.10100000352E+00 0. -1.
</event>
<event>
 5   0  0.5049803E-05  0.2409940E+04  0.7818609E-02  0.8435791E-01
       -2   -1    0    0    0  501  0.00000000000E+00  0.00000000000E+00  0.85301596395E+03  0.85301596396E+03  0.25500000920E-02 0.  1.
        2   -1    0    0  501    0  0.00000000000E+00  0.00000000000E+00 -0.17021407531E+04  0.17021407531E+04  0.25500000920E-02 0. -1.
    10030    2    1    2    0    0  0.00000000000E+00  0.00000000000E+00 -0.84912478911E+03  0.25551567170E+04  0.24099404435E+04 0.  0.
        4    1    3    3  502    0  0.55678090223E+03  0.58903179654E+03  0.52078530374E+03  0.96342222100E+03  0.12699999809E+01 0.  1.
       -4    1    3    3    0  502 -0.55678090223E+03 -0.58903179654E+03 -0.13699100928E+04  0.15917344960E+04  0.12699999809E+01 0. -1.
</event>
<event>
 5   0  0.5036452E-05  0.2619191E+04  0.7818609E-02  0.8361711E-01
       -2   -1    0    0    0  501  0.00000000000E+00  0.00000000000E+00  0.82449751452E+03  0.82449751452E+03  0.25500000920E-02 0. -1.
        2   -1    0    0  501    0  0.00000000000E+00  0.00000000000E+00 -0.20801043136E+04  0.20801043136E+04  0.25500000920E-02 0.  1.
    10030    2    1    2    0    0  0.00000000000E+00  0.00000000000E+00 -0.12556067991E+04  0.29046018281E+04  0.26191913535E+04 0.  0.
        2    1    3    3  502    0  0.38521695391E+03  0.73922278706E+03 -0.17479160401E+04  0.19365053353E+04  0.25500000920E-02 0.  1.
       -2    1    3    3    0  502 -0.38521695391E+03 -0.73922278706E+03  0.49230924104E+03  0.96809649277E+03  0.25500000920E-02 0. -1.
</event>
<event>
 5   0  0.5036452E-05  0.2558913E+04  0.7818609E-02  0.8382293E-01
        2   -1    0    0  501    0  0.00000000000E+00  0.00000000000E+00  0.16951748386E+04  0.16951748386E+04  0.25500000920E-02 0.  1.
       -2   -1    0    0    0  501  0.00000000000E+00  0.00000000000E+00 -0.96568714920E+03  0.96568714920E+03  0.25500000920E-02 0. -1.
    10030    2    1    2    0    0  0.00000000000E+00  0.00000000000E+00  0.72948768941E+03  0.26608619878E+04  0.25589127045E+04 0.  0.
        2    1    3    3  502    0  0.17277456001E+02 -0.18919475541E+03  0.16804262561E+04  0.16911314461E+04  0.25500000920E-02 0.  1.
       -2    1    3    3    0  502 -0.17277456001E+02  0.18919475541E+03 -0.95093856665E+03  0.96973054170E+03  0.25500000920E-02 0. -1.
</event>
<event>
 5   0  0.1954502E-05  0.2576559E+04  0.7818609E-02  0.8376207E-01
        1   -1    0    0  501    0  0.00000000000E+00  0.00000000000E+00  0.15429915418E+04  0.15429915418E+04  0.50400001928E-02 0.  1.
       -1   -1    0    0    0  501  0.00000000000E+00  0.00000000000E+00 -0.10756144784E+04  0.10756144784E+04  0.50400001928E-02 0. -1.
    10030    2    1    2    0    0  0.00000000000E+00  0.00000000000E+00  0.46737706343E+03  0.26186060203E+04  0.25765589785E+04 0.  0.
        4    1    3    3  502    0  0.42988733335E+03  0.11727585609E+04  0.55426699479E+03  0.13665208656E+04  0.12699999809E+01 0.  1.
       -4    1    3    3    0  502 -0.42988733335E+03 -0.11727585609E+04 -0.86889931358E+02  0.12520851547E+04  0.12699999809E+01 0. -1.
</event>
<event>
 5   0  0.5036452E-05  0.2633557E+04  0.7818609E-02  0.8356891E-01
       -2   -1    0    0    0  501  0.00000000000E+00  0.00000000000E+00  0.10862254426E+04  0.10862254426E+04  0.25500000920E-02 0.  1.
        2   -1    0    0  501    0  0.00000000000E+00  0.00000000000E+00 -0.15962662418E+04  0.15962662418E+04  0.25500000920E-02 0. -1.
    10030    2    1    2    0    0  0.00000000000E+00  0.00000000000E+00 -0.51004079919E+03  0.26824916844E+04  0.26335565345E+04 0.  0.
        2    1    3    3  502    0 -0.20955403537E+03  0.11607774899E+04  0.34116541839E+03  0.12278888865E+04  0.25500000920E-02 0.  1.
       -2    1    3    3    0  502  0.20955403537E+03 -0.11607774899E+04 -0.85120621757E+03  0.14546027979E+04  0.25500000920E-02 0. -1.
</event>
<event>
 5   0  0.1698625E-05  0.2557177E+04  0.7818609E-02  0.8382894E-01
        4   -1    0    0  501    0  0.00000000000E+00  0.00000000000E+00  0.96064154616E+03  0.96064238565E+03  0.12699999809E+01 0. -1.
       -4   -1    0    0    0  501  0.00000000000E+00  0.00000000000E+00 -0.17017656188E+04  0.17017660927E+04  0.12699999809E+01 0.  1.
    10030    2    1    2    0    0  0.00000000000E+00  0.00000000000E+00 -0.74112407263E+03  0.26624084783E+04  0.25571769619E+04 0.  0.
        4    1    3    3  502    0  0.94848583733E+03 -0.45427611081E+03  0.38654531036E+03  0.11204512744E+04  0.12699999809E+01 0. -1.
       -4    1    3    3    0  502 -0.94848583733E+03  0.45427611081E+03 -0.11276693830E+04  0.15419572039E+04  0.12699999809E+01 0.  1.
</event>
<event>
 5   0  0.4955675E-05  0.2633387E+04  0.7818609E-02  0.8356948E-01
       -2   -1    0    0    0  501  0.00000000000E+00  0.00000000000E+00  0.10000787270E+04  0.10000787271E+04  0.25500000920E-02 0.  1.
        2   -1    0    0  501    0  0.00000000000E+00  0.00000000000E+00 -0.17335453025E+04  0.17335453025E+04  0.25500000920E-02 0. -1.
    10030    2    1    2    0    0  0.00000000000E+00  0.00000000000E+00 -0.73346657549E+03  0.27336240296E+04  0.26333870049E+04 0.  0.
        5    1    3    3  502    0  0.10578228930E+04  0.68011233562E+03  0.38135098857E+02  0.12581806061E+04  0.46999998093E+01 0.  1.
       -5    1    3    3    0  502 -0.10578228930E+04 -0.68011233562E+03 -0.77160167435E+03  0.14754434234E+04  0.46999998093E+01 0. -1.
</event>
<event>
 5   0  0.5182179E-05  0.2630394E+04  0.7818609E-02  0.8357950E-01
       -2   -1    0    0    0  501  0.00000000000E+00  0.00000000000E+00  0.73296729978E+03  0.73296729978E+03  0.25500000920E-02 0. -1.
        2   -1    0    0  501    0  0.00000000000E+00  0.00000000000E+00 -0.23599185117E+04  0.23599185117E+04  0.25500000920E-02 0.  1.
    10030    2    1    2    0    0  0.00000000000E+00  0.00000000000E+00 -0.16269512119E+04  0.30928858115E+04  0.26303939623E+04 0.  0.
        3    1    3    3  502    0  0.15756174965E+03  0.92178146742E+03  0.27391644245E+03  0.97444189477E+03  0.10100000352E+00 0. -1.
       -3    1    3    3    0  502 -0.15756174965E+03 -0.92178146742E+03 -0.19008676544E+04  0.21184439167E+04  0.10100000352E+00 0.  1.
</event>
<event>
 5   0  0.1993815E-05  0.2517614E+04  0.7818609E-02  0.8396737E-01
       -1   -1    0    0    0  501  0.00000000000E+00  0.00000000000E+00  0.10470486842E+04  0.10470486842E+04  0.50400001928E-02 0.  1.
        1   -1    0    0  501    0  0.00000000000E+00  0.00000000000E+00 -0.15133915874E+04  0.15133915874E+04  0.50400001928E-02 0. -1.
    10030    2    1    2    0    0  0.00000000000E+00  0.00000000000E+00 -0.46634290326E+03  0.25604402716E+04  0.25176136878E+04 0.  0.
        5    1    3    3  502    0 -0.97848790092E+02  0.12063887196E+04 -0.58492261170E+03  0.13442859369E+04  0.46999998093E+01 0. -1.
       -5    1    3    3    0  502  0.97848790092E+02 -0.12063887196E+04  0.11857970844E+03  0.12161543347E+04  0.46999998093E+01 0.  1.
</event>
<event>
 5   0  0.2163800E-05  0.2584839E+04  0.7818609E-02  0.8373369E-01
       -1   -1    0    0    0  501  0.00000000000E+00  0.00000000000E+00  0.16805005815E+04  0.16805005815E+04  0.50400001928E-02 0.  1.
        1   -1    0    0  501    0  0.00000000000E+00  0.00000000000E+00 -0.99395849978E+03  0.99395849979E+03  0.50400001928E-02 0. -1.
    10030    2    1    2    0    0  0.00000000000E+00  0.00000000000E+00  0.68654208171E+03  0.26744590813E+04  0.25848387469E+04 0.  0.
        1    1    3    3  502    0 -0.15961428255E+03 -0.23222420820E+03 -0.96178697140E+03  0.10022170326E+04  0.50400001928E-02 0. -1.
       -1    1    3    3    0  502  0.15961428255E+03  0.23222420820E+03  0.16483290531E+04  0.16722420487E+04  0.50400001928E-02 0.  1.
</event>
<event>
 5   0  0.5182179E-05  0.2575937E+04  0.7818609E-02  0.8376421E-01
       -2   -1    0    0    0  501  0.00000000000E+00  0.00000000000E+00  0.60494166570E+03  0.60494166570E+03  0.25500000920E-02 0. -1.
        2   -1    0    0  501    0  0.00000000000E+00  0.00000000000E+00 -0.27421873117E+04  0.27421873117E+04  0.25500000920E-02 0.  1.
    10030    2    1    2    0    0  0.00000000000E+00  0.00000000000E+00 -0.21372456460E+04  0.33471289774E+04  0.25759373905E+04 0.  0.
        3    1    3    3  502    0  0.91839799268E+02  0.57692651541E+03  0.42288796576E+03  0.72118859857E+03  0.10100000352E+00 0. -1.
       -3    1    3    3    0  502 -0.91839799268E+02 -0.57692651541E+03 -0.25601336118E+04  0.26259403788E+04  0.10100000352E+00 0.  1.
</event>
<event>
 5   0  0.2072710E-05  0.2638879E+04  0.7818609E-02  0.8355113E-01
       -1   -1    0    0    0  501  0.00000000000E+00  0.00000000000E+00  0.69767073362E+03  0.69767073364E+03  0.50400001928E-02 0.  1.
        1   -1    0    0  501    0  0.00000000000E+00  0.00000000000E+00 -0.24953330762E+04  0.24953330762E+04  0.50400001928E-02 0. -1.
    10030    2    1    2    0    0  0.00000000000E+00  0.00000000000E+00 -0.17976623426E+04  0.31930038098E+04  0.26388791999E+04 0.  0.
        2    1    3    3  502    0 -0.81331564130E+01 -0.11894404583E+04 -0.20788204190E+03  0.12074972859E+04  0.25500000920E-02 0.  1.
       -2    1    3    3    0  502  0.81331564130E+01  0.11894404583E+04 -0.15897803007E+04  0.19855065239E+04  0.25500000920E-02 0. -1.
</event>
<event>
 5   0  0.5049803E-05  0.2730250E+04  0.7818609E-02  0.8325256E-01
        2   -1    0    0  501    0  0.00000000000E+00  0.00000000000E+00  0.19928276901E+04  0.19928276901E+04  0.25500000920E-02 0.  1.
       -2   -1    0    0    0  501  0.00000000000E+00  0.00000000000E+00 -0.93513661099E+03  0.93513661099E+03  0.25500000920E-02 0. -1.
    10030    2    1    2    0    0  0.00000000000E+00  0.00000000000E+00  0.10576910791E+04  0.29279643010E+04  0.27302499024E+04 0.  0.
        4    1    3    3  502    0  0.12080737233E+04  0.54318281775E+03  0.88302684946E+03  0.15919257910E+04  0.12699999809E+01 0.  1.
       -4    1    3    3    0  502 -0.12080737233E+04 -0.54318281775E+03  0.17466422960E+03  0.13360385100E+04  0.12699999809E+01 0. -1.
</event>
<event>
 5   0  0.1954502E-05  0.1826592E+04  0.7818609E-02  0.8692285E-01
        1   -1    0    0  501    0  0.00000000000E+00  0.00000000000E+00  0.10566039453E+04  0.10566039453E+04  0.50400001928E-02 0. -1.
       -1   -1    0    0    0  501  0.00000000000E+00  0.00000000000E+00 -0.78942494512E+03  0.78942494513E+03  0.50400001928E-02 0.  1.
    10030    2    1    2    0    0  0.00000000000E+00  0.00000000000E+00  0.26717900016E+03  0.18460288904E+04  0.18265919211E+04 0.  0.
        4    1    3    3  502    0  0.59257972708E+03 -0.64494442790E+03  0.39519498289E+03  0.96087706573E+03  0.12699999809E+01 0. -1.
       -4    1    3    3    0  502 -0.59257972708E+03  0.64494442790E+03 -0.12801598273E+03  0.88515182470E+03  0.12699999809E+01 0.  1.
</event>
<event>
 5   0  0.5049803E-05  0.2536010E+04  0.7818609E-02  0.8390268E-01
       -2   -1    0    0    0  501  0.00000000000E+00  0.00000000000E+00  0.12121536557E+04  0.12121536557E+04  0.25500000920E-02 0.  1.
        2   -1    0    0  501    0  0.00000000000E+00  0.00000000000E+00 -0.13264297410E+04  0.13264297410E+04  0.25500000920E-02 0. -1.
    10030    2    1    2    0    0  0.00000000000E+00  0.00000000000E+00 -0.11427608529E+03  0.25385833967E+04  0.25360099838E+04 0.  0.
        4    1    3    3  502    0  0.35483396766E+03  0.12147421251E+04  0.22500663948E+02  0.12657067069E+04  0.12699999809E+01 0.  1.
       -4    1    3    3    0  502 -0.35483396766E+03 -0.12147421251E+04 -0.13677674924E+03  0.12728766897E+04  0.12699999809E+01 0. -1.
</event>
<event>
 5   0  0.5170532E-05  0.2559102E+04  0.7818609E-02  0.8382228E-01
       -2   -1    0    0    0  501  0.00000000000E+00  0.00000000000E+00  0.69057580490E+03  0.69057580490E+03  0.25500000920E-02 0.  1.
        2   -1    0    0  501    0  0.00000000000E+00  0.00000000000E+00 -0.23708482149E+04  0.23708482149E+04  0.25500000920E-02 0. -1.
    10030    2    1    2    0    0  0.00000000000E+00  0.00000000000E+00 -0.16802724100E+04  0.30614240198E+04  0.25591017286E+04 0.  0.
        1    1    3    3  502    0 -0.10223277875E+04  0.76926113451E+03 -0.86198660676E+03  0.15427046731E+04  0.50400001928E-02 0.  1.
       -1    1    3    3    0  502  0.10223277875E+04 -0.76926113451E+03 -0.81828580326E+03  0.15187193467E+04  0.50400001928E-02 0. -1.
</event>
<event>
 5   0  0.5036452E-05  0.2640423E+04  0.7818609E-02  0.8354599E-01
        2   -1    0    0  501    0  0.00000000000E+00  0.00000000000E+00  0.11273015294E+04  0.11273015294E+04  0.25500000920E-02 0.  1.
       -2   -1    0    0    0  501  0.00000000000E+00  0.00000000000E+00 -0.15461334483E+04  0.15461334483E+04  0.25500000920E-02 0. -1.
    10030    2    1    2    0    0  0.00000000000E+00  0.00000000000E+00 -0.41883191887E+03  0.26734349776E+04  0.26404231486E+04 0.  0.
        2    1    3    3  502    0  0.10268759078E+04 -0.80270549202E+03  0.33261204006E+01  0.13033883919E+04  0.25500000920E-02 0. -1.
       -2    1    3    3    0  502 -0.10268759078E+04  0.80270549202E+03 -0.42215803927E+03  0.13700465858E+04  0.25500000920E-02 0.  1.
</event>
<event>
 5   0  0.2159405E-05  0.2561151E+04  0.7818609E-02  0.8381518E-01
       -1   -1    0    0    0  501  0.00000000000E+00  0.00000000000E+00  0.12913737670E+04  0.12913737671E+04  0.50400001928E-02 0.  1.
        1   -1    0    0  501    0  0.00000000000E+00  0.00000000000E+00 -0.12698678247E+04  0.12698678247E+04  0.50400001928E-02 0. -1.
    10030    2    1    2    0    0  0.00000000000E+00  0.00000000000E+00  0.21505942391E+02  0.25612415917E+04  0.25611513008E+04 0.  0.
        3    1    3    3  502    0 -0.32200905796E+03 -0.48955588121E+03 -0.11279351374E+04  0.12710595889E+04  0.10100000352E+00 0. -1.
       -3    1    3    3    0  502  0.32200905796E+03  0.48955588121E+03  0.11494410798E+04  0.12901820028E+04  0.10100000352E+00 0.  1.
</event>
<event>
 5   0  0.2163800E-05  0.2558675E+04  0.7818609E-02  0.8382375E-01
       -1   -1    0    0    0  501  0.00000000000E+00  0.00000000000E+00  0.74802684466E+03  0.74802684468E+03  0.50400001928E-02 0. -1.
        1   -1    0    0  501    0  0.00000000000E+00  0.00000000000E+00 -0.21880286774E+04  0.21880286774E+04  0.50400001928E-02 0.  1.
    10030    2    1    2    0    0  0.00000000000E+00  0.00000000000E+00 -0.14400018327E+04  0.29360555221E+04  0.25586748036E+04 0.  0.
        1    1    3    3  502    0  0.10350704242E+04 -0.34872432014E+03  0.44373248206E+02  0.10931369630E+04  0.50400001928E-02 0. -1.
       -1    1    3    3    0  502 -0.10350704242E+04  0.34872432014E+03 -0.14843750810E+04  0.18429185591E+04  0.50400001928E-02 0.  1.
</event>
<event>
 5   0  0.2072710E-05  0.2496730E+04  0.7818609E-02  0.8404151E-01
       -1   -1    0    0    0  501  0.00000000000E+00  0.00000000000E+00  0.13600854550E+04  0.13600854550E+04  0.50400001928E-02 0.  1.
        1   -1    0    0  501    0  0.00000000000E+00  0.00000000000E+00 -0.11458213492E+04  0.11458213492E+04  0.50400001928E-02 0. -1.
    10030    2    1    2    0    0  0.00000000000E+00  0.00000000000E+00  0.21426410582E+03  0.25059068042E+04  0.24967298220E+04 0.  0.
        2    1    3    3  502    0  0.56382759750E+03 -0.11129657334E+04  0.64305935934E+02  0.12492916140E+04  0.25500000920E-02 0. -1.
       -2    1    3    3    0  502 -0.56382759750E+03  0.11129657334E+04  0.14995816989E+03  0.12566151902E+04  0.25500000920E-02 0.  1.
</event>
<event>
 5   0  0.5036452E-05  0.2597255E+04  0.7818609E-02  0.8369134E-01
       -2   -1    0    0    0  501  0.00000000000E+00  0.00000000000E+00  0.25048524508E+04  0.25048524508E+04  0.25500000920E-02 0.  1.
        2   -1    0    0  501    0  0.00000000000E+00  0.00000000000E+00 -0.67326635866E+03  0.67326635867E+03  0.25500000920E-02 0. -1.
    10030    2    1    2    0    0  0.00000000000E+00  0.00000000000E+00  0.18315860922E+04  0.31781188095E+04  0.25972546187E+04 0.  0.
        2    1    3    3  502    0 -0.18676758465E+03  0.53828679884E+02  0.24869524909E+04  0.24945364999E+04  0.25500000920E-02 0.  1.
       -2    1    3    3    0  502  0.18676758465E+03 -0.53828679884E+02 -0.65536639870E+03  0.68358230961E+03  0.25500000920E-02 0. -1.
</event>
<event>
 5   0  0.4955675E-05  0.3211948E+04  0.7818609E-02  0.8185669E-01
       -2   -1    0    0    0  501  0.00000000000E+00  0.00000000000E+00  0.12892203342E+04  0.12892203342E+04  0.25500000920E-02 0.  1.
        2   -1    0    0  501    0  0.00000000000E+00  0.00000000000E+00 -0.20005517046E+04  0.20005517046E+04  0.25500000920E-02 0. -1.
    10030    2    1    2    0    0  0.00000000000E+00  0.00000000000E+00 -0.71133137034E+03  0.32897720388E+04  0.32119476566E+04 0.  0.
        5    1    3    3  502    0 -0.19995409950E+02 -0.61375441515E+03  0.11642150446E+04  0.13162496186E+04  0.46999998093E+01 0.  1.
       -5    1    3    3    0  502  0.19995409950E+02  0.61375441515E+03 -0.18755464149E+04  0.19735224202E+04  0.46999998093E+01 0. -1.
</event>
<event>
 5   0  0.2163800E-05  0.2692444E+04  0.7818609E-02  0.8337461E-01
       -1   -1    0    0    0  501  0.00000000000E+00  0.00000000000E+00  0.27843038009E+04  0.27843038009E+04  0.50400001928E-02 0.  1.
        1   -1    0    0  501    0  0.00000000000E+00  0.00000000000E+00 -0.65090379225E+03  0.65090379227E+03  0.50400001928E-02 0. -1.
    10030    2    1    2    0    0  0.00000000000E+00  0.00000000000E+00  0.21334000087E+04  0.34352075932E+04  0.26924441705E+04 0.  0.
        1    1    3    3  502    0 -0.11802926513E+04  0.63199031563E+03  0.88711756114E+03  0.16060759848E+04  0.50400001928E-02 0. -1.
       -1    1    3    3    0  502  0.11802926513E+04 -0.63199031563E+03  0.12462824475E+04  0.18291316084E+04  0.50400001928E-02 0.  1.
</event>
<event>
 5   0  0.5170532E-05  0.2432043E+04  0.7818609E-02  0.8427604E-01
        2   -1    0    0  501    0  0.00000000000E+00  0.00000000000E+00  0.28920291845E+04  0.28920291845E+04  0.25500000920E-02 0.  1.
       -2   -1    0    0    0  501  0.00000000000E+00  0.00000000000E+00 -0.51130490570E+03  0.51130490571E+03  0.25500000920E-02 0. -1.
    10030    2    1    2    0    0  0.00000000000E+00  0.00000000000E+00  0.23807242788E+04  0.34033340902E+04  0.24320433462E+04 0.  0.
        1    1    3    3  502    0  0.43058665771E+03  0.59280972044E+02 -0.39888965060E+03  0.58994241823E+03  0.50400001928E-02 0. -1.
       -1    1    3    3    0  502 -0.43058665771E+03 -0.59280972044E+02  0.27796139294E+04  0.28133916720E+04  0.50400001928E-02 0.  1.
</event>
<event>
 5   0  0.2163800E-05  0.1559185E+04  0.7818609E-02  0.8846022E-01
        1   -1    0    0  501    0  0.00000000000E+00  0.00000000000E+00  0.91755363328E+03  0.91755363330E+03  0.50400001928E-02 0. -1.
       -1   -1    0    0    0  501  0.00000000000E+00  0.00000000000E+00 -0.66237495524E+03  0.66237495526E+03  0.50400001928E-02 0.  1.
    10030    2    1    2    0    0  0.00000000000E+00  0.00000000000E+00  0.25517867805E+03  0.15799285886E+04  0.15591851036E+04 0.  0.
        1    1    3    3  502    0  0.46509117426E+03  0.12270267855E+03  0.74926504373E+03  0.89037287328E+03  0.50400001928E-02 0. -1.
       -1    1    3    3    0  502 -0.46509117426E+03 -0.12270267855E+03 -0.49408636568E+03  0.68955571528E+03  0.50400001928E-02 0.  1.
</event>
<event>
 5   0  0.4955675E-05  0.2531989E+04  0.7818609E-02  0.8391677E-01
        2   -1    0    0  501    0  0.00000000000E+00  0.00000000000E+00  0.13213854586E+04  0.13213854586E+04  0.25500000920E-02 0.  1.
       -2   -1    0    0    0  501  0.00000000000E+00  0.00000000000E+00 -0.12129254248E+04  0.12129254248E+04  0.25500000920E-02 0. -1.
    10030    2    1    2    0    0  0.00000000000E+00  0.00000000000E+00  0.10846003379E+03  0.25343108834E+04  0.25319889563E+04 0.  0.
        5    1    3    3  502    0 -0.52912196484E+03  0.10355930212E+04 -0.44652565502E+03  0.12457247729E+04  0.46999998093E+01 0. -1.
       -5    1    3    3    0  502  0.52912196484E+03 -0.10355930212E+04  0.55498568881E+03  0.12885861105E+04  0.46999998093E+01 0.  1.
</event>
<event>
 5   0  0.5170532E-05  0.2712200E+04  0.7818609E-02  0.8331057E-01
        2   -1    0    0  501    0  0.00000000000E+00  0.00000000000E+00  0.15806177046E+04  0.15806177046E+04  0.25500000920E-02 0.  1.
       -2   -1    0    0    0  501  0.00000000000E+00  0.00000000000E+00 -0.11634739896E+04  0.11634739896E+04  0.25500000920E-02 0. -1.
    10030    2    1    2    0    0  0.00000000000E+00  0.00000000000E+00  0.41714371505E+03  0.27440916942E+04  0.27122002779E+04 0.  0.
        1    1    3    3  502    0 -0.90570347208E+03 -0.82380704995E+03  0.79856740328E+03  0.14617341525E+04  0.50400001928E-02 0.  1.
       -1    1    3    3    0  502  0.90570347208E+03  0.82380704995E+03 -0.38142368824E+03  0.12823575417E+04  0.50400001928E-02 0. -1.
</event>
<event>
 5   0  0.4955675E-05  0.2749701E+04  0.7818609E-02  0.8319057E-01
        2   -1    0    0  501    0  0.00000000000E+00  0.00000000000E+00  0.15768620654E+04  0.15768620654E+04  0.25500000920E-02 0.  1.
       -2   -1    0    0    0  501  0.00000000000E+00  0.00000000000E+00 -0.11987182440E+04  0.11987182441E+04  0.25500000920E-02 0. -1.
    10030    2    1    2    0    0  0.00000000000E+00  0.00000000000E+00  0.37814382139E+03  0.27755803095E+04  0.27497005846E+04 0.  0.
        5    1    3    3  502    0 -0.10722285934E+04  0.28578396677E+02 -0.67908115942E+03  0.12695133683E+04  0.46999998093E+01 0. -1.
       -5    1    3    3    0  502  0.10722285934E+04 -0.28578396677E+02  0.10572249808E+04  0.15060669412E+04  0.46999998093E+01 0.  1.
</event>
<event>
 5   0  0.4955675E-05  0.2498393E+04  0.7818609E-02  0.8403558E-01
        2   -1    0    0  501    0  0.00000000000E+00  0.00000000000E+00  0.28300614408E+04  0.28300614408E+04  0.25500000920E-02 0. -1.
       -2   -1    0    0    0  501  0.00000000000E+00  0.00000000000E+00 -0.55139858728E+03  0.55139858728E+03  0.25500000920E-02 0.  1.
    10030    2    1    2    0    0  0.00000000000E+00  0.00000000000E+00  0.22786628536E+04  0.33814600281E+04  0.24983929878E+04 0.  0.
        5    1    3    3  502    0 -0.11360392701E+04  0.40081917340E+03  0.69201833968E+03  0.13892993578E+04  0.46999998093E+01 0.  1.
       -5    1    3    3    0  502  0.11360392701E+04 -0.40081917340E+03  0.15866445139E+04  0.19921606703E+04  0.46999998093E+01 0. -1.
</event>
<event>
 5   0  0.2072710E-05  0.2284582E+04  0.7818609E-02  0.8484025E-01
       -1   -1    0    0    0  501  0.00000000000E+00  0.00000000000E+00  0.62647614697E+03  0.62647614699E+03  0.50400001928E-02 0. -1.
        1   -1    0    0  501    0  0.00000000000E+00  0.00000000000E+00 -0.20828064389E+04  0.20828064389E+04  0.50400001928E-02 0.  1.
    10030    2    1    2    0    0  0.00000000000E+00  0.00000000000E+00 -0.14563302920E+04  0.27092825859E+04  0.22845818460E+04 0.  0.
        2    1    3    3  502    0 -0.89551219264E+03  0.68494473005E+03 -0.94598727001E+03  0.14717279930E+04  0.25500000920E-02 0. -1.
       -2    1    3    3    0  502  0.89551219264E+03 -0.68494473005E+03 -0.51034302195E+03  0.12375545929E+04  0.25500000920E-02 0.  1.
</event>
<event>
 5   0  0.5182179E-05  0.2653031E+04  0.7818609E-02  0.8350408E-01
        2   -1    0    0  501    0  0.00000000000E+00  0.00000000000E+00  0.19546041711E+04  0.19546041711E+04  0.25500000920E-02 0. -1.
       -2   -1    0    0    0  501  0.00000000000E+00  0.00000000000E+00 -0.90025535379E+03  0.90025535379E+03  0.25500000920E-02 0.  1.
    10030    2    1    2    0    0  0.00000000000E+00  0.00000000000E+00  0.10543488173E+04  0.28548595249E+04  0.26530306214E+04 0.  0.
        3    1    3    3  502    0  0.66388945902E+03  0.25757149307E+03  0.17314894636E+04  0.18722040649E+04  0.10100000352E+00 0. -1.
       -3    1    3    3    0  502 -0.66388945902E+03 -0.25757149307E+03 -0.67714064635E+03  0.98265545995E+03  0.10100000352E+00 0.  1.
</event>
<event>
 5   0  0.2072710E-05  0.2624115E+04  0.7818609E-02  0.8360056E-01
       -1   -1    0    0    0  501  0.00000000000E+00  0.00000000000E+00  0.15934516943E+04  0.15934516943E+04  0.50400001928E-02 0. -1.
        1   -1    0    0  501    0  0.00000000000E+00  0.00000000000E+00 -0.10803559047E+04  0.10803559047E+04  0.50400001928E-02 0.  1.
    10030    2    1    2    0    0  0.00000000000E+00  0.00000000000E+00  0.51309578960E+03  0.26738075990E+04  0.26241150484E+04 0.  0.
        2    1    3    3  502    0  0.34661148234E+03  0.62008955822E+03  0.13805439821E+04  0.15525953325E+04  0.25500000920E-02 0. -1.
       -2    1    3    3    0  502 -0.34661148234E+03 -0.62008955822E+03 -0.86744819251E+03  0.11212122665E+04  0.25500000920E-02 0.  1.
</event>
<event>
 5   0  0.5049803E-05  0.2569462E+04  0.7818609E-02  0.8378649E-01
       -2   -1    0    0    0  501  0.00000000000E+00  0.00000000000E+00  0.98530379407E+03  0.98530379408E+03  0.25500000920E-02 0. -1.
        2   -1    0    0  501    0  0.00000000000E+00  0.00000000000E+00 -0.16751526242E+04  0.16751526242E+04  0.25500000920E-02 0.  1.
    10030    2    1    2    0    0  0.00000000000E+00  0.00000000000E+00 -0.68984883017E+03  0.26604564183E+04  0.25694623845E+04 0.  0.
        4    1    3    3  502    0 -0.28705761265E+03 -0.61101034512E+03  0.78685275681E+03  0.10367615872E+04  0.12699999809E+01 0. -1.
       -4    1    3    3    0  502  0.28705761265E+03  0.61101034512E+03 -0.14767015870E+04  0.16236948312E+04  0.12699999809E+01 0.  1.
</event>
<event>
 5   0  0.2159405E-05  0.2507010E+04  0.7818609E-02  0.8400492E-01
       -1   -1    0    0    0  501  0.00000000000E+00  0.00000000000E+00  0.15135644964E+04  0.15135644964E+04  0.50400001928E-02 0. -1.
        1   -1    0    0  501    0  0.00000000000E+00  0.00000000000E+00 -0.10381286548E+04  0.10381286548E+04  0.50400001928E-02 0.  1.
    10030    2    1    2    0    0  0.00000000000E+00  0.00000000000E+00  0.47543584162E+03  0.25516931512E+04  0.25070099119E+04 0.  0.
        3    1    3    3  502    0 -0.19177156966E+03  0.57620902496E+03  0.13538397360E+04  0.14838043053E+04  0.10100000352E+00 0. -1.
       -3    1    3    3    0  502  0.19177156966E+03 -0.57620902496E+03 -0.87840389439E+03  0.10678888459E+04  0.10100000352E+00 0.  1.
</event>
<event>
 5   0  0.5182179E-05  0.2597386E+04  0.7818609E-02  0.8369089E-01
        2   -1    0    0  501    0  0.00000000000E+00  0.00000000000E+00  0.14496386449E+04  0.14496386449E+04  0.25500000920E-02 0. -1.
       -2   -1    0    0    0  501  0.00000000000E+00  0.00000000000E+00 -0.11634652144E+04  0.11634652144E+04  0.25500000920E-02 0.  1.
    10030    2    1    2    0    0  0.00000000000E+00  0.00000000000E+00  0.28617343059E+03  0.26131038593E+04  0.25973864840E+04 0.  0.
        3    1    3    3  502    0  0.12872476031E+03  0.12401019329E+04 -0.22268071946E+03  0.12664949984E+04  0.10100000352E+00 0.  1.
       -3    1    3    3    0  502 -0.12872476031E+03 -0.12401019329E+04  0.50885415004E+03  0.13466088609E+04  0.10100000352E+00 0. -1.
</event>
<event>
 5   0  0.1954502E-05  0.2524039E+04  0.7818609E-02  0.8394471E-01
        1   -1    0    0  501    0  0.00000000000E+00  0.00000000000E+00  0.12809811086E+04  0.12809811086E+04  0.50400001928E-02 0. -1.
       -1   -1    0    0    0  501  0.00000000000E+00  0.00000000000E+00 -0.12433389526E+04  0.12433389526E+04  0.50400001928E-02 0.  1.
    10030    2    1    2    0    0  0.00000000000E+00  0.00000000000E+00  0.37642155997E+02  0.25243200612E+04  0.25240393895E+04 0.  0.
        4    1    3    3  502    0  0.15969572532E+03  0.22384775845E+03 -0.12130145317E+04  0.12437911443E+04  0.12699999809E+01 0.  1.
       -4    1    3    3    0  502 -0.15969572532E+03 -0.22384775845E+03  0.12506566877E+04  0.12805289169E+04  0.12699999809E+01 0. -1.
</event>
<event>
 5   0  0.5170532E-05  0.2455836E+04  0.7818609E-02  0.8418890E-01
       -2   -1    0    0    0  501  0.00000000000E+00  0.00000000000E+00  0.10856766332E+04  0.10856766332E+04  0.25500000920E-02 0. -1.
        2   -1    0    0  501    0  0.00000000000E+00  0.00000000000E+00 -0.13887957778E+04  0.13887957778E+04  0.25500000920E-02 0.  1.
    10030    2    1    2    0    0  0.00000000000E+00  0.00000000000E+00 -0.30311914466E+03  0.24744724110E+04  0.24558364149E+04 0.  0.
        1    1    3    3  502    0  0.12557307382E+03 -0.57489108498E+03  0.93435472014E+03  0.11042133397E+04  0.50400001928E-02 0. -1.
       -1    1    3    3    0  502 -0.12557307382E+03  0.57489108498E+03 -0.12374738648E+04  0.13702590713E+04  0.50400001928E-02 0.  1.
</event>
<event>
 5   0  0.1993815E-05  0.2450724E+04  0.7818609E-02  0.8420754E-01
        1   -1    0    0  501    0  0.00000000000E+00  0.00000000000E+00  0.96397999196E+03  0.96397999197E+03  0.50400001928E-02 0. -1.
       -1   -1    0    0    0  501  0.00000000000E+00  0.00000000000E+00 -0.15576175803E+04  0.15576175803E+04  0.50400001928E-02 0.  1.
    10030    2    1    2    0    0  0.00000000000E+00  0.00000000000E+00 -0.59363758838E+03  0.25215975723E+04  0.24507241237E+04 0.  0.
        5    1    3    3  502    0  0.44362911945E+03 -0.10222360268E+04  0.22754340419E+03  0.11373527953E+04  0.46999998093E+01 0.  1.
       -5    1    3    3    0  502 -0.44362911945E+03  0.10222360268E+04 -0.82118099258E+03  0.13842447770E+04  0.46999998093E+01 0. -1.
</event>
<event>
 5   0  0.1954502E-05  0.2586679E+04  0.7818609E-02  0.8372740E-01
        1   -1    0    0  501    0  0.00000000000E+00  0.00000000000E+00  0.13322171107E+04  0.13322171107E+04  0.50400001928E-02 0.  1.
       -1   -1    0    0    0  501  0.00000000000E+00  0.00000000000E+00 -0.12555959958E+04  0.12555959958E+04  0.50400001928E-02 0. -1.
    10030    2    1    2    0    0  0.00000000000E+00  0.00000000000E+00  0.76621114908E+02  0.25878131065E+04  0.25866785419E+04 0.  0.
        4    1    3    3  502    0  0.25044613640E+03  0.35378224485E+03 -0.11807639088E+04  0.12578116573E+04  0.12699999809E+01 0. -1.
       -4    1    3    3    0  502 -0.25044613640E+03 -0.35378224485E+03  0.12573850237E+04  0.13300014492E+04  0.12699999809E+01 0.  1.
</event>
<event>
 5   0  0.5182179E-05  0.2521954E+04  0.7818609E-02  0.8395206E-01
       -2   -1    0    0    0  501  0.00000000000E+00  0.00000000000E+00  0.60071571254E+03  0.60071571255E+03  0.25500000920E-02 0.  1.
        2   -1    0    0  501    0  0.00000000000E+00  0.00000000000E+00 -0.26469484606E+04  0.26469484606E+04  0.25500000920E-02 0. -1.
    10030    2    1    2    0    0  0.00000000000E+00  0.00000000000E+00 -0.20462327480E+04  0.32476641731E+04  0.25219544251E+04 0.  0.
        3    1    3    3  502    0 -0.28276831696E+03  0.95103584537E+03 -0.20252828531E+04  0.22552600173E+04  0.10100000352E+00 0. -1.
       -3    1    3    3    0  502  0.28276831696E+03 -0.95103584537E+03 -0.20949894935E+02  0.99240415585E+03  0.10100000352E+00 0.  1.
</event>
<event>
 5   0  0.1993815E-05  0.2653376E+04  0.7818609E-02  0.8350293E-01
        1   -1    0    0  501    0  0.00000000000E+00  0.00000000000E+00  0.92315391795E+03  0.92315391796E+03  0.50400001928E-02 0.  1.
       -1   -1    0    0    0  501  0.00000000000E+00  0.00000000000E+00 -0.19066167935E+04  0.19066167935E+04  0.50400001928E-02 0. -1.
    10030    2    1    2    0    0  0.00000000000E+00  0.00000000000E+00 -0.98346287551E+03  0.28297707114E+04  0.26533757841E+04 0.  0.
        5    1    3    3  502    0 -0.70937581299E+03 -0.34573878076E+03 -0.16290852940E+04  0.18101630683E+04  0.46999998093E+01 0. -1.
       -5    1    3    3    0  502  0.70937581299E+03  0.34573878076E+03  0.64562241854E+03  0.10196076431E+04  0.46999998093E+01 0.  1.
</event>
<event>
 5   0  0.2159405E-05  0.2634454E+04  0.7818609E-02  0.8356591E-01
       -1   -1    0    0    0  501  0.00000000000E+00  0.00000000000E+00  0.19750810587E+04  0.19750810587E+04  0.50400001928E-02 0. -1.
        1   -1    0    0  501    0  0.00000000000E+00  0.00000000000E+00 -0.87848901463E+03  0.87848901465E+03  0.50400001928E-02 0.  1.
    10030    2    1    2    0    0  0.00000000000E+00  0.00000000000E+00  0.10965920441E+04  0.28535700734E+04  0.26344540331E+04 0.  0.
        3    1    3    3  502    0 -0.33808844638E+03  0.24888293216E+02  0.19270201494E+04  0.19566118397E+04  0.10100000352E+00 0. -1.
       -3    1    3    3    0  502  0.33808844638E+03 -0.24888293216E+02 -0.83042810532E+03  0.89695823371E+03  0.10100000352E+00 0.  1.
</event>
<event>
 5   0  0.2072710E-05  0.2588678E+04  0.7818609E-02  0.8372057E-01
        1   -1    0    0  501    0  0.00000000000E+00  0.00000000000E+00  0.10984969035E+04  0.10984969035E+04  0.50400001928E-02 0. -1.
       -1   -1    0    0    0  501  0.00000000000E+00  0.00000000000E+00 -0.15250956842E+04  0.15250956842E+04  0.50400001928E-02 0.  1.
    10030    2    1    2    0    0  0.00000000000E+00  0.00000000000E+00 -0.42659878074E+03  0.26235925877E+04  0.25886775671E+04 0.  0.
        2    1    3    3  502    0  0.26243984259E+03  0.10823887353E+04 -0.88164265851E+03  0.14204695782E+04  0.25500000920E-02 0.  1.
       -2    1    3    3    0  502 -0.26243984259E+03 -0.10823887353E+04  0.45504387777E+03  0.12031230095E+04  0.25500000920E-02 0. -1.
</event>
<event>
 5   0  0.5036452E-05  0.2557206E+04  0.7818609E-02  0.8382884E-01
        2   -1    0    0  501    0  0.00000000000E+00  0.00000000000E+00  0.18034989303E+04  0.18034989303E+04  0.25500000920E-02 0.  1.
       -2   -1    0    0    0  501  0.00000000000E+00  0.00000000000E+00 -0.90647460695E+03  0.90647460696E+03  0.25500000920E-02 0. -1.
    10030    2    1    2    0    0  0.00000000000E+00  0.00000000000E+00  0.89702432336E+03  0.27099735373E+04  0.25572062756E+04 0.  0.
        2    1    3    3  502    0  0.54845912856E+03  0.76086245454E+03  0.13693931479E+04  0.16598062188E+04  0.25500000920E-02 0.  1.
       -2    1    3    3    0  502 -0.54845912856E+03 -0.76086245454E+03 -0.47236882452E+03  0.10501673185E+04  0.25500000920E-02 0. -1.
</event>
<event>
 5   0  0.1954502E-05  0.2480800E+04  0.7818609E-02  0.8409858E-01
        1   -1    0    0  501    0  0.00000000000E+00  0.00000000000E+00  0.98849527039E+03  0.98849527040E+03  0.50400001928E-02 0. -1.
       -1   -1    0    0    0  501  0.00000000000E+00  0.00000000000E+00 -0.15564989523E+04  0.15564989523E+04  0.50400001928E-02 0.  1.
    10030    2    1    2    0    0  0.00000000000E+00  0.00000000000E+00 -0.56800368190E+03  0.25449942227E+04  0.24807997523E+04 0.  0.
        4    1    3    3  502    0 -0.73256006189E+03 -0.96990369467E+02  0.73804041384E+03  0.10443929535E+04  0.12699999809E+01 0. -1.
       -4    1    3    3    0  502  0.73256006189E+03  0.96990369467E+02 -0.13060440957E+04  0.15006012691E+04  0.12699999809E+01 0.  1.
</event>
<event>
 5   0  0.2072710E-05  0.2580970E+04  0.7818609E-02  0.8374694E-01
       -1   -1    0    0    0  501  0.00000000000E+00  0.00000000000E+00  0.87198587954E+03  0.87198587956E+03  0.50400001928E-02 0. -1.
        1   -1    0    0  501    0  0.00000000000E+00  0.00000000000E+00 -0.19098380725E+04  0.19098380725E+04  0.50400001928E-02 0.  1.
    10030    2    1    2    0    0  0.00000000000E+00  0.00000000000E+00 -0.10378521930E+04  0.27818239521E+04  0.25809702296E+04 0.  0.
        2    1    3    3  502    0 -0.83895351569E+03  0.53504943301E+03  0.36674569395E+03  0.10604825794E+04  0.25500000920E-02 0. -1.
       -2    1    3    3    0  502  0.83895351569E+03 -0.53504943301E+03 -0.14045978869E+04  0.17213413727E+04  0.25500000920E-02 0.  1.
</event>
<event>
 5   0  0.2159405E-05  0.1359436E+04  0.7818609E-02  0.8983716E-01
        1   -1    0    0  501    0  0.00000000000E+00  0.00000000000E+00  0.20568510392E+04  0.20568510392E+04  0.50400001928E-02 0.  1.
       -1   -1    0    0    0  501  0.00000000000E+00  0.00000000000E+00 -0.22462328059E+03  0.22462328065E+03  0.50400001928E-02 0. -1.
    10030    2    1    2    0    0  0.00000000000E+00  0.00000000000E+00  0.18322277586E+04  0.22814743198E+04  0.13594361010E+04 0.  0.
        3    1    3    3  502    0 -0.87075623980E+01 -0.57278214590E+03  0.30209110009E+03  0.64762199721E+03  0.10100000352E+00 0. -1.
       -3    1    3    3    0  502  0.87075623980E+01  0.57278214590E+03  0.15301366585E+04  0.16338523226E+04  0.10100000352E+00 0.  1.
</event>
<event>
 5   0  0.5170532E-05  0.2697793E+04  0.7818609E-02  0.8335721E-01
       -2   -1    0    0    0  501  0.00000000000E+00  0.00000000000E+00  0.13262745033E+04  0.13262745033E+04  0.25500000920E-02 0. -1.
        2   -1    0    0  501    0  0.00000000000E+00  0.00000000000E+00 -0.13719044059E+04  0.13719044059E+04  0.25500000920E-02 0.  1.
    10030    2    1    2    0    0  0.00000000000E+00  0.00000000000E+00 -0.45629902569E+02  0.26981789092E+04  0.26977930495E+04 0.  0.
        1    1    3    3  502    0  0.85972309826E+03 -0.74579928797E+03  0.70129236586E+03  0.13368438077E+04  0.50400001928E-02 0. -1.
       -1    1    3    3    0  502 -0.85972309826E+03  0.74579928797E+03 -0.74692226843E+03  0.13613351016E+04  0.50400001928E-02 0.  1.
</event>
<event>
 5   0  0.5049803E-05  0.2576758E+04  0.7818609E-02  0.8376139E-01
        2   -1    0    0  501    0  0.00000000000E+00  0.00000000000E+00  0.24429973116E+04  0.24429973116E+04  0.25500000920E-02 0. -1.
       -2   -1    0    0    0  501  0.00000000000E+00  0.00000000000E+00 -0.67946077179E+03  0.67946077179E+03  0.25500000920E-02 0.  1.
    10030    2    1    2    0    0  0.00000000000E+00  0.00000000000E+00  0.17635365398E+04  0.31224580834E+04  0.25767583036E+04 0.  0.
        4    1    3    3  502    0  0.64952669847E+03  0.51423346781E+03  0.20774423691E+04  0.22365351330E+04  0.12699999809E+01 0. -1.
       -4    1    3    3    0  502 -0.64952669847E+03 -0.51423346781E+03 -0.31390582928E+03  0.88592295037E+03  0.12699999809E+01 0.  1.
</event>
<event>
 5   0  0.2163800E-05  0.2623618E+04  0.7818609E-02  0.8360223E-01
       -1   -1    0    0    0  501  0.00000000000E+00  0.00000000000E+00  0.10841936889E+04  0.10841936889E+04  0.50400001928E-02 0. -1.
        1   -1    0    0  501    0  0.00000000000E+00  0.00000000000E+00 -0.15872094737E+04  0.15872094737E+04  0.50400001928E-02 0.  1.
    10030    2    1    2    0    0  0.00000000000E+00  0.00000000000E+00 -0.50301578478E+03  0.26714031625E+04  0.26236177269E+04 0.  0.
        1    1    3    3  502    0 -0.16538532971E+03 -0.35650685101E+03 -0.15258594474E+04  0.15756574803E+04  0.50400001928E-02 0.  1.
       -1    1    3    3    0  502  0.16538532971E+03  0.35650685101E+03  0.10228436626E+04  0.10957456823E+04  0.50400001928E-02 0. -1.
</event>
<event>
 5   0  0.5170532E-05  0.2605017E+04  0.7818609E-02  0.8366499E-01
        2   -1    0    0  501    0  0.00000000000E+00  0.00000000000E+00  0.14612527373E+04  0.14612527373E+04  0.25500000920E-02 0. -1.
       -2   -1    0    0    0  501  0.00000000000E+00  0.00000000000E+00 -0.11610097671E+04  0.11610097671E+04  0.25500000920E-02 0.  1.
    10030    2    1    2    0    0  0.00000000000E+00  0.00000000000E+00  0.30024297025E+03  0.26222625044E+04  0.26050172362E+04 0.  0.
        1    1    3    3  502    0 -0.63899338630E+03 -0.38281410608E+03  0.12256842670E+04  0.14342806942E+04  0.50400001928E-02 0. -1.
       -1    1    3    3    0  502  0.63899338630E+03  0.38281410608E+03 -0.92544129672E+03  0.11879818102E+04  0.50400001928E-02 0.  1.
</event>
<event>
 5   0  0.5049803E-05  0.1355633E+04  0.7818609E-02  0.8986575E-01
       -2   -1    0    0    0  501  0.00000000000E+00  0.00000000000E+00  0.11570292228E+04  0.11570292228E+04  0.25500000920E-02 0.  1.
        2   -1    0    0  501    0  0.00000000000E+00  0.00000000000E+00 -0.39708180782E+03  0.39708180783E+03  0.25500000920E-02 0. -1.
    10030    2    1    2    0    0  0.00000000000E+00  0.00000000000E+00  0.75994741494E+03  0.15541110306E+04  0.13556330705E+04 0.  0.
        4    1    3    3  502    0  0.31269568638E+03  0.48234874823E+03  0.79171638185E+03  0.97839427093E+03  0.12699999809E+01 0.  1.
       -4    1    3    3    0  502 -0.31269568638E+03 -0.48234874823E+03 -0.31768966916E+02  0.57571675966E+03  0.12699999809E+01 0. -1.
</event>
<event>
 5   0  0.4955675E-05  0.2430880E+04  0.7818609E-02  0.8428032E-01
       -2   -1    0    0    0  501  0.00000000000E+00  0.00000000000E+00  0.62042209205E+03  0.62042209206E+03  0.25500000920E-02 0.  1.
        2   -1    0    0  501    0  0.00000000000E+00  0.00000000000E+00 -0.23811125049E+04  0.23811125049E+04  0.25500000920E-02 0. -1.
    10030    2    1    2    0    0  0.00000000000E+00  0.00000000000E+00 -0.17606904128E+04  0.30015345969E+04  0.24308803358E+04 0.  0.
        5    1    3    3  502    0 -0.68127484205E+03  0.69007189637E+03  0.24432467489E+02  0.97002766355E+03  0.46999998093E+01 0.  1.
       -5    1    3    3    0  502  0.68127484205E+03 -0.69007189637E+03 -0.17851228803E+04  0.20315069334E+04  0.46999998093E+01 0. -1.
</event>
<event>
 5   0  0.5170532E-05  0.2716311E+04  0.7818609E-02  0.8329732E-01
        2   -1    0    0  501    0  0.00000000000E+00  0.00000000000E+00  0.15585947435E+04  0.15585947435E+04  0.25500000920E-02 0.  1.
       -2   -1    0    0    0  501  0.00000000000E+00  0.00000000000E+00 -0.11834930629E+04  0.11834930629E+04  0.25500000920E-02 0. -1.
    10030    2    1    2    0    0  0.00000000000E+00  0.00000000000E+00  0.37510168060E+03  0.27420878063E+04  0.27163107824E+04 0.  0.
        1    1    3    3  502    0  0.75741856229E+03 -0.10700146959E+04  0.54584395449E+03  0.14200563195E+04  0.50400001928E-02 0.  1.
       -1    1    3    3    0  502 -0.75741856229E+03  0.10700146959E+04 -0.17074227390E+03  0.13220314868E+04  0.50400001928E-02 0. -1.
</event>
<event>
 5   0  0.4955675E-05  0.2817694E+04  0.7818609E-02  0.8297796E-01
        2   -1    0    0  501    0  0.00000000000E+00  0.00000000000E+00  0.15776806672E+04  0.15776806672E+04  0.25500000920E-02 0.  1.
       -2   -1    0    0    0  501  0.00000000000E+00  0.00000000000E+00 -0.12580809278E+04  0.12580809278E+04  0.25500000920E-02 0. -1.
    10030    2    1    2    0    0  0.00000000000E+00  0.00000000000E+00  0.31959973940E+03  0.28357615949E+04  0.28176940625E+04 0.  0.
        5    1    3    3  502    0 -0.36986597068E+03  0.13219019261E+04  0.47901237515E+03  0.14538571058E+04  0.46999998093E+01 0.  1.
       -5    1    3    3    0  502  0.36986597068E+03 -0.13219019261E+04 -0.15941263575E+03  0.13819044891E+04  0.46999998093E+01 0. -1.
</event>
<event>
 5   0  0.5170532E-05  0.2583690E+04  0.7818609E-02  0.8373762E-01
        2   -1    0    0  501    0  0.00000000000E+00  0.00000000000E+00  0.14742710762E+04  0.14742710762E+04  0.25500000920E-02 0.  1.
       -2   -1    0    0    0  501  0.00000000000E+00  0.00000000000E+00 -0.11319925689E+04  0.11319925689E+04  0.25500000920E-02 0. -1.
    10030    2    1    2    0    0  0.00000000000E+00  0.00000000000E+00  0.34227850728E+03  0.26062636451E+04  0.25836903087E+04 0.  0.
        1    1    3    3  502    0 -0.39990351250E+02 -0.77301925739E+03 -0.87216285690E+03  0.11661157959E+04  0.50400001928E-02 0. -1.
       -1    1    3    3    0  502  0.39990351250E+02  0.77301925739E+03  0.12144413642E+04  0.14401478492E+04  0.50400001928E-02 0.  1.
</event>
<event>
 5   0  0.1954502E-05  0.2556068E+04  0.7818609E-02  0.8383279E-01
        1   -1    0    0  501    0  0.00000000000E+00  0.00000000000E+00  0.16403047186E+04  0.16403047186E+04  0.50400001928E-02 0. -1.
       -1   -1    0    0    0  501  0.00000000000E+00  0.00000000000E+00 -0.99577298514E+03  0.99577298516E+03  0.50400001928E-02 0.  1.
    10030    2    1    2    0    0  0.00000000000E+00  0.00000000000E+00  0.64453173347E+03  0.26360777038E+04  0.25560681730E+04 0.  0.
        4    1    3    3  502    0 -0.12872607996E+03 -0.12709145194E+04  0.28133222451E+03  0.13080304097E+04  0.12699999809E+01 0. -1.
       -4    1    3    3    0  502  0.12872607996E+03  0.12709145194E+04  0.36319950897E+03  0.13280472941E+04  0.12699999809E+01 0.  1.
</event>
<event>
 5   0  0.2159405E-05  0.2462219E+04  0.7818609E-02  0.8416570E-01
        1   -1    0    0  501    0  0.00000000000E+00  0.00000000000E+00  0.21103507507E+04  0.21103507507E+04  0.50400001928E-02 0. -1.
       -1   -1    0    0    0  501  0.00000000000E+00  0.00000000000E+00 -0.71818914038E+03  0.71818914040E+03  0.50400001928E-02 0.  1.
    10030    2    1    2    0    0  0.00000000000E+00  0.00000000000E+00  0.13921616104E+04  0.28285398911E+04  0.24622193173E+04 0.  0.
        3    1    3    3  502    0 -0.12962783296E+03 -0.11502881266E+04  0.11775605107E+04  0.16512464734E+04  0.10100000352E+00 0. -1.
       -3    1    3    3    0  502  0.12962783296E+03  0.11502881266E+04  0.21460109964E+03  0.11772934177E+04  0.10100000352E+00 0.  1.
</event>
<event>
 5   0  0.5170532E-05  0.1831646E+04  0.7818609E-02  0.8689649E-01
       -2   -1    0    0    0  501  0.00000000000E+00  0.00000000000E+00  0.17879737276E+04  0.17879737276E+04  0.25500000920E-02 0. -1.
        2   -1    0    0  501    0  0.00000000000E+00  0.00000000000E+00 -0.46909608916E+03  0.46909608917E+03  0.25500000920E-02 0.  1.
    10030    2    1    2    0    0  0.00000000000E+00  0.00000000000E+00  0.13188776384E+04  0.22570698167E+04  0.18316456897E+04 0.  0.
        1    1    3    3  502    0 -0.74808827952E+03  0.27615777972E+03  0.10446554214E+03  0.80424638188E+03  0.50400001928E-02 0.  1.
       -1    1    3    3    0  502  0.74808827952E+03 -0.27615777972E+03  0.12144120963E+04  0.14528234349E+04  0.50400001928E-02 0. -1.
</event>
<event>
 5   0  0.2072710E-05  0.2753319E+04  0.7818609E-02  0.8317909E-01
        1   -1    0    0  501    0  0.00000000000E+00  0.00000000000E+00  0.16309931976E+04  0.16309931976E+04  0.50400001928E-02 0.  1.
       -1   -1    0    0    0  501  0.00000000000E+00  0.00000000000E+00 -0.11619857589E+04  0.11619857589E+04  0.50400001928E-02 0. -1.
    10030    2    1    2    0    0  0.00000000000E+00  0.00000000000E+00  0.46900743876E+03  0.27929789565E+04  0.27533186292E+04 0.  0.
        2    1    3    3  502    0 -0.49155205424E+02  0.72901170260E+03  0.14180650188E+04  0.15952375040E+04  0.25500000920E-02 0.  1.
       -2    1    3    3    0  502  0.49155205424E+02 -0.72901170260E+03 -0.94905758002E+03  0.11977414525E+04  0.25500000920E-02 0. -1.
</event>
<event>
 5   0  0.5036452E-05  0.2470712E+04  0.7818609E-02  0.8413494E-01
        2   -1    0    0  501    0  0.00000000000E+00  0.00000000000E+00  0.12647027421E+04  0.12647027421E+04  0.25500000920E-02 0. -1.
       -2   -1    0    0    0  501  0.00000000000E+00  0.00000000000E+00 -0.12066903870E+04  0.12066903870E+04  0.25500000920E-02 0.  1.
    10030    2    1    2    0    0  0.00000000000E+00  0.00000000000E+00  0.58012355083E+02  0.24713931291E+04  0.24707121575E+04 0.  0.
        2    1    3    3  502    0 -0.29051026194E+03  0.11554469147E+04  0.35567061413E+03  0.12433645365E+04  0.25500000920E-02 0. -1.
       -2    1    3    3    0  502  0.29051026194E+03 -0.11554469147E+04 -0.29765825905E+03  0.12280285926E+04  0.25500000920E-02 0.  1.
</event>
<event>
 5   0  0.1954502E-05  0.2564749E+04  0.7818609E-02  0.8380275E-01
        1   -1    0    0  501    0  0.00000000000E+00  0.00000000000E+00  0.59515636015E+03  0.59515636017E+03  0.50400001928E-02 0. -1.
       -1   -1    0    0    0  501  0.00000000000E+00  0.00000000000E+00 -0.27631138666E+04  0.27631138666E+04  0.50400001928E-02 0.  1.
    10030    2    1    2    0    0  0.00000000000E+00  0.00000000000E+00 -0.21679575064E+04  0.33582702268E+04  0.25647493379E+04 0.  0.
        4    1    3    3  502    0 -0.19786926071E+03  0.83207871352E+03 -0.23351028283E+04  0.24868080065E+04  0.12699999809E+01 0.  1.
       -4    1    3    3    0  502  0.19786926071E+03 -0.83207871352E+03  0.16714532182E+03  0.87146222026E+03  0.12699999809E+01 0. -1.
</event>
<event>
 5   0  0.4955675E-05  0.2557206E+04  0.7818609E-02  0.8382884E-01
       -2   -1    0    0    0  501  0.00000000000E+00  0.00000000000E+00  0.85721717150E+03  0.85721717150E+03  0.25500000920E-02 0. -1.
        2   -1    0    0  501    0  0.00000000000E+00  0.00000000000E+00 -0.19071317459E+04  0.19071317459E+04  0.25500000920E-02 0.  1.
    10030    2    1    2    0    0  0.00000000000E+00  0.00000000000E+00 -0.10499145744E+04  0.27643489174E+04  0.25572063514E+04 0.  0.
        5    1    3    3  502    0 -0.49064038094E+03  0.28785966227E+03 -0.17627949096E+04  0.18523118398E+04  0.46999998093E+01 0.  1.
       -5    1    3    3    0  502  0.49064038094E+03 -0.28785966227E+03  0.71288033521E+03  0.91203707759E+03  0.46999998093E+01 0. -1.
</event>
<event>
 5   0  0.2163800E-05  0.2569337E+04  0.7818609E-02  0.8378692E-01
       -1   -1    0    0    0  501  0.00000000000E+00  0.00000000000E+00  0.14906357544E+04  0.14906357544E+04  0.50400001928E-02 0. -1.
        1   -1    0    0  501    0  0.00000000000E+00  0.00000000000E+00 -0.11071603537E+04  0.11071603537E+04  0.50400001928E-02 0.  1.
    10030    2    1    2    0    0  0.00000000000E+00  0.00000000000E+00  0.38347540073E+03  0.25977961081E+04  0.25693367308E+04 0.  0.
        1    1    3    3  502    0 -0.42725741879E+03  0.25034207159E+03 -0.10067837352E+04  0.11219775150E+04  0.50400001928E-02 0.  1.
       -1    1    3    3    0  502  0.42725741879E+03 -0.25034207159E+03  0.13902591359E+04  0.14758185931E+04  0.50400001928E-02 0. -1.
</event>
<event>
 5   0  0.5170532E-05  0.2633330E+04  0.7818609E-02  0.8356967E-01
        2   -1    0    0  501    0  0.00000000000E+00  0.00000000000E+00  0.22280722540E+04  0.22280722540E+04  0.25500000920E-02 0. -1.
       -2   -1    0    0    0  501  0.00000000000E+00  0.00000000000E+00 -0.77807449148E+03  0.77807449149E+03  0.25500000920E-02 0.  1.
    10030    2    1    2    0    0  0.00000000000E+00  0.00000000000E+00  0.14499977625E+04  0.30061467455E+04  0.26333295927E+04 0.  0.
        1    1    3    3  502    0 -0.85963917138E+03  0.90725185178E+03  0.25221430343E+03  0.12750284242E+04  0.50400001928E-02 0.  1.
       -1    1    3    3    0  502  0.85963917138E+03 -0.90725185178E+03  0.11977834591E+04  0.17311183213E+04  0.50400001928E-02 0. -1.
</event>
<event>
 5   0  0.2072710E-05  0.2606665E+04  0.7818609E-02  0.8365941E-01
        1   -1    0    0  501    0  0.00000000000E+00  0.00000000000E+00  0.11377714430E+04  0.11377714430E+04  0.50400001928E-02 0. -1.
       -1   -1    0    0    0  501  0.00000000000E+00  0.00000000000E+00 -0.14929847526E+04  0.14929847526E+04  0.50400001928E-02 0.  1.
    10030    2    1    2    0    0  0.00000000000E+00  0.00000000000E+00 -0.35521330969E+03  0.26307561956E+04  0.26066648548E+04 0.  0.
        2    1    3    3  502    0 -0.42678884534E+03  0.35726660783E+03 -0.13670093106E+04  0.14759751363E+04  0.25500000920E-02 0.  1.
       -2    1    3    3    0  502  0.42678884534E+03 -0.35726660783E+03  0.10117960009E+04  0.11547810594E+04  0.25500000920E-02 0. -1.
</event>
<event>
 5   0  0.2072710E-05  0.2565750E+04  0.7818609E-02  0.8379929E-01
        1   -1    0    0  501    0  0.00000000000E+00  0.00000000000E+00  0.69484453111E+03  0.69484453113E+03  0.50400001928E-02 0.  1.
       -1   -1    0    0    0  501  0.00000000000E+00  0.00000000000E+00 -0.23685412196E+04  0.23685412197E+04  0.50400001928E-02 0. -1.
    10030    2    1    2    0    0  0.00000000000E+00  0.00000000000E+00 -0.16736966885E+04  0.30633857508E+04  0.25657497253E+04 0.  0.
        2    1    3    3  502    0  0.63991618852E+03  0.57012396280E+03  0.30288254673E+03  0.90899499361E+03  0.25500000920E-02 0.  1.
       -2    1    3    3    0  502 -0.63991618852E+03 -0.57012396280E+03 -0.19765792353E+04  0.21543907572E+04  0.25500000920E-02 0. -1.
</event>
<event>
 5   0  0.1993815E-05  0.2624923E+04  0.7818609E-02  0.8359784E-01
       -1   -1    0    0    0  501  0.00000000000E+00  0.00000000000E+00  0.16575340144E+04  0.16575340144E+04  0.50400001928E-02 0.  1.
        1   -1    0    0  501    0  0.00000000000E+00  0.00000000000E+00 -0.10392276932E+04  0.10392276932E+04  0.50400001928E-02 0. -1.
    10030    2    1    2    0    0  0.00000000000E+00  0.00000000000E+00  0.61830632123E+03  0.26967617076E+04  0.26249230466E+04 0.  0.
        5    1    3    3  502    0 -0.12766659640E+04 -0.21894598519E+03  0.91895009594E+02  0.12985684852E+04  0.46999998093E+01 0. -1.
       -5    1    3    3    0  502  0.12766659640E+04  0.21894598519E+03  0.52641131163E+03  0.13981932224E+04  0.46999998093E+01 0.  1.
</event>
<event>
 5   0  0.1993815E-05  0.2731557E+04  0.7818609E-02  0.8324838E-01
       -1   -1    0    0    0  501  0.00000000000E+00  0.00000000000E+00  0.93521118471E+03  0.93521118473E+03  0.50400001928E-02 0. -1.
        1   -1    0    0  501    0  0.00000000000E+00  0.00000000000E+00 -0.19945766121E+04  0.19945766121E+04  0.50400001928E-02 0.  1.
    10030    2    1    2    0    0  0.00000000000E+00  0.00000000000E+00 -0.10593654274E+04  0.29297877969E+04  0.27315565939E+04 0.  0.
        5    1    3    3  502    0 -0.53186834414E+03  0.96421987806E+03 -0.13962272187E+04  0.17782228333E+04  0.46999998093E+01 0.  1.
       -5    1    3    3    0  502  0.53186834414E+03 -0.96421987806E+03  0.33686179130E+03  0.11515649635E+04  0.46999998093E+01 0. -1.
</event>
<event>
 5   0  0.1954502E-05  0.2658023E+04  0.7818609E-02  0.8348755E-01
       -1   -1    0    0    0  501  0.00000000000E+00  0.00000000000E+00  0.67379590771E+03  0.67379590773E+03  0.50400001928E-02 0.  1.
        1   -1    0    0  501    0  0.00000000000E+00  0.00000000000E+00 -0.26213742017E+04  0.26213742017E+04  0.50400001928E-02 0. -1.
    10030    2    1    2    0    0  0.00000000000E+00  0.00000000000E+00 -0.19475782939E+04  0.32951701094E+04  0.26580227310E+04 0.  0.
        4    1    3    3  502    0 -0.31406008216E+03  0.79533784364E+03  0.28747125126E+03  0.90212934435E+03  0.12699999809E+01 0.  1.
       -4    1    3    3    0  502  0.31406008216E+03 -0.79533784364E+03 -0.22350495452E+04  0.23930407650E+04  0.12699999809E+01 0. -1.
</event>
<event>
 5   0  0.5049803E-05  0.2557597E+04  0.7818609E-02  0.8382749E-01
        2   -1    0    0  501    0  0.00000000000E+00  0.00000000000E+00  0.18593389687E+04  0.18593389687E+04  0.25500000920E-02 0. -1.
       -2   -1    0    0    0  501  0.00000000000E+00  0.00000000000E+00 -0.87951991190E+03  0.87951991190E+03  0.25500000920E-02 0.  1.
    10030    2    1    2    0    0  0.00000000000E+00  0.00000000000E+00  0.97981905685E+03  0.27388588807E+04  0.25575970331E+04 0.  0.
        4    1    3    3  502    0  0.12337190989E+04 -0.32411361159E+03  0.58694958199E+03  0.14041452464E+04  0.12699999809E+01 0.  1.
       -4    1    3    3    0  502 -0.12337190989E+04  0.32411361159E+03  0.39286947485E+03  0.13347136343E+04  0.12699999809E+01 0. -1.
</event>
<event>
 5   0  0.5170532E-05  0.2483246E+04  0.7818609E-02  0.8408979E-01
        2   -1    0    0  501    0  0.00000000000E+00  0.00000000000E+00  0.14297096695E+04  0.14297096695E+04  0.25500000920E-02 0.  1.
       -2   -1    0    0    0  501  0.00000000000E+00  0.00000000000E+00 -0.10782800146E+04  0.10782800146E+04  0.25500000920E-02 0. -1.
    10030    2    1    2    0    0  0.00000000000E+00  0.00000000000E+00  0.35142965495E+03  0.25079896841E+04  0.24832457496E+04 0.  0.
        1    1    3    3  502    0  0.17699000141E+03  0.37996064415E+03 -0.10046616731E+04  0.10885957142E+04  0.50400001928E-02 0. -1.
       -1    1    3    3    0  502 -0.17699000141E+03 -0.37996064415E+03  0.13560913280E+04  0.14193939699E+04  0.50400001928E-02 0.  1.
</event>
<event>
 5   0  0.4955675E-05  0.2609298E+04  0.7818609E-02  0.8365050E-01
        2   -1    0    0  501    0  0.00000000000E+00  0.00000000000E+00  0.23290330182E+04  0.23290330182E+04  0.25500000920E-02 0. -1.
       -2   -1    0    0    0  501  0.00000000000E+00  0.00000000000E+00 -0.73082225165E+03  0.73082225166E+03  0.25500000920E-02 0.  1.
    10030    2    1    2    0    0  0.00000000000E+00  0.00000000000E+00  0.15982107665E+04  0.30598552698E+04  0.26092981083E+04 0.  0.
        5    1    3    3  502    0  0.24718376189E+03  0.98840262480E+03 -0.15649597808E+03  0.10308019412E+04  0.46999998093E+01 0.  1.
       -5    1    3    3    0  502 -0.24718376189E+03 -0.98840262480E+03  0.17547067446E+04  0.20290533286E+04  0.46999998093E+01 0. -1.
</event>
<event>
 5   0  0.5036452E-05  0.2419210E+04  0.7818609E-02  0.8432347E-01
       -2   -1    0    0    0  501  0.00000000000E+00  0.00000000000E+00  0.80491947444E+03  0.80491947445E+03  0.25500000920E-02 0.  1.
        2   -1    0    0  501    0  0.00000000000E+00  0.00000000000E+00 -0.18177518080E+04  0.18177518080E+04  0.25500000920E-02 0. -1.
    10030    2    1    2    0    0  0.00000000000E+00  0.00000000000E+00 -0.10128323336E+04  0.26226712824E+04  0.24192096478E+04 0.  0.
        2    1    3    3  502    0  0.26216822274E+03 -0.71640440886E+03 -0.15240739951E+04  0.17043382870E+04  0.25500000920E-02 0. -1.
       -2    1    3    3    0  502 -0.26216822274E+03  0.71640440886E+03  0.51124166152E+03  0.91833299545E+03  0.25500000920E-02 0.  1.
</event>
<event>
 5   0  0.2072710E-05  0.1286897E+04  0.7818609E-02  0.9040021E-01
        1   -1    0    0  501    0  0.00000000000E+00  0.00000000000E+00  0.82379411425E+03  0.82379411427E+03  0.50400001928E-02 0.  1.
       -1   -1    0    0    0  501  0.00000000000E+00  0.00000000000E+00 -0.50258423205E+03  0.50258423208E+03  0.50400001928E-02 0. -1.
    10030    2    1    2    0    0  0.00000000000E+00  0.00000000000E+00  0.32120988220E+03  0.13263783463E+04  0.12868969381E+04 0.  0.
        2    1    3    3  502    0 -0.28542526960E+03 -0.48964849552E+03 -0.15337648544E+03  0.58715209272E+03  0.25500000920E-02 0.  1.
       -2    1    3    3    0  502  0.28542526960E+03  0.48964849552E+03  0.47458636764E+03  0.73922625362E+03  0.25500000920E-02 0. -1.
</event>
<event>
 5   0  0.2163800E-05  0.2392290E+04  0.7818609E-02  0.8442396E-01
       -1   -1    0    0    0  501  0.00000000000E+00  0.00000000000E+00  0.10276869587E+04  0.10276869587E+04  0.50400001928E-02 0.  1.
        1   -1    0    0  501    0  0.00000000000E+00  0.00000000000E+00 -0.13922165783E+04  0.13922165783E+04  0.50400001928E-02 0. -1.
    10030    2    1    2    0    0  0.00000000000E+00  0.00000000000E+00 -0.36452961952E+03  0.24199035370E+04  0.23922899667E+04 0.  0.
        1    1    3    3  502    0  0.90810831652E+03 -0.75064314942E+03  0.26605829986E+02  0.11784878966E+04  0.50400001928E-02 0. -1.
       -1    1    3    3    0  502 -0.90810831652E+03  0.75064314942E+03 -0.39113544951E+03  0.12414156404E+04  0.50400001928E-02 0.  1.
</event>
<event>
 5   0  0.4955675E-05  0.2576035E+04  0.7818609E-02  0.8376387E-01
        2   -1    0    0  501    0  0.00000000000E+00  0.00000000000E+00  0.21125898279E+04  0.21125898279E+04  0.25500000920E-02 0. -1.
       -2   -1    0    0    0  501  0.00000000000E+00  0.00000000000E+00 -0.78528710789E+03  0.78528710790E+03  0.25500000920E-02 0.  1.
    10030    2    1    2    0    0  0.00000000000E+00  0.00000000000E+00  0.13273027201E+04  0.28978769358E+04  0.25760353694E+04 0.  0.
        5    1    3    3  502    0  0.10696020393E+04  0.35364142084E+03  0.13660450669E+04  0.17706529845E+04  0.46999998093E+01 0. -1.
       -5    1    3    3    0  502 -0.10696020393E+04 -0.35364142084E+03 -0.38742346809E+02  0.11272239513E+04  0.46999998093E+01 0.  1.
</event>
<event>
 5   0  0.5170532E-05  0.1691587E+04  0.7818609E-02  0.8766177E-01
        2   -1    0    0  501    0  0.00000000000E+00  0.00000000000E+00  0.20174194678E+04  0.20174194678E+04  0.25500000920E-02 0.  1.
       -2   -1    0    0    0  501  0.00000000000E+00  0.00000000000E+00 -0.35459492924E+03  0.35459492925E+03  0.25500000920E-02 0. -1.
    10030    2    1    2    0    0  0.00000000000E+00  0.00000000000E+00  0.16628245386E+04  0.23720143971E+04  0.16915870814E+04 0.  0.
        1    1    3    3  502    0 -0.38961873562E+03 -0.61433956212E+03  0.14364124167E+04  0.16101231281E+04  0.50400001928E-02 0.  1.
       -1    1    3    3    0  502  0.38961873562E+03  0.61433956212E+03  0.22641212181E+03  0.76189126893E+03  0.50400001928E-02 0. -1.
</event>
<event>
 5   0  0.1698625E-05  0.2495721E+04  0.7818609E-02  0.8404511E-01
        3   -1    0    0  501    0  0.00000000000E+00  0.00000000000E+00  0.16772848067E+04  0.16772848097E+04  0.10100000352E+00 0. -1.
       -3   -1    0    0    0  501  0.00000000000E+00  0.00000000000E+00 -0.92837897718E+03  0.92837898267E+03  0.10100000352E+00 0.  1.
    10030    2    1    2    0    0  0.00000000000E+00  0.00000000000E+00  0.74890582948E+03  0.26056637924E+04  0.24957211097E+04 0.  0.
        2    1    3    3  502    0  0.82772337696E+03  0.60404380687E+03 -0.36907156882E+03  0.10891321005E+04  0.25500000920E-02 0.  1.
       -2    1    3    3    0  502 -0.82772337696E+03 -0.60404380687E+03  0.11179773983E+04  0.15165316919E+04  0.25500000920E-02 0. -1.
</event>
<event>
 5   0  0.2159405E-05  0.2602505E+04  0.7818609E-02  0.8367351E-01
       -1   -1    0    0    0  501  0.00000000000E+00  0.00000000000E+00  0.69579189973E+03  0.69579189975E+03  0.50400001928E-02 0.  1.
        1   -1    0    0  501    0  0.00000000000E+00  0.00000000000E+00 -0.24335703522E+04  0.24335703522E+04  0.50400001928E-02 0. -1.
    10030    2    1    2    0    0  0.00000000000E+00  0.00000000000E+00 -0.17377784525E+04  0.31293622520E+04  0.26025053610E+04 0.  0.
        3    1    3    3  502    0 -0.56867112355E+03 -0.10238386299E+04 -0.15508193524E+04  0.19433664248E+04  0.10100000352E+00 0. -1.
       -3    1    3    3    0  502  0.56867112355E+03  0.10238386299E+04 -0.18695910009E+03  0.11859958272E+04  0.10100000352E+00 0.  1.
</event>
<event>
 5   0  0.4955675E-05  0.1763971E+04  0.7818609E-02  0.8725697E-01
       -2   -1    0    0    0  501  0.00000000000E+00  0.00000000000E+00  0.55705506172E+03  0.55705506173E+03  0.25500000920E-02 0. -1.
        2   -1    0    0  501    0  0.00000000000E+00  0.00000000000E+00 -0.13964478793E+04  0.13964478793E+04  0.25500000920E-02 0.  1.
    10030    2    1    2    0    0  0.00000000000E+00  0.00000000000E+00 -0.83939281760E+03  0.19535029411E+04  0.17639709290E+04 0.  0.
        5    1    3    3  502    0  0.70898439644E+03 -0.14450316857E+03  0.13880819863E+03  0.73676987325E+03  0.46999998093E+01 0. -1.
       -5    1    3    3    0  502 -0.70898439644E+03  0.14450316857E+03 -0.97820101623E+03  0.12167330678E+04  0.46999998093E+01 0.  1.
</event>
<event>
 5   0  0.2159405E-05  0.2644870E+04  0.7818609E-02  0.8353118E-01
        1   -1    0    0  501    0  0.00000000000E+00  0.00000000000E+00  0.18515787811E+04  0.18515787811E+04  0.50400001928E-02 0. -1.
       -1   -1    0    0    0  501  0.00000000000E+00  0.00000000000E+00 -0.94450970443E+03  0.94450970445E+03  0.50400001928E-02 0.  1.
    10030    2    1    2    0    0  0.00000000000E+00  0.00000000000E+00  0.90706907664E+03  0.27960884855E+04  0.26448698473E+04 0.  0.
        3    1    3    3  502    0  0.14448452203E+03  0.17494632954E+03  0.18308473249E+04  0.18448533634E+04  0.10100000352E+00 0. -1.
       -3    1    3    3    0  502 -0.14448452203E+03 -0.17494632954E+03 -0.92377824826E+03  0.95123512208E+03  0.10100000352E+00 0.  1.
</event>
<event>
 5   0  0.4955675E-05  0.2581933E+04  0.7818609E-02  0.8374364E-01
        2   -1    0    0  501    0  0.00000000000E+00  0.00000000000E+00  0.12560308104E+04  0.12560308104E+04  0.25500000920E-02 0.  1.
       -2   -1    0    0    0  501  0.00000000000E+00  0.00000000000E+00 -0.13268739330E+04  0.13268739330E+04  0.25500000920E-02 0. -1.
    10030    2    1    2    0    0  0.00000000000E+00  0.00000000000E+00 -0.70843122600E+02  0.25829047434E+04  0.25819330289E+04 0.  0.
        5    1    3    3  502    0 -0.41119660961E+03  0.25851457370E+03  0.11611306021E+04  0.12586337044E+04  0.46999998093E+01 0.  1.
       -5    1    3    3    0  502  0.41119660961E+03 -0.25851457370E+03 -0.12319737247E+04  0.13242710391E+04  0.46999998093E+01 0. -1.
</event>
<event>
 5   0  0.2072710E-05  0.2572557E+04  0.7818609E-02  0.8377583E-01
       -1   -1    0    0    0  501  0.00000000000E+00  0.00000000000E+00  0.11113535066E+04  0.11113535066E+04  0.50400001928E-02 0.  1.
        1   -1    0    0  501    0  0.00000000000E+00  0.00000000000E+00 -0.14887363713E+04  0.14887363713E+04  0.50400001928E-02 0. -1.
    10030    2    1    2    0    0  0.00000000000E+00  0.00000000000E+00 -0.37738286471E+03  0.26000898779E+04  0.25725570055E+04 0.  0.
        2    1    3    3  502    0  0.32074331577E+03  0.12024740334E+04  0.13989153750E+03  0.12523536712E+04  0.25500000920E-02 0.  1.
       -2    1    3    3    0  502 -0.32074331577E+03 -0.12024740334E+04 -0.51727440221E+03  0.13477362067E+04  0.25500000920E-02 0. -1.
</event>
<event>
 5   0  0.5170532E-05  0.1343627E+04  0.7818609E-02  0.8995666E-01
        2   -1    0    0  501    0  0.00000000000E+00  0.00000000000E+00  0.34436970462E+03  0.34436970463E+03  0.25500000920E-02 0.  1.
       -2   -1    0    0    0  501  0.00000000000E+00  0.00000000000E+00 -0.13106070680E+04  0.13106070680E+04  0.25500000920E-02 0. -1.
    10030    2    1    2    0    0  0.00000000000E+00  0.00000000000E+00 -0.96623736340E+03  0.16549767726E+04  0.13436269853E+04 0.  0.
        1    1    3    3  502    0 -0.91900727443E+02  0.53806063132E+03 -0.96550531098E+03  0.11091237497E+04  0.50400001928E-02 0. -1.
       -1    1    3    3    0  502  0.91900727443E+02 -0.53806063132E+03 -0.73205241278E+00  0.54585302290E+03  0.50400001928E-02 0.  1.
</event>
<event>
 5   0  0.2072710E-05  0.2330781E+04  0.7818609E-02  0.8465882E-01
        1   -1    0    0  501    0  0.00000000000E+00  0.00000000000E+00  0.14977483159E+04  0.14977483159E+04  0.50400001928E-02 0. -1.
       -1   -1    0    0    0  501  0.00000000000E+00  0.00000000000E+00 -0.90678485337E+03  0.90678485339E+03  0.50400001928E-02 0.  1.
    10030    2    1    2    0    0  0.00000000000E+00  0.00000000000E+00  0.59096346254E+03  0.24045331693E+04  0.23307814029E+04 0.  0.
        2    1    3    3  502    0 -0.60460606088E+03 -0.58198911955E+03  0.11296944649E+04  0.14072915150E+04  0.25500000920E-02 0. -1.
       -2    1    3    3    0  502  0.60460606088E+03  0.58198911955E+03 -0.53873100239E+03  0.99724165430E+03  0.25500000920E-02 0.  1.
</event>
<event>
 5   0  0.5049803E-05  0.1624304E+04  0.7818609E-02  0.8805755E-01
       -2   -1    0    0    0  501  0.00000000000E+00  0.00000000000E+00  0.38183672011E+03  0.38183672012E+03  0.25500000920E-02 0. -1.
        2   -1    0    0  501    0  0.00000000000E+00  0.00000000000E+00 -0.17274157628E+04  0.17274157628E+04  0.25500000920E-02 0.  1.
    10030    2    1    2    0    0  0.00000000000E+00  0.00000000000E+00 -0.13455790427E+04  0.21092524830E+04  0.16243038745E+04 0.  0.
        4    1    3    3  502    0  0.32628184403E+03  0.54567513034E+03 -0.16577022674E+02  0.63600125801E+03  0.12699999809E+01 0. -1.
       -4    1    3    3    0  502 -0.32628184403E+03 -0.54567513034E+03 -0.13290020201E+04  0.14732512250E+04  0.12699999809E+01 0.  1.
</event>
<event>
 5   0  0.1954502E-05  0.2583689E+04  0.7818609E-02  0.8373763E-01
        1   -1    0    0  501    0  0.00000000000E+00  0.00000000000E+00  0.96746988377E+03  0.96746988379E+03  0.50400001928E-02 0. -1.
       -1   -1    0    0    0  501  0.00000000000E+00  0.00000000000E+00 -0.17249759302E+04  0.17249759302E+04  0.50400001928E-02 0.  1.
    10030    2    1    2    0    0  0.00000000000E+00  0.00000000000E+00 -0.75750604639E+03  0.26924458140E+04  0.25836890391E+04 0.  0.
        4    1    3    3  502    0  0.92003247186E+03 -0.83201968114E+03 -0.75469347225E+03  0.14519918557E+04  0.12699999809E+01 0.  1.
       -4    1    3    3    0  502 -0.92003247186E+03  0.83201968114E+03 -0.28125741429E+01  0.12404539583E+04  0.12699999809E+01 0. -1.
</event>
<event>
 5   0  0.2072710E-05  0.2597396E+04  0.7818609E-02  0.8369086E-01
       -1   -1    0    0    0  501  0.00000000000E+00  0.00000000000E+00  0.16158543883E+04  0.16158543883E+04  0.50400001928E-02 0. -1.
        1   -1    0    0  501    0  0.00000000000E+00  0.00000000000E+00 -0.10437925629E+04  0.10437925629E+04  0.50400001928E-02 0.  1.
    10030    2    1    2    0    0  0.00000000000E+00  0.00000000000E+00  0.57206182543E+03  0.26596469512E+04  0.25973962295E+04 0.  0.
        2    1    3    3  502    0 -0.47230789367E+03  0.49529173086E+03 -0.84415554799E+03  0.10867323655E+04  0.25500000920E-02 0.  1.
       -2    1    3    3    0  502  0.47230789367E+03 -0.49529173086E+03  0.14162173734E+04  0.15729145857E+04  0.25500000920E-02 0. -1.
</event>
<event>
 5   0  0.1993815E-05  0.2568834E+04  0.7818609E-02  0.8378865E-01
       -1   -1    0    0    0  501  0.00000000000E+00  0.00000000000E+00  0.97182964017E+03  0.97182964019E+03  0.50400001928E-02 0.  1.
        1   -1    0    0  501    0  0.00000000000E+00  0.00000000000E+00 -0.16975470521E+04  0.16975470521E+04  0.50400001928E-02 0. -1.
    10030    2    1    2    0    0  0.00000000000E+00  0.00000000000E+00 -0.72571741194E+03  0.26693766923E+04  0.25688336193E+04 0.  0.
        5    1    3    3  502    0 -0.13780823657E+03  0.48773006840E+03  0.86351651844E+03  0.10012764839E+04  0.46999998093E+01 0.  1.
       -5    1    3    3    0  502  0.13780823657E+03 -0.48773006840E+03 -0.15892339304E+04  0.16681002084E+04  0.46999998093E+01 0. -1.
</event>
<event>
 5   0  0.2072710E-05  0.2491670E+04  0.7818609E-02  0.8405959E-01
       -1   -1    0    0    0  501  0.00000000000E+00  0.00000000000E+00  0.14241671857E+04  0.14241671858E+04  0.50400001928E-02 0. -1.
        1   -1    0    0  501    0  0.00000000000E+00  0.00000000000E+00 -0.10898334986E+04  0.10898334986E+04  0.50400001928E-02 0.  1.
    10030    2    1    2    0    0  0.00000000000E+00  0.00000000000E+00  0.33433368715E+03  0.25140006844E+04  0.24916702082E+04 0.  0.
        2    1    3    3  502    0 -0.86477027924E+03  0.51706504805E+03  0.90648285332E+03  0.13553210185E+04  0.25500000920E-02 0. -1.
       -2    1    3    3    0  502  0.86477027924E+03 -0.51706504805E+03 -0.57214916617E+03  0.11586796659E+04  0.25500000920E-02 0.  1.
</event>
<event>
 5   0  0.2159405E-05  0.2585713E+04  0.7818609E-02  0.8373070E-01
       -1   -1    0    0    0  501  0.00000000000E+00  0.00000000000E+00  0.16053276248E+04  0.16053276248E+04  0.50400001928E-02 0.  1.
        1   -1    0    0  501    0  0.00000000000E+00  0.00000000000E+00 -0.10412067722E+04  0.10412067722E+04  0.50400001928E-02 0. -1.
    10030    2    1    2    0    0  0.00000000000E+00  0.00000000000E+00  0.56412085259E+03  0.26465343970E+04  0.25857130503E+04 0.  0.
        3    1    3    3  502    0  0.65413853461E+03 -0.10396604811E+03 -0.85435878043E+03  0.10810342721E+04  0.10100000352E+00 0. -1.
       -3    1    3    3    0  502 -0.65413853461E+03  0.10396604811E+03  0.14184796330E+04  0.15655001249E+04  0.10100000352E+00 0.  1.
</event>
<event>
 5   0  0.1993815E-05  0.2604471E+04  0.7818609E-02  0.8366684E-01
       -1   -1    0    0    0  501  0.00000000000E+00  0.00000000000E+00  0.13429230896E+04  0.13429230896E+04  0.50400001928E-02 0.  1.
        1   -1    0    0  501    0  0.00000000000E+00  0.00000000000E+00 -0.12627805971E+04  0.12627805971E+04  0.50400001928E-02 0. -1.
    10030    2    1    2    0    0  0.00000000000E+00  0.00000000000E+00  0.80142492509E+02  0.26057036867E+04  0.26044709413E+04 0.  0.
        5    1    3    3  502    0 -0.34352259266E+03  0.11297469479E+04  0.58938411999E+03  0.13197468200E+04  0.46999998093E+01 0.  1.
       -5    1    3    3    0  502  0.34352259266E+03 -0.11297469479E+04 -0.50924162748E+03  0.12859568667E+04  0.46999998093E+01 0. -1.
</event>
<event>
 5   0  0.1993815E-05  0.2588060E+04  0.7818609E-02  0.8372268E-01
        1   -1    0    0  501    0  0.00000000000E+00  0.00000000000E+00  0.21662921232E+04  0.21662921232E+04  0.50400001928E-02 0. -1.
       -1   -1    0    0    0  501  0.00000000000E+00  0.00000000000E+00 -0.77298630645E+03  0.77298630647E+03  0.50400001928E-02 0.  1.
    10030    2    1    2    0    0  0.00000000000E+00  0.00000000000E+00  0.13933058167E+04  0.29392784297E+04  0.25880603911E+04 0.  0.
        5    1    3    3  502    0  0.19270061886E+03  0.10553635401E+04  0.15184264889E+04  0.18591844509E+04  0.46999998093E+01 0. -1.
       -5    1    3    3    0  502 -0.19270061886E+03 -0.10553635401E+04 -0.12512067215E+03  0.10800939788E+04  0.46999998093E+01 0.  1.
</event>
<event>
 5   0  0.1993815E-05  0.2030978E+04  0.7818609E-02  0.8592273E-01
       -1   -1    0    0    0  501  0.00000000000E+00  0.00000000000E+00  0.60009694261E+03  0.60009694263E+03  0.50400001928E-02 0. -1.
        1   -1    0    0  501    0  0.00000000000E+00  0.00000000000E+00 -0.17184185362E+04  0.17184185362E+04  0.50400001928E-02 0.  1.
    10030    2    1    2    0    0  0.00000000000E+00  0.00000000000E+00 -0.11183215936E+04  0.23185154788E+04  0.20309778037E+04 0.  0.
        5    1    3    3  502    0 -0.75899056380E+03 -0.38086968427E+03  0.76510725206E+02  0.85264551450E+03  0.46999998093E+01 0. -1.
       -5    1    3    3    0  502  0.75899056380E+03  0.38086968427E+03 -0.11948323188E+04  0.14658699643E+04  0.46999998093E+01 0.  1.
</event>
<event>
 5   0  0.5049803E-05  0.2667812E+04  0.7818609E-02  0.8345525E-01
       -2   -1    0    0    0  501  0.00000000000E+00  0.00000000000E+00  0.15470267771E+04  0.15470267771E+04  0.25500000920E-02 0.  1.
        2   -1    0    0  501    0  0.00000000000E+00  0.00000000000E+00 -0.11501452878E+04  0.11501452878E+04  0.25500000920E-02 0. -1.
    10030    2    1    2    0    0  0.00000000000E+00  0.00000000000E+00  0.39688148936E+03  0.26971720649E+04  0.26678122556E+04 0.  0.
        4    1    3    3  502    0  0.13263364740E+03  0.11457306315E+04  0.87589991801E+03  0.14482722961E+04  0.12699999809E+01 0.  1.
       -4    1    3    3    0  502 -0.13263364740E+03 -0.11457306315E+04 -0.47901842864E+03  0.12488997687E+04  0.12699999809E+01 0. -1.
</event>
<event>
 5   0  0.1954502E-05  0.2410699E+04  0.7818609E-02  0.8435509E-01
       -1   -1    0    0    0  501  0.00000000000E+00  0.00000000000E+00  0.16271169082E+04  0.16271169082E+04  0.50400001928E-02 0. -1.
        1   -1    0    0  501    0  0.00000000000E+00  0.00000000000E+00 -0.89290931128E+03  0.89290931130E+03  0.50400001928E-02 0.  1.
    10030    2    1    2    0    0  0.00000000000E+00  0.00000000000E+00  0.73420759691E+03  0.25200262195E+04  0.24106993491E+04 0.  0.
        4    1    3    3  502    0  0.59516709310E+03  0.23148432850E+03  0.14357453909E+04  0.15713609717E+04  0.12699999809E+01 0. -1.
       -4    1    3    3    0  502 -0.59516709310E+03 -0.23148432850E+03 -0.70153779399E+03  0.94866524778E+03  0.12699999809E+01 0.  1.
</event>
<event>
 5   0  0.5182179E-05  0.2615040E+04  0.7818609E-02  0.8363110E-01
       -2   -1    0    0    0  501  0.00000000000E+00  0.00000000000E+00  0.10970043591E+04  0.10970043591E+04  0.25500000920E-02 0. -1.
        2   -1    0    0  501    0  0.00000000000E+00  0.00000000000E+00 -0.15584333175E+04  0.15584333175E+04  0.25500000920E-02 0.  1.
    10030    2    1    2    0    0  0.00000000000E+00  0.00000000000E+00 -0.46142895843E+03  0.26554376766E+04  0.26150396881E+04 0.  0.
        3    1    3    3  502    0 -0.29600864286E+03  0.45900571970E+03 -0.14370486140E+04  0.15373405923E+04  0.10100000352E+00 0.  1.
       -3    1    3    3    0  502  0.29600864286E+03 -0.45900571970E+03  0.97561965558E+03  0.11180970843E+04  0.10100000352E+00 0. -1.
</event>
<event>
 5   0  0.5170532E-05  0.1384819E+04  0.7818609E-02  0.8964881E-01
       -2   -1    0    0    0  501  0.00000000000E+00  0.00000000000E+00  0.22185697641E+03  0.22185697642E+03  0.25500000920E-02 0.  1.
        2   -1    0    0  501    0  0.00000000000E+00  0.00000000000E+00 -0.21609923610E+04  0.21609923610E+04  0.25500000920E-02 0. -1.
    10030    2    1    2    0    0  0.00000000000E+00  0.00000000000E+00 -0.19391353846E+04  0.23828493375E+04  0.13848194558E+04 0.  0.
        1    1    3    3  502    0  0.38281956453E+03  0.26141230521E+03 -0.84549086984E+02  0.47120670670E+03  0.50400001928E-02 0.  1.
       -1    1    3    3    0  502 -0.38281956453E+03 -0.26141230521E+03 -0.18545862977E+04  0.19116426308E+04  0.50400001928E-02 0. -1.
</event>
<event>
 5   0  0.1954502E-05  0.2745509E+04  0.7818609E-02  0.8320388E-01
       -1   -1    0    0    0  501  0.00000000000E+00  0.00000000000E+00  0.14871519411E+04  0.14871519411E+04  0.50400001928E-02 0.  1.
        1   -1    0    0  501    0  0.00000000000E+00  0.00000000000E+00 -0.12671568437E+04  0.12671568437E+04  0.50400001928E-02 0. -1.
    10030    2    1    2    0    0  0.00000000000E+00  0.00000000000E+00  0.21999509747E+03  0.27543087848E+04  0.27455088853E+04 0.  0.
        4    1    3    3  502    0 -0.24382099366E+03 -0.18046411817E+03 -0.12331129524E+04  0.12698760338E+04  0.12699999809E+01 0. -1.
       -4    1    3    3    0  502  0.24382099366E+03  0.18046411817E+03  0.14531080499E+04  0.14844327510E+04  0.12699999809E+01 0.  1.
</event>
<event>
 5   0  0.5170532E-05  0.2621445E+04  0.7818609E-02  0.8360953E-01
       -2   -1    0    0    0  501  0.00000000000E+00  0.00000000000E+00  0.62756992957E+03  0.62756992958E+03  0.25500000920E-02 0.  1.
        2   -1    0    0  501    0  0.00000000000E+00  0.00000000000E+00 -0.27375334569E+04  0.27375334569E+04  0.25500000920E-02 0. -1.
    10030    2    1    2    0    0  0.00000000000E+00  0.00000000000E+00 -0.21099635274E+04  0.33651033865E+04  0.26214451578E+04 0.  0.
        1    1    3    3  502    0 -0.11597993901E+03 -0.58064549351E+01  0.62095348730E+03  0.63171852481E+03  0.50400001928E-02 0.  1.
       -1    1    3    3    0  502  0.11597993901E+03  0.58064549351E+01 -0.27309170147E+04  0.27333848617E+04  0.50400001928E-02 0. -1.
</event>
<event>
 5   0  0.5182179E-05  0.2544491E+04  0.7818609E-02  0.8387305E-01
       -2   -1    0    0    0  501  0.00000000000E+00  0.00000000000E+00  0.94901719313E+03  0.94901719314E+03  0.25500000920E-02 0.  1.
        2   -1    0    0  501    0  0.00000000000E+00  0.00000000000E+00 -0.17055629676E+04  0.17055629676E+04  0.25500000920E-02 0. -1.
    10030    2    1    2    0    0  0.00000000000E+00  0.00000000000E+00 -0.75654577450E+03  0.26545801608E+04  0.25444909748E+04 0.  0.
        3    1    3    3  502    0 -0.55798300074E+03  0.22746314362E+03 -0.15472538786E+04  0.16604454481E+04  0.10100000352E+00 0. -1.
       -3    1    3    3    0  502  0.55798300074E+03 -0.22746314362E+03  0.79070810415E+03  0.99413471270E+03  0.10100000352E+00 0.  1.
</event>
<event>
 5   0  0.2072710E-05  0.2478091E+04  0.7818609E-02  0.8410833E-01
       -1   -1    0    0    0  501  0.00000000000E+00  0.00000000000E+00  0.10040539392E+04  0.10040539392E+04  0.50400001928E-02 0.  1.
        1   -1    0    0  501    0  0.00000000000E+00  0.00000000000E+00 -0.15290351525E+04  0.15290351525E+04  0.50400001928E-02 0. -1.
    10030    2    1    2    0    0  0.00000000000E+00  0.00000000000E+00 -0.52498121333E+03  0.25330890917E+04  0.24780910137E+04 0.  0.
        2    1    3    3  502    0  0.10533674929E+03  0.11434551498E+04  0.21329446590E+03  0.11679383715E+04  0.25500000920E-02 0.  1.
       -2    1    3    3    0  502 -0.10533674929E+03 -0.11434551498E+04 -0.73827567924E+03  0.13651507202E+04  0.25500000920E-02 0. -1.
</event>
<event>
 5   0  0.5182179E-05  0.2630696E+04  0.7818609E-02  0.8357848E-01
       -2   -1    0    0    0  501  0.00000000000E+00  0.00000000000E+00  0.35717411250E+04  0.35717411250E+04  0.25500000920E-02 0.  1.
        2   -1    0    0  501    0  0.00000000000E+00  0.00000000000E+00 -0.48439707872E+03  0.48439707873E+03  0.25500000920E-02 0. -1.
    10030    2    1    2    0    0  0.00000000000E+00  0.00000000000E+00  0.30873440463E+04  0.40561382037E+04  0.26306964606E+04 0.  0.
        3    1    3    3  502    0  0.15216470536E+03  0.67469738256E+03 -0.18138845509E+03  0.71503317226E+03  0.10100000352E+00 0. -1.
       -3    1    3    3    0  502 -0.15216470536E+03 -0.67469738256E+03  0.32687325014E+04  0.33411050315E+04  0.10100000352E+00 0.  1.
</event>
<event>
 5   0  0.2163800E-05  0.2489616E+04  0.7818609E-02  0.8406694E-01
       -1   -1    0    0    0  501  0.00000000000E+00  0.00000000000E+00  0.64812917661E+03  0.64812917663E+03  0.50400001928E-02 0.  1.
        1   -1    0    0  501    0  0.00000000000E+00  0.00000000000E+00 -0.23907999953E+04  0.23907999953E+04  0.50400001928E-02 0. -1.
    10030    2    1    2    0    0  0.00000000000E+00  0.00000000000E+00 -0.17426708187E+04  0.30389291720E+04  0.24896162214E+04 0.  0.
        1    1    3    3  502    0 -0.90867942060E+03 -0.72919116535E+03 -0.14063736780E+04  0.18262817327E+04  0.50400001928E-02 0.  1.
       -1    1    3    3    0  502  0.90867942060E+03  0.72919116535E+03 -0.33629714074E+03  0.12126474393E+04  0.50400001928E-02 0. -1.
</event>
<event>
 5   0  0.2072710E-05  0.2278269E+04  0.7818609E-02  0.8486539E-01
        1   -1    0    0  501    0  0.00000000000E+00  0.00000000000E+00  0.99350490069E+03  0.99350490070E+03  0.50400001928E-02 0.  1.
       -1   -1    0    0    0  501  0.00000000000E+00  0.00000000000E+00 -0.13061104676E+04  0.13061104676E+04  0.50400001928E-02 0. -1.
    10030    2    1    2    0    0  0.00000000000E+00  0.00000000000E+00 -0.31260556687E+03  0.22996153683E+04  0.22782687729E+04 0.  0.
        2    1    3    3  502    0  0.97547121876E+03 -0.55279876113E+03 -0.35942593515E+03  0.11774198791E+04  0.25500000920E-02 0. -1.
       -2    1    3    3    0  502 -0.97547121876E+03  0.55279876113E+03  0.46820368281E+02  0.11221954891E+04  0.25500000920E-02 0.  1.
</event>
<event>
 5   0  0.2163800E-05  0.1620979E+04  0.7818609E-02  0.8807762E-01
        1   -1    0    0  501    0  0.00000000000E+00  0.00000000000E+00  0.77685843304E+03  0.77685843306E+03  0.50400001928E-02 0.  1.
       -1   -1    0    0    0  501  0.00000000000E+00  0.00000000000E+00 -0.84557654896E+03  0.84557654897E+03  0.50400001928E-02 0. -1.
    10030    2    1    2    0    0  0.00000000000E+00  0.00000000000E+00 -0.68718115918E+02  0.16224349820E+04  0.16209790534E+04 0.  0.
        1    1    3    3  502    0 -0.73159545043E+03 -0.25738766573E+03  0.20125194656E+03  0.80123820402E+03  0.50400001928E-02 0. -1.
       -1    1    3    3    0  502  0.73159545043E+03  0.25738766573E+03 -0.26997006248E+03  0.82119677801E+03  0.50400001928E-02 0.  1.
</event>
<event>
 5   0  0.5170532E-05  0.2507012E+04  0.7818609E-02  0.8400492E-01
        2   -1    0    0  501    0  0.00000000000E+00  0.00000000000E+00  0.18424384191E+04  0.18424384191E+04  0.25500000920E-02 0.  1.
       -2   -1    0    0    0  501  0.00000000000E+00  0.00000000000E+00 -0.85282498383E+03  0.85282498383E+03  0.25500000920E-02 0. -1.
    10030    2    1    2    0    0  0.00000000000E+00  0.00000000000E+00  0.98961343529E+03  0.26952634029E+04  0.25070121779E+04 0.  0.
        1    1    3    3  502    0 -0.23161958223E+03  0.49136613076E+03  0.17093201012E+04  0.17935616838E+04  0.50400001928E-02 0.  1.
       -1    1    3    3    0  502  0.23161958223E+03 -0.49136613076E+03 -0.71970666589E+03  0.90170171913E+03  0.50400001928E-02 0. -1.
</event>
<event>
 5   0  0.2163800E-05  0.2735704E+04  0.7818609E-02  0.8323512E-01
        1   -1    0    0  501    0  0.00000000000E+00  0.00000000000E+00  0.12632222414E+04  0.12632222414E+04  0.50400001928E-02 0. -1.
       -1   -1    0    0    0  501  0.00000000000E+00  0.00000000000E+00 -0.14811481415E+04  0.14811481415E+04  0.50400001928E-02 0.  1.
    10030    2    1    2    0    0  0.00000000000E+00  0.00000000000E+00 -0.21792590009E+03  0.27443703829E+04  0.27357041325E+04 0.  0.
        1    1    3    3  502    0 -0.26045544916E+03  0.88354340582E+03  0.90544425235E+03  0.12916327981E+04  0.50400001928E-02 0. -1.
       -1    1    3    3    0  502  0.26045544916E+03 -0.88354340582E+03 -0.11233701524E+04  0.14527375848E+04  0.50400001928E-02 0.  1.
</event>
<event>
 5   0  0.1954502E-05  0.2582097E+04  0.7818609E-02  0.8374308E-01
        1   -1    0    0  501    0  0.00000000000E+00  0.00000000000E+00  0.16571493606E+04  0.16571493606E+04  0.50400001928E-02 0. -1.
       -1   -1    0    0    0  501  0.00000000000E+00  0.00000000000E+00 -0.10058276564E+04  0.10058276564E+04  0.50400001928E-02 0.  1.
    10030    2    1    2    0    0  0.00000000000E+00  0.00000000000E+00  0.65132170416E+03  0.26629770170E+04  0.25820973317E+04 0.  0.
        4    1    3    3  502    0 -0.41065931269E+03 -0.91039135362E+03 -0.51810500613E+03  0.11251168375E+04  0.12699999809E+01 0.  1.
       -4    1    3    3    0  502  0.41065931269E+03  0.91039135362E+03  0.11694267103E+04  0.15378601794E+04  0.12699999809E+01 0. -1.
</event>
<event>
 5   0  0.5036452E-05  0.2597579E+04  0.7818609E-02  0.8369024E-01
       -2   -1    0    0    0  501  0.00000000000E+00  0.00000000000E+00  0.79020134298E+03  0.79020134299E+03  0.25500000920E-02 0. -1.
        2   -1    0    0  501    0  0.00000000000E+00  0.00000000000E+00 -0.21347144032E+04  0.21347144032E+04  0.25500000920E-02 0.  1.
    10030    2    1    2    0    0  0.00000000000E+00  0.00000000000E+00 -0.13445130602E+04  0.29249157462E+04  0.25975790177E+04 0.  0.
        2    1    3    3  502    0 -0.48692617577E+03 -0.10379717183E+04  0.14864095001E+02  0.11466051325E+04  0.25500000920E-02 0. -1.
       -2    1    3    3    0  502  0.48692617577E+03  0.10379717183E+04 -0.13593771553E+04  0.17783106137E+04  0.25500000920E-02 0.  1.
</event>
<event>
 5   0  0.5036452E-05  0.1855817E+04  0.7818609E-02  0.8677167E-01
       -2   -1    0    0    0  501  0.00000000000E+00  0.00000000000E+00  0.46975386192E+03  0.46975386193E+03  0.25500000920E-02 0. -1.
        2   -1    0    0  501    0  0.00000000000E+00  0.00000000000E+00 -0.18329054627E+04  0.18329054627E+04  0.25500000920E-02 0.  1.
    10030    2    1    2    0    0  0.00000000000E+00  0.00000000000E+00 -0.13631516008E+04  0.23026593247E+04  0.18558172536E+04 0.  0.
        2    1    3    3  502    0 -0.62525290032E+03  0.39075382159E+03 -0.13805923566E+04  0.15651405667E+04  0.25500000920E-02 0. -1.
       -2    1    3    3    0  502  0.62525290032E+03 -0.39075382159E+03  0.17440755724E+02  0.73751875801E+03  0.25500000920E-02 0.  1.
</event>
<event>
 5   0  0.2072710E-05  0.2470398E+04  0.7818609E-02  0.8413608E-01
       -1   -1    0    0    0  501  0.00000000000E+00  0.00000000000E+00  0.11684921194E+04  0.11684921194E+04  0.50400001928E-02 0.  1.
        1   -1    0    0  501    0  0.00000000000E+00  0.00000000000E+00 -0.13057143147E+04  0.13057143148E+04  0.50400001928E-02 0. -1.
    10030    2    1    2    0    0  0.00000000000E+00  0.00000000000E+00 -0.13722219536E+03  0.24742064342E+04  0.24703982569E+04 0.  0.
        2    1    3    3  502    0  0.61687845835E+03 -0.25990751160E+03  0.97107677490E+03  0.11794409904E+04  0.25500000920E-02 0.  1.
       -2    1    3    3    0  502 -0.61687845835E+03  0.25990751160E+03 -0.11082989703E+04  0.12947654438E+04  0.25500000920E-02 0. -1.
</event>
<event>
 5   0  0.5170532E-05  0.2542217E+04  0.7818609E-02  0.8388098E-01
       -2   -1    0    0    0  501  0.00000000000E+00  0.00000000000E+00  0.72741331594E+03  0.72741331595E+03  0.25500000920E-02 0. -1.
        2   -1    0    0  501    0  0.00000000000E+00  0.00000000000E+00 -0.22211806400E+04  0.22211806400E+04  0.25500000920E-02 0.  1.
    10030    2    1    2    0    0  0.00000000000E+00  0.00000000000E+00 -0.14937673240E+04  0.29485939559E+04  0.25422166506E+04 0.  0.
        1    1    3    3  502    0  0.97372715031E+03  0.81676760319E+03 -0.77182704381E+03  0.14869333766E+04  0.50400001928E-02 0.  1.
       -1    1    3    3    0  502 -0.97372715031E+03 -0.81676760319E+03 -0.72194028021E+03  0.14616605793E+04  0.50400001928E-02 0. -1.
</event>
<event>
 5   0  0.2159405E-05  0.2076624E+04  0.7818609E-02  0.8571611E-01
        1   -1    0    0  501    0  0.00000000000E+00  0.00000000000E+00  0.19430004694E+04  0.19430004694E+04  0.50400001928E-02 0.  1.
       -1   -1    0    0    0  501  0.00000000000E+00  0.00000000000E+00 -0.55485944621E+03  0.55485944623E+03  0.50400001928E-02 0. -1.
    10030    2    1    2    0    0  0.00000000000E+00  0.00000000000E+00  0.13881410232E+04  0.24978599157E+04  0.20766243420E+04 0.  0.
        3    1    3    3  502    0  0.21532749428E+03  0.60191248121E+03 -0.29008095010E+03  0.70200536511E+03  0.10100000352E+00 0. -1.
       -3    1    3    3    0  502 -0.21532749428E+03 -0.60191248121E+03  0.16782219733E+04  0.17958545506E+04  0.10100000352E+00 0.  1.
</event>
<event>
 5   0  0.5049803E-05  0.2415668E+04  0.7818609E-02  0.8433661E-01
       -2   -1    0    0    0  501  0.00000000000E+00  0.00000000000E+00  0.60877231007E+03  0.60877231007E+03  0.25500000920E-02 0.  1.
        2   -1    0    0  501    0  0.00000000000E+00  0.00000000000E+00 -0.23964009484E+04  0.23964009484E+04  0.25500000920E-02 0. -1.
    10030    2    1    2    0    0  0.00000000000E+00  0.00000000000E+00 -0.17876286383E+04  0.30051732585E+04  0.24156676437E+04 0.  0.
        4    1    3    3  502    0  0.10401362270E+04  0.10004676873E+03 -0.16474241412E+04  0.19508717643E+04  0.12699999809E+01 0. -1.
       -4    1    3    3    0  502 -0.10401362270E+04 -0.10004676873E+03 -0.14020449714E+03  0.10543014942E+04  0.12699999809E+01 0.  1.
</event>
<event>
 5   0  0.1698625E-05  0.2121974E+04  0.7818609E-02  0.8551625E-01
        4   -1    0    0  501    0  0.00000000000E+00  0.00000000000E+00  0.16556472443E+04  0.16556477314E+04  0.12699999809E+01 0.  1.
       -4   -1    0    0    0  501  0.00000000000E+00  0.00000000000E+00 -0.67991009200E+03  0.67991127812E+03  0.12699999809E+01 0. -1.
    10030    2    1    2    0    0  0.00000000000E+00  0.00000000000E+00  0.97573715229E+03  0.23355590095E+04  0.21219738209E+04 0.  0.
        2    1    3    3  502    0 -0.81478882161E+03  0.16648634974E+03 -0.23730682258E+03  0.86481966705E+03  0.25500000920E-02 0. -1.
       -2    1    3    3    0  502  0.81478882161E+03 -0.16648634974E+03  0.12130439749E+04  0.14707393425E+04  0.25500000920E-02 0.  1.
</event>
<event>
 5   0  0.5182179E-05  0.2592402E+04  0.7818609E-02  0.8370787E-01
        2   -1    0    0  501    0  0.00000000000E+00  0.00000000000E+00  0.17493496932E+04  0.17493496932E+04  0.25500000920E-02 0. -1.
       -2   -1    0    0    0  501  0.00000000000E+00  0.00000000000E+00 -0.96043543343E+03  0.96043543343E+03  0.25500000920E-02 0.  1.
    10030    2    1    2    0    0  0.00000000000E+00  0.00000000000E+00  0.78891425974E+03  0.27097851266E+04  0.25924023073E+04 0.  0.
        3    1    3    3  502    0 -0.12482344959E+03  0.19489236448E+03  0.17275773043E+04  0.17430109810E+04  0.10100000352E+00 0. -1.
       -3    1    3    3    0  502  0.12482344959E+03 -0.19489236448E+03 -0.93866304453E+03  0.96677414564E+03  0.10100000352E+00 0.  1.
</event>
<event>
 5   0  0.2163800E-05  0.2621391E+04  0.7818609E-02  0.8360971E-01
        1   -1    0    0  501    0  0.00000000000E+00  0.00000000000E+00  0.24980474935E+04  0.24980474935E+04  0.50400001928E-02 0.  1.
       -1   -1    0    0    0  501  0.00000000000E+00  0.00000000000E+00 -0.68770632818E+03  0.68770632819E+03  0.50400001928E-02 0. -1.
    10030    2    1    2    0    0  0.00000000000E+00  0.00000000000E+00  0.18103411654E+04  0.31857538217E+04  0.26213912866E+04 0.  0.
        1    1    3    3  502    0 -0.10093388311E+03 -0.14161079997E+03  0.24839652288E+04  0.24900450850E+04  0.50400001928E-02 0.  1.
       -1    1    3    3    0  502  0.10093388311E+03  0.14161079997E+03 -0.67362406346E+03  0.69570873671E+03  0.50400001928E-02 0. -1.
</event>
<event>
 5   0  0.2072710E-05  0.2597768E+04  0.7818609E-02  0.8368960E-01
        1   -1    0    0  501    0  0.00000000000E+00  0.00000000000E+00  0.15599953423E+04  0.15599953423E+04  0.50400001928E-02 0. -1.
       -1   -1    0    0    0  501  0.00000000000E+00  0.00000000000E+00 -0.10814770281E+04  0.10814770281E+04  0.50400001928E-02 0.  1.
    10030    2    1    2    0    0  0.00000000000E+00  0.00000000000E+00  0.47851831417E+03  0.26414723704E+04  0.25977676006E+04 0.  0.
        2    1    3    3  502    0  0.87235424740E+03 -0.53588584544E+03  0.10520339496E+04  0.14679751372E+04  0.25500000920E-02 0. -1.
       -2    1    3    3    0  502 -0.87235424740E+03  0.53588584544E+03 -0.57351563543E+03  0.11734972332E+04  0.25500000920E-02 0.  1.
</event>
<event>
 5   0  0.2072710E-05  0.2596020E+04  0.7818609E-02  0.8369554E-01
        1   -1    0    0  501    0  0.00000000000E+00  0.00000000000E+00  0.15630574172E+04  0.15630574172E+04  0.50400001928E-02 0. -1.
       -1   -1    0    0    0  501  0.00000000000E+00  0.00000000000E+00 -0.10779063431E+04  0.10779063431E+04  0.50400001928E-02 0.  1.
    10030    2    1    2    0    0  0.00000000000E+00  0.00000000000E+00  0.48515107410E+03  0.26409637603E+04  0.25960196491E+04 0.  0.
        2    1    3    3  502    0  0.33786048924E+02  0.24582705869E+03  0.15387042075E+04  0.15585836770E+04  0.25500000920E-02 0. -1.
       -2    1    3    3    0  502 -0.33786048924E+02 -0.24582705869E+03 -0.10535531334E+04  0.10823800834E+04  0.25500000920E-02 0.  1.
</event>
<event>
 5   0  0.5036452E-05  0.2410786E+04  0.7818609E-02  0.8435476E-01
       -2   -1    0    0    0  501  0.00000000000E+00  0.00000000000E+00  0.11923222318E+04  0.11923222318E+04  0.25500000920E-02 0. -1.
        2   -1    0    0  501    0  0.00000000000E+00  0.00000000000E+00 -0.12186073873E+04  0.12186073873E+04  0.25500000920E-02 0.  1.
    10030    2    1    2    0    0  0.00000000000E+00  0.00000000000E+00 -0.26285155412E+02  0.24109296191E+04  0.24107863279E+04 0.  0.
        2    1    3    3  502    0  0.17551024541E+03 -0.42052993621E+03 -0.11291494991E+04  0.12176320728E+04  0.25500000920E-02 0.  1.
       -2    1    3    3    0  502 -0.17551024541E+03  0.42052993621E+03  0.11028643436E+04  0.11932975463E+04  0.25500000920E-02 0. -1.
</event>
<event>
 5   0  0.5049803E-05  0.2849346E+04  0.7818609E-02  0.8288110E-01
       -2   -1    0    0    0  501  0.00000000000E+00  0.00000000000E+00  0.14016607802E+04  0.14016607802E+04  0.25500000920E-02 0. -1.
        2   -1    0    0  501    0  0.00000000000E+00  0.00000000000E+00 -0.14480632164E+04  0.14480632164E+04  0.25500000920E-02 0.  1.
    10030    2    1    2    0    0  0.00000000000E+00  0.00000000000E+00 -0.46402436169E+02  0.28497239966E+04  0.28493461830E+04 0.  0.
        4    1    3    3  502    0  0.57657863550E+03 -0.26843229886E+03 -0.12982008265E+04  0.14456229871E+04  0.12699999809E+01 0. -1.
       -4    1    3    3    0  502 -0.57657863550E+03  0.26843229886E+03  0.12517983903E+04  0.14041010095E+04  0.12699999809E+01 0.  1.
</event>
<event>
 5   0  0.4955675E-05  0.2615984E+04  0.7818609E-02  0.8362792E-01
       -2   -1    0    0    0  501  0.00000000000E+00  0.00000000000E+00  0.18052417314E+04  0.18052417314E+04  0.25500000920E-02 0. -1.
        2   -1    0    0  501    0  0.00000000000E+00  0.00000000000E+00 -0.94770831827E+03  0.94770831827E+03  0.25500000920E-02 0.  1.
    10030    2    1    2    0    0  0.00000000000E+00  0.00000000000E+00  0.85753341316E+03  0.27529500497E+04  0.26159836432E+04 0.  0.
        5    1    3    3  502    0  0.17551274530E+03 -0.20058242292E+03  0.17763525150E+04  0.17962428510E+04  0.46999998093E+01 0. -1.
       -5    1    3    3    0  502 -0.17551274530E+03  0.20058242292E+03 -0.91881910185E+03  0.95670719871E+03  0.46999998093E+01 0.  1.
</event>
<event>
 5   0  0.2163800E-05  0.2612549E+04  0.7818609E-02  0.8363951E-01
       -1   -1    0    0    0  501  0.00000000000E+00  0.00000000000E+00  0.83617757001E+03  0.83617757002E+03  0.50400001928E-02 0. -1.
        1   -1    0    0  501    0  0.00000000000E+00  0.00000000000E+00 -0.20406592773E+04  0.20406592773E+04  0.50400001928E-02 0.  1.
    10030    2    1    2    0    0  0.00000000000E+00  0.00000000000E+00 -0.12044817073E+04  0.28768368473E+04  0.26125493417E+04 0.  0.
        1    1    3    3  502    0 -0.37322803617E+03  0.25840036736E+03 -0.19510093454E+04  0.20031244052E+04  0.50400001928E-02 0.  1.
       -1    1    3    3    0  502  0.37322803617E+03 -0.25840036736E+03  0.74652763817E+03  0.87371244206E+03  0.50400001928E-02 0. -1.
</event>
<event>
 5   0  0.1954502E-05  0.2633916E+04  0.7818609E-02  0.8356771E-01
        1   -1    0    0  501    0  0.00000000000E+00  0.00000000000E+00  0.16162504002E+04  0.16162504002E+04  0.50400001928E-02 0.  1.
       -1   -1    0    0    0  501  0.00000000000E+00  0.00000000000E+00 -0.10730879184E+04  0.10730879185E+04  0.50400001928E-02 0. -1.
    10030    2    1    2    0    0  0.00000000000E+00  0.00000000000E+00  0.54316248176E+03  0.26893383187E+04  0.26339163067E+04 0.  0.
        4    1    3    3  502    0  0.12350849098E+03 -0.65727389536E+03  0.14299636387E+04  0.15786262832E+04  0.12699999809E+01 0.  1.
       -4    1    3    3    0  502 -0.12350849098E+03  0.65727389536E+03 -0.88680115698E+03  0.11107120355E+04  0.12699999809E+01 0. -1.
</event>
<event>
 5   0  0.5036452E-05  0.2619519E+04  0.7818609E-02  0.8361601E-01
        2   -1    0    0  501    0  0.00000000000E+00  0.00000000000E+00  0.20140075137E+04  0.20140075137E+04  0.25500000920E-02 0. -1.
       -2   -1    0    0    0  501  0.00000000000E+00  0.00000000000E+00 -0.85176921040E+03  0.85176921040E+03  0.25500000920E-02 0.  1.
    10030    2    1    2    0    0  0.00000000000E+00  0.00000000000E+00  0.11622383033E+04  0.28657767241E+04  0.26195187265E+04 0.  0.
        2    1    3    3  502    0 -0.28304671779E+03  0.12474961858E+04  0.27341778070E+03  0.13080976495E+04  0.25500000920E-02 0.  1.
       -2    1    3    3    0  502  0.28304671779E+03 -0.12474961858E+04  0.88882052260E+03  0.15576790746E+04  0.25500000920E-02 0. -1.
</event>
<event>
 5   0  0.5170532E-05  0.2596430E+04  0.7818609E-02  0.8369415E-01
       -2   -1    0    0    0  501  0.00000000000E+00  0.00000000000E+00  0.79058759028E+03  0.79058759029E+03  0.25500000920E-02 0. -1.
        2   -1    0    0  501    0  0.00000000000E+00  0.00000000000E+00 -0.21317835090E+04  0.21317835090E+04  0.25500000920E-02 0.  1.
    10030    2    1    2    0    0  0.00000000000E+00  0.00000000000E+00 -0.13411959187E+04  0.29223710993E+04  0.25964295387E+04 0.  0.
        1    1    3    3  502    0  0.21127071771E+03  0.48495708508E+03 -0.20049821112E+04  0.20735891485E+04  0.50400001928E-02 0.  1.
       -1    1    3    3    0  502 -0.21127071771E+03 -0.48495708508E+03  0.66378619251E+03  0.84878195076E+03  0.50400001928E-02 0. -1.
</event>
<event>
 5   0  0.5170532E-05  0.2550019E+04  0.7818609E-02  0.8385380E-01
       -2   -1    0    0    0  501  0.00000000000E+00  0.00000000000E+00  0.10277527532E+04  0.10277527532E+04  0.25500000920E-02 0. -1.
        2   -1    0    0  501    0  0.00000000000E+00  0.00000000000E+00 -0.15817514537E+04  0.15817514537E+04  0.25500000920E-02 0.  1.
    10030    2    1    2    0    0  0.00000000000E+00  0.00000000000E+00 -0.55399870047E+03  0.26095042069E+04  0.25500191461E+04 0.  0.
        1    1    3    3  502    0  0.43764491319E+03 -0.11947582159E+04 -0.36056921497E+03  0.13224940164E+04  0.50400001928E-02 0.  1.
       -1    1    3    3    0  502 -0.43764491319E+03  0.11947582159E+04 -0.19342948551E+03  0.12870101905E+04  0.50400001928E-02 0. -1.
</event>
<event>
 5   0  0.2072710E-05  0.2659892E+04  0.7818609E-02  0.8348137E-01
       -1   -1    0    0    0  501  0.00000000000E+00  0.00000000000E+00  0.12440170727E+04  0.12440170727E+04  0.50400001928E-02 0. -1.
        1   -1    0    0  501    0  0.00000000000E+00  0.00000000000E+00 -0.14218108669E+04  0.14218108669E+04  0.50400001928E-02 0.  1.
    10030    2    1    2    0    0  0.00000000000E+00  0.00000000000E+00 -0.17779379419E+03  0.26658279395E+04  0.26598924734E+04 0.  0.
        2    1    3    3  502    0  0.56094018138E+02 -0.99563609609E+03  0.79302079253E+03  0.12740956605E+04  0.25500000920E-02 0. -1.
       -2    1    3    3    0  502 -0.56094018138E+02  0.99563609609E+03 -0.97081458672E+03  0.13917322790E+04  0.25500000920E-02 0.  1.
</event>
<event>
 5   0  0.4955675E-05  0.2618064E+04  0.7818609E-02  0.8362091E-01
        2   -1    0    0  501    0  0.00000000000E+00  0.00000000000E+00  0.17646838161E+04  0.17646838161E+04  0.25500000920E-02 0.  1.
       -2   -1    0    0    0  501  0.00000000000E+00  0.00000000000E+00 -0.97103240215E+03  0.97103240216E+03  0.25500000920E-02 0. -1.
    10030    2    1    2    0    0  0.00000000000E+00  0.00000000000E+00  0.79365141390E+03  0.27357162182E+04  0.26180642963E+04 0.  0.
        5    1    3    3  502    0 -0.11273096735E+04  0.22798266032E+03  0.10500083072E+04  0.15573511898E+04  0.46999998093E+01 0.  1.
       -5    1    3    3    0  502  0.11273096735E+04 -0.22798266032E+03 -0.25635689329E+03  0.11783650284E+04  0.46999998093E+01 0. -1.
</event>
<event>
 5   0  0.1954502E-05  0.2603177E+04  0.7818609E-02  0.8367123E-01
       -1   -1    0    0    0  501  0.00000000000E+00  0.00000000000E+00  0.16669835546E+04  0.16669835546E+04  0.50400001928E-02 0. -1.
        1   -1    0    0  501    0  0.00000000000E+00  0.00000000000E+00 -0.10162861689E+04  0.10162861689E+04  0.50400001928E-02 0.  1.
    10030    2    1    2    0    0  0.00000000000E+00  0.00000000000E+00  0.65069738563E+03  0.26832697235E+04  0.26031767749E+04 0.  0.
        4    1    3    3  502    0  0.10915751514E+04  0.58222371527E+03 -0.91583593898E+02  0.12405280865E+04  0.12699999809E+01 0. -1.
       -4    1    3    3    0  502 -0.10915751514E+04 -0.58222371527E+03  0.74228097953E+03  0.14427416370E+04  0.12699999809E+01 0.  1.
</event>
<event>
 5   0  0.2163800E-05  0.2378599E+04  0.7818609E-02  0.8447559E-01
       -1   -1    0    0    0  501  0.00000000000E+00  0.00000000000E+00  0.75737626028E+03  0.75737626030E+03  0.50400001928E-02 0.  1.
        1   -1    0    0  501    0  0.00000000000E+00  0.00000000000E+00 -0.18675440601E+04  0.18675440601E+04  0.50400001928E-02 0. -1.
    10030    2    1    2    0    0  0.00000000000E+00  0.00000000000E+00 -0.11101677998E+04  0.26249203204E+04  0.23785991980E+04 0.  0.
        1    1    3    3  502    0  0.32172794197E+03 -0.11341022779E+04 -0.72865030052E+03  0.13858672757E+04  0.50400001928E-02 0. -1.
       -1    1    3    3    0  502 -0.32172794197E+03  0.11341022779E+04 -0.38151749928E+03  0.12390530447E+04  0.50400001928E-02 0.  1.
</event>
<event>
 5   0  0.2163800E-05  0.2598658E+04  0.7818609E-02  0.8368657E-01
       -1   -1    0    0    0  501  0.00000000000E+00  0.00000000000E+00  0.79750859778E+03  0.79750859780E+03  0.50400001928E-02 0. -1.
        1   -1    0    0  501    0  0.00000000000E+00  0.00000000000E+00 -0.21169127577E+04  0.21169127577E+04  0.50400001928E-02 0.  1.
    10030    2    1    2    0    0  0.00000000000E+00  0.00000000000E+00 -0.13194041599E+04  0.29144213555E+04  0.25986582115E+04 0.  0.
        1    1    3    3  502    0 -0.85402471596E+03 -0.85131033717E+03 -0.12024117070E+04  0.17029038196E+04  0.50400001928E-02 0.  1.
       -1    1    3    3    0  502  0.85402471596E+03  0.85131033717E+03 -0.11699245286E+03  0.12115175359E+04  0.50400001928E-02 0. -1.
</event>
<event>
 5   0  0.2072710E-05  0.2530110E+04  0.7818609E-02  0.8392337E-01
       -1   -1    0    0    0  501  0.00000000000E+00  0.00000000000E+00  0.17331691006E+04  0.17331691006E+04  0.50400001928E-02 0.  1.
        1   -1    0    0  501    0  0.00000000000E+00  0.00000000000E+00 -0.92337417522E+03  0.92337417523E+03  0.50400001928E-02 0. -1.
    10030    2    1    2    0    0  0.00000000000E+00  0.00000000000E+00  0.80979492541E+03  0.26565432759E+04  0.25301095540E+04 0.  0.
        2    1    3    3  502    0 -0.13735603580E+03 -0.77183456522E+03 -0.63757596859E+03  0.10104941328E+04  0.25500000920E-02 0. -1.
       -2    1    3    3    0  502  0.13735603580E+03  0.77183456522E+03  0.14473708940E+04  0.16460491431E+04  0.25500000920E-02 0.  1.
</event>
<event>
 5   0  0.2159405E-05  0.2407055E+04  0.7818609E-02  0.8436867E-01
       -1   -1    0    0    0  501  0.00000000000E+00  0.00000000000E+00  0.11057935865E+04  0.11057935865E+04  0.50400001928E-02 0. -1.
        1   -1    0    0  501    0  0.00000000000E+00  0.00000000000E+00 -0.13098996187E+04  0.13098996187E+04  0.50400001928E-02 0.  1.
    10030    2    1    2    0    0  0.00000000000E+00  0.00000000000E+00 -0.20410603221E+03  0.24156932053E+04  0.24070551281E+04 0.  0.
        3    1    3    3  502    0  0.29183788509E+03  0.11499517308E+04 -0.30506650532E+03  0.12249995580E+04  0.10100000352E+00 0. -1.
       -3    1    3    3    0  502 -0.29183788509E+03 -0.11499517308E+04  0.10096047311E+03  0.11906936472E+04  0.10100000352E+00 0.  1.
</event>
<event>
 5   0  0.5182179E-05  0.2328378E+04  0.7818609E-02  0.8466815E-01
        2   -1    0    0  501    0  0.00000000000E+00  0.00000000000E+00  0.22275747345E+04  0.22275747345E+04  0.25500000920E-02 0. -1.
       -2   -1    0    0    0  501  0.00000000000E+00  0.00000000000E+00 -0.60843585994E+03  0.60843585995E+03  0.25500000920E-02 0.  1.
    10030    2    1    2    0    0  0.00000000000E+00  0.00000000000E+00  0.16191388746E+04  0.28360105945E+04  0.23283782761E+04 0.  0.
        3    1    3    3  502    0 -0.60216365205E+03  0.99238555478E+03  0.91787177196E+03  0.14798374077E+04  0.10100000352E+00 0. -1.
       -3    1    3    3    0  502  0.60216365205E+03 -0.99238555478E+03  0.70126710262E+03  0.13561731868E+04  0.10100000352E+00 0.  1.
</event>
<event>
 5   0  0.2159405E-05  0.2521571E+04  0.7818609E-02  0.8395341E-01
        1   -1    0    0  501    0  0.00000000000E+00  0.00000000000E+00  0.17844537195E+04  0.17844537195E+04  0.50400001928E-02 0. -1.
       -1   -1    0    0    0  501  0.00000000000E+00  0.00000000000E+00 -0.89079372185E+03  0.89079372186E+03  0.50400001928E-02 0.  1.
    10030    2    1    2    0    0  0.00000000000E+00  0.00000000000E+00  0.89365999761E+03  0.26752474413E+04  0.25215710740E+04 0.  0.
        3    1    3    3  502    0 -0.32885411923E+03 -0.11871691133E+04  0.73163906416E+03  0.14327635065E+04  0.10100000352E+00 0. -1.
       -3    1    3    3    0  502  0.32885411923E+03  0.11871691133E+04  0.16202093345E+03  0.12424839348E+04  0.10100000352E+00 0.  1.
</event>
<event>
 5   0  0.5049803E-05  0.1659597E+04  0.7818609E-02  0.8784749E-01
        2   -1    0    0  501    0  0.00000000000E+00  0.00000000000E+00  0.16978688070E+04  0.16978688070E+04  0.25500000920E-02 0.  1.
       -2   -1    0    0    0  501  0.00000000000E+00  0.00000000000E+00 -0.40554688884E+03  0.40554688885E+03  0.25500000920E-02 0. -1.
    10030    2    1    2    0    0  0.00000000000E+00  0.00000000000E+00  0.12923219182E+04  0.21034156958E+04  0.16595968334E+04 0.  0.
        4    1    3    3  502    0  0.54353444851E+02  0.70495203116E+03  0.95665961881E+02  0.71348808845E+03  0.12699999809E+01 0. -1.
       -4    1    3    3    0  502 -0.54353444851E+02 -0.70495203116E+03  0.11966559563E+04  0.13899276074E+04  0.12699999809E+01 0.  1.
</event>
<event>
 5   0  0.5182179E-05  0.2587511E+04  0.7818609E-02  0.8372456E-01
       -2   -1    0    0    0  501  0.00000000000E+00  0.00000000000E+00  0.67647446601E+03  0.67647446601E+03  0.25500000920E-02 0.  1.
        2   -1    0    0  501    0  0.00000000000E+00  0.00000000000E+00 -0.24743044375E+04  0.24743044375E+04  0.25500000920E-02 0. -1.
    10030    2    1    2    0    0  0.00000000000E+00  0.00000000000E+00 -0.17978299715E+04  0.31507789035E+04  0.25875113705E+04 0.  0.
        3    1    3    3  502    0 -0.59365478017E+03  0.55663163695E+03  0.32577727888E+03  0.87658178336E+03  0.10100000352E+00 0.  1.
       -3    1    3    3    0  502  0.59365478017E+03 -0.55663163695E+03 -0.21236072504E+04  0.22741971202E+04  0.10100000352E+00 0. -1.
</event>
<event>
 5   0  0.5036452E-05  0.1581754E+04  0.7818609E-02  0.8831836E-01
       -2   -1    0    0    0  501  0.00000000000E+00  0.00000000000E+00  0.46763266939E+03  0.46763266939E+03  0.25500000920E-02 0. -1.
        2   -1    0    0  501    0  0.00000000000E+00  0.00000000000E+00 -0.13375589642E+04  0.13375589642E+04  0.25500000920E-02 0.  1.
    10030    2    1    2    0    0  0.00000000000E+00  0.00000000000E+00 -0.86992629483E+03  0.18051916336E+04  0.15817537974E+04 0.  0.
        2    1    3    3  502    0 -0.69828564565E+02 -0.78188923128E+03 -0.32514414299E+03  0.84967376807E+03  0.25500000920E-02 0. -1.
       -2    1    3    3    0  502  0.69828564565E+02  0.78188923128E+03 -0.54478215184E+03  0.95551786555E+03  0.25500000920E-02 0.  1.
</event>
<event>
 5   0  0.1993815E-05  0.1480458E+04  0.7818609E-02  0.8897553E-01
       -1   -1    0    0    0  501  0.00000000000E+00  0.00000000000E+00  0.57133193037E+03  0.57133193039E+03  0.50400001928E-02 0.  1.
        1   -1    0    0  501    0  0.00000000000E+00  0.00000000000E+00 -0.95905531453E+03  0.95905531455E+03  0.50400001928E-02 0. -1.
    10030    2    1    2    0    0  0.00000000000E+00  0.00000000000E+00 -0.38772338416E+03  0.15303872449E+04  0.14804579348E+04 0.  0.
        5    1    3    3  502    0  0.61790501009E+03 -0.37923615051E+03 -0.34819583096E+03  0.80429415393E+03  0.46999998093E+01 0. -1.
       -5    1    3    3    0  502 -0.61790501009E+03  0.37923615051E+03 -0.39527553208E+02  0.72609309101E+03  0.46999998093E+01 0.  1.
</event>
<event>
 5   0  0.2163800E-05  0.1487535E+04  0.7818609E-02  0.8892785E-01
       -1   -1    0    0    0  501  0.00000000000E+00  0.00000000000E+00  0.39296410522E+03  0.39296410525E+03  0.50400001928E-02 0.  1.
        1   -1    0    0  501    0  0.00000000000E+00  0.00000000000E+00 -0.14077365561E+04  0.14077365562E+04  0.50400001928E-02 0. -1.
    10030    2    1    2    0    0  0.00000000000E+00  0.00000000000E+00 -0.10147724509E+04  0.18007006614E+04  0.14875347878E+04 0.  0.
        1    1    3    3  502    0  0.69795680603E+02 -0.60629734045E+03 -0.10219982694E+04  0.11903564024E+04  0.50400001928E-02 0. -1.
       -1    1    3    3    0  502 -0.69795680603E+02  0.60629734045E+03  0.72258184237E+01  0.61034425904E+03  0.50400001928E-02 0.  1.
</event>
<event>
 5   0  0.5049803E-05  0.2588355E+04  0.7818609E-02  0.8372167E-01
        2   -1    0    0  501    0  0.00000000000E+00  0.00000000000E+00  0.14555954083E+04  0.14555954083E+04  0.25500000920E-02 0.  1.
       -2   -1    0    0    0  501  0.00000000000E+00  0.00000000000E+00 -0.11506600408E+04  0.11506600408E+04  0.25500000920E-02 0. -1.
    10030    2    1    2    0    0  0.00000000000E+00  0.00000000000E+00  0.30493536745E+03  0.26062554491E+04  0.25883550544E+04 0.  0.
        4    1    3    3  502    0 -0.24214868318E+02  0.96562780337E+03 -0.71480799035E+03  0.12016553127E+04  0.12699999809E+01 0. -1.
       -4    1    3    3    0  502  0.24214868318E+02 -0.96562780337E+03  0.10197433578E+04  0.14046001364E+04  0.12699999809E+01 0.  1.
</event>
<event>
 5   0  0.5049803E-05  0.2416628E+04  0.7818609E-02  0.8433304E-01
        2   -1    0    0  501    0  0.00000000000E+00  0.00000000000E+00  0.17677332091E+04  0.17677332091E+04  0.25500000920E-02 0.  1.
       -2   -1    0    0    0  501  0.00000000000E+00  0.00000000000E+00 -0.82592961131E+03  0.82592961131E+03  0.25500000920E-02 0. -1.
    10030    2    1    2    0    0  0.00000000000E+00  0.00000000000E+00  0.94180359774E+03  0.25936628204E+04  0.24166283970E+04 0.  0.
        4    1    3    3  502    0 -0.42834599632E+03 -0.76183194163E+03 -0.42457866001E+03  0.97166704755E+03  0.12699999809E+01 0. -1.
       -4    1    3    3    0  502  0.42834599632E+03  0.76183194163E+03  0.13663822578E+04  0.16219957728E+04  0.12699999809E+01 0.  1.
</event>
<event>
 5   0  0.1698625E-05  0.2337548E+04  0.7818609E-02  0.8463262E-01
        4   -1    0    0  501    0  0.00000000000E+00  0.00000000000E+00  0.89091223978E+03  0.89091314497E+03  0.12699999809E+01 0.  1.
       -4   -1    0    0    0  501  0.00000000000E+00  0.00000000000E+00 -0.15332943988E+04  0.15332949248E+04  0.12699999809E+01 0. -1.
    10030    2    1    2    0    0  0.00000000000E+00  0.00000000000E+00 -0.64238215905E+03  0.24242080698E+04  0.23375478449E+04 0.  0.
        5    1    3    3  502    0  0.62703474904E+03 -0.88738018404E+03  0.12534595501E+03  0.10937777955E+04  0.46999998093E+01 0.  1.
       -5    1    3    3    0  502 -0.62703474904E+03  0.88738018404E+03 -0.76772811406E+03  0.13304302742E+04  0.46999998093E+01 0. -1.
</event>
<event>
 5   0  0.5182179E-05  0.2449474E+04  0.7818609E-02  0.8421210E-01
        2   -1    0    0  501    0  0.00000000000E+00  0.00000000000E+00  0.16262264594E+04  0.16262264594E+04  0.25500000920E-02 0. -1.
       -2   -1    0    0    0  501  0.00000000000E+00  0.00000000000E+00 -0.92236882642E+03  0.92236882642E+03  0.25500000920E-02 0.  1.
    10030    2    1    2    0    0  0.00000000000E+00  0.00000000000E+00  0.70385763296E+03  0.25485952858E+04  0.24494738952E+04 0.  0.
        3    1    3    3  502    0 -0.12760837682E+03 -0.85286747099E+03 -0.55292633005E+03  0.10243995107E+04  0.10100000352E+00 0.  1.
       -3    1    3    3    0  502  0.12760837682E+03  0.85286747099E+03  0.12567839630E+04  0.15241957751E+04  0.10100000352E+00 0. -1.
</event>
<event>
 5   0  0.5049803E-05  0.2597983E+04  0.7818609E-02  0.8368887E-01
        2   -1    0    0  501    0  0.00000000000E+00  0.00000000000E+00  0.14923244667E+04  0.14923244667E+04  0.25500000920E-02 0.  1.
       -2   -1    0    0    0  501  0.00000000000E+00  0.00000000000E+00 -0.11307047982E+04  0.11307047982E+04  0.25500000920E-02 0. -1.
    10030    2    1    2    0    0  0.00000000000E+00  0.00000000000E+00  0.36161966843E+03  0.26230292649E+04  0.25979826289E+04 0.  0.
        4    1    3    3  502    0  0.18270027703E+03 -0.12531242164E+04  0.47286862260E+03  0.13517788429E+04  0.12699999809E+01 0.  1.
       -4    1    3    3    0  502 -0.18270027703E+03  0.12531242164E+04 -0.11124895417E+03  0.12712504220E+04  0.12699999809E+01 0. -1.
</event>
<event>
 5   0  0.1993815E-05  0.2607033E+04  0.7818609E-02  0.8365816E-01
        1   -1    0    0  501    0  0.00000000000E+00  0.00000000000E+00  0.72867465490E+03  0.72867465492E+03  0.50400001928E-02 0. -1.
       -1   -1    0    0    0  501  0.00000000000E+00  0.00000000000E+00 -0.23318435393E+04  0.23318435393E+04  0.50400001928E-02 0.  1.
    10030    2    1    2    0    0  0.00000000000E+00  0.00000000000E+00 -0.16031688844E+04  0.30605181942E+04  0.26070330158E+04 0.  0.
        5    1    3    3  502    0  0.29838632184E+03  0.10889640688E+04 -0.36934852692E+02  0.11297182895E+04  0.46999998093E+01 0. -1.
       -5    1    3    3    0  502 -0.29838632184E+03 -0.10889640688E+04 -0.15662340317E+04  0.19307999048E+04  0.46999998093E+01 0.  1.
</event>
<event>
 5   0  0.2072710E-05  0.2577783E+04  0.7818609E-02  0.8375787E-01
       -1   -1    0    0    0  501  0.00000000000E+00  0.00000000000E+00  0.88448178735E+03  0.88448178737E+03  0.50400001928E-02 0. -1.
        1   -1    0    0  501    0  0.00000000000E+00  0.00000000000E+00 -0.18782080989E+04  0.18782080989E+04  0.50400001928E-02 0.  1.
    10030    2    1    2    0    0  0.00000000000E+00  0.00000000000E+00 -0.99372631150E+03  0.27626898862E+04  0.25777826567E+04 0.  0.
        2    1    3    3  502    0  0.98992933813E+03  0.42315344104E+03  0.26264715756E+03  0.11081527235E+04  0.25500000920E-02 0. -1.
       -2    1    3    3    0  502 -0.98992933813E+03 -0.42315344104E+03 -0.12563734691E+04  0.16545371628E+04  0.25500000920E-02 0.  1.
</event>
<event>
 5   0  0.5049803E-05  0.2636318E+04  0.7818609E-02  0.8355968E-01
       -2   -1    0    0    0  501  0.00000000000E+00  0.00000000000E+00  0.12292065379E+04  0.12292065379E+04  0.25500000920E-02 0.  1.
        2   -1    0    0  501    0  0.00000000000E+00  0.00000000000E+00 -0.14135485029E+04  0.14135485029E+04  0.25500000920E-02 0. -1.
    10030    2    1    2    0    0  0.00000000000E+00  0.00000000000E+00 -0.18434196497E+03  0.26427550407E+04  0.26363179333E+04 0.  0.
        4    1    3    3  502    0 -0.58604946509E+03  0.11658853071E+04  0.94829200428E+02  0.13083335641E+04  0.12699999809E+01 0.  1.
       -4    1    3    3    0  502  0.58604946509E+03 -0.11658853071E+04 -0.27917116540E+03  0.13344214766E+04  0.12699999809E+01 0. -1.
</event>
<event>
 5   0  0.5182179E-05  0.2595337E+04  0.7818609E-02  0.8369787E-01
       -2   -1    0    0    0  501  0.00000000000E+00  0.00000000000E+00  0.10510466269E+04  0.10510466269E+04  0.25500000920E-02 0.  1.
        2   -1    0    0  501    0  0.00000000000E+00  0.00000000000E+00 -0.16021586203E+04  0.16021586203E+04  0.25500000920E-02 0. -1.
    10030    2    1    2    0    0  0.00000000000E+00  0.00000000000E+00 -0.55111199343E+03  0.26532052472E+04  0.25953369058E+04 0.  0.
        3    1    3    3  502    0 -0.39335810216E+03  0.19932249276E+03  0.97210021054E+03  0.10674450254E+04  0.10100000352E+00 0.  1.
       -3    1    3    3    0  502  0.39335810216E+03 -0.19932249276E+03 -0.15232122040E+04  0.15857602218E+04  0.10100000352E+00 0. -1.
</event>
<event>
 5   0  0.1698625E-05  0.2638934E+04  0.7818609E-02  0.8355095E-01
        3   -1    0    0  501    0  0.00000000000E+00  0.00000000000E+00  0.33521200978E+04  0.33521200993E+04  0.10100000352E+00 0. -1.
       -3   -1    0    0    0  501  0.00000000000E+00  0.00000000000E+00 -0.51937061702E+03  0.51937062684E+03  0.10100000352E+00 0.  1.
    10030    2    1    2    0    0  0.00000000000E+00  0.00000000000E+00  0.28327494808E+04  0.38714907262E+04  0.26389336524E+04 0.  0.
        5    1    3    3  502    0 -0.12593675370E+04  0.36374052390E+03  0.11955490744E+04  0.17741683802E+04  0.46999998093E+01 0.  1.
       -5    1    3    3    0  502  0.12593675370E+04 -0.36374052390E+03  0.16372004064E+04  0.20973223460E+04  0.46999998093E+01 0. -1.
</event>
<event>
 5   0  0.5036452E-05  0.2572242E+04  0.7818609E-02  0.8377692E-01
        2   -1    0    0  501    0  0.00000000000E+00  0.00000000000E+00  0.17809287228E+04  0.17809287228E+04  0.25500000920E-02 0. -1.
       -2   -1    0    0    0  501  0.00000000000E+00  0.00000000000E+00 -0.92878890321E+03  0.92878890321E+03  0.25500000920E-02 0.  1.
    10030    2    1    2    0    0  0.00000000000E+00  0.00000000000E+00  0.85213981961E+03  0.27097176260E+04  0.25722416956E+04 0.  0.
        2    1    3    3  502    0  0.49238385934E+03 -0.10321943342E+04  0.10459401312E+04  0.15497928141E+04  0.25500000920E-02 0. -1.
       -2    1    3    3    0  502 -0.49238385934E+03  0.10321943342E+04 -0.19380031157E+03  0.11599248119E+04  0.25500000920E-02 0.  1.
</event>
<event>
 5   0  0.5049803E-05  0.2615089E+04  0.7818609E-02  0.8363094E-01
       -2   -1    0    0    0  501  0.00000000000E+00  0.00000000000E+00  0.85344261519E+03  0.85344261519E+03  0.25500000920E-02 0.  1.
        2   -1    0    0  501    0  0.00000000000E+00  0.00000000000E+00 -0.20032655274E+04  0.20032655274E+04  0.25500000920E-02 0. -1.
    10030    2    1    2    0    0  0.00000000000E+00  0.00000000000E+00 -0.11498229123E+04  0.28567081426E+04  0.26150886568E+04 0.  0.
        4    1    3    3  502    0  0.67307486477E+03 -0.11202006605E+04 -0.52867768545E+03  0.14097450129E+04  0.12699999809E+01 0. -1.
       -4    1    3    3    0  502 -0.67307486477E+03  0.11202006605E+04 -0.62114522681E+03  0.14469631298E+04  0.12699999809E+01 0.  1.
</event>
<event>
 5   0  0.2163800E-05  0.2544181E+04  0.7818609E-02  0.8387413E-01
       -1   -1    0    0    0  501  0.00000000000E+00  0.00000000000E+00  0.10774423420E+04  0.10774423420E+04  0.50400001928E-02 0.  1.
        1   -1    0    0  501    0  0.00000000000E+00  0.00000000000E+00 -0.15019030789E+04  0.15019030789E+04  0.50400001928E-02 0. -1.
    10030    2    1    2    0    0  0.00000000000E+00  0.00000000000E+00 -0.42446073688E+03  0.25793454209E+04  0.25441807882E+04 0.  0.
        1    1    3    3  502    0 -0.11650825417E+04  0.19031009540E+03  0.26821700997E+03  0.12106096091E+04  0.50400001928E-02 0.  1.
       -1    1    3    3    0  502  0.11650825417E+04 -0.19031009540E+03 -0.69267774686E+03  0.13687358117E+04  0.50400001928E-02 0. -1.
</event>
<event>
 5   0  0.5036452E-05  0.2588464E+04  0.7818609E-02  0.8372130E-01
       -2   -1    0    0    0  501  0.00000000000E+00  0.00000000000E+00  0.12693869146E+04  0.12693869146E+04  0.25500000920E-02 0.  1.
        2   -1    0    0  501    0  0.00000000000E+00  0.00000000000E+00 -0.13195638244E+04  0.13195638244E+04  0.25500000920E-02 0. -1.
    10030    2    1    2    0    0  0.00000000000E+00  0.00000000000E+00 -0.50176909822E+02  0.25889507390E+04  0.25884644495E+04 0.  0.
        2    1    3    3  502    0 -0.77078165090E+03  0.82269941204E+03  0.61071829577E+03  0.12821526870E+04  0.25500000920E-02 0.  1.
       -2    1    3    3    0  502  0.77078165090E+03 -0.82269941204E+03 -0.66089520559E+03  0.13067980520E+04  0.25500000920E-02 0. -1.
</event>
<event>
 5   0  0.1993815E-05  0.1611209E+04  0.7818609E-02  0.8813692E-01
       -1   -1    0    0    0  501  0.00000000000E+00  0.00000000000E+00  0.50019453742E+03  0.50019453745E+03  0.50400001928E-02 0. -1.
        1   -1    0    0  501    0  0.00000000000E+00  0.00000000000E+00 -0.12974919477E+04  0.12974919477E+04  0.50400001928E-02 0.  1.
    10030    2    1    2    0    0  0.00000000000E+00  0.00000000000E+00 -0.79729741024E+03  0.17976864851E+04  0.16112087197E+04 0.  0.
        5    1    3    3  502    0  0.80246416033E+03  0.52706228310E+02 -0.34572908925E+03  0.87537270249E+03  0.46999998093E+01 0. -1.
       -5    1    3    3    0  502 -0.80246416033E+03 -0.52706228310E+02 -0.45156832099E+03  0.92231378264E+03  0.46999998093E+01 0.  1.
</event>
<event>
 5   0  0.2159405E-05  0.1960399E+04  0.7818609E-02  0.8625362E-01
       -1   -1    0    0    0  501  0.00000000000E+00  0.00000000000E+00  0.57774589654E+03  0.57774589657E+03  0.50400001928E-02 0. -1.
        1   -1    0    0  501    0  0.00000000000E+00  0.00000000000E+00 -0.16629999367E+04  0.16629999367E+04  0.50400001928E-02 0.  1.
    10030    2    1    2    0    0  0.00000000000E+00  0.00000000000E+00 -0.10852540402E+04  0.22407458333E+04  0.19603993363E+04 0.  0.
        3    1    3    3  502    0  0.34167179599E+03 -0.72081932456E+03  0.10845570311E+03  0.80503587782E+03  0.10100000352E+00 0. -1.
       -3    1    3    3    0  502 -0.34167179599E+03  0.72081932456E+03 -0.11937097433E+04  0.14357099555E+04  0.10100000352E+00 0.  1.
</event>
<event>
 5   0  0.4955675E-05  0.2611356E+04  0.7818609E-02  0.8364354E-01
        2   -1    0    0  501    0  0.00000000000E+00  0.00000000000E+00  0.10088876223E+04  0.10088876223E+04  0.25500000920E-02 0. -1.
       -2   -1    0    0    0  501  0.00000000000E+00  0.00000000000E+00 -0.16897764808E+04  0.16897764808E+04  0.25500000920E-02 0.  1.
    10030    2    1    2    0    0  0.00000000000E+00  0.00000000000E+00 -0.68088885850E+03  0.26986641032E+04  0.26113556449E+04 0.  0.
        5    1    3    3  502    0  0.93992748762E+02  0.36294560772E+03  0.95205424699E+03  0.10232270179E+04  0.46999998093E+01 0. -1.
       -5    1    3    3    0  502 -0.93992748762E+02 -0.36294560772E+03 -0.16329431055E+04  0.16754370853E+04  0.46999998093E+01 0.  1.
</event>
<event>
 5   0  0.1993815E-05  0.2628104E+04  0.7818609E-02  0.8358717E-01
       -1   -1    0    0    0  501  0.00000000000E+00  0.00000000000E+00  0.12783594909E+04  0.12783594909E+04  0.50400001928E-02 0.  1.
        1   -1    0    0  501    0  0.00000000000E+00  0.00000000000E+00 -0.13507407471E+04  0.13507407471E+04  0.50400001928E-02 0. -1.
    10030    2    1    2    0    0  0.00000000000E+00  0.00000000000E+00 -0.72381256198E+02  0.26291002380E+04  0.26281036918E+04 0.  0.
        5    1    3    3  502    0  0.52432667515E+00 -0.84083183885E+02  0.12756570341E+04  0.12784338917E+04  0.46999998093E+01 0.  1.
       -5    1    3    3    0  502 -0.52432667515E+00  0.84083183885E+02 -0.13480382903E+04  0.13506663463E+04  0.46999998093E+01 0. -1.
</event>
<event>
 5   0  0.5182179E-05  0.2494046E+04  0.7818609E-02  0.8405110E-01
       -2   -1    0    0    0  501  0.00000000000E+00  0.00000000000E+00  0.75880188864E+03  0.75880188865E+03  0.25500000920E-02 0. -1.
        2   -1    0    0  501    0  0.00000000000E+00  0.00000000000E+00 -0.20493707053E+04  0.20493707053E+04  0.25500000920E-02 0.  1.
    10030    2    1    2    0    0  0.00000000000E+00  0.00000000000E+00 -0.12905688166E+04  0.28081725939E+04  0.24940459993E+04 0.  0.
        3    1    3    3  502    0  0.66335537992E+02 -0.66452323100E+03 -0.18310525032E+04  0.19490368923E+04  0.10100000352E+00 0.  1.
       -3    1    3    3    0  502 -0.66335537992E+02  0.66452323100E+03  0.54048368653E+03  0.85913570159E+03  0.10100000352E+00 0. -1.
</event>
<event>
 5   0  0.2163800E-05  0.1498060E+04  0.7818609E-02  0.8885744E-01
       -1   -1    0    0    0  501  0.00000000000E+00  0.00000000000E+00  0.98542526512E+03  0.98542526513E+03  0.50400001928E-02 0. -1.
        1   -1    0    0  501    0  0.00000000000E+00  0.00000000000E+00 -0.56934422622E+03  0.56934422624E+03  0.50400001928E-02 0.  1.
    10030    2    1    2    0    0  0.00000000000E+00  0.00000000000E+00  0.41608103891E+03  0.15547694914E+04  0.14980603260E+04 0.  0.
        1    1    3    3  502    0  0.71408242077E+03 -0.17204440288E+03  0.55743626413E+02  0.73662767537E+03  0.50400001928E-02 0.  1.
       -1    1    3    3    0  502 -0.71408242077E+03  0.17204440288E+03  0.36033741249E+03  0.81814181600E+03  0.50400001928E-02 0. -1.
</event>
<event>
 5   0  0.1993815E-05  0.2297486E+04  0.7818609E-02  0.8478913E-01
       -1   -1    0    0    0  501  0.00000000000E+00  0.00000000000E+00  0.11073505195E+04  0.11073505195E+04  0.50400001928E-02 0.  1.
        1   -1    0    0  501    0  0.00000000000E+00  0.00000000000E+00 -0.11916830233E+04  0.11916830233E+04  0.50400001928E-02 0. -1.
    10030    2    1    2    0    0  0.00000000000E+00  0.00000000000E+00 -0.84332503798E+02  0.22990335428E+04  0.22974862915E+04 0.  0.
        5    1    3    3  502    0  0.25360273727E+03 -0.62322964489E+03  0.88951349938E+03  0.11153411560E+04  0.46999998093E+01 0.  1.
       -5    1    3    3    0  502 -0.25360273727E+03  0.62322964489E+03 -0.97384600318E+03  0.11836923868E+04  0.46999998093E+01 0. -1.
</event>
<event>
 5   0  0.5182179E-05  0.2657474E+04  0.7818609E-02  0.8348937E-01
        2   -1    0    0  501    0  0.00000000000E+00  0.00000000000E+00  0.78884308242E+03  0.78884308243E+03  0.25500000920E-02 0. -1.
       -2   -1    0    0    0  501  0.00000000000E+00  0.00000000000E+00 -0.22381401612E+04  0.22381401612E+04  0.25500000920E-02 0.  1.
    10030    2    1    2    0    0  0.00000000000E+00  0.00000000000E+00 -0.14492970788E+04  0.30269832436E+04  0.26574735247E+04 0.  0.
        3    1    3    3  502    0  0.57114669400E+03 -0.11790348022E+04 -0.97732611712E+03  0.16344717680E+04  0.10100000352E+00 0. -1.
       -3    1    3    3    0  502 -0.57114669400E+03  0.11790348022E+04 -0.47197096167E+03  0.13925114756E+04  0.10100000352E+00 0.  1.
</event>
<event>
 5   0  0.4955675E-05  0.2634736E+04  0.7818609E-02  0.8356497E-01
       -2   -1    0    0    0  501  0.00000000000E+00  0.00000000000E+00  0.17314175900E+04  0.17314175900E+04  0.25500000920E-02 0.  1.
        2   -1    0    0  501    0  0.00000000000E+00  0.00000000000E+00 -0.10023337403E+04  0.10023337403E+04  0.25500000920E-02 0. -1.
    10030    2    1    2    0    0  0.00000000000E+00  0.00000000000E+00  0.72908384971E+03  0.27337513302E+04  0.26347358645E+04 0.  0.
        5    1    3    3  502    0 -0.69062818031E+03 -0.99145878214E+03  0.90912693545E+03  0.15121149675E+04  0.46999998093E+01 0.  1.
       -5    1    3    3    0  502  0.69062818031E+03  0.99145878214E+03 -0.18004308574E+03  0.12216363628E+04  0.46999998093E+01 0. -1.
</event>
<event>
 5   0  0.4955675E-05  0.2562000E+04  0.7818609E-02  0.8381225E-01
        2   -1    0    0  501    0  0.00000000000E+00  0.00000000000E+00  0.15620605600E+04  0.15620605600E+04  0.25500000920E-02 0.  1.
       -2   -1    0    0    0  501  0.00000000000E+00  0.00000000000E+00 -0.10505103768E+04  0.10505103768E+04  0.25500000920E-02 0. -1.
    10030    2    1    2    0    0  0.00000000000E+00  0.00000000000E+00  0.51155018317E+03  0.26125709368E+04  0.25619998654E+04 0.  0.
        5    1    3    3  502    0 -0.11279845203E+04 -0.60397991387E+03  0.19293134509E+03  0.12939804513E+04  0.46999998093E+01 0. -1.
       -5    1    3    3    0  502  0.11279845203E+04  0.60397991387E+03  0.31861883808E+03  0.13185904855E+04  0.46999998093E+01 0.  1.
</event>
<event>
 5   0  0.1954502E-05  0.2621997E+04  0.7818609E-02  0.8360767E-01
       -1   -1    0    0    0  501  0.00000000000E+00  0.00000000000E+00  0.10218278292E+04  0.10218278292E+04  0.50400001928E-02 0. -1.
        1   -1    0    0  501    0  0.00000000000E+00  0.00000000000E+00 -0.16820028087E+04  0.16820028087E+04  0.50400001928E-02 0.  1.
    10030    2    1    2    0    0  0.00000000000E+00  0.00000000000E+00 -0.66017497946E+03  0.27038306379E+04  0.26219971615E+04 0.  0.
        4    1    3    3  502    0  0.22575705549E+03  0.12578548492E+04 -0.63170655349E+03  0.14255594875E+04  0.12699999809E+01 0.  1.
       -4    1    3    3    0  502 -0.22575705549E+03 -0.12578548492E+04 -0.28468425971E+02  0.12782711504E+04  0.12699999809E+01 0. -1.
</event>
<event>
 5   0  0.1698625E-05  0.2541533E+04  0.7818609E-02  0.8388337E-01
       -3   -1    0    0    0  501  0.00000000000E+00  0.00000000000E+00  0.15741181566E+04  0.15741181598E+04  0.10100000352E+00 0.  1.
        3   -1    0    0  501    0  0.00000000000E+00  0.00000000000E+00 -0.10258742768E+04  0.10258742817E+04  0.10100000352E+00 0. -1.
    10030    2    1    2    0    0  0.00000000000E+00  0.00000000000E+00  0.54824387984E+03  0.25999924416E+04  0.25415328730E+04 0.  0.
        1    1    3    3  502    0  0.49493565907E+03  0.62778484339E+03 -0.73641124264E+03  0.10869115118E+04  0.50400001928E-02 0. -1.
       -1    1    3    3    0  502 -0.49493565907E+03 -0.62778484339E+03  0.12846551225E+04  0.15130809297E+04  0.50400001928E-02 0.  1.
</event>
<event>
 5   0  0.1954502E-05  0.2615599E+04  0.7818609E-02  0.8362922E-01
        1   -1    0    0  501    0  0.00000000000E+00  0.00000000000E+00  0.18603647741E+04  0.18603647741E+04  0.50400001928E-02 0.  1.
       -1   -1    0    0    0  501  0.00000000000E+00  0.00000000000E+00 -0.91935687161E+03  0.91935687162E+03  0.50400001928E-02 0. -1.
    10030    2    1    2    0    0  0.00000000000E+00  0.00000000000E+00  0.94100790252E+03  0.27797216458E+04  0.26155986992E+04 0.  0.
        4    1    3    3  502    0  0.76929324544E+03 -0.77979093739E+03 -0.28878564276E+03  0.11328215940E+04  0.12699999809E+01 0. -1.
       -4    1    3    3    0  502 -0.76929324544E+03  0.77979093739E+03  0.12297935453E+04  0.16469000517E+04  0.12699999809E+01 0.  1.
</event>
<event>
 5   0  0.2159405E-05  0.2553748E+04  0.7818609E-02  0.8384084E-01
       -1   -1    0    0    0  501  0.00000000000E+00  0.00000000000E+00  0.11449628014E+04  0.11449628014E+04  0.50400001928E-02 0. -1.
        1   -1    0    0  501    0  0.00000000000E+00  0.00000000000E+00 -0.14239829007E+04  0.14239829008E+04  0.50400001928E-02 0.  1.
    10030    2    1    2    0    0  0.00000000000E+00  0.00000000000E+00 -0.27902009936E+03  0.25689457022E+04  0.25537481874E+04 0.  0.
        3    1    3    3  502    0 -0.57219473687E+02  0.33553384156E+03  0.10984844656E+04  0.11500109384E+04  0.10100000352E+00 0. -1.
       -3    1    3    3    0  502  0.57219473687E+02 -0.33553384156E+03 -0.13775045650E+04  0.14189347638E+04  0.10100000352E+00 0.  1.
</event>
<event>
 5   0  0.2163800E-05  0.2441931E+04  0.7818609E-02  0.8423970E-01
       -1   -1    0    0    0  501  0.00000000000E+00  0.00000000000E+00  0.77974041643E+03  0.77974041644E+03  0.50400001928E-02 0.  1.
        1   -1    0    0  501    0  0.00000000000E+00  0.00000000000E+00 -0.19118635006E+04  0.19118635006E+04  0.50400001928E-02 0. -1.
    10030    2    1    2    0    0  0.00000000000E+00  0.00000000000E+00 -0.11321230842E+04  0.26916039171E+04  0.24419314013E+04 0.  0.
        1    1    3    3  502    0  0.67072956000E+03 -0.99517340327E+03 -0.81378210822E+03  0.14499964017E+04  0.50400001928E-02 0. -1.
       -1    1    3    3    0  502 -0.67072956000E+03  0.99517340327E+03 -0.31834097597E+03  0.12416075154E+04  0.50400001928E-02 0.  1.
</event>
<event>
 5   0  0.4955675E-05  0.2558764E+04  0.7818609E-02  0.8382344E-01
        2   -1    0    0  501    0  0.00000000000E+00  0.00000000000E+00  0.10893148935E+04  0.10893148935E+04  0.25500000920E-02 0. -1.
       -2   -1    0    0    0  501  0.00000000000E+00  0.00000000000E+00 -0.15026130889E+04  0.15026130889E+04  0.25500000920E-02 0.  1.
    10030    2    1    2    0    0  0.00000000000E+00  0.00000000000E+00 -0.41329819544E+03  0.25919279825E+04  0.25587644026E+04 0.  0.
        5    1    3    3  502    0 -0.56917673192E+03 -0.10382344061E+04  0.28430143660E+03  0.12176790345E+04  0.46999998093E+01 0.  1.
       -5    1    3    3    0  502  0.56917673192E+03  0.10382344061E+04 -0.69759963204E+03  0.13742489479E+04  0.46999998093E+01 0. -1.
</event>
<event>
 5   0  0.4955675E-05  0.2553639E+04  0.7818609E-02  0.8384122E-01
        2   -1    0    0  501    0  0.00000000000E+00  0.00000000000E+00  0.14725205244E+04  0.14725205244E+04  0.25500000920E-02 0. -1.
       -2   -1    0    0    0  501  0.00000000000E+00  0.00000000000E+00 -0.11071279312E+04  0.11071279312E+04  0.25500000920E-02 0.  1.
    10030    2    1    2    0    0  0.00000000000E+00  0.00000000000E+00  0.36539259319E+03  0.25796484556E+04  0.25536394435E+04 0.  0.
        5    1    3    3  502    0  0.52996369734E+02  0.36444397834E+03  0.14176939220E+04  0.14647546467E+04  0.46999998093E+01 0. -1.
       -5    1    3    3    0  502 -0.52996369734E+02 -0.36444397834E+03 -0.10523013288E+04  0.11148938089E+04  0.46999998093E+01 0.  1.
</event>
<event>
 5   0  0.1698625E-05  0.1463182E+04  0.7818609E-02  0.8909313E-01
       -4   -1    0    0    0  501  0.00000000000E+00  0.00000000000E+00  0.52238658278E+03  0.52238812656E+03  0.12699999809E+01 0.  1.
        4   -1    0    0  501    0  0.00000000000E+00  0.00000000000E+00 -0.10245735161E+04  0.10245743032E+04  0.12699999809E+01 0. -1.
    10030    2    1    2    0    0  0.00000000000E+00  0.00000000000E+00 -0.50218693327E+03  0.15469624297E+04  0.14631818216E+04 0.  0.
        4    1    3    3  502    0  0.18380427641E+03 -0.66418903714E+03 -0.51069863066E+03  0.85775625521E+03  0.12699999809E+01 0. -1.
       -4    1    3    3    0  502 -0.18380427641E+03  0.66418903714E+03  0.85116973896E+01  0.68920617451E+03  0.12699999809E+01 0.  1.
</event>
<event>
 5   0  0.2163800E-05  0.2554826E+04  0.7818609E-02  0.8383710E-01
       -1   -1    0    0    0  501  0.00000000000E+00  0.00000000000E+00  0.10460732218E+04  0.10460732218E+04  0.50400001928E-02 0. -1.
        1   -1    0    0  501    0  0.00000000000E+00  0.00000000000E+00 -0.15599137862E+04  0.15599137862E+04  0.50400001928E-02 0.  1.
    10030    2    1    2    0    0  0.00000000000E+00  0.00000000000E+00 -0.51384056444E+03  0.26059870080E+04  0.25548260528E+04 0.  0.
        1    1    3    3  502    0 -0.95464158523E+03  0.18154900439E+03 -0.11026703311E+04  0.14697559173E+04  0.50400001928E-02 0.  1.
       -1    1    3    3    0  502  0.95464158523E+03 -0.18154900439E+03  0.58882976669E+03  0.11362310907E+04  0.50400001928E-02 0. -1.
</event>
<event>
 5   0  0.5170532E-05  0.2606414E+04  0.7818609E-02  0.8366026E-01
       -2   -1    0    0    0  501  0.00000000000E+00  0.00000000000E+00  0.77414361408E+03  0.77414361408E+03  0.25500000920E-02 0.  1.
        2   -1    0    0  501    0  0.00000000000E+00  0.00000000000E+00 -0.21938413904E+04  0.21938413904E+04  0.25500000920E-02 0. -1.
    10030    2    1    2    0    0  0.00000000000E+00  0.00000000000E+00 -0.14196977764E+04  0.29679850045E+04  0.26064138602E+04 0.  0.
        1    1    3    3  502    0 -0.12700822646E+04  0.12870408492E+03 -0.41143680647E+03  0.13412508886E+04  0.50400001928E-02 0.  1.
       -1    1    3    3    0  502  0.12700822646E+04 -0.12870408492E+03 -0.10082609699E+04  0.16267341159E+04  0.50400001928E-02 0. -1.
</event>
<event>
 5   0  0.5170532E-05  0.2565826E+04  0.7818609E-02  0.8379903E-01
        2   -1    0    0  501    0  0.00000000000E+00  0.00000000000E+00  0.19445954939E+04  0.19445954939E+04  0.25500000920E-02 0. -1.
       -2   -1    0    0    0  501  0.00000000000E+00  0.00000000000E+00 -0.84637921926E+03  0.84637921926E+03  0.25500000920E-02 0.  1.
    10030    2    1    2    0    0  0.00000000000E+00  0.00000000000E+00  0.10982162746E+04  0.27909747132E+04  0.25658255716E+04 0.  0.
        1    1    3    3  502    0  0.22102826647E+03  0.81550131619E+03  0.15992055335E+04  0.18086885386E+04  0.50400001928E-02 0. -1.
       -1    1    3    3    0  502 -0.22102826647E+03 -0.81550131619E+03 -0.50098925883E+03  0.98228617458E+03  0.50400001928E-02 0.  1.
</event>
<event>
 5   0  0.2159405E-05  0.2574751E+04  0.7818609E-02  0.8376828E-01
       -1   -1    0    0    0  501  0.00000000000E+00  0.00000000000E+00  0.12177155209E+04  0.12177155209E+04  0.50400001928E-02 0. -1.
        1   -1    0    0  501    0  0.00000000000E+00  0.00000000000E+00 -0.13610208346E+04  0.13610208346E+04  0.50400001928E-02 0.  1.
    10030    2    1    2    0    0  0.00000000000E+00  0.00000000000E+00 -0.14330531370E+03  0.25787363556E+04  0.25747514013E+04 0.  0.
        3    1    3    3  502    0 -0.54938215123E+03 -0.55277498551E+02  0.10931003171E+04  0.12246406263E+04  0.10100000352E+00 0. -1.
       -3    1    3    3    0  502  0.54938215123E+03  0.55277498551E+02 -0.12364056308E+04  0.13540957293E+04  0.10100000352E+00 0.  1.
</event>
<event>
 5   0  0.5049803E-05  0.2590317E+04  0.7818609E-02  0.8371498E-01
       -2   -1    0    0    0  501  0.00000000000E+00  0.00000000000E+00  0.92276075143E+03  0.92276075143E+03  0.25500000920E-02 0.  1.
        2   -1    0    0  501    0  0.00000000000E+00  0.00000000000E+00 -0.18178445176E+04  0.18178445176E+04  0.25500000920E-02 0. -1.
    10030    2    1    2    0    0  0.00000000000E+00  0.00000000000E+00 -0.89508376614E+03  0.27406052690E+04  0.25903170254E+04 0.  0.
        4    1    3    3  502    0 -0.10397769113E+03  0.94606762935E+03 -0.13769012203E+04  0.16738321012E+04  0.12699999809E+01 0. -1.
       -4    1    3    3    0  502  0.10397769113E+03 -0.94606762935E+03  0.48181745416E+03  0.10667731678E+04  0.12699999809E+01 0.  1.
</event>
<event>
 5   0  0.2072710E-05  0.2624444E+04  0.7818609E-02  0.8359945E-01
       -1   -1    0    0    0  501  0.00000000000E+00  0.00000000000E+00  0.10426713647E+04  0.10426713647E+04  0.50400001928E-02 0. -1.
        1   -1    0    0  501    0  0.00000000000E+00  0.00000000000E+00 -0.16514563156E+04  0.16514563156E+04  0.50400001928E-02 0.  1.
    10030    2    1    2    0    0  0.00000000000E+00  0.00000000000E+00 -0.60878495086E+03  0.26941276803E+04  0.26244437204E+04 0.  0.
        2    1    3    3  502    0  0.12246896174E+04  0.11980553956E+03  0.16345868862E+03  0.12413447423E+04  0.25500000920E-02 0. -1.
       -2    1    3    3    0  502 -0.12246896174E+04 -0.11980553956E+03 -0.77224363948E+03  0.14527829380E+04  0.25500000920E-02 0.  1.
</event>
<event>
 5   0  0.5036452E-05  0.2582303E+04  0.7818609E-02  0.8374238E-01
       -2   -1    0    0    0  501  0.00000000000E+00  0.00000000000E+00  0.81818857882E+03  0.81818857883E+03  0.25500000920E-02 0. -1.
        2   -1    0    0  501    0  0.00000000000E+00  0.00000000000E+00 -0.20375154109E+04  0.20375154109E+04  0.25500000920E-02 0.  1.
    10030    2    1    2    0    0  0.00000000000E+00  0.00000000000E+00 -0.12193268320E+04  0.28557039897E+04  0.25823027230E+04 0.  0.
        2    1    3    3  502    0 -0.10028139537E+04  0.77676218425E+03 -0.34315781905E+03  0.13140595897E+04  0.25500000920E-02 0.  1.
       -2    1    3    3    0  502  0.10028139537E+04 -0.77676218425E+03 -0.87616901298E+03  0.15416444000E+04  0.25500000920E-02 0. -1.
</event>
<event>
 5   0  0.2163800E-05  0.2610707E+04  0.7818609E-02  0.8364574E-01
       -1   -1    0    0    0  501  0.00000000000E+00  0.00000000000E+00  0.95046888514E+03  0.95046888516E+03  0.50400001928E-02 0. -1.
        1   -1    0    0  501    0  0.00000000000E+00  0.00000000000E+00 -0.17927437289E+04  0.17927437289E+04  0.50400001928E-02 0.  1.
    10030    2    1    2    0    0  0.00000000000E+00  0.00000000000E+00 -0.84227484376E+03  0.27432126141E+04  0.26107065200E+04 0.  0.
        1    1    3    3  502    0 -0.47375634206E+03  0.10376391554E+03 -0.16945617834E+04  0.17625979858E+04  0.50400001928E-02 0.  1.
       -1    1    3    3    0  502  0.47375634206E+03 -0.10376391554E+03  0.85228693959E+03  0.98061462830E+03  0.50400001928E-02 0. -1.
</event>
<event>
 5   0  0.5036452E-05  0.2625683E+04  0.7818609E-02  0.8359529E-01
        2   -1    0    0  501    0  0.00000000000E+00  0.00000000000E+00  0.19610986073E+04  0.19610986073E+04  0.25500000920E-02 0.  1.
       -2   -1    0    0    0  501  0.00000000000E+00  0.00000000000E+00 -0.87887135476E+03  0.87887135477E+03  0.25500000920E-02 0. -1.
    10030    2    1    2    0    0  0.00000000000E+00  0.00000000000E+00  0.10822272525E+04  0.28399699620E+04  0.26256834461E+04 0.  0.
        2    1    3    3  502    0  0.11728380078E+04 -0.58072464120E+03  0.42890044670E+03  0.13772239087E+04  0.25500000920E-02 0.  1.
       -2    1    3    3    0  502 -0.11728380078E+04  0.58072464120E+03  0.65332680579E+03  0.14627460533E+04  0.25500000920E-02 0. -1.
</event>
<event>
 5   0  0.4955675E-05  0.2691957E+04  0.7818609E-02  0.8337619E-01
        2   -1    0    0  501    0  0.00000000000E+00  0.00000000000E+00  0.29271175597E+04  0.29271175597E+04  0.25500000920E-02 0. -1.
       -2   -1    0    0    0  501  0.00000000000E+00  0.00000000000E+00 -0.61892230221E+03  0.61892230222E+03  0.25500000920E-02 0.  1.
    10030    2    1    2    0    0  0.00000000000E+00  0.00000000000E+00  0.23081952575E+04  0.35460398619E+04  0.26919571608E+04 0.  0.
        5    1    3    3  502    0  0.14342567841E+03 -0.94541626933E+03 -0.93668021152E+02  0.96082185432E+03  0.46999998093E+01 0.  1.
       -5    1    3    3    0  502 -0.14342567841E+03  0.94541626933E+03  0.24018632786E+04  0.25852180076E+04  0.46999998093E+01 0. -1.
</event>
<event>
 5   0  0.4955675E-05  0.2672171E+04  0.7818609E-02  0.8344091E-01
        2   -1    0    0  501    0  0.00000000000E+00  0.00000000000E+00  0.16275549256E+04  0.16275549256E+04  0.25500000920E-02 0. -1.
       -2   -1    0    0    0  501  0.00000000000E+00  0.00000000000E+00 -0.10968140298E+04  0.10968140298E+04  0.25500000920E-02 0.  1.
    10030    2    1    2    0    0  0.00000000000E+00  0.00000000000E+00  0.53074089582E+03  0.27243689554E+04  0.26721714591E+04 0.  0.
        5    1    3    3  502    0 -0.73608911711E+02  0.26736503601E+03  0.15978821860E+04  0.16217743076E+04  0.46999998093E+01 0. -1.
       -5    1    3    3    0  502  0.73608911711E+02 -0.26736503601E+03 -0.10671412902E+04  0.11025946479E+04  0.46999998093E+01 0.  1.
</event>
<event>
 5   0  0.2072710E-05  0.2628061E+04  0.7818609E-02  0.8358732E-01
        1   -1    0    0  501    0  0.00000000000E+00  0.00000000000E+00  0.11654385633E+04  0.11654385633E+04  0.50400001928E-02 0.  1.
       -1   -1    0    0    0  501  0.00000000000E+00  0.00000000000E+00 -0.14815673600E+04  0.14815673600E+04  0.50400001928E-02 0. -1.
    10030    2    1    2    0    0  0.00000000000E+00  0.00000000000E+00 -0.31612879672E+03  0.26470059233E+04  0.26280606808E+04 0.  0.
        2    1    3    3  502    0 -0.12995380940E+04 -0.15343270043E+03 -0.27865587674E+03  0.13379050598E+04  0.25500000920E-02 0. -1.
       -2    1    3    3    0  502  0.12995380940E+04  0.15343270043E+03 -0.37472919985E+02  0.13091008636E+04  0.25500000920E-02 0.  1.
</event>
<event>
 5   0  0.2159405E-05  0.2488679E+04  0.7818609E-02  0.8407030E-01
        1   -1    0    0  501    0  0.00000000000E+00  0.00000000000E+00  0.90428676198E+03  0.90428676199E+03  0.50400001928E-02 0.  1.
       -1   -1    0    0    0  501  0.00000000000E+00  0.00000000000E+00 -0.17122668862E+04  0.17122668862E+04  0.50400001928E-02 0. -1.
    10030    2    1    2    0    0  0.00000000000E+00  0.00000000000E+00 -0.80798012425E+03  0.26165536482E+04  0.24886785877E+04 0.  0.
        3    1    3    3  502    0  0.19168806218E+03  0.65562670004E+03  0.68954378642E+03  0.97059843735E+03  0.10100000352E+00 0.  1.
       -3    1    3    3    0  502 -0.19168806218E+03 -0.65562670004E+03 -0.14975239107E+04  0.16459552109E+04  0.10100000352E+00 0. -1.
</event>
<event>
 5   0  0.2159405E-05  0.2628321E+04  0.7818609E-02  0.8358644E-01
       -1   -1    0    0    0  501  0.00000000000E+00  0.00000000000E+00  0.16852842931E+04  0.16852842931E+04  0.50400001928E-02 0.  1.
        1   -1    0    0  501    0  0.00000000000E+00  0.00000000000E+00 -0.10247635057E+04  0.10247635057E+04  0.50400001928E-02 0. -1.
    10030    2    1    2    0    0  0.00000000000E+00  0.00000000000E+00  0.66052078740E+03  0.27100477988E+04  0.26283210156E+04 0.  0.
        3    1    3    3  502    0  0.11484926974E+04 -0.17354368088E+03  0.96408171596E+03  0.15095053661E+04  0.10100000352E+00 0.  1.
       -3    1    3    3    0  502 -0.11484926974E+04  0.17354368088E+03 -0.30356092857E+03  0.12005424327E+04  0.10100000352E+00 0. -1.
</event>
<event>
 5   0  0.1993815E-05  0.2600097E+04  0.7818609E-02  0.8368168E-01
        1   -1    0    0  501    0  0.00000000000E+00  0.00000000000E+00  0.23429832938E+04  0.23429832939E+04  0.50400001928E-02 0.  1.
       -1   -1    0    0    0  501  0.00000000000E+00  0.00000000000E+00 -0.72135669979E+03  0.72135669981E+03  0.50400001928E-02 0. -1.
    10030    2    1    2    0    0  0.00000000000E+00  0.00000000000E+00  0.16216265941E+04  0.30643399937E+04  0.26000974571E+04 0.  0.
        5    1    3    3  502    0  0.38614794392E+03  0.39987064081E+03  0.21958444637E+04  0.22651184876E+04  0.46999998093E+01 0.  1.
       -5    1    3    3    0  502 -0.38614794392E+03 -0.39987064081E+03 -0.57421786965E+03  0.79922150609E+03  0.46999998093E+01 0. -1.
</event>
<event>
 5   0  0.5170532E-05  0.2576942E+04  0.7818609E-02  0.8376076E-01
       -2   -1    0    0    0  501  0.00000000000E+00  0.00000000000E+00  0.12164319307E+04  0.12164319308E+04  0.25500000920E-02 0.  1.
        2   -1    0    0  501    0  0.00000000000E+00  0.00000000000E+00 -0.13647765550E+04  0.13647765550E+04  0.25500000920E-02 0. -1.
    10030    2    1    2    0    0  0.00000000000E+00  0.00000000000E+00 -0.14834462422E+03  0.25812084857E+04  0.25769422033E+04 0.  0.
        1    1    3    3  502    0 -0.12105644166E+04  0.30754041704E+03 -0.39109851350E+03  0.13088183075E+04  0.50400001928E-02 0. -1.
       -1    1    3    3    0  502  0.12105644166E+04 -0.30754041704E+03  0.24275388927E+03  0.12723901782E+04  0.50400001928E-02 0.  1.
</event>
<event>
 5   0  0.1993815E-05  0.2603550E+04  0.7818609E-02  0.8366996E-01
        1   -1    0    0  501    0  0.00000000000E+00  0.00000000000E+00  0.24320053406E+04  0.24320053406E+04  0.50400001928E-02 0.  1.
       -1   -1    0    0    0  501  0.00000000000E+00  0.00000000000E+00 -0.69679850442E+03  0.69679850444E+03  0.50400001928E-02 0. -1.
    10030    2    1    2    0    0  0.00000000000E+00  0.00000000000E+00  0.17352068362E+04  0.31288038451E+04  0.26035496417E+04 0.  0.
        5    1    3    3  502    0 -0.10630953871E+04 -0.28349827201E+03  0.17037043692E+04  0.20280960874E+04  0.46999998093E+01 0.  1.
       -5    1    3    3    0  502  0.10630953871E+04  0.28349827201E+03  0.31502467030E+02  0.11007077576E+04  0.46999998093E+01 0. -1.
</event>
<event>
 5   0  0.5170532E-05  0.2643918E+04  0.7818609E-02  0.8353434E-01
        2   -1    0    0  501    0  0.00000000000E+00  0.00000000000E+00  0.20490217160E+04  0.20490217160E+04  0.25500000920E-02 0. -1.
       -2   -1    0    0    0  501  0.00000000000E+00  0.00000000000E+00 -0.85288321748E+03  0.85288321749E+03  0.25500000920E-02 0.  1.
    10030    2    1    2    0    0  0.00000000000E+00  0.00000000000E+00  0.11961384985E+04  0.29019049335E+04  0.26439184812E+04 0.  0.
        1    1    3    3  502    0  0.12758314970E+04  0.16567260978E+03  0.93167283330E+03  0.15884607929E+04  0.50400001928E-02 0. -1.
       -1    1    3    3    0  502 -0.12758314970E+04 -0.16567260978E+03  0.26446566525E+03  0.13134441406E+04  0.50400001928E-02 0.  1.
</event>
<event>
 5   0  0.5182179E-05  0.2615914E+04  0.7818609E-02  0.8362815E-01
       -2   -1    0    0    0  501  0.00000000000E+00  0.00000000000E+00  0.75922913715E+03  0.75922913715E+03  0.25500000920E-02 0.  1.
        2   -1    0    0  501    0  0.00000000000E+00  0.00000000000E+00 -0.22532748864E+04  0.22532748864E+04  0.25500000920E-02 0. -1.
    10030    2    1    2    0    0  0.00000000000E+00  0.00000000000E+00 -0.14940457492E+04  0.30125040235E+04  0.26159143317E+04 0.  0.
        3    1    3    3  502    0  0.89459702841E+03 -0.91034908816E+03 -0.10762144545E+04  0.16695139615E+04  0.10100000352E+00 0. -1.
       -3    1    3    3    0  502 -0.89459702841E+03  0.91034908816E+03 -0.41783129474E+03  0.13429900620E+04  0.10100000352E+00 0.  1.
</event>
<event>
 5   0  0.5036452E-05  0.2454552E+04  0.7818609E-02  0.8419358E-01
       -2   -1    0    0    0  501  0.00000000000E+00  0.00000000000E+00  0.11354735351E+04  0.11354735352E+04  0.25500000920E-02 0.  1.
        2   -1    0    0  501    0  0.00000000000E+00  0.00000000000E+00 -0.13265004971E+04  0.13265004971E+04  0.25500000920E-02 0. -1.
    10030    2    1    2    0    0  0.00000000000E+00  0.00000000000E+00 -0.19102696196E+03  0.24619740323E+04  0.24545518604E+04 0.  0.
        2    1    3    3  502    0  0.11510137264E+04  0.10557114062E+02  0.33152285325E+03  0.11978528512E+04  0.25500000920E-02 0. -1.
       -2    1    3    3    0  502 -0.11510137264E+04 -0.10557114062E+02 -0.52254981521E+03  0.12641211810E+04  0.25500000920E-02 0.  1.
</event>
<event>
 5   0  0.1954502E-05  0.2575506E+04  0.7818609E-02  0.8376569E-01
        1   -1    0    0  501    0  0.00000000000E+00  0.00000000000E+00  0.18624530034E+04  0.18624530034E+04  0.50400001928E-02 0. -1.
       -1   -1    0    0    0  501  0.00000000000E+00  0.00000000000E+00 -0.89038930677E+03  0.89038930679E+03  0.50400001928E-02 0.  1.
    10030    2    1    2    0    0  0.00000000000E+00  0.00000000000E+00  0.97206369662E+03  0.27528423102E+04  0.25755063491E+04 0.  0.
        4    1    3    3  502    0  0.45779278107E+03  0.11266502160E+04  0.33322079842E+02  0.12165635674E+04  0.12699999809E+01 0.  1.
       -4    1    3    3    0  502 -0.45779278107E+03 -0.11266502160E+04  0.93874161678E+03  0.15362787428E+04  0.12699999809E+01 0. -1.
</event>
<event>
 5   0  0.4955675E-05  0.2588903E+04  0.7818609E-02  0.8371981E-01
       -2   -1    0    0    0  501  0.00000000000E+00  0.00000000000E+00  0.73504158306E+03  0.73504158307E+03  0.25500000920E-02 0.  1.
        2   -1    0    0  501    0  0.00000000000E+00  0.00000000000E+00 -0.22796045981E+04  0.22796045982E+04  0.25500000920E-02 0. -1.
    10030    2    1    2    0    0  0.00000000000E+00  0.00000000000E+00 -0.15445630151E+04  0.30146461812E+04  0.25889026035E+04 0.  0.
        5    1    3    3  502    0  0.63918191099E+03 -0.30325383004E+03 -0.20345498983E+04  0.21540500875E+04  0.46999998093E+01 0. -1.
       -5    1    3    3    0  502 -0.63918191099E+03  0.30325383004E+03  0.48998688323E+03  0.86059609371E+03  0.46999998093E+01 0.  1.
</event>
<event>
 5   0  0.4955675E-05  0.3089160E+04  0.7818609E-02  0.8218719E-01
       -2   -1    0    0    0  501  0.00000000000E+00  0.00000000000E+00  0.88801292744E+03  0.88801292745E+03  0.25500000920E-02 0. -1.
        2   -1    0    0  501    0  0.00000000000E+00  0.00000000000E+00 -0.26865902605E+04  0.26865902605E+04  0.25500000920E-02 0.  1.
    10030    2    1    2    0    0  0.00000000000E+00  0.00000000000E+00 -0.17985773331E+04  0.35746031880E+04  0.30891596800E+04 0.  0.
        5    1    3    3  502    0 -0.61621224957E+03 -0.11426609413E+03 -0.25328429062E+04  0.26092316022E+04  0.46999998093E+01 0.  1.
       -5    1    3    3    0  502  0.61621224957E+03  0.11426609413E+03  0.73426557307E+03  0.96537158575E+03  0.46999998093E+01 0. -1.
</event>
<event>
 5   0  0.5170532E-05  0.2591956E+04  0.7818609E-02  0.8370939E-01
        2   -1    0    0  501    0  0.00000000000E+00  0.00000000000E+00  0.10884302892E+04  0.10884302892E+04  0.25500000920E-02 0.  1.
       -2   -1    0    0    0  501  0.00000000000E+00  0.00000000000E+00 -0.15431022858E+04  0.15431022858E+04  0.25500000920E-02 0. -1.
    10030    2    1    2    0    0  0.00000000000E+00  0.00000000000E+00 -0.45467199664E+03  0.26315325750E+04  0.25919562243E+04 0.  0.
        1    1    3    3  502    0 -0.79592881551E+03  0.63494917371E+03 -0.10413867754E+04  0.14564166810E+04  0.50400001928E-02 0. -1.
       -1    1    3    3    0  502  0.79592881551E+03 -0.63494917371E+03  0.58671477880E+03  0.11751158940E+04  0.50400001928E-02 0.  1.
</event>
<event>
 5   0  0.5049803E-05  0.2730031E+04  0.7818609E-02  0.8325326E-01
       -2   -1    0    0    0  501  0.00000000000E+00  0.00000000000E+00  0.81243919304E+03  0.81243919304E+03  0.25500000920E-02 0.  1.
        2   -1    0    0  501    0  0.00000000000E+00  0.00000000000E+00 -0.22934236326E+04  0.22934236326E+04  0.25500000920E-02 0. -1.
    10030    2    1    2    0    0  0.00000000000E+00  0.00000000000E+00 -0.14809844396E+04  0.31058628257E+04  0.27300309488E+04 0.  0.
        4    1    3    3  502    0 -0.47792638591E+03 -0.68647024191E+03 -0.19677012332E+04  0.21381077567E+04  0.12699999809E+01 0. -1.
       -4    1    3    3    0  502  0.47792638591E+03  0.68647024191E+03  0.48671679360E+03  0.96775506894E+03  0.12699999809E+01 0.  1.
</event>
<event>
 5   0  0.1954502E-05  0.2660025E+04  0.7818609E-02  0.8348093E-01
       -1   -1    0    0    0  501  0.00000000000E+00  0.00000000000E+00  0.69561480461E+03  0.69561480463E+03  0.50400001928E-02 0.  1.
        1   -1    0    0  501    0  0.00000000000E+00  0.00000000000E+00 -0.25429781175E+04  0.25429781175E+04  0.50400001928E-02 0. -1.
    10030    2    1    2    0    0  0.00000000000E+00  0.00000000000E+00 -0.18473633129E+04  0.32385929222E+04  0.26600249821E+04 0.  0.
        4    1    3    3  502    0 -0.90695991090E+03  0.96147422588E+03 -0.74341428038E+03  0.15164680584E+04  0.12699999809E+01 0.  1.
       -4    1    3    3    0  502  0.90695991090E+03 -0.96147422588E+03 -0.11039490325E+04  0.17221248638E+04  0.12699999809E+01 0. -1.
</event>
<event>
 5   0  0.2072710E-05  0.1435206E+04  0.7818609E-02  0.8928722E-01
        1   -1    0    0  501    0  0.00000000000E+00  0.00000000000E+00  0.64124663031E+03  0.64124663033E+03  0.50400001928E-02 0. -1.
       -1   -1    0    0    0  501  0.00000000000E+00  0.00000000000E+00 -0.80305154989E+03  0.80305154991E+03  0.50400001928E-02 0.  1.
    10030    2    1    2    0    0  0.00000000000E+00  0.00000000000E+00 -0.16180491958E+03  0.14442981802E+04  0.14352060484E+04 0.  0.
        2    1    3    3  502    0 -0.19595073954E+03 -0.51307628729E+03 -0.54568344239E+03  0.77421856618E+03  0.25500000920E-02 0.  1.
       -2    1    3    3    0  502  0.19595073954E+03  0.51307628729E+03  0.38387852281E+03  0.67007961407E+03  0.25500000920E-02 0. -1.
</event>
<event>
 5   0  0.4955675E-05  0.2594711E+04  0.7818609E-02  0.8370000E-01
       -2   -1    0    0    0  501  0.00000000000E+00  0.00000000000E+00  0.15353011759E+04  0.15353011759E+04  0.25500000920E-02 0. -1.
        2   -1    0    0  501    0  0.00000000000E+00  0.00000000000E+00 -0.10962874691E+04  0.10962874691E+04  0.25500000920E-02 0.  1.
    10030    2    1    2    0    0  0.00000000000E+00  0.00000000000E+00  0.43901370679E+03  0.26315886451E+04  0.25947111134E+04 0.  0.
        5    1    3    3  502    0 -0.37446071047E+02  0.30705169124E+03 -0.10583311243E+04  0.11026195209E+04  0.46999998093E+01 0.  1.
       -5    1    3    3    0  502  0.37446071047E+02 -0.30705169124E+03  0.14973448311E+04  0.15289691241E+04  0.46999998093E+01 0. -1.
</event>
<event>
 5   0  0.5182179E-05  0.2541724E+04  0.7818609E-02  0.8388270E-01
       -2   -1    0    0    0  501  0.00000000000E+00  0.00000000000E+00  0.17809634267E+04  0.17809634267E+04  0.25500000920E-02 0.  1.
        2   -1    0    0  501    0  0.00000000000E+00  0.00000000000E+00 -0.90686306047E+03  0.90686306048E+03  0.25500000920E-02 0. -1.
    10030    2    1    2    0    0  0.00000000000E+00  0.00000000000E+00  0.87410036625E+03  0.26878264872E+04  0.25417237802E+04 0.  0.
        3    1    3    3  502    0  0.96403488272E+01  0.12701801859E+04  0.39423467415E+03  0.13299893344E+04  0.10100000352E+00 0. -1.
       -3    1    3    3    0  502 -0.96403488272E+01 -0.12701801859E+04  0.47986569210E+03  0.13578371528E+04  0.10100000352E+00 0.  1.
</event>
<event>
 5   0  0.2072710E-05  0.2535472E+04  0.7818609E-02  0.8390456E-01
        1   -1    0    0  501    0  0.00000000000E+00  0.00000000000E+00  0.58208972903E+03  0.58208972905E+03  0.50400001928E-02 0. -1.
       -1   -1    0    0    0  501  0.00000000000E+00  0.00000000000E+00 -0.27610089101E+04  0.27610089101E+04  0.50400001928E-02 0.  1.
    10030    2    1    2    0    0  0.00000000000E+00  0.00000000000E+00 -0.21789191810E+04  0.33430986391E+04  0.25354722861E+04 0.  0.
        2    1    3    3  502    0 -0.43900670770E+03 -0.82459020314E+03  0.40544524585E+02  0.93505066761E+03  0.25500000920E-02 0. -1.
       -2    1    3    3    0  502  0.43900670770E+03  0.82459020314E+03 -0.22194637056E+04  0.24080479715E+04  0.25500000920E-02 0.  1.
</event>
<event>
 5   0  0.5049803E-05  0.2587309E+04  0.7818609E-02  0.8372525E-01
        2   -1    0    0  501    0  0.00000000000E+00  0.00000000000E+00  0.27727790934E+04  0.27727790934E+04  0.25500000920E-02 0. -1.
       -2   -1    0    0    0  501  0.00000000000E+00  0.00000000000E+00 -0.60356123715E+03  0.60356123715E+03  0.25500000920E-02 0.  1.
    10030    2    1    2    0    0  0.00000000000E+00  0.00000000000E+00  0.21692178563E+04  0.33763403306E+04  0.25873090113E+04 0.  0.
        4    1    3    3  502    0 -0.22904307416E+03 -0.38721851417E+03  0.26674056160E+04  0.27050791561E+04  0.12699999809E+01 0. -1.
       -4    1    3    3    0  502  0.22904307416E+03  0.38721851417E+03 -0.49818775972E+03  0.67126117449E+03  0.12699999809E+01 0.  1.
</event>
<event>
 5   0  0.1954502E-05  0.2616312E+04  0.7818609E-02  0.8362681E-01
        1   -1    0    0  501    0  0.00000000000E+00  0.00000000000E+00  0.13465109392E+04  0.13465109392E+04  0.50400001928E-02 0.  1.
       -1   -1    0    0    0  501  0.00000000000E+00  0.00000000000E+00 -0.12708936106E+04  0.12708936106E+04  0.50400001928E-02 0. -1.
    10030    2    1    2    0    0  0.00000000000E+00  0.00000000000E+00  0.75617328562E+02  0.26174045498E+04  0.26163120221E+04 0.  0.
        4    1    3    3  502    0 -0.67933890358E+03 -0.99538814431E+03 -0.47129639571E+03  0.12939941303E+04  0.12699999809E+01 0. -1.
       -4    1    3    3    0  502  0.67933890358E+03  0.99538814431E+03  0.54691372427E+03  0.13234104195E+04  0.12699999809E+01 0.  1.
</event>
<event>
 5   0  0.2159405E-05  0.2635948E+04  0.7818609E-02  0.8356092E-01
        1   -1    0    0  501    0  0.00000000000E+00  0.00000000000E+00  0.10293653409E+04  0.10293653409E+04  0.50400001928E-02 0.  1.
       -1   -1    0    0    0  501  0.00000000000E+00  0.00000000000E+00 -0.16875013860E+04  0.16875013860E+04  0.50400001928E-02 0. -1.
    10030    2    1    2    0    0  0.00000000000E+00  0.00000000000E+00 -0.65813604511E+03  0.27168667269E+04  0.26359479809E+04 0.  0.
        3    1    3    3  502    0 -0.81685802715E+03 -0.10339276033E+03  0.73165425851E+03  0.11014831200E+04  0.10100000352E+00 0.  1.
       -3    1    3    3    0  502  0.81685802715E+03  0.10339276033E+03 -0.13897903036E+04  0.16153836070E+04  0.10100000352E+00 0. -1.
</event>
<event>
 5   0  0.5182179E-05  0.2568181E+04  0.7818609E-02  0.8379090E-01
       -2   -1    0    0    0  501  0.00000000000E+00  0.00000000000E+00  0.16957909678E+04  0.16957909678E+04  0.25500000920E-02 0.  1.
        2   -1    0    0  501    0  0.00000000000E+00  0.00000000000E+00 -0.97234185765E+03  0.97234185765E+03  0.25500000920E-02 0. -1.
    10030    2    1    2    0    0  0.00000000000E+00  0.00000000000E+00  0.72344911013E+03  0.26681328254E+04  0.25681810994E+04 0.  0.
        3    1    3    3  502    0  0.25914343889E+03  0.43553082105E+03  0.15874934915E+04  0.16664267202E+04  0.10100000352E+00 0.  1.
       -3    1    3    3    0  502 -0.25914343889E+03 -0.43553082105E+03 -0.86404438140E+03  0.10017061052E+04  0.10100000352E+00 0. -1.
</event>
<event>
 5   0  0.2072710E-05  0.1930247E+04  0.7818609E-02  0.8639945E-01
       -1   -1    0    0    0  501  0.00000000000E+00  0.00000000000E+00  0.83486976936E+03  0.83486976938E+03  0.50400001928E-02 0.  1.
        1   -1    0    0  501    0  0.00000000000E+00  0.00000000000E+00 -0.11156993240E+04  0.11156993240E+04  0.50400001928E-02 0. -1.
    10030    2    1    2    0    0  0.00000000000E+00  0.00000000000E+00 -0.28082955461E+03  0.19505690934E+04  0.19302472767E+04 0.  0.
        2    1    3    3  502    0  0.80322857043E+03  0.86552056664E+02 -0.67398532385E+03  0.10521043730E+04  0.25500000920E-02 0. -1.
       -2    1    3    3    0  502 -0.80322857043E+03 -0.86552056664E+02  0.39315576924E+03  0.89846472038E+03  0.25500000920E-02 0.  1.
</event>
<event>
 5   0  0.5170532E-05  0.2622352E+04  0.7818609E-02  0.8360648E-01
       -2   -1    0    0    0  501  0.00000000000E+00  0.00000000000E+00  0.11538586496E+04  0.11538586496E+04  0.25500000920E-02 0. -1.
        2   -1    0    0  501    0  0.00000000000E+00  0.00000000000E+00 -0.14899420204E+04  0.14899420204E+04  0.25500000920E-02 0.  1.
    10030    2    1    2    0    0  0.00000000000E+00  0.00000000000E+00 -0.33608337076E+03  0.26438006700E+04  0.26223519883E+04 0.  0.
        1    1    3    3  502    0  0.26386597680E+03 -0.45335939420E+03  0.10434618965E+04  0.11678924281E+04  0.50400001928E-02 0. -1.
       -1    1    3    3    0  502 -0.26386597680E+03  0.45335939420E+03 -0.13795452673E+04  0.14759082419E+04  0.50400001928E-02 0.  1.
</event>
<event>
 5   0  0.5182179E-05  0.3114698E+04  0.7818609E-02  0.8211716E-01
       -2   -1    0    0    0  501  0.00000000000E+00  0.00000000000E+00  0.11422612329E+04  0.11422612329E+04  0.25500000920E-02 0.  1.
        2   -1    0    0  501    0  0.00000000000E+00  0.00000000000E+00 -0.21232754693E+04  0.21232754693E+04  0.25500000920E-02 0. -1.
    10030    2    1    2    0    0  0.00000000000E+00  0.00000000000E+00 -0.98101423636E+03  0.32655367022E+04  0.31146975811E+04 0.  0.
        3    1    3    3  502    0 -0.96393998772E+03  0.39666843794E+03  0.72259681494E+03  0.12683344656E+04  0.10100000352E+00 0.  1.
       -3    1    3    3    0  502  0.96393998772E+03 -0.39666843794E+03 -0.17036110513E+04  0.19972022366E+04  0.10100000352E+00 0. -1.
</event>
<event>
 5   0  0.2163800E-05  0.2569655E+04  0.7818609E-02  0.8378582E-01
       -1   -1    0    0    0  501  0.00000000000E+00  0.00000000000E+00  0.99558390380E+03  0.99558390381E+03  0.50400001928E-02 0.  1.
        1   -1    0    0  501    0  0.00000000000E+00  0.00000000000E+00 -0.16581036701E+04  0.16581036701E+04  0.50400001928E-02 0. -1.
    10030    2    1    2    0    0  0.00000000000E+00  0.00000000000E+00 -0.66251976626E+03  0.26536875739E+04  0.25696547042E+04 0.  0.
        1    1    3    3  502    0 -0.69059068422E+03  0.49642175559E+03 -0.13257853064E+04  0.15751370515E+04  0.50400001928E-02 0. -1.
       -1    1    3    3    0  502  0.69059068422E+03 -0.49642175559E+03  0.66326554009E+03  0.10785505223E+04  0.50400001928E-02 0.  1.
</event>
<event>
 5   0  0.2163800E-05  0.1445511E+04  0.7818609E-02  0.8921519E-01
       -1   -1    0    0    0  501  0.00000000000E+00  0.00000000000E+00  0.65852028887E+03  0.65852028889E+03  0.50400001928E-02 0. -1.
        1   -1    0    0  501    0  0.00000000000E+00  0.00000000000E+00 -0.79325640110E+03  0.79325640111E+03  0.50400001928E-02 0.  1.
    10030    2    1    2    0    0  0.00000000000E+00  0.00000000000E+00 -0.13473611222E+03  0.14517766900E+04  0.14455108916E+04 0.  0.
        1    1    3    3  502    0  0.44114965530E+03  0.56315555966E+03 -0.17085952442E+03  0.73549315419E+03  0.50400001928E-02 0.  1.
       -1    1    3    3    0  502 -0.44114965530E+03 -0.56315555966E+03  0.36123412203E+02  0.71628353582E+03  0.50400001928E-02 0. -1.
</event>
<event>
 5   0  0.5170532E-05  0.2610989E+04  0.7818609E-02  0.8364478E-01
       -2   -1    0    0    0  501  0.00000000000E+00  0.00000000000E+00  0.85710301654E+03  0.85710301655E+03  0.25500000920E-02 0.  1.
        2   -1    0    0  501    0  0.00000000000E+00  0.00000000000E+00 -0.19884613108E+04  0.19884613108E+04  0.25500000920E-02 0. -1.
    10030    2    1    2    0    0  0.00000000000E+00  0.00000000000E+00 -0.11313582943E+04  0.28455643274E+04  0.26109892285E+04 0.  0.
        1    1    3    3  502    0 -0.77761967542E+03  0.10222345017E+04 -0.82047944739E+03  0.15240873531E+04  0.50400001928E-02 0.  1.
       -1    1    3    3    0  502  0.77761967542E+03 -0.10222345017E+04 -0.31087884688E+03  0.13214769743E+04  0.50400001928E-02 0. -1.
</event>
<event>
 5   0  0.2072710E-05  0.2663564E+04  0.7818609E-02  0.8346925E-01
        1   -1    0    0  501    0  0.00000000000E+00  0.00000000000E+00  0.13717133570E+04  0.13717133570E+04  0.50400001928E-02 0. -1.
       -1   -1    0    0    0  501  0.00000000000E+00  0.00000000000E+00 -0.12930127947E+04  0.12930127948E+04  0.50400001928E-02 0.  1.
    10030    2    1    2    0    0  0.00000000000E+00  0.00000000000E+00  0.78700562219E+02  0.26647261517E+04  0.26635637190E+04 0.  0.
        2    1    3    3  502    0 -0.22455841333E+03  0.29151612357E+02  0.13523126959E+04  0.13711403739E+04  0.25500000920E-02 0. -1.
       -2    1    3    3    0  502  0.22455841333E+03 -0.29151612357E+02 -0.12736121337E+04  0.12935857778E+04  0.25500000920E-02 0.  1.
</event>
<event>
 5   0  0.2163800E-05  0.1376966E+04  0.7818609E-02  0.8970662E-01
        1   -1    0    0  501    0  0.00000000000E+00  0.00000000000E+00  0.10535684264E+04  0.10535684264E+04  0.50400001928E-02 0.  1.
       -1   -1    0    0    0  501  0.00000000000E+00  0.00000000000E+00 -0.44990820496E+03  0.44990820499E+03  0.50400001928E-02 0. -1.
    10030    2    1    2    0    0  0.00000000000E+00  0.00000000000E+00  0.60366022145E+03  0.15034766314E+04  0.13769663461E+04 0.  0.
        1    1    3    3  502    0 -0.49527765484E+02  0.57723197646E+03 -0.10431158158E+03  0.58866854875E+03  0.50400001928E-02 0. -1.
       -1    1    3    3    0  502  0.49527765484E+02 -0.57723197646E+03  0.70797180302E+03  0.91480808267E+03  0.50400001928E-02 0.  1.
</event>
<event>
 5   0  0.5182179E-05  0.2575538E+04  0.7818609E-02  0.8376558E-01
        2   -1    0    0  501    0  0.00000000000E+00  0.00000000000E+00  0.14992499268E+04  0.14992499268E+04  0.25500000920E-02 0.  1.
       -2   -1    0    0    0  501  0.00000000000E+00  0.00000000000E+00 -0.11061194335E+04  0.11061194335E+04  0.25500000920E-02 0. -1.
    10030    2    1    2    0    0  0.00000000000E+00  0.00000000000E+00  0.39313049321E+03  0.26053693603E+04  0.25755383746E+04 0.  0.
        3    1    3    3  502    0 -0.74138771460E+03  0.65009139435E+03 -0.64132482326E+03  0.11762534181E+04  0.10100000352E+00 0. -1.
       -3    1    3    3    0  502  0.74138771460E+03 -0.65009139435E+03  0.10344553165E+04  0.14291159422E+04  0.10100000352E+00 0.  1.
</event>
<event>
 5   0  0.1954502E-05  0.2024726E+04  0.7818609E-02  0.8595147E-01
        1   -1    0    0  501    0  0.00000000000E+00  0.00000000000E+00  0.13221542170E+04  0.13221542170E+04  0.50400001928E-02 0.  1.
       -1   -1    0    0    0  501  0.00000000000E+00  0.00000000000E+00 -0.77515824551E+03  0.77515824553E+03  0.50400001928E-02 0. -1.
    10030    2    1    2    0    0  0.00000000000E+00  0.00000000000E+00  0.54699597152E+03  0.20973124626E+04  0.20247259007E+04 0.  0.
        4    1    3    3  502    0  0.32110239516E+03  0.81372644416E+03 -0.25429751566E+03  0.91100291629E+03  0.12699999809E+01 0. -1.
       -4    1    3    3    0  502 -0.32110239516E+03 -0.81372644416E+03  0.80129348718E+03  0.11863095463E+04  0.12699999809E+01 0.  1.
</event>
<event>
 5   0  0.2163800E-05  0.2517356E+04  0.7818609E-02  0.8396828E-01
       -1   -1    0    0    0  501  0.00000000000E+00  0.00000000000E+00  0.83997372290E+03  0.83997372291E+03  0.50400001928E-02 0.  1.
        1   -1    0    0  501    0  0.00000000000E+00  0.00000000000E+00 -0.18860945052E+04  0.18860945052E+04  0.50400001928E-02 0. -1.
    10030    2    1    2    0    0  0.00000000000E+00  0.00000000000E+00 -0.10461207823E+04  0.27260682281E+04  0.25173556152E+04 0.  0.
        1    1    3    3  502    0 -0.81004476199E+03 -0.46642322689E+03  0.38976656792E+03  0.10127394139E+04  0.50400001928E-02 0.  1.
       -1    1    3    3    0  502  0.81004476199E+03  0.46642322689E+03 -0.14358873502E+04  0.17133288142E+04  0.50400001928E-02 0. -1.
</event>
<event>
 5   0  0.2163800E-05  0.2549688E+04  0.7818609E-02  0.8385495E-01
       -1   -1    0    0    0  501  0.00000000000E+00  0.00000000000E+00  0.15279356446E+04  0.15279356447E+04  0.50400001928E-02 0.  1.
        1   -1    0    0  501    0  0.00000000000E+00  0.00000000000E+00 -0.10636748111E+04  0.10636748111E+04  0.50400001928E-02 0. -1.
    10030    2    1    2    0    0  0.00000000000E+00  0.00000000000E+00  0.46426083357E+03  0.25916104557E+04  0.25496875559E+04 0.  0.
        1    1    3    3  502    0 -0.98473771412E+03 -0.31759405840E+03 -0.52486486179E+03  0.11601971706E+04  0.50400001928E-02 0.  1.
       -1    1    3    3    0  502  0.98473771412E+03  0.31759405840E+03  0.98912569536E+03  0.14314132851E+04  0.50400001928E-02 0. -1.
</event>
<event>
 5   0  0.5036452E-05  0.2699416E+04  0.7818609E-02  0.8335195E-01
        2   -1    0    0  501    0  0.00000000000E+00  0.00000000000E+00  0.19152214347E+04  0.19152214347E+04  0.25500000920E-02 0.  1.
       -2   -1    0    0    0  501  0.00000000000E+00  0.00000000000E+00 -0.95117541741E+03  0.95117541742E+03  0.25500000920E-02 0. -1.
    10030    2    1    2    0    0  0.00000000000E+00  0.00000000000E+00  0.96404601731E+03  0.28663968521E+04  0.26994158980E+04 0.  0.
        2    1    3    3  502    0  0.49355951464E+03  0.63818177119E+03  0.16310078188E+04  0.18196327850E+04  0.25500000920E-02 0.  1.
       -2    1    3    3    0  502 -0.49355951464E+03 -0.63818177119E+03 -0.66696180144E+03  0.10467640671E+04  0.25500000920E-02 0. -1.
</event>
<event>
 5   0  0.5049803E-05  0.2601988E+04  0.7818609E-02  0.8367526E-01
       -2   -1    0    0    0  501  0.00000000000E+00  0.00000000000E+00  0.56759242677E+03  0.56759242677E+03  0.25500000920E-02 0. -1.
        2   -1    0    0  501    0  0.00000000000E+00  0.00000000000E+00 -0.29820435109E+04  0.29820435109E+04  0.25500000920E-02 0.  1.
    10030    2    1    2    0    0  0.00000000000E+00  0.00000000000E+00 -0.24144510841E+04  0.35496359377E+04  0.26019879424E+04 0.  0.
        4    1    3    3  502    0 -0.28208529163E+03  0.21796173591E+03  0.49966495783E+03  0.61379647527E+03  0.12699999809E+01 0. -1.
       -4    1    3    3    0  502  0.28208529163E+03 -0.21796173591E+03 -0.29141160420E+04  0.29358394624E+04  0.12699999809E+01 0.  1.
</event>
<event>
 5   0  0.5182179E-05  0.2668234E+04  0.7818609E-02  0.8345386E-01
       -2   -1    0    0    0  501  0.00000000000E+00  0.00000000000E+00  0.80857928972E+03  0.80857928972E+03  0.25500000920E-02 0. -1.
        2   -1    0    0  501    0  0.00000000000E+00  0.00000000000E+00 -0.22012294935E+04  0.22012294935E+04  0.25500000920E-02 0.  1.
    10030    2    1    2    0    0  0.00000000000E+00  0.00000000000E+00 -0.13926502038E+04  0.30098087832E+04  0.26682343078E+04 0.  0.
        3    1    3    3  502    0  0.33393882753E+03  0.24198107732E+03 -0.21275263698E+04  0.21671267721E+04  0.10100000352E+00 0.  1.
       -3    1    3    3    0  502 -0.33393882753E+03 -0.24198107732E+03  0.73487616596E+03  0.84268201109E+03  0.10100000352E+00 0. -1.
</event>
<event>
 5   0  0.2159405E-05  0.1710268E+04  0.7818609E-02  0.8755530E-01
        1   -1    0    0  501    0  0.00000000000E+00  0.00000000000E+00  0.13409774089E+04  0.13409774089E+04  0.50400001928E-02 0. -1.
       -1   -1    0    0    0  501  0.00000000000E+00  0.00000000000E+00 -0.54531441739E+03  0.54531441742E+03  0.50400001928E-02 0.  1.
    10030    2    1    2    0    0  0.00000000000E+00  0.00000000000E+00  0.79566299149E+03  0.18862918263E+04  0.17102681831E+04 0.  0.
        3    1    3    3  502    0 -0.37869663561E+03 -0.18830394706E+02 -0.44753373264E+03  0.58655961133E+03  0.10100000352E+00 0.  1.
       -3    1    3    3    0  502  0.37869663561E+03  0.18830394706E+02  0.12431967241E+04  0.12997322150E+04  0.10100000352E+00 0. -1.
</event>
<event>
 5   0  0.4955675E-05  0.2401637E+04  0.7818609E-02  0.8438891E-01
       -2   -1    0    0    0  501  0.00000000000E+00  0.00000000000E+00  0.99421029904E+03  0.99421029905E+03  0.25500000920E-02 0. -1.
        2   -1    0    0  501    0  0.00000000000E+00  0.00000000000E+00 -0.14503622433E+04  0.14503622433E+04  0.25500000920E-02 0.  1.
    10030    2    1    2    0    0  0.00000000000E+00  0.00000000000E+00 -0.45615194429E+03  0.24445725424E+04  0.24016370081E+04 0.  0.
        5    1    3    3  502    0 -0.10328357235E+04 -0.57286048193E+03 -0.73484995111E+01  0.11810990026E+04  0.46999998093E+01 0.  1.
       -5    1    3    3    0  502  0.10328357235E+04  0.57286048193E+03 -0.44880344478E+03  0.12634735397E+04  0.46999998093E+01 0. -1.
</event>
<event>
 5   0  0.5036452E-05  0.1512370E+04  0.7818609E-02  0.8876268E-01
       -2   -1    0    0    0  501  0.00000000000E+00  0.00000000000E+00  0.59403557250E+03  0.59403557250E+03  0.25500000920E-02 0. -1.
        2   -1    0    0  501    0  0.00000000000E+00  0.00000000000E+00 -0.96259565070E+03  0.96259565070E+03  0.25500000920E-02 0.  1.
    10030    2    1    2    0    0  0.00000000000E+00  0.00000000000E+00 -0.36856007820E+03  0.15566312232E+04  0.15123704023E+04 0.  0.
        2    1    3    3  502    0  0.61764608788E+03 -0.25648184772E+03  0.17895957887E+03  0.69231218317E+03  0.25500000920E-02 0. -1.
       -2    1    3    3    0  502 -0.61764608788E+03  0.25648184772E+03 -0.54751965706E+03  0.86431904003E+03  0.25500000920E-02 0.  1.
</event>
<event>
 5   0  0.2159405E-05  0.2602966E+04  0.7818609E-02  0.8367194E-01
       -1   -1    0    0    0  501  0.00000000000E+00  0.00000000000E+00  0.87168219240E+03  0.87168219242E+03  0.50400001928E-02 0.  1.
        1   -1    0    0  501    0  0.00000000000E+00  0.00000000000E+00 -0.19432063336E+04  0.19432063336E+04  0.50400001928E-02 0. -1.
    10030    2    1    2    0    0  0.00000000000E+00  0.00000000000E+00 -0.10715241412E+04  0.28148885260E+04  0.26029662750E+04 0.  0.
        3    1    3    3  502    0  0.26499641895E+03  0.55884303870E+03  0.70260275771E+03  0.93604449110E+03  0.10100000352E+00 0.  1.
       -3    1    3    3    0  502 -0.26499641895E+03 -0.55884303870E+03 -0.17741268989E+04  0.18788440349E+04  0.10100000352E+00 0. -1.
</event>
<event>
 5   0  0.4955675E-05  0.2526734E+04  0.7818609E-02  0.8393523E-01
        2   -1    0    0  501    0  0.00000000000E+00  0.00000000000E+00  0.15304019990E+04  0.15304019990E+04  0.25500000920E-02 0.  1.
       -2   -1    0    0    0  501  0.00000000000E+00  0.00000000000E+00 -0.10429258668E+04  0.10429258668E+04  0.25500000920E-02 0. -1.
    10030    2    1    2    0    0  0.00000000000E+00  0.00000000000E+00  0.48747613219E+03  0.25733278658E+04  0.25267337267E+04 0.  0.
        5    1    3    3  502    0 -0.15021340873E+03  0.29251255326E+03 -0.99856982044E+03  0.10513284160E+04  0.46999998093E+01 0. -1.
       -5    1    3    3    0  502  0.15021340873E+03 -0.29251255326E+03  0.14860459526E+04  0.15219994498E+04  0.46999998093E+01 0.  1.
</event>
<event>
 5   0  0.1698625E-05  0.1314297E+04  0.7818609E-02  0.9018304E-01
        3   -1    0    0  501    0  0.00000000000E+00  0.00000000000E+00  0.67419910124E+03  0.67419910880E+03  0.10100000352E+00 0.  1.
       -3   -1    0    0    0  501  0.00000000000E+00  0.00000000000E+00 -0.64052872652E+03  0.64052873448E+03  0.10100000352E+00 0. -1.
    10030    2    1    2    0    0  0.00000000000E+00  0.00000000000E+00  0.33670374717E+02  0.13147278433E+04  0.13142966209E+04 0.  0.
        3    1    3    3  502    0 -0.40146978848E+03  0.39442752192E+03  0.35619983965E+03  0.66605510063E+03  0.10100000352E+00 0.  1.
       -3    1    3    3    0  502  0.40146978848E+03 -0.39442752192E+03 -0.32252946493E+03  0.64867274265E+03  0.10100000352E+00 0. -1.
</event>
<event>
 5   0  0.4955675E-05  0.2635159E+04  0.7818609E-02  0.8356356E-01
        2   -1    0    0  501    0  0.00000000000E+00  0.00000000000E+00  0.24337854534E+04  0.24337854534E+04  0.25500000920E-02 0.  1.
       -2   -1    0    0    0  501  0.00000000000E+00  0.00000000000E+00 -0.71329862984E+03  0.71329862985E+03  0.25500000920E-02 0. -1.
    10030    2    1    2    0    0  0.00000000000E+00  0.00000000000E+00  0.17204868235E+04  0.31470840832E+04  0.26351590686E+04 0.  0.
        5    1    3    3  502    0  0.81763296089E+03 -0.82073200019E+03  0.11073338677E+03  0.11637906375E+04  0.46999998093E+01 0. -1.
       -5    1    3    3    0  502 -0.81763296089E+03  0.82073200019E+03  0.16097534367E+04  0.19832934458E+04  0.46999998093E+01 0.  1.
</event>
<event>
 5   0  0.5170532E-05  0.2642233E+04  0.7818609E-02  0.8353995E-01
       -2   -1    0    0    0  501  0.00000000000E+00  0.00000000000E+00  0.10970377880E+04  0.10970377880E+04  0.25500000920E-02 0. -1.
        2   -1    0    0  501    0  0.00000000000E+00  0.00000000000E+00 -0.15909656046E+04  0.15909656046E+04  0.25500000920E-02 0.  1.
    10030    2    1    2    0    0  0.00000000000E+00  0.00000000000E+00 -0.49392781661E+03  0.26880033925E+04  0.26422334398E+04 0.  0.
        1    1    3    3  502    0 -0.48877495025E+03  0.79080156029E+03 -0.12018831108E+04  0.15194706551E+04  0.50400001928E-02 0.  1.
       -1    1    3    3    0  502  0.48877495025E+03 -0.79080156029E+03  0.70795529421E+03  0.11685327374E+04  0.50400001928E-02 0. -1.
</event>
<event>
 5   0  0.5049803E-05  0.2580097E+04  0.7818609E-02  0.8374994E-01
       -2   -1    0    0    0  501  0.00000000000E+00  0.00000000000E+00  0.18662244943E+04  0.18662244944E+04  0.25500000920E-02 0. -1.
        2   -1    0    0  501    0  0.00000000000E+00  0.00000000000E+00 -0.89176013121E+03  0.89176013121E+03  0.25500000920E-02 0.  1.
    10030    2    1    2    0    0  0.00000000000E+00  0.00000000000E+00  0.97446436314E+03  0.27579846256E+04  0.25800965873E+04 0.  0.
        4    1    3    3  502    0  0.12166651499E+04  0.35409328383E+03  0.22854089736E+03  0.12875902668E+04  0.12699999809E+01 0.  1.
       -4    1    3    3    0  502 -0.12166651499E+04 -0.35409328383E+03  0.74592346578E+03  0.14703943587E+04  0.12699999809E+01 0. -1.
</event>
<event>
 5   0  0.2159405E-05  0.2533960E+04  0.7818609E-02  0.8390986E-01
        1   -1    0    0  501    0  0.00000000000E+00  0.00000000000E+00  0.17359633837E+04  0.17359633837E+04  0.50400001928E-02 0. -1.
       -1   -1    0    0    0  501  0.00000000000E+00  0.00000000000E+00 -0.92469596798E+03  0.92469596800E+03  0.50400001928E-02 0.  1.
    10030    2    1    2    0    0  0.00000000000E+00  0.00000000000E+00  0.81126741575E+03  0.26606593517E+04  0.25339600167E+04 0.  0.
        3    1    3    3  502    0 -0.72166685424E+03  0.88529697085E+03  0.98139846514E+03  0.15058873572E+04  0.10100000352E+00 0.  1.
       -3    1    3    3    0  502  0.72166685424E+03 -0.88529697085E+03 -0.17013104939E+03  0.11547719945E+04  0.10100000352E+00 0. -1.
</event>
<event>
 5   0  0.1954502E-05  0.2540897E+04  0.7818609E-02  0.8388559E-01
        1   -1    0    0  501    0  0.00000000000E+00  0.00000000000E+00  0.58932618057E+03  0.58932618059E+03  0.50400001928E-02 0.  1.
       -1   -1    0    0    0  501  0.00000000000E+00  0.00000000000E+00 -0.27387870985E+04  0.27387870985E+04  0.50400001928E-02 0. -1.
    10030    2    1    2    0    0  0.00000000000E+00  0.00000000000E+00 -0.21494609179E+04  0.33281132791E+04  0.25408966450E+04 0.  0.
        4    1    3    3  502    0 -0.78049064946E+03  0.18532379734E+03 -0.23651022438E+04  0.24974428522E+04  0.12699999809E+01 0. -1.
       -4    1    3    3    0  502  0.78049064946E+03 -0.18532379734E+03  0.21564132584E+03  0.83067042686E+03  0.12699999809E+01 0.  1.
</event>
<event>
 5   0  0.5170532E-05  0.1903672E+04  0.7818609E-02  0.8653031E-01
        2   -1    0    0  501    0  0.00000000000E+00  0.00000000000E+00  0.16859954576E+04  0.16859954576E+04  0.25500000920E-02 0. -1.
       -2   -1    0    0    0  501  0.00000000000E+00  0.00000000000E+00 -0.53736285145E+03  0.53736285145E+03  0.25500000920E-02 0.  1.
    10030    2    1    2    0    0  0.00000000000E+00  0.00000000000E+00  0.11486326062E+04  0.22233583091E+04  0.19036715333E+04 0.  0.
        1    1    3    3  502    0 -0.51817393631E+03 -0.49347143534E+03  0.13073951606E+04  0.14904027616E+04  0.50400001928E-02 0. -1.
       -1    1    3    3    0  502  0.51817393631E+03  0.49347143534E+03 -0.15876255449E+03  0.73295554742E+03  0.50400001928E-02 0.  1.
</event>
<event>
 5   0  0.2163800E-05  0.2621645E+04  0.7818609E-02  0.8360886E-01
       -1   -1    0    0    0  501  0.00000000000E+00  0.00000000000E+00  0.76002647641E+03  0.76002647643E+03  0.50400001928E-02 0. -1.
        1   -1    0    0  501    0  0.00000000000E+00  0.00000000000E+00 -0.22607830517E+04  0.22607830517E+04  0.50400001928E-02 0.  1.
    10030    2    1    2    0    0  0.00000000000E+00  0.00000000000E+00 -0.15007565753E+04  0.30208095281E+04  0.26216445043E+04 0.  0.
        1    1    3    3  502    0  0.12336741201E+04  0.27870076621E+03 -0.11472453184E+04  0.17075707225E+04  0.50400001928E-02 0.  1.
       -1    1    3    3    0  502 -0.12336741201E+04 -0.27870076621E+03 -0.35351125689E+03  0.13132388056E+04  0.50400001928E-02 0. -1.
</event>
<event>
 5   0  0.5049803E-05  0.2608340E+04  0.7818609E-02  0.8365374E-01
       -2   -1    0    0    0  501  0.00000000000E+00  0.00000000000E+00  0.72801170903E+03  0.72801170904E+03  0.25500000920E-02 0. -1.
        2   -1    0    0  501    0  0.00000000000E+00  0.00000000000E+00 -0.23363085688E+04  0.23363085688E+04  0.25500000920E-02 0.  1.
    10030    2    1    2    0    0  0.00000000000E+00  0.00000000000E+00 -0.16082968597E+04  0.30643202778E+04  0.26083404640E+04 0.  0.
        4    1    3    3  502    0 -0.69124113302E+03  0.10832621954E+04 -0.10657583456E+04  0.16694651096E+04  0.12699999809E+01 0.  1.
       -4    1    3    3    0  502  0.69124113302E+03 -0.10832621954E+04 -0.54253851415E+03  0.13948551682E+04  0.12699999809E+01 0. -1.
</event>
<event>
 5   0  0.4955675E-05  0.2022972E+04  0.7818609E-02  0.8595955E-01
        2   -1    0    0  501    0  0.00000000000E+00  0.00000000000E+00  0.10605968611E+04  0.10605968611E+04  0.25500000920E-02 0. -1.
       -2   -1    0    0    0  501  0.00000000000E+00  0.00000000000E+00 -0.96464921331E+03  0.96464921331E+03  0.25500000920E-02 0.  1.
    10030    2    1    2    0    0  0.00000000000E+00  0.00000000000E+00  0.95947647769E+02  0.20252460744E+04  0.20229719995E+04 0.  0.
        5    1    3    3  502    0  0.48515384511E+03  0.44013216856E+03 -0.72360083276E+03  0.97606907256E+03  0.46999998093E+01 0.  1.
       -5    1    3    3    0  502 -0.48515384511E+03 -0.44013216856E+03  0.81954848053E+03  0.10491770018E+04  0.46999998093E+01 0. -1.
</event>
<event>
 5   0  0.4955675E-05  0.2578077E+04  0.7818609E-02  0.8375686E-01
        2   -1    0    0  501    0  0.00000000000E+00  0.00000000000E+00  0.20787982252E+04  0.20787982252E+04  0.25500000920E-02 0. -1.
       -2   -1    0    0    0  501  0.00000000000E+00  0.00000000000E+00 -0.79931772102E+03  0.79931772102E+03  0.25500000920E-02 0.  1.
    10030    2    1    2    0    0  0.00000000000E+00  0.00000000000E+00  0.12794805042E+04  0.28781159463E+04  0.25780770042E+04 0.  0.
        5    1    3    3  502    0  0.42561865598E+03  0.34274435081E+03 -0.66359476920E+03  0.85965402229E+03  0.46999998093E+01 0.  1.
       -5    1    3    3    0  502 -0.42561865598E+03 -0.34274435081E+03  0.19430752734E+04  0.20184619240E+04  0.46999998093E+01 0. -1.
</event>
<event>
 5   0  0.1954502E-05  0.2607866E+04  0.7818609E-02  0.8365534E-01
        1   -1    0    0  501    0  0.00000000000E+00  0.00000000000E+00  0.10577366287E+04  0.10577366287E+04  0.50400001928E-02 0. -1.
       -1   -1    0    0    0  501  0.00000000000E+00  0.00000000000E+00 -0.16074338324E+04  0.16074338324E+04  0.50400001928E-02 0.  1.
    10030    2    1    2    0    0  0.00000000000E+00  0.00000000000E+00 -0.54969720364E+03  0.26651704611E+04  0.26078662870E+04 0.  0.
        4    1    3    3  502    0 -0.91087174608E+03 -0.61651675639E+03 -0.99056566486E+03  0.14802034313E+04  0.12699999809E+01 0.  1.
       -4    1    3    3    0  502  0.91087174608E+03  0.61651675639E+03  0.44086846122E+03  0.11849670298E+04  0.12699999809E+01 0. -1.
</event>
<event>
 5   0  0.1954502E-05  0.1873143E+04  0.7818609E-02  0.8668342E-01
        1   -1    0    0  501    0  0.00000000000E+00  0.00000000000E+00  0.19153812683E+04  0.19153812683E+04  0.50400001928E-02 0.  1.
       -1   -1    0    0    0  501  0.00000000000E+00  0.00000000000E+00 -0.45795896692E+03  0.45795896695E+03  0.50400001928E-02 0. -1.
    10030    2    1    2    0    0  0.00000000000E+00  0.00000000000E+00  0.14574223014E+04  0.23733402352E+04  0.18731428423E+04 0.  0.
        4    1    3    3  502    0  0.26782330712E+03 -0.52886822276E+03  0.16474073668E+04  0.17508236821E+04  0.12699999809E+01 0.  1.
       -4    1    3    3    0  502 -0.26782330712E+03  0.52886822276E+03 -0.18998506544E+03  0.62251655309E+03  0.12699999809E+01 0. -1.
</event>
<event>
 5   0  0.2163800E-05  0.2537913E+04  0.7818609E-02  0.8389602E-01
        1   -1    0    0  501    0  0.00000000000E+00  0.00000000000E+00  0.23171228140E+04  0.23171228140E+04  0.50400001928E-02 0.  1.
       -1   -1    0    0    0  501  0.00000000000E+00  0.00000000000E+00 -0.69493524346E+03  0.69493524348E+03  0.50400001928E-02 0. -1.
    10030    2    1    2    0    0  0.00000000000E+00  0.00000000000E+00  0.16221875705E+04  0.30120580575E+04  0.25379127699E+04 0.  0.
        1    1    3    3  502    0  0.12717743106E+03  0.96369047275E+03  0.17791944114E+04  0.20274136677E+04  0.50400001928E-02 0.  1.
       -1    1    3    3    0  502 -0.12717743106E+03 -0.96369047275E+03 -0.15700684089E+03  0.98464438980E+03  0.50400001928E-02 0. -1.
</event>
<event>
 5   0  0.4955675E-05  0.2303756E+04  0.7818609E-02  0.8476442E-01
        2   -1    0    0  501    0  0.00000000000E+00  0.00000000000E+00  0.21654302135E+04  0.21654302135E+04  0.25500000920E-02 0. -1.
       -2   -1    0    0    0  501  0.00000000000E+00  0.00000000000E+00 -0.61272924888E+03  0.61272924889E+03  0.25500000920E-02 0.  1.
    10030    2    1    2    0    0  0.00000000000E+00  0.00000000000E+00  0.15527009646E+04  0.27781594624E+04  0.23037555671E+04 0.  0.
        5    1    3    3  502    0  0.97909043046E+03 -0.78118607408E+02  0.15019932831E+04  0.17946382645E+04  0.46999998093E+01 0. -1.
       -5    1    3    3    0  502 -0.97909043046E+03  0.78118607408E+02  0.50707681551E+02  0.98352119794E+03  0.46999998093E+01 0.  1.
</event>
<event>
 5   0  0.5049803E-05  0.2278609E+04  0.7818609E-02  0.8486403E-01
       -2   -1    0    0    0  501  0.00000000000E+00  0.00000000000E+00  0.62916873734E+03  0.62916873734E+03  0.25500000920E-02 0.  1.
        2   -1    0    0  501    0  0.00000000000E+00  0.00000000000E+00 -0.20630623377E+04  0.20630623377E+04  0.25500000920E-02 0. -1.
    10030    2    1    2    0    0  0.00000000000E+00  0.00000000000E+00 -0.14338936004E+04  0.26922310751E+04  0.22786086334E+04 0.  0.
        4    1    3    3  502    0  0.40356141703E+03  0.17086868203E+03 -0.19594893826E+04  0.20078989459E+04  0.12699999809E+01 0. -1.
       -4    1    3    3    0  502 -0.40356141703E+03 -0.17086868203E+03  0.52559578218E+03  0.68433212913E+03  0.12699999809E+01 0.  1.
</event>
<event>
 5   0  0.5170532E-05  0.2694731E+04  0.7818609E-02  0.8336716E-01
       -2   -1    0    0    0  501  0.00000000000E+00  0.00000000000E+00  0.94616390120E+03  0.94616390120E+03  0.25500000920E-02 0.  1.
        2   -1    0    0  501    0  0.00000000000E+00  0.00000000000E+00 -0.19186889654E+04  0.19186889654E+04  0.25500000920E-02 0. -1.
    10030    2    1    2    0    0  0.00000000000E+00  0.00000000000E+00 -0.97252506421E+03  0.28648528666E+04  0.26947313311E+04 0.  0.
        1    1    3    3  502    0 -0.12966416751E+04  0.91792767527E+01 -0.97048565349E+02  0.13003008563E+04  0.50400001928E-02 0.  1.
       -1    1    3    3    0  502  0.12966416751E+04 -0.91792767527E+01 -0.87547649886E+03  0.15645520103E+04  0.50400001928E-02 0. -1.
</event>
<event>
 5   0  0.5170532E-05  0.2621655E+04  0.7818609E-02  0.8360883E-01
       -2   -1    0    0    0  501  0.00000000000E+00  0.00000000000E+00  0.10970583476E+04  0.10970583476E+04  0.25500000920E-02 0.  1.
        2   -1    0    0  501    0  0.00000000000E+00  0.00000000000E+00 -0.15662509038E+04  0.15662509038E+04  0.25500000920E-02 0. -1.
    10030    2    1    2    0    0  0.00000000000E+00  0.00000000000E+00 -0.46919255622E+03  0.26633092514E+04  0.26216549189E+04 0.  0.
        1    1    3    3  502    0  0.67393252582E+03 -0.10202390371E+04 -0.71453872834E+03  0.14162056124E+04  0.50400001928E-02 0. -1.
       -1    1    3    3    0  502 -0.67393252582E+03  0.10202390371E+04  0.24534617212E+03  0.12471036390E+04  0.50400001928E-02 0.  1.
</event>
<event>
 5   0  0.2072710E-05  0.2680929E+04  0.7818609E-02  0.8341219E-01
       -1   -1    0    0    0  501  0.00000000000E+00  0.00000000000E+00  0.17182782110E+04  0.17182782110E+04  0.50400001928E-02 0. -1.
        1   -1    0    0  501    0  0.00000000000E+00  0.00000000000E+00 -0.10457243340E+04  0.10457243340E+04  0.50400001928E-02 0.  1.
    10030    2    1    2    0    0  0.00000000000E+00  0.00000000000E+00  0.67255387701E+03  0.27640025450E+04  0.26809291955E+04 0.  0.
        2    1    3    3  502    0  0.28150969882E+03 -0.76621210477E+02  0.16851476405E+04  0.17102166795E+04  0.25500000920E-02 0. -1.
       -2    1    3    3    0  502 -0.28150969882E+03  0.76621210477E+02 -0.10125937635E+04  0.10537858655E+04  0.25500000920E-02 0.  1.
</event>
<event>
 5   0  0.1993815E-05  0.2269410E+04  0.7818609E-02  0.8490081E-01
       -1   -1    0    0    0  501  0.00000000000E+00  0.00000000000E+00  0.74344779136E+03  0.74344779138E+03  0.50400001928E-02 0.  1.
        1   -1    0    0  501    0  0.00000000000E+00  0.00000000000E+00 -0.17318703606E+04  0.17318703606E+04  0.50400001928E-02 0. -1.
    10030    2    1    2    0    0  0.00000000000E+00  0.00000000000E+00 -0.98842256927E+03  0.24753181520E+04  0.22694097863E+04 0.  0.
        5    1    3    3  502    0  0.37117766809E+03  0.10460792944E+04 -0.23730195033E+03  0.11350722695E+04  0.46999998093E+01 0.  1.
       -5    1    3    3    0  502 -0.37117766809E+03 -0.10460792944E+04 -0.75112061894E+03  0.13402458825E+04  0.46999998093E+01 0. -1.
</event>
<event>
 5   0  0.4955675E-05  0.2505041E+04  0.7818609E-02  0.8401192E-01
        2   -1    0    0  501    0  0.00000000000E+00  0.00000000000E+00  0.12727467013E+04  0.12727467013E+04  0.25500000920E-02 0.  1.
       -2   -1    0    0    0  501  0.00000000000E+00  0.00000000000E+00 -0.12326152405E+04  0.12326152405E+04  0.25500000920E-02 0. -1.
    10030    2    1    2    0    0  0.00000000000E+00  0.00000000000E+00  0.40131460824E+02  0.25053619419E+04  0.25050405038E+04 0.  0.
        5    1    3    3  502    0  0.28580738592E+03 -0.50389272902E+03 -0.10905681630E+04  0.12348905831E+04  0.46999998093E+01 0. -1.
       -5    1    3    3    0  502 -0.28580738592E+03  0.50389272902E+03  0.11306996238E+04  0.12704713588E+04  0.46999998093E+01 0.  1.
</event>
<event>
 5   0  0.1954502E-05  0.2646887E+04  0.7818609E-02  0.8352447E-01
       -1   -1    0    0    0  501  0.00000000000E+00  0.00000000000E+00  0.91232644781E+03  0.91232644782E+03  0.50400001928E-02 0. -1.
        1   -1    0    0  501    0  0.00000000000E+00  0.00000000000E+00 -0.19198203131E+04  0.19198203131E+04  0.50400001928E-02 0.  1.
    10030    2    1    2    0    0  0.00000000000E+00  0.00000000000E+00 -0.10074938653E+04  0.28321467610E+04  0.26468871126E+04 0.  0.
        4    1    3    3  502    0  0.46170389487E+03  0.12195460668E+04 -0.74547537172E+03  0.15020646585E+04  0.12699999809E+01 0.  1.
       -4    1    3    3    0  502 -0.46170389487E+03 -0.12195460668E+04 -0.26201849361E+03  0.13300821025E+04  0.12699999809E+01 0. -1.
</event>
<event>
 5   0  0.5036452E-05  0.1961534E+04  0.7818609E-02  0.8624819E-01
       -2   -1    0    0    0  501  0.00000000000E+00  0.00000000000E+00  0.11483062963E+04  0.11483062963E+04  0.25500000920E-02 0.  1.
        2   -1    0    0  501    0  0.00000000000E+00  0.00000000000E+00 -0.83767181310E+03  0.83767181310E+03  0.25500000920E-02 0. -1.
    10030    2    1    2    0    0  0.00000000000E+00  0.00000000000E+00  0.31063448316E+03  0.19859781094E+04  0.19615339071E+04 0.  0.
        2    1    3    3  502    0 -0.32993670801E+02 -0.89282532037E+03 -0.25429604363E+03  0.92891986351E+03  0.25500000920E-02 0. -1.
       -2    1    3    3    0  502  0.32993670801E+02  0.89282532037E+03  0.56493052679E+03  0.10570582458E+04  0.25500000920E-02 0.  1.
</event>
<event>
 5   0  0.2163800E-05  0.2623254E+04  0.7818609E-02  0.8360345E-01
        1   -1    0    0  501    0  0.00000000000E+00  0.00000000000E+00  0.93776559695E+03  0.93776559696E+03  0.50400001928E-02 0.  1.
       -1   -1    0    0    0  501  0.00000000000E+00  0.00000000000E+00 -0.18345368372E+04  0.18345368372E+04  0.50400001928E-02 0. -1.
    10030    2    1    2    0    0  0.00000000000E+00  0.00000000000E+00 -0.89677124022E+03  0.27723024341E+04  0.26232541107E+04 0.  0.
        1    1    3    3  502    0 -0.75277371407E+03  0.10564327488E+04 -0.24333263597E+03  0.13198216505E+04  0.50400001928E-02 0. -1.
       -1    1    3    3    0  502  0.75277371407E+03 -0.10564327488E+04 -0.65343860425E+03  0.14524807837E+04  0.50400001928E-02 0.  1.
</event>
<event>
 5   0  0.5182179E-05  0.2611098E+04  0.7818609E-02  0.8364441E-01
        2   -1    0    0  501    0  0.00000000000E+00  0.00000000000E+00  0.17331925847E+04  0.17331925847E+04  0.25500000920E-02 0. -1.
       -2   -1    0    0    0  501  0.00000000000E+00  0.00000000000E+00 -0.98342076872E+03  0.98342076873E+03  0.25500000920E-02 0.  1.
    10030    2    1    2    0    0  0.00000000000E+00  0.00000000000E+00  0.74977181598E+03  0.27166133534E+04  0.26110975347E+04 0.  0.
        3    1    3    3  502    0  0.22165039546E+03 -0.10032060311E+04 -0.46321390438E+03  0.11269952840E+04  0.10100000352E+00 0. -1.
       -3    1    3    3    0  502 -0.22165039546E+03  0.10032060311E+04  0.12129857204E+04  0.15896180694E+04  0.10100000352E+00 0.  1.
</event>
<event>
 5   0  0.1698625E-05  0.2516983E+04  0.7818609E-02  0.8396960E-01
       -4   -1    0    0    0  501  0.00000000000E+00  0.00000000000E+00  0.18644110073E+04  0.18644114399E+04  0.12699999809E+01 0. -1.
        4   -1    0    0  501    0  0.00000000000E+00  0.00000000000E+00 -0.84949000498E+03  0.84949095431E+03  0.12699999809E+01 0.  1.
    10030    2    1    2    0    0  0.00000000000E+00  0.00000000000E+00  0.10149210023E+04  0.27139023942E+04  0.25169826309E+04 0.  0.
        4    1    3    3  502    0 -0.67618142390E+03 -0.84239840891E+03  0.12036893690E+04  0.16173206569E+04  0.12699999809E+01 0. -1.
       -4    1    3    3    0  502  0.67618142390E+03  0.84239840891E+03 -0.18876836664E+03  0.10965817373E+04  0.12699999809E+01 0.  1.
</event>
<event>
 5   0  0.2163800E-05  0.2618890E+04  0.7818609E-02  0.8361813E-01
        1   -1    0    0  501    0  0.00000000000E+00  0.00000000000E+00  0.19406099201E+04  0.19406099201E+04  0.50400001928E-02 0. -1.
       -1   -1    0    0    0  501  0.00000000000E+00  0.00000000000E+00 -0.88356067383E+03  0.88356067385E+03  0.50400001928E-02 0.  1.
    10030    2    1    2    0    0  0.00000000000E+00  0.00000000000E+00  0.10570492463E+04  0.28241705940E+04  0.26188903060E+04 0.  0.
        1    1    3    3  502    0  0.95110956602E+03 -0.65140771482E+03 -0.14120785569E+03  0.11614133958E+04  0.50400001928E-02 0.  1.
       -1    1    3    3    0  502 -0.95110956602E+03  0.65140771482E+03  0.11982571020E+04  0.16627571981E+04  0.50400001928E-02 0. -1.
</event>
<event>
 5   0  0.1954502E-05  0.2614786E+04  0.7818609E-02  0.8363196E-01
       -1   -1    0    0    0  501  0.00000000000E+00  0.00000000000E+00  0.15954145369E+04  0.15954145369E+04  0.50400001928E-02 0. -1.
        1   -1    0    0  501    0  0.00000000000E+00  0.00000000000E+00 -0.10713679147E+04  0.10713679147E+04  0.50400001928E-02 0.  1.
    10030    2    1    2    0    0  0.00000000000E+00  0.00000000000E+00  0.52404662224E+03  0.26667824516E+04  0.26147856092E+04 0.  0.
        4    1    3    3  502    0  0.92499292678E+03 -0.37320081487E+03  0.11240430912E+04  0.15027858286E+04  0.12699999809E+01 0. -1.
       -4    1    3    3    0  502 -0.92499292678E+03  0.37320081487E+03 -0.59999646893E+03  0.11639966230E+04  0.12699999809E+01 0.  1.
</event>
<event>
 5   0  0.1698625E-05  0.2189358E+04  0.7818609E-02  0.8522871E-01
        3   -1    0    0  501    0  0.00000000000E+00  0.00000000000E+00  0.11591054911E+04  0.11591054955E+04  0.10100000352E+00 0. -1.
       -3   -1    0    0    0  501  0.00000000000E+00  0.00000000000E+00 -0.10338337128E+04  0.10338337177E+04  0.10100000352E+00 0.  1.
    10030    2    1    2    0    0  0.00000000000E+00  0.00000000000E+00  0.12527177832E+03  0.21929392132E+04  0.21893582106E+04 0.  0.
        1    1    3    3  502    0  0.20824427012E+03 -0.47482133821E+03  0.10283193315E+04  0.11516343286E+04  0.50400001928E-02 0. -1.
       -1    1    3    3    0  502 -0.20824427012E+03  0.47482133821E+03 -0.90304755321E+03  0.10413048846E+04  0.50400001928E-02 0.  1.
</event>
<event>
 5   0  0.1993815E-05  0.2641170E+04  0.7818609E-02  0.8354350E-01
        1   -1    0    0  501    0  0.00000000000E+00  0.00000000000E+00  0.15676189574E+04  0.15676189574E+04  0.50400001928E-02 0.  1.
       -1   -1    0    0    0  501  0.00000000000E+00  0.00000000000E+00 -0.11124799559E+04  0.11124799560E+04  0.50400001928E-02 0. -1.
    10030    2    1    2    0    0  0.00000000000E+00  0.00000000000E+00  0.45513900147E+03  0.26800989134E+04  0.26411699443E+04 0.  0.
        5    1    3    3  502    0 -0.41456709316E+03  0.97027398688E+03  0.10333933199E+04  0.14768958419E+04  0.46999998093E+01 0.  1.
       -5    1    3    3    0  502  0.41456709316E+03 -0.97027398688E+03 -0.57825431841E+03  0.12032030714E+04  0.46999998093E+01 0. -1.
</event>
<event>
 5   0  0.1698625E-05  0.2681717E+04  0.7818609E-02  0.8340962E-01
       -4   -1    0    0    0  501  0.00000000000E+00  0.00000000000E+00  0.10952628500E+04  0.10952635863E+04  0.12699999809E+01 0.  1.
        4   -1    0    0  501    0  0.00000000000E+00  0.00000000000E+00 -0.16415230744E+04  0.16415235657E+04  0.12699999809E+01 0. -1.
    10030    2    1    2    0    0  0.00000000000E+00  0.00000000000E+00 -0.54626022441E+03  0.27367871520E+04  0.26817165552E+04 0.  0.
        4    1    3    3  502    0  0.10749844763E+03 -0.67198640210E+03  0.90592095325E+03  0.11330560566E+04  0.12699999809E+01 0.  1.
       -4    1    3    3    0  502 -0.10749844763E+03  0.67198640210E+03 -0.14521811777E+04  0.16037310954E+04  0.12699999809E+01 0. -1.
</event>
<event>
 5   0  0.4955675E-05  0.2513149E+04  0.7818609E-02  0.8398316E-01
        2   -1    0    0  501    0  0.00000000000E+00  0.00000000000E+00  0.13562726644E+04  0.13562726644E+04  0.25500000920E-02 0. -1.
       -2   -1    0    0    0  501  0.00000000000E+00  0.00000000000E+00 -0.11642047687E+04  0.11642047687E+04  0.25500000920E-02 0.  1.
    10030    2    1    2    0    0  0.00000000000E+00  0.00000000000E+00  0.19206789570E+03  0.25204774332E+04  0.25131487052E+04 0.  0.
        5    1    3    3  502    0 -0.52961259079E+03  0.11341088515E+04  0.20710269061E+03  0.12687024860E+04  0.46999998093E+01 0. -1.
       -5    1    3    3    0  502  0.52961259079E+03 -0.11341088515E+04 -0.15034794909E+02  0.12517749472E+04  0.46999998093E+01 0.  1.
</event>
<event>
 5   0  0.4955675E-05  0.2569376E+04  0.7818609E-02  0.8378678E-01
       -2   -1    0    0    0  501  0.00000000000E+00  0.00000000000E+00  0.10723172987E+04  0.10723172987E+04  0.25500000920E-02 0.  1.
        2   -1    0    0  501    0  0.00000000000E+00  0.00000000000E+00 -0.15391188098E+04  0.15391188098E+04  0.25500000920E-02 0. -1.
    10030    2    1    2    0    0  0.00000000000E+00  0.00000000000E+00 -0.46680151104E+03  0.26114361085E+04  0.25693763636E+04 0.  0.
        5    1    3    3  502    0 -0.49506643461E+03  0.11691847937E+04 -0.43235437251E+03  0.13412815699E+04  0.46999998093E+01 0. -1.
       -5    1    3    3    0  502  0.49506643461E+03 -0.11691847937E+04 -0.34447138532E+02  0.12701545386E+04  0.46999998093E+01 0.  1.
</event>
<event>
 5   0  0.4955675E-05  0.2584672E+04  0.7818609E-02  0.8373426E-01
       -2   -1    0    0    0  501  0.00000000000E+00  0.00000000000E+00  0.77667865016E+03  0.77667865016E+03  0.25500000920E-02 0.  1.
        2   -1    0    0  501    0  0.00000000000E+00  0.00000000000E+00 -0.21503521705E+04  0.21503521705E+04  0.25500000920E-02 0. -1.
    10030    2    1    2    0    0  0.00000000000E+00  0.00000000000E+00 -0.13736735203E+04  0.29270308206E+04  0.25846722199E+04 0.  0.
        5    1    3    3  502    0 -0.40064520665E+03 -0.36699187998E+03 -0.20147175844E+04  0.20866980272E+04  0.46999998093E+01 0. -1.
       -5    1    3    3    0  502  0.40064520665E+03  0.36699187998E+03  0.64104406414E+03  0.84033279345E+03  0.46999998093E+01 0.  1.
</event>
<event>
 5   0  0.2072710E-05  0.2582718E+04  0.7818609E-02  0.8374095E-01
        1   -1    0    0  501    0  0.00000000000E+00  0.00000000000E+00  0.15061825833E+04  0.15061825833E+04  0.50400001928E-02 0. -1.
       -1   -1    0    0    0  501  0.00000000000E+00  0.00000000000E+00 -0.11071755808E+04  0.11071755808E+04  0.50400001928E-02 0.  1.
    10030    2    1    2    0    0  0.00000000000E+00  0.00000000000E+00  0.39900700253E+03  0.26133581641E+04  0.25827183946E+04 0.  0.
        2    1    3    3  502    0  0.15398873661E+03  0.82151190651E+03  0.11955668425E+04  0.14587578340E+04  0.25500000920E-02 0. -1.
       -2    1    3    3    0  502 -0.15398873661E+03 -0.82151190651E+03 -0.79655983993E+03  0.11546003300E+04  0.25500000920E-02 0.  1.
</event>
<event>
 5   0  0.5182179E-05  0.2254222E+04  0.7818609E-02  0.8496193E-01
        2   -1    0    0  501    0  0.00000000000E+00  0.00000000000E+00  0.21523971175E+04  0.21523971175E+04  0.25500000920E-02 0.  1.
       -2   -1    0    0    0  501  0.00000000000E+00  0.00000000000E+00 -0.59021596872E+03  0.59021596873E+03  0.25500000920E-02 0. -1.
    10030    2    1    2    0    0  0.00000000000E+00  0.00000000000E+00  0.15621811488E+04  0.27426130862E+04  0.22542219499E+04 0.  0.
        3    1    3    3  502    0 -0.26283656851E+03  0.28005924767E+02  0.21141548082E+04  0.21306144552E+04  0.10100000352E+00 0.  1.
       -3    1    3    3    0  502  0.26283656851E+03 -0.28005924767E+02 -0.55197365937E+03  0.61199863105E+03  0.10100000352E+00 0. -1.
</event>
<event>
 5   0  0.5049803E-05  0.2620424E+04  0.7818609E-02  0.8361297E-01
       -2   -1    0    0    0  501  0.00000000000E+00  0.00000000000E+00  0.55134728011E+03  0.55134728012E+03  0.25500000920E-02 0.  1.
        2   -1    0    0  501    0  0.00000000000E+00  0.00000000000E+00 -0.31135641967E+04  0.31135641967E+04  0.25500000920E-02 0. -1.
    10030    2    1    2    0    0  0.00000000000E+00  0.00000000000E+00 -0.25622169166E+04  0.36649114768E+04  0.26204237454E+04 0.  0.
        4    1    3    3  502    0 -0.60509896439E+02  0.82521680668E+03  0.13969423284E+03  0.83914260837E+03  0.12699999809E+01 0.  1.
       -4    1    3    3    0  502  0.60509896439E+02 -0.82521680668E+03 -0.27019111494E+04  0.28257688684E+04  0.12699999809E+01 0. -1.
</event>
<event>
 5   0  0.5182179E-05  0.2543588E+04  0.7818609E-02  0.8387619E-01
       -2   -1    0    0    0  501  0.00000000000E+00  0.00000000000E+00  0.81684618696E+03  0.81684618696E+03  0.25500000920E-02 0. -1.
        2   -1    0    0  501    0  0.00000000000E+00  0.00000000000E+00 -0.19801284833E+04  0.19801284833E+04  0.25500000920E-02 0.  1.
    10030    2    1    2    0    0  0.00000000000E+00  0.00000000000E+00 -0.11632822963E+04  0.27969746703E+04  0.25435883325E+04 0.  0.
        3    1    3    3  502    0  0.88224817658E+02 -0.12687221517E+04 -0.58666513062E+03  0.14005768463E+04  0.10100000352E+00 0.  1.
       -3    1    3    3    0  502 -0.88224817658E+02  0.12687221517E+04 -0.57661716571E+03  0.13963978239E+04  0.10100000352E+00 0. -1.
</event>
<event>
 5   0  0.2072710E-05  0.2735412E+04  0.7818609E-02  0.8323606E-01
       -1   -1    0    0    0  501  0.00000000000E+00  0.00000000000E+00  0.10985114287E+04  0.10985114287E+04  0.50400001928E-02 0.  1.
        1   -1    0    0  501    0  0.00000000000E+00  0.00000000000E+00 -0.17028672723E+04  0.17028672723E+04  0.50400001928E-02 0. -1.
    10030    2    1    2    0    0  0.00000000000E+00  0.00000000000E+00 -0.60435584364E+03  0.28013787010E+04  0.27354116035E+04 0.  0.
        2    1    3    3  502    0  0.23874281225E+03  0.20758456946E+03  0.10605236057E+04  0.11067067372E+04  0.25500000920E-02 0.  1.
       -2    1    3    3    0  502 -0.23874281225E+03 -0.20758456946E+03 -0.16648794494E+04  0.16946719638E+04  0.25500000920E-02 0. -1.
</event>
<event>
 5   0  0.5036452E-05  0.2593571E+04  0.7818609E-02  0.8370388E-01
       -2   -1    0    0    0  501  0.00000000000E+00  0.00000000000E+00  0.11691778640E+04  0.11691778640E+04  0.25500000920E-02 0.  1.
        2   -1    0    0  501    0  0.00000000000E+00  0.00000000000E+00 -0.14383203901E+04  0.14383203901E+04  0.25500000920E-02 0. -1.
    10030    2    1    2    0    0  0.00000000000E+00  0.00000000000E+00 -0.26914252608E+03  0.26074982541E+04  0.25935707906E+04 0.  0.
        2    1    3    3  502    0 -0.81120759202E+03  0.65231282048E+03  0.64293966087E+03  0.12234954764E+04  0.25500000920E-02 0.  1.
       -2    1    3    3    0  502  0.81120759202E+03 -0.65231282048E+03 -0.91208218695E+03  0.13840027778E+04  0.25500000920E-02 0. -1.
</event>
<event>
 5   0  0.1954502E-05  0.2582850E+04  0.7818609E-02  0.8374050E-01
        1   -1    0    0  501    0  0.00000000000E+00  0.00000000000E+00  0.14797113350E+04  0.14797113350E+04  0.50400001928E-02 0.  1.
       -1   -1    0    0    0  501  0.00000000000E+00  0.00000000000E+00 -0.11270970373E+04  0.11270970373E+04  0.50400001928E-02 0. -1.
    10030    2    1    2    0    0  0.00000000000E+00  0.00000000000E+00  0.35261429770E+03  0.26068083723E+04  0.25828497918E+04 0.  0.
        4    1    3    3  502    0 -0.62288293951E+03 -0.25821908509E+03 -0.93532524361E+03  0.11530373699E+04  0.12699999809E+01 0. -1.
       -4    1    3    3    0  502  0.62288293951E+03  0.25821908509E+03  0.12879395413E+04  0.14537710023E+04  0.12699999809E+01 0.  1.
</event>
<event>
 5   0  0.1954502E-05  0.2604305E+04  0.7818609E-02  0.8366740E-01
       -1   -1    0    0    0  501  0.00000000000E+00  0.00000000000E+00  0.12629877907E+04  0.12629877908E+04  0.50400001928E-02 0. -1.
        1   -1    0    0  501    0  0.00000000000E+00  0.00000000000E+00 -0.13425317144E+04  0.13425317144E+04  0.50400001928E-02 0.  1.
    10030    2    1    2    0    0  0.00000000000E+00  0.00000000000E+00 -0.79543923666E+02  0.26055195052E+04  0.26043050236E+04 0.  0.
        4    1    3    3  502    0 -0.16012792636E+03  0.51079384935E+03  0.11478149733E+04  0.12665039025E+04  0.12699999809E+01 0. -1.
       -4    1    3    3    0  502  0.16012792636E+03 -0.51079384935E+03 -0.12273588969E+04  0.13390156026E+04  0.12699999809E+01 0.  1.
</event>
<event>
 5   0  0.5049803E-05  0.2237758E+04  0.7818609E-02  0.8502875E-01
       -2   -1    0    0    0  501  0.00000000000E+00  0.00000000000E+00  0.79642276856E+03  0.79642276856E+03  0.25500000920E-02 0. -1.
        2   -1    0    0  501    0  0.00000000000E+00  0.00000000000E+00 -0.15718918497E+04  0.15718918497E+04  0.25500000920E-02 0.  1.
    10030    2    1    2    0    0  0.00000000000E+00  0.00000000000E+00 -0.77546908116E+03  0.23683146183E+04  0.22377582165E+04 0.  0.
        4    1    3    3  502    0  0.73650619249E+03 -0.49732790131E+03  0.33171453983E+03  0.94858450432E+03  0.12699999809E+01 0. -1.
       -4    1    3    3    0  502 -0.73650619249E+03  0.49732790131E+03 -0.11071836210E+04  0.14197301140E+04  0.12699999809E+01 0.  1.
</event>
<event>
 5   0  0.1993815E-05  0.2577820E+04  0.7818609E-02  0.8375774E-01
       -1   -1    0    0    0  501  0.00000000000E+00  0.00000000000E+00  0.91770657884E+03  0.91770657886E+03  0.50400001928E-02 0.  1.
        1   -1    0    0  501    0  0.00000000000E+00  0.00000000000E+00 -0.18102619100E+04  0.18102619100E+04  0.50400001928E-02 0. -1.
    10030    2    1    2    0    0  0.00000000000E+00  0.00000000000E+00 -0.89255533113E+03  0.27279684888E+04  0.25778202142E+04 0.  0.
        5    1    3    3  502    0 -0.12228812305E+04  0.35866545148E+03 -0.24220409695E+03  0.12972140627E+04  0.46999998093E+01 0. -1.
       -5    1    3    3    0  502  0.12228812305E+04 -0.35866545148E+03 -0.65035123419E+03  0.14307544261E+04  0.46999998093E+01 0.  1.
</event>
<event>
 5   0  0.2072710E-05  0.1536158E+04  0.7818609E-02  0.8860758E-01
       -1   -1    0    0    0  501  0.00000000000E+00  0.00000000000E+00  0.26408555015E+03  0.26408555019E+03  0.50400001928E-02 0. -1.
        1   -1    0    0  501    0  0.00000000000E+00  0.00000000000E+00 -0.22339165480E+04  0.22339165480E+04  0.50400001928E-02 0.  1.
    10030    2    1    2    0    0  0.00000000000E+00  0.00000000000E+00 -0.19698309978E+04  0.24980020982E+04  0.15361576490E+04 0.  0.
        2    1    3    3  502    0  0.53771586239E+03  0.15135921254E+03 -0.12768219607E+03  0.57301893780E+03  0.25500000920E-02 0. -1.
       -2    1    3    3    0  502 -0.53771586239E+03 -0.15135921254E+03 -0.18421488018E+04  0.19249831604E+04  0.25500000920E-02 0.  1.
</event>
<event>
 5   0  0.5182179E-05  0.2496371E+04  0.7818609E-02  0.8404279E-01
       -2   -1    0    0    0  501  0.00000000000E+00  0.00000000000E+00  0.10321835314E+04  0.10321835314E+04  0.25500000920E-02 0. -1.
        2   -1    0    0  501    0  0.00000000000E+00  0.00000000000E+00 -0.15093898910E+04  0.15093898910E+04  0.25500000920E-02 0.  1.
    10030    2    1    2    0    0  0.00000000000E+00  0.00000000000E+00 -0.47720635951E+03  0.25415734224E+04  0.24963712769E+04 0.  0.
        3    1    3    3  502    0 -0.97960997095E+03 -0.75156871917E+03 -0.52325341034E+02  0.12358111451E+04  0.10100000352E+00 0.  1.
       -3    1    3    3    0  502  0.97960997095E+03  0.75156871917E+03 -0.42488101847E+03  0.13057622773E+04  0.10100000352E+00 0. -1.
</event>
<event>
 5   0  0.5182179E-05  0.2694157E+04  0.7818609E-02  0.8336903E-01
       -2   -1    0    0    0  501  0.00000000000E+00  0.00000000000E+00  0.94417778632E+03  0.94417778632E+03  0.25500000920E-02 0.  1.
        2   -1    0    0  501    0  0.00000000000E+00  0.00000000000E+00 -0.19219054626E+04  0.19219054626E+04  0.25500000920E-02 0. -1.
    10030    2    1    2    0    0  0.00000000000E+00  0.00000000000E+00 -0.97772767628E+03  0.28660832489E+04  0.26941569703E+04 0.  0.
        3    1    3    3  502    0  0.79693871691E+03  0.48755307264E+03 -0.15212579195E+04  0.17852296729E+04  0.10100000352E+00 0. -1.
       -3    1    3    3    0  502 -0.79693871691E+03 -0.48755307264E+03  0.54353024327E+03  0.10808535760E+04  0.10100000352E+00 0.  1.
</event>
<event>
 5   0  0.5049803E-05  0.2707241E+04  0.7818609E-02  0.8332659E-01
       -2   -1    0    0    0  501  0.00000000000E+00  0.00000000000E+00  0.11739924785E+04  0.11739924785E+04  0.25500000920E-02 0.  1.
        2   -1    0    0  501    0  0.00000000000E+00  0.00000000000E+00 -0.15607327644E+04  0.15607327644E+04  0.25500000920E-02 0. -1.
    10030    2    1    2    0    0  0.00000000000E+00  0.00000000000E+00 -0.38674028587E+03  0.27347252428E+04  0.27072410504E+04 0.  0.
        4    1    3    3  502    0 -0.14839452228E+02  0.11023990319E+04  0.59995825009E+03  0.12551714423E+04  0.12699999809E+01 0.  1.
       -4    1    3    3    0  502  0.14839452228E+02 -0.11023990319E+04 -0.98669853596E+03  0.14795538005E+04  0.12699999809E+01 0. -1.
</event>
<event>
 5   0  0.2163800E-05  0.2710791E+04  0.7818609E-02  0.8331512E-01
       -1   -1    0    0    0  501  0.00000000000E+00  0.00000000000E+00  0.11889314830E+04  0.11889314830E+04  0.50400001928E-02 0. -1.
        1   -1    0    0  501    0  0.00000000000E+00  0.00000000000E+00 -0.15451662522E+04  0.15451662522E+04  0.50400001928E-02 0.  1.
    10030    2    1    2    0    0  0.00000000000E+00  0.00000000000E+00 -0.35623476923E+03  0.27340977352E+04  0.27107908837E+04 0.  0.
        1    1    3    3  502    0 -0.11004154011E+04 -0.12387602002E+03 -0.96639801872E+03  0.14697565968E+04  0.50400001928E-02 0.  1.
       -1    1    3    3    0  502  0.11004154011E+04  0.12387602002E+03  0.61016324949E+03  0.12643411384E+04  0.50400001928E-02 0. -1.
</event>
<event>
 5   0  0.5049803E-05  0.2489283E+04  0.7818609E-02  0.8406813E-01
       -2   -1    0    0    0  501  0.00000000000E+00  0.00000000000E+00  0.13077589599E+04  0.13077589599E+04  0.25500000920E-02 0.  1.
        2   -1    0    0  501    0  0.00000000000E+00  0.00000000000E+00 -0.11845702926E+04  0.11845702926E+04  0.25500000920E-02 0. -1.
    10030    2    1    2    0    0  0.00000000000E+00  0.00000000000E+00  0.12318866728E+03  0.24923292524E+04  0.24892829600E+04 0.  0.
        4    1    3    3  502    0  0.20150993271E+03 -0.33871109310E+03  0.12436318926E+04  0.13045893434E+04  0.12699999809E+01 0.  1.
       -4    1    3    3    0  502 -0.20150993271E+03  0.33871109310E+03 -0.11204432253E+04  0.11877399091E+04  0.12699999809E+01 0. -1.
</event>
<event>
 5   0  0.2159405E-05  0.2489992E+04  0.7818609E-02  0.8406560E-01
        1   -1    0    0  501    0  0.00000000000E+00  0.00000000000E+00  0.20630415112E+04  0.20630415112E+04  0.50400001928E-02 0.  1.
       -1   -1    0    0    0  501  0.00000000000E+00  0.00000000000E+00 -0.75132528890E+03  0.75132528892E+03  0.50400001928E-02 0. -1.
    10030    2    1    2    0    0  0.00000000000E+00  0.00000000000E+00  0.13117162223E+04  0.28143668002E+04  0.24899921763E+04 0.  0.
        3    1    3    3  502    0  0.69615115673E+03 -0.23959127074E+00  0.18224978660E+04  0.19509292586E+04  0.10100000352E+00 0.  1.
       -3    1    3    3    0  502 -0.69615115673E+03  0.23959127074E+00 -0.51078164366E+03  0.86343754153E+03  0.10100000352E+00 0. -1.
</event>
<event>
 5   0  0.5182179E-05  0.2636583E+04  0.7818609E-02  0.8355880E-01
        2   -1    0    0  501    0  0.00000000000E+00  0.00000000000E+00  0.20584173512E+04  0.20584173512E+04  0.25500000920E-02 0. -1.
       -2   -1    0    0    0  501  0.00000000000E+00  0.00000000000E+00 -0.84428582036E+03  0.84428582036E+03  0.25500000920E-02 0.  1.
    10030    2    1    2    0    0  0.00000000000E+00  0.00000000000E+00  0.12141315308E+04  0.29027031715E+04  0.26365830781E+04 0.  0.
        3    1    3    3  502    0 -0.23826561987E+03 -0.12788759516E+04  0.84215666044E+03  0.15496845022E+04  0.10100000352E+00 0. -1.
       -3    1    3    3    0  502  0.23826561987E+03  0.12788759516E+04  0.37197487036E+03  0.13530186694E+04  0.10100000352E+00 0.  1.
</event>
<event>
 5   0  0.4955675E-05  0.2517617E+04  0.7818609E-02  0.8396736E-01
        2   -1    0    0  501    0  0.00000000000E+00  0.00000000000E+00  0.30144870150E+04  0.30144870150E+04  0.25500000920E-02 0. -1.
       -2   -1    0    0    0  501  0.00000000000E+00  0.00000000000E+00 -0.52566099193E+03  0.52566099194E+03  0.25500000920E-02 0.  1.
    10030    2    1    2    0    0  0.00000000000E+00  0.00000000000E+00  0.24888260230E+04  0.35401480069E+04  0.25176165192E+04 0.  0.
        5    1    3    3  502    0  0.10797471771E+04  0.78908452648E+02  0.21475248143E+04  0.24049876150E+04  0.46999998093E+01 0. -1.
       -5    1    3    3    0  502 -0.10797471771E+04 -0.78908452648E+02  0.34130120874E+03  0.11351603919E+04  0.46999998093E+01 0.  1.
</event>
<event>
 5   0  0.2163800E-05  0.2624890E+04  0.7818609E-02  0.8359795E-01
       -1   -1    0    0    0  501  0.00000000000E+00  0.00000000000E+00  0.25132212705E+04  0.25132212705E+04  0.50400001928E-02 0. -1.
        1   -1    0    0  501    0  0.00000000000E+00  0.00000000000E+00 -0.68538012691E+03  0.68538012692E+03  0.50400001928E-02 0.  1.
    10030    2    1    2    0    0  0.00000000000E+00  0.00000000000E+00  0.18278411436E+04  0.31986013974E+04  0.26248900269E+04 0.  0.
        1    1    3    3  502    0 -0.45641891683E+03  0.77838319785E+03  0.20752805147E+04  0.22629599743E+04  0.50400001928E-02 0. -1.
       -1    1    3    3    0  502  0.45641891683E+03 -0.77838319785E+03 -0.24743937113E+03  0.93564142316E+03  0.50400001928E-02 0.  1.
</event>
<event>
 5   0  0.2163800E-05  0.2555204E+04  0.7818609E-02  0.8383579E-01
        1   -1    0    0  501    0  0.00000000000E+00  0.00000000000E+00  0.19154567926E+04  0.19154567926E+04  0.50400001928E-02 0.  1.
       -1   -1    0    0    0  501  0.00000000000E+00  0.00000000000E+00 -0.85215538855E+03  0.85215538857E+03  0.50400001928E-02 0. -1.
    10030    2    1    2    0    0  0.00000000000E+00  0.00000000000E+00  0.10633014041E+04  0.27676121812E+04  0.25552039663E+04 0.  0.
        1    1    3    3  502    0 -0.12358279812E+04 -0.29177109599E+03  0.68431276011E+03  0.14424580151E+04  0.50400001928E-02 0.  1.
       -1    1    3    3    0  502  0.12358279812E+04  0.29177109599E+03  0.37898864395E+03  0.13251541661E+04  0.50400001928E-02 0. -1.
</event>
<event>
 5   0  0.5170532E-05  0.2614962E+04  0.7818609E-02  0.8363137E-01
        2   -1    0    0  501    0  0.00000000000E+00  0.00000000000E+00  0.22222707294E+04  0.22222707294E+04  0.25500000920E-02 0.  1.
       -2   -1    0    0    0  501  0.00000000000E+00  0.00000000000E+00 -0.76926141005E+03  0.76926141006E+03  0.25500000920E-02 0. -1.
    10030    2    1    2    0    0  0.00000000000E+00  0.00000000000E+00  0.14530093193E+04  0.29915321394E+04  0.26149624202E+04 0.  0.
        1    1    3    3  502    0  0.41548286832E+03 -0.12118747995E+03 -0.68493827198E+03  0.81021778283E+03  0.50400001928E-02 0. -1.
       -1    1    3    3    0  502 -0.41548286832E+03  0.12118747995E+03  0.21379475913E+04  0.21813143566E+04  0.50400001928E-02 0.  1.
</event>
<event>
 5   0  0.1954502E-05  0.1857662E+04  0.7818609E-02  0.8676222E-01
       -1   -1    0    0    0  501  0.00000000000E+00  0.00000000000E+00  0.15153519858E+04  0.15153519858E+04  0.50400001928E-02 0.  1.
        1   -1    0    0  501    0  0.00000000000E+00  0.00000000000E+00 -0.56932464121E+03  0.56932464123E+03  0.50400001928E-02 0. -1.
    10030    2    1    2    0    0  0.00000000000E+00  0.00000000000E+00  0.94602734463E+03  0.20846766271E+04  0.18576622144E+04 0.  0.
        4    1    3    3  502    0 -0.30010243193E+03  0.82592970354E+03  0.81061681416E+03  0.11955427960E+04  0.12699999809E+01 0. -1.
       -4    1    3    3    0  502  0.30010243193E+03 -0.82592970354E+03  0.13541053047E+03  0.88913383104E+03  0.12699999809E+01 0.  1.
</event>
<event>
 5   0  0.4955675E-05  0.1431402E+04  0.7818609E-02  0.8931397E-01
       -2   -1    0    0    0  501  0.00000000000E+00  0.00000000000E+00  0.22430486195E+04  0.22430486195E+04  0.25500000920E-02 0. -1.
        2   -1    0    0  501    0  0.00000000000E+00  0.00000000000E+00 -0.22836237000E+03  0.22836237001E+03  0.25500000920E-02 0.  1.
    10030    2    1    2    0    0  0.00000000000E+00  0.00000000000E+00  0.20146862495E+04  0.24714109896E+04  0.14314019684E+04 0.  0.
        5    1    3    3  502    0 -0.34228558359E+03  0.33789096681E+03  0.92301725970E+02  0.48976670446E+03  0.46999998093E+01 0.  1.
       -5    1    3    3    0  502  0.34228558359E+03 -0.33789096681E+03  0.19223845236E+04  0.19816442851E+04  0.46999998093E+01 0. -1.
</event>
<event>
 5   0  0.2072710E-05  0.2625933E+04  0.7818609E-02  0.8359445E-01
       -1   -1    0    0    0  501  0.00000000000E+00  0.00000000000E+00  0.16453656041E+04  0.16453656041E+04  0.50400001928E-02 0.  1.
        1   -1    0    0  501    0  0.00000000000E+00  0.00000000000E+00 -0.10477188898E+04  0.10477188899E+04  0.50400001928E-02 0. -1.
    10030    2    1    2    0    0  0.00000000000E+00  0.00000000000E+00  0.59764671429E+03  0.26930844940E+04  0.26259326908E+04 0.  0.
        2    1    3    3  502    0  0.89096212496E+03  0.84864484142E+03 -0.17100647270E+03  0.12422780642E+04  0.25500000920E-02 0. -1.
       -2    1    3    3    0  502 -0.89096212496E+03 -0.84864484142E+03  0.76865318699E+03  0.14508064298E+04  0.25500000920E-02 0.  1.
</event>
<event>
 5   0  0.1993815E-05  0.2674702E+04  0.7818609E-02  0.8343260E-01
       -1   -1    0    0    0  501  0.00000000000E+00  0.00000000000E+00  0.59937429602E+03  0.59937429604E+03  0.50400001928E-02 0.  1.
        1   -1    0    0  501    0  0.00000000000E+00  0.00000000000E+00 -0.29839569173E+04  0.29839569173E+04  0.50400001928E-02 0. -1.
    10030    2    1    2    0    0  0.00000000000E+00  0.00000000000E+00 -0.23845826212E+04  0.35833312133E+04  0.26747015360E+04 0.  0.
        5    1    3    3  502    0  0.12836326157E+04  0.38488025189E+02 -0.16922948763E+04  0.21244006351E+04  0.46999998093E+01 0. -1.
       -5    1    3    3    0  502 -0.12836326157E+04 -0.38488025189E+02 -0.69228774492E+03  0.14589305782E+04  0.46999998093E+01 0.  1.
</event>
<event>
 5   0  0.2159405E-05  0.2643196E+04  0.7818609E-02  0.8353675E-01
        1   -1    0    0  501    0  0.00000000000E+00  0.00000000000E+00  0.10042154157E+04  0.10042154157E+04  0.50400001928E-02 0. -1.
       -1   -1    0    0    0  501  0.00000000000E+00  0.00000000000E+00 -0.17392893383E+04  0.17392893383E+04  0.50400001928E-02 0.  1.
    10030    2    1    2    0    0  0.00000000000E+00  0.00000000000E+00 -0.73507392258E+03  0.27435047540E+04  0.26431959185E+04 0.  0.
        3    1    3    3  502    0  0.72519948132E+03 -0.91987903271E+03  0.26767598184E+03  0.12015582233E+04  0.10100000352E+00 0. -1.
       -3    1    3    3    0  502 -0.72519948132E+03  0.91987903271E+03 -0.10027499044E+04  0.15419465307E+04  0.10100000352E+00 0.  1.
</event>
<event>
 5   0  0.4955675E-05  0.2576887E+04  0.7818609E-02  0.8376095E-01
        2   -1    0    0  501    0  0.00000000000E+00  0.00000000000E+00  0.16683112562E+04  0.16683112562E+04  0.25500000920E-02 0.  1.
       -2   -1    0    0    0  501  0.00000000000E+00  0.00000000000E+00 -0.99506993990E+03  0.99506993990E+03  0.25500000920E-02 0. -1.
    10030    2    1    2    0    0  0.00000000000E+00  0.00000000000E+00  0.67324131625E+03  0.26633811961E+04  0.25768867894E+04 0.  0.
        5    1    3    3  502    0 -0.47253050349E+03  0.69714854072E+03 -0.67117888069E+03  0.10769421268E+04  0.46999998093E+01 0. -1.
       -5    1    3    3    0  502  0.47253050349E+03 -0.69714854072E+03  0.13444201969E+04  0.15864390693E+04  0.46999998093E+01 0.  1.
</event>
<event>
 5   0  0.2072710E-05  0.2128689E+04  0.7818609E-02  0.8548710E-01
        1   -1    0    0  501    0  0.00000000000E+00  0.00000000000E+00  0.14065726614E+04  0.14065726614E+04  0.50400001928E-02 0. -1.
       -1   -1    0    0    0  501  0.00000000000E+00  0.00000000000E+00 -0.80538240324E+03  0.80538240326E+03  0.50400001928E-02 0.  1.
    10030    2    1    2    0    0  0.00000000000E+00  0.00000000000E+00  0.60119025817E+03  0.22119550647E+04  0.21286886765E+04 0.  0.
        2    1    3    3  502    0  0.98412741592E+03 -0.36669170213E+03  0.48015278480E+03  0.11547797504E+04  0.25500000920E-02 0.  1.
       -2    1    3    3    0  502 -0.98412741592E+03  0.36669170213E+03  0.12103747336E+03  0.10571753143E+04  0.25500000920E-02 0. -1.
</event>
<event>
 5   0  0.2159405E-05  0.2466033E+04  0.7818609E-02  0.8415187E-01
       -1   -1    0    0    0  501  0.00000000000E+00  0.00000000000E+00  0.69277608432E+03  0.69277608434E+03  0.50400001928E-02 0. -1.
        1   -1    0    0  501    0  0.00000000000E+00  0.00000000000E+00 -0.21945470060E+04  0.21945470060E+04  0.50400001928E-02 0.  1.
    10030    2    1    2    0    0  0.00000000000E+00  0.00000000000E+00 -0.15017709217E+04  0.28873230904E+04  0.24660329939E+04 0.  0.
        3    1    3    3  502    0  0.23815282347E+03 -0.10235893807E+04  0.41707938310E+01  0.10509373879E+04  0.10100000352E+00 0. -1.
       -3    1    3    3    0  502 -0.23815282347E+03  0.10235893807E+04 -0.15059417155E+04  0.18363857025E+04  0.10100000352E+00 0.  1.
</event>
<event>
 5   0  0.4955675E-05  0.2507264E+04  0.7818609E-02  0.8400402E-01
       -2   -1    0    0    0  501  0.00000000000E+00  0.00000000000E+00  0.11783358308E+04  0.11783358308E+04  0.25500000920E-02 0. -1.
        2   -1    0    0  501    0  0.00000000000E+00  0.00000000000E+00 -0.13337395966E+04  0.13337395966E+04  0.25500000920E-02 0.  1.
    10030    2    1    2    0    0  0.00000000000E+00  0.00000000000E+00 -0.15540376575E+03  0.25120754274E+04  0.25072639714E+04 0.  0.
        5    1    3    3  502    0  0.89190279796E+03  0.80700043312E+03 -0.43169387061E+03  0.12779366134E+04  0.46999998093E+01 0. -1.
       -5    1    3    3    0  502 -0.89190279796E+03 -0.80700043312E+03  0.27629010486E+03  0.12341388140E+04  0.46999998093E+01 0.  1.
</event>
<event>
 5   0  0.1698625E-05  0.2649041E+04  0.7818609E-02  0.8351731E-01
       -4   -1    0    0    0  501  0.00000000000E+00  0.00000000000E+00  0.17023786473E+04  0.17023791210E+04  0.12699999809E+01 0.  1.
        4   -1    0    0  501    0  0.00000000000E+00  0.00000000000E+00 -0.10305306822E+04  0.10305314648E+04  0.12699999809E+01 0. -1.
    10030    2    1    2    0    0  0.00000000000E+00  0.00000000000E+00  0.67184796512E+03  0.27329105858E+04  0.26490414458E+04 0.  0.
        2    1    3    3  502    0  0.36636708241E+03  0.65769858361E+03 -0.78833140324E+03  0.10900727807E+04  0.25500000920E-02 0. -1.
       -2    1    3    3    0  502 -0.36636708241E+03 -0.65769858361E+03  0.14601793684E+04  0.16428378051E+04  0.25500000920E-02 0.  1.
</event>
<event>
 5   0  0.5170532E-05  0.2773977E+04  0.7818609E-02  0.8311393E-01
       -2   -1    0    0    0  501  0.00000000000E+00  0.00000000000E+00  0.14071702104E+04  0.14071702105E+04  0.25500000920E-02 0. -1.
        2   -1    0    0  501    0  0.00000000000E+00  0.00000000000E+00 -0.13670957659E+04  0.13670957659E+04  0.25500000920E-02 0.  1.
    10030    2    1    2    0    0  0.00000000000E+00  0.00000000000E+00  0.40074444526E+02  0.27742659764E+04  0.27739765224E+04 0.  0.
        1    1    3    3  502    0  0.18682440372E+03 -0.46075928038E+03 -0.12749082834E+04  0.13684274198E+04  0.50400001928E-02 0.  1.
       -1    1    3    3    0  502 -0.18682440372E+03  0.46075928038E+03  0.13149827279E+04  0.14058385565E+04  0.50400001928E-02 0. -1.
</event>
<event>
 5   0  0.1954502E-05  0.2567260E+04  0.7818609E-02  0.8379408E-01
       -1   -1    0    0    0  501  0.00000000000E+00  0.00000000000E+00  0.69169460994E+03  0.69169460996E+03  0.50400001928E-02 0.  1.
        1   -1    0    0  501    0  0.00000000000E+00  0.00000000000E+00 -0.23821289165E+04  0.23821289165E+04  0.50400001928E-02 0. -1.
    10030    2    1    2    0    0  0.00000000000E+00  0.00000000000E+00 -0.16904343065E+04  0.30738235264E+04  0.25672598090E+04 0.  0.
        4    1    3    3  502    0  0.56462235905E+03 -0.10534685087E+04 -0.28476309111E+03  0.12286927761E+04  0.12699999809E+01 0.  1.
       -4    1    3    3    0  502 -0.56462235905E+03  0.10534685087E+04 -0.14056712154E+04  0.18451307503E+04  0.12699999809E+01 0. -1.
</event>
<event>
 5   0  0.1993815E-05  0.2650948E+04  0.7818609E-02  0.8351099E-01
       -1   -1    0    0    0  501  0.00000000000E+00  0.00000000000E+00  0.70084893885E+03  0.70084893886E+03  0.50400001928E-02 0.  1.
        1   -1    0    0  501    0  0.00000000000E+00  0.00000000000E+00 -0.25067894320E+04  0.25067894320E+04  0.50400001928E-02 0. -1.
    10030    2    1    2    0    0  0.00000000000E+00  0.00000000000E+00 -0.18059404931E+04  0.32076383708E+04  0.26509475388E+04 0.  0.
        5    1    3    3  502    0  0.31818155410E+03 -0.54294378815E+03 -0.23144881468E+04  0.23985214050E+04  0.46999998093E+01 0. -1.
       -5    1    3    3    0  502 -0.31818155410E+03  0.54294378815E+03  0.50854765365E+03  0.80911696589E+03  0.46999998093E+01 0.  1.
</event>
<event>
 5   0  0.2159405E-05  0.2626234E+04  0.7818609E-02  0.8359344E-01
        1   -1    0    0  501    0  0.00000000000E+00  0.00000000000E+00  0.16414100515E+04  0.16414100515E+04  0.50400001928E-02 0. -1.
       -1   -1    0    0    0  501  0.00000000000E+00  0.00000000000E+00 -0.10504844861E+04  0.10504844861E+04  0.50400001928E-02 0.  1.
    10030    2    1    2    0    0  0.00000000000E+00  0.00000000000E+00  0.59092556538E+03  0.26918945376E+04  0.26262336487E+04 0.  0.
        3    1    3    3  502    0  0.30289718586E+03 -0.52668211190E+03  0.14886702594E+04  0.16078805626E+04  0.10100000352E+00 0. -1.
       -3    1    3    3    0  502 -0.30289718586E+03  0.52668211190E+03 -0.89774469399E+03  0.10840139750E+04  0.10100000352E+00 0.  1.
</event>
<event>
 5   0  0.5036452E-05  0.2240124E+04  0.7818609E-02  0.8501911E-01
       -2   -1    0    0    0  501  0.00000000000E+00  0.00000000000E+00  0.58846720492E+03  0.58846720493E+03  0.25500000920E-02 0. -1.
        2   -1    0    0  501    0  0.00000000000E+00  0.00000000000E+00 -0.21318762857E+04  0.21318762857E+04  0.25500000920E-02 0.  1.
    10030    2    1    2    0    0  0.00000000000E+00  0.00000000000E+00 -0.15434090808E+04  0.27203434906E+04  0.22401243529E+04 0.  0.
        2    1    3    3  502    0  0.34987765142E+03  0.54405756252E+03  0.33871617056E+03  0.73016549255E+03  0.25500000920E-02 0. -1.
       -2    1    3    3    0  502 -0.34987765142E+03 -0.54405756252E+03 -0.18821252513E+04  0.19901779981E+04  0.25500000920E-02 0.  1.
</event>
<event>
 5   0  0.2159405E-05  0.2632334E+04  0.7818609E-02  0.8357300E-01
        1   -1    0    0  501    0  0.00000000000E+00  0.00000000000E+00  0.17431409995E+04  0.17431409996E+04  0.50400001928E-02 0. -1.
       -1   -1    0    0    0  501  0.00000000000E+00  0.00000000000E+00 -0.99377850005E+03  0.99377850006E+03  0.50400001928E-02 0.  1.
    10030    2    1    2    0    0  0.00000000000E+00  0.00000000000E+00  0.74936249949E+03  0.27369194996E+04  0.26323343617E+04 0.  0.
        3    1    3    3  502    0  0.11043438559E+04 -0.32876328172E+03 -0.28670156026E+03  0.11873746007E+04  0.10100000352E+00 0.  1.
       -3    1    3    3    0  502 -0.11043438559E+04  0.32876328172E+03  0.10360640598E+04  0.15495448989E+04  0.10100000352E+00 0. -1.
</event>
<event>
 5   0  0.2072710E-05  0.1427820E+04  0.7818609E-02  0.8933924E-01
       -1   -1    0    0    0  501  0.00000000000E+00  0.00000000000E+00  0.52880471144E+03  0.52880471146E+03  0.50400001928E-02 0.  1.
        1   -1    0    0  501    0  0.00000000000E+00  0.00000000000E+00 -0.96381052222E+03  0.96381052224E+03  0.50400001928E-02 0. -1.
    10030    2    1    2    0    0  0.00000000000E+00  0.00000000000E+00 -0.43500581078E+03  0.14926152337E+04  0.14278200799E+04 0.  0.
        2    1    3    3  502    0  0.15144578357E+03 -0.60404513977E+03  0.14742501298E+03  0.63995350668E+03  0.25500000920E-02 0.  1.
       -2    1    3    3    0  502 -0.15144578357E+03  0.60404513977E+03 -0.58243082377E+03  0.85266172702E+03  0.25500000920E-02 0. -1.
</event>
<event>
 5   0  0.1954502E-05  0.2788938E+04  0.7818609E-02  0.8306711E-01
       -1   -1    0    0    0  501  0.00000000000E+00  0.00000000000E+00  0.20307306219E+04  0.20307306219E+04  0.50400001928E-02 0. -1.
        1   -1    0    0  501    0  0.00000000000E+00  0.00000000000E+00 -0.95755871356E+03  0.95755871357E+03  0.50400001928E-02 0.  1.
    10030    2    1    2    0    0  0.00000000000E+00  0.00000000000E+00  0.10731719084E+04  0.29882893355E+04  0.27889380072E+04 0.  0.
        4    1    3    3  502    0 -0.10276111146E+04 -0.94235450974E+03  0.51202209283E+03  0.14853231505E+04  0.12699999809E+01 0. -1.
       -4    1    3    3    0  502  0.10276111146E+04  0.94235450974E+03  0.56114981555E+03  0.15029661850E+04  0.12699999809E+01 0.  1.
</event>
<event>
 5   0  0.5182179E-05  0.2607417E+04  0.7818609E-02  0.8365686E-01
        2   -1    0    0  501    0  0.00000000000E+00  0.00000000000E+00  0.11954811595E+04  0.11954811595E+04  0.25500000920E-02 0. -1.
       -2   -1    0    0    0  501  0.00000000000E+00  0.00000000000E+00 -0.14217337285E+04  0.14217337285E+04  0.25500000920E-02 0.  1.
    10030    2    1    2    0    0  0.00000000000E+00  0.00000000000E+00 -0.22625256897E+03  0.26172148880E+04  0.26074170255E+04 0.  0.
        3    1    3    3  502    0  0.13444555704E+03 -0.12943059729E+04 -0.33125368511E+02  0.13016915378E+04  0.10100000352E+00 0.  1.
       -3    1    3    3    0  502 -0.13444555704E+03  0.12943059729E+04 -0.19312720046E+03  0.13155233502E+04  0.10100000352E+00 0. -1.
</event>
<event>
 5   0  0.5182179E-05  0.2543940E+04  0.7818609E-02  0.8387497E-01
       -2   -1    0    0    0  501  0.00000000000E+00  0.00000000000E+00  0.16161776824E+04  0.16161776824E+04  0.25500000920E-02 0.  1.
        2   -1    0    0  501    0  0.00000000000E+00  0.00000000000E+00 -0.10010701988E+04  0.10010701989E+04  0.25500000920E-02 0. -1.
    10030    2    1    2    0    0  0.00000000000E+00  0.00000000000E+00  0.61510748352E+03  0.26172478812E+04  0.25439397115E+04 0.  0.
        3    1    3    3  502    0 -0.50110615693E+03  0.56254564717E+03 -0.74684158845E+03  0.10608191901E+04  0.10100000352E+00 0. -1.
       -3    1    3    3    0  502  0.50110615693E+03 -0.56254564717E+03  0.13619490720E+04  0.15564286911E+04  0.10100000352E+00 0.  1.
</event>
<event>
 5   0  0.2072710E-05  0.2690464E+04  0.7818609E-02  0.8338106E-01
        1   -1    0    0  501    0  0.00000000000E+00  0.00000000000E+00  0.10714413196E+04  0.10714413196E+04  0.50400001928E-02 0. -1.
       -1   -1    0    0    0  501  0.00000000000E+00  0.00000000000E+00 -0.16889861892E+04  0.16889861892E+04  0.50400001928E-02 0.  1.
    10030    2    1    2    0    0  0.00000000000E+00  0.00000000000E+00 -0.61754486959E+03  0.27604275089E+04  0.26904643402E+04 0.  0.
        2    1    3    3  502    0 -0.19631826170E+03 -0.40980191329E+03  0.99031698968E+03  0.10895899266E+04  0.25500000920E-02 0. -1.
       -2    1    3    3    0  502  0.19631826170E+03  0.40980191329E+03 -0.16078618593E+04  0.16708375823E+04  0.25500000920E-02 0.  1.
</event>
<event>
 5   0  0.1993815E-05  0.2790218E+04  0.7818609E-02  0.8306312E-01
       -1   -1    0    0    0  501  0.00000000000E+00  0.00000000000E+00  0.12099502270E+04  0.12099502271E+04  0.50400001928E-02 0.  1.
        1   -1    0    0  501    0  0.00000000000E+00  0.00000000000E+00 -0.16086025225E+04  0.16086025225E+04  0.50400001928E-02 0. -1.
    10030    2    1    2    0    0  0.00000000000E+00  0.00000000000E+00 -0.39865229544E+03  0.28185527495E+04  0.27902179036E+04 0.  0.
        5    1    3    3  502    0  0.63366927379E+03 -0.12368895737E+04 -0.32252503131E+03  0.14267014585E+04  0.46999998093E+01 0. -1.
       -5    1    3    3    0  502 -0.63366927379E+03  0.12368895737E+04 -0.76127264135E+02  0.13918512910E+04  0.46999998093E+01 0.  1.
</event>
<event>
 5   0  0.4955675E-05  0.2581049E+04  0.7818609E-02  0.8374667E-01
       -2   -1    0    0    0  501  0.00000000000E+00  0.00000000000E+00  0.75879443159E+03  0.75879443160E+03  0.25500000920E-02 0. -1.
        2   -1    0    0  501    0  0.00000000000E+00  0.00000000000E+00 -0.21948685321E+04  0.21948685321E+04  0.25500000920E-02 0.  1.
    10030    2    1    2    0    0  0.00000000000E+00  0.00000000000E+00 -0.14360741005E+04  0.29536629637E+04  0.25810494147E+04 0.  0.
        5    1    3    3  502    0  0.68443297942E+03  0.10291140612E+04 -0.29306649722E+03  0.12702103432E+04  0.46999998093E+01 0. -1.
       -5    1    3    3    0  502 -0.68443297942E+03 -0.10291140612E+04 -0.11430076033E+04  0.16834526205E+04  0.46999998093E+01 0.  1.
</event>
<event>
 5   0  0.5170532E-05  0.2444281E+04  0.7818609E-02  0.8423109E-01
        2   -1    0    0  501    0  0.00000000000E+00  0.00000000000E+00  0.11046260838E+04  0.11046260838E+04  0.25500000920E-02 0. -1.
       -2   -1    0    0    0  501  0.00000000000E+00  0.00000000000E+00 -0.13521567371E+04  0.13521567371E+04  0.25500000920E-02 0.  1.
    10030    2    1    2    0    0  0.00000000000E+00  0.00000000000E+00 -0.24753065324E+03  0.24567828209E+04  0.24442811632E+04 0.  0.
        1    1    3    3  502    0  0.24506774283E+03 -0.44054986199E+03  0.99525063738E+03  0.11156460956E+04  0.50400001928E-02 0. -1.
       -1    1    3    3    0  502 -0.24506774283E+03  0.44054986199E+03 -0.12427812906E+04  0.13411367253E+04  0.50400001928E-02 0.  1.
</event>
<event>
 5   0  0.1698625E-05  0.2500281E+04  0.7818609E-02  0.8402886E-01
        3   -1    0    0  501    0  0.00000000000E+00  0.00000000000E+00  0.17385878716E+04  0.17385878745E+04  0.10100000352E+00 0. -1.
       -3   -1    0    0    0  501  0.00000000000E+00  0.00000000000E+00 -0.89891968926E+03  0.89891969494E+03  0.10100000352E+00 0.  1.
    10030    2    1    2    0    0  0.00000000000E+00  0.00000000000E+00  0.83966818231E+03  0.26375075695E+04  0.25002806887E+04 0.  0.
        1    1    3    3  502    0  0.10784194447E+04 -0.19622302077E+03  0.10539582960E+04  0.15206314683E+04  0.50400001928E-02 0. -1.
       -1    1    3    3    0  502 -0.10784194447E+04  0.19622302077E+03 -0.21429011367E+03  0.11168761012E+04  0.50400001928E-02 0.  1.
</event>
<event>
 5   0  0.1954502E-05  0.2580864E+04  0.7818609E-02  0.8374730E-01
       -1   -1    0    0    0  501  0.00000000000E+00  0.00000000000E+00  0.67168134416E+03  0.67168134418E+03  0.50400001928E-02 0. -1.
        1   -1    0    0  501    0  0.00000000000E+00  0.00000000000E+00 -0.24791742540E+04  0.24791742540E+04  0.50400001928E-02 0.  1.
    10030    2    1    2    0    0  0.00000000000E+00  0.00000000000E+00 -0.18074929099E+04  0.31508555982E+04  0.25808642703E+04 0.  0.
        4    1    3    3  502    0  0.73857508383E+03  0.87441175998E+03 -0.16312809551E+04  0.19927790263E+04  0.12699999809E+01 0.  1.
       -4    1    3    3    0  502 -0.73857508383E+03 -0.87441175998E+03 -0.17621195479E+03  0.11580765719E+04  0.12699999809E+01 0. -1.
</event>
<event>
 5   0  0.5049803E-05  0.2593938E+04  0.7818609E-02  0.8370263E-01
        2   -1    0    0  501    0  0.00000000000E+00  0.00000000000E+00  0.24447670711E+04  0.24447670711E+04  0.25500000920E-02 0. -1.
       -2   -1    0    0    0  501  0.00000000000E+00  0.00000000000E+00 -0.68805258211E+03  0.68805258211E+03  0.25500000920E-02 0.  1.
    10030    2    1    2    0    0  0.00000000000E+00  0.00000000000E+00  0.17567144890E+04  0.31328196532E+04  0.25939377756E+04 0.  0.
        4    1    3    3  502    0 -0.67997487010E+03  0.10995457142E+04  0.75307670339E+03  0.14961593283E+04  0.12699999809E+01 0. -1.
       -4    1    3    3    0  502  0.67997487010E+03 -0.10995457142E+04  0.10036377856E+04  0.16366603249E+04  0.12699999809E+01 0.  1.
</event>
<event>
 5   0  0.5182179E-05  0.2547950E+04  0.7818609E-02  0.8386099E-01
       -2   -1    0    0    0  501  0.00000000000E+00  0.00000000000E+00  0.15292272130E+04  0.15292272130E+04  0.25500000920E-02 0. -1.
        2   -1    0    0  501    0  0.00000000000E+00  0.00000000000E+00 -0.10613286688E+04  0.10613286688E+04  0.25500000920E-02 0.  1.
    10030    2    1    2    0    0  0.00000000000E+00  0.00000000000E+00  0.46789854419E+03  0.25905558817E+04  0.25479502995E+04 0.  0.
        3    1    3    3  502    0 -0.20867570299E+03  0.56445507116E+03  0.13756046642E+04  0.15014803624E+04  0.10100000352E+00 0. -1.
       -3    1    3    3    0  502  0.20867570299E+03 -0.56445507116E+03 -0.90770611997E+03  0.10890755193E+04  0.10100000352E+00 0.  1.
</event>
<event>
 5   0  0.4955675E-05  0.1612274E+04  0.7818609E-02  0.8813043E-01
       -2   -1    0    0    0  501  0.00000000000E+00  0.00000000000E+00  0.79486481704E+03  0.79486481704E+03  0.25500000920E-02 0. -1.
        2   -1    0    0  501    0  0.00000000000E+00  0.00000000000E+00 -0.81756953640E+03  0.81756953640E+03  0.25500000920E-02 0.  1.
    10030    2    1    2    0    0  0.00000000000E+00  0.00000000000E+00 -0.22704719361E+02  0.16124343534E+04  0.16122744927E+04 0.  0.
        5    1    3    3  502    0  0.37238431816E+03  0.23880859133E+02 -0.72598237055E+03  0.81627989575E+03  0.46999998093E+01 0.  1.
       -5    1    3    3    0  502 -0.37238431816E+03 -0.23880859133E+02  0.70327765119E+03  0.79615445770E+03  0.46999998093E+01 0. -1.
</event>
<event>
 5   0  0.4955675E-05  0.2610763E+04  0.7818609E-02  0.8364555E-01
       -2   -1    0    0    0  501  0.00000000000E+00  0.00000000000E+00  0.11423478927E+04  0.11423478927E+04  0.25500000920E-02 0. -1.
        2   -1    0    0  501    0  0.00000000000E+00  0.00000000000E+00 -0.14916827130E+04  0.14916827130E+04  0.25500000920E-02 0.  1.
    10030    2    1    2    0    0  0.00000000000E+00  0.00000000000E+00 -0.34933482037E+03  0.26340306057E+04  0.26107628033E+04 0.  0.
        5    1    3    3  502    0 -0.16399713080E+03 -0.10585039070E+04 -0.92742207112E+03  0.14168483927E+04  0.46999998093E+01 0.  1.
       -5    1    3    3    0  502  0.16399713080E+03  0.10585039070E+04  0.57808725075E+03  0.12171822129E+04  0.46999998093E+01 0. -1.
</event>
<event>
 5   0  0.4955675E-05  0.2363669E+04  0.7818609E-02  0.8453232E-01
       -2   -1    0    0    0  501  0.00000000000E+00  0.00000000000E+00  0.71271857534E+03  0.71271857535E+03  0.25500000920E-02 0.  1.
        2   -1    0    0  501    0  0.00000000000E+00  0.00000000000E+00 -0.19597261477E+04  0.19597261477E+04  0.25500000920E-02 0. -1.
    10030    2    1    2    0    0  0.00000000000E+00  0.00000000000E+00 -0.12470075724E+04  0.26724447231E+04  0.23636693746E+04 0.  0.
        5    1    3    3  502    0 -0.79285794353E+03 -0.40468217853E+03  0.25542845996E+03  0.92609782010E+03  0.46999998093E+01 0.  1.
       -5    1    3    3    0  502  0.79285794353E+03  0.40468217853E+03 -0.15024360324E+04  0.17463469030E+04  0.46999998093E+01 0. -1.
</event>
<event>
 5   0  0.1993815E-05  0.2460273E+04  0.7818609E-02  0.8417277E-01
        1   -1    0    0  501    0  0.00000000000E+00  0.00000000000E+00  0.17782936936E+04  0.17782936936E+04  0.50400001928E-02 0. -1.
       -1   -1    0    0    0  501  0.00000000000E+00  0.00000000000E+00 -0.85094823519E+03  0.85094823521E+03  0.50400001928E-02 0.  1.
    10030    2    1    2    0    0  0.00000000000E+00  0.00000000000E+00  0.92734545837E+03  0.26292419288E+04  0.24602730582E+04 0.  0.
        5    1    3    3  502    0  0.73823873985E+03  0.20862557197E+03 -0.56397900337E+03  0.95216357447E+03  0.46999998093E+01 0.  1.
       -5    1    3    3    0  502 -0.73823873985E+03 -0.20862557197E+03  0.14913244617E+04  0.16770783543E+04  0.46999998093E+01 0. -1.
</event>
<event>
 5   0  0.5170532E-05  0.2337097E+04  0.7818609E-02  0.8463436E-01
        2   -1    0    0  501    0  0.00000000000E+00  0.00000000000E+00  0.17660203104E+04  0.17660203104E+04  0.25500000920E-02 0.  1.
       -2   -1    0    0    0  501  0.00000000000E+00  0.00000000000E+00 -0.77321060012E+03  0.77321060012E+03  0.25500000920E-02 0. -1.
    10030    2    1    2    0    0  0.00000000000E+00  0.00000000000E+00  0.99280971033E+03  0.25392309106E+04  0.23370970233E+04 0.  0.
        1    1    3    3  502    0 -0.83332021317E+03  0.38029046859E+03 -0.29192695910E+03  0.96138689800E+03  0.50400001928E-02 0. -1.
       -1    1    3    3    0  502  0.83332021317E+03 -0.38029046859E+03  0.12847366694E+04  0.15778440126E+04  0.50400001928E-02 0.  1.
</event>
<event>
 5   0  0.2072710E-05  0.2509520E+04  0.7818609E-02  0.8399602E-01
       -1   -1    0    0    0  501  0.00000000000E+00  0.00000000000E+00  0.12977522520E+04  0.12977522520E+04  0.50400001928E-02 0.  1.
        1   -1    0    0  501    0  0.00000000000E+00  0.00000000000E+00 -0.12131918312E+04  0.12131918312E+04  0.50400001928E-02 0. -1.
    10030    2    1    2    0    0  0.00000000000E+00  0.00000000000E+00  0.84560420819E+02  0.25109440832E+04  0.25095198195E+04 0.  0.
        2    1    3    3  502    0  0.87010347893E+03 -0.67056529380E+03 -0.56443391237E+03  0.12350398855E+04  0.25500000920E-02 0. -1.
       -2    1    3    3    0  502 -0.87010347893E+03  0.67056529380E+03  0.64899433319E+03  0.12759041977E+04  0.25500000920E-02 0.  1.
</event>
<event>
 5   0  0.1954502E-05  0.2552296E+04  0.7818609E-02  0.8384588E-01
        1   -1    0    0  501    0  0.00000000000E+00  0.00000000000E+00  0.11187561791E+04  0.11187561791E+04  0.50400001928E-02 0. -1.
       -1   -1    0    0    0  501  0.00000000000E+00  0.00000000000E+00 -0.14556827365E+04  0.14556827365E+04  0.50400001928E-02 0.  1.
    10030    2    1    2    0    0  0.00000000000E+00  0.00000000000E+00 -0.33692655737E+03  0.25744389156E+04  0.25522962651E+04 0.  0.
        4    1    3    3  502    0 -0.72661052677E+03  0.10407175319E+03  0.88450835159E+03  0.11494130782E+04  0.12699999809E+01 0. -1.
       -4    1    3    3    0  502  0.72661052677E+03 -0.10407175319E+03 -0.12214349090E+04  0.14250258374E+04  0.12699999809E+01 0.  1.
</event>
<event>
 5   0  0.2159405E-05  0.1972337E+04  0.7818609E-02  0.8619664E-01
        1   -1    0    0  501    0  0.00000000000E+00  0.00000000000E+00  0.12404220369E+04  0.12404220369E+04  0.50400001928E-02 0. -1.
       -1   -1    0    0    0  501  0.00000000000E+00  0.00000000000E+00 -0.78403004915E+03  0.78403004917E+03  0.50400001928E-02 0.  1.
    10030    2    1    2    0    0  0.00000000000E+00  0.00000000000E+00  0.45639198775E+03  0.20244520861E+04  0.19723368380E+04 0.  0.
        3    1    3    3  502    0  0.44769852024E+03 -0.36187824716E+03 -0.59367240157E+03  0.82694423112E+03  0.10100000352E+00 0.  1.
       -3    1    3    3    0  502 -0.44769852024E+03  0.36187824716E+03  0.10500643893E+04  0.11975078550E+04  0.10100000352E+00 0. -1.
</event>
<event>
 5   0  0.5170532E-05  0.2140831E+04  0.7818609E-02  0.8543467E-01
       -2   -1    0    0    0  501  0.00000000000E+00  0.00000000000E+00  0.53473800855E+03  0.53473800855E+03  0.25500000920E-02 0.  1.
        2   -1    0    0  501    0  0.00000000000E+00  0.00000000000E+00 -0.21427122650E+04  0.21427122650E+04  0.25500000920E-02 0. -1.
    10030    2    1    2    0    0  0.00000000000E+00  0.00000000000E+00 -0.16079742564E+04  0.26774502735E+04  0.21408313240E+04 0.  0.
        1    1    3    3  502    0 -0.52376555026E+03  0.63491764141E+03  0.51905116365E+02  0.82470898148E+03  0.50400001928E-02 0.  1.
       -1    1    3    3    0  502  0.52376555026E+03 -0.63491764141E+03 -0.16598793728E+04  0.18527412920E+04  0.50400001928E-02 0. -1.
</event>
<event>
 5   0  0.1954502E-05  0.2535302E+04  0.7818609E-02  0.8390516E-01
        1   -1    0    0  501    0  0.00000000000E+00  0.00000000000E+00  0.18190801194E+04  0.18190801194E+04  0.50400001928E-02 0.  1.
       -1   -1    0    0    0  501  0.00000000000E+00  0.00000000000E+00 -0.88338029408E+03  0.88338029409E+03  0.50400001928E-02 0. -1.
    10030    2    1    2    0    0  0.00000000000E+00  0.00000000000E+00  0.93569982528E+03  0.27024604135E+04  0.25353023731E+04 0.  0.
        4    1    3    3  502    0  0.26819504748E+03  0.78062351998E+03  0.14933831875E+04  0.17063108219E+04  0.12699999809E+01 0.  1.
       -4    1    3    3    0  502 -0.26819504748E+03 -0.78062351998E+03 -0.55768336217E+03  0.99614959157E+03  0.12699999809E+01 0. -1.
</event>
<event>
 5   0  0.1954502E-05  0.2583371E+04  0.7818609E-02  0.8373872E-01
        1   -1    0    0  501    0  0.00000000000E+00  0.00000000000E+00  0.20782909241E+04  0.20782909241E+04  0.50400001928E-02 0. -1.
       -1   -1    0    0    0  501  0.00000000000E+00  0.00000000000E+00 -0.80279958831E+03  0.80279958833E+03  0.50400001928E-02 0.  1.
    10030    2    1    2    0    0  0.00000000000E+00  0.00000000000E+00  0.12754913358E+04  0.28810905125E+04  0.25833707425E+04 0.  0.
        4    1    3    3  502    0  0.10978979506E+04 -0.19278702149E+03 -0.90076673173E+02  0.11183300790E+04  0.12699999809E+01 0. -1.
       -4    1    3    3    0  502 -0.10978979506E+04  0.19278702149E+03  0.13655680090E+04  0.17627604335E+04  0.12699999809E+01 0.  1.
</event>
<event>
 5   0  0.1993815E-05  0.2670617E+04  0.7818609E-02  0.8344602E-01
       -1   -1    0    0    0  501  0.00000000000E+00  0.00000000000E+00  0.10599465416E+04  0.10599465416E+04  0.50400001928E-02 0. -1.
        1   -1    0    0  501    0  0.00000000000E+00  0.00000000000E+00 -0.16822060853E+04  0.16822060853E+04  0.50400001928E-02 0.  1.
    10030    2    1    2    0    0  0.00000000000E+00  0.00000000000E+00 -0.62225954367E+03  0.27421526269E+04  0.26706167994E+04 0.  0.
        5    1    3    3  502    0 -0.50874065630E+03 -0.10762653110E+04 -0.93219742591E+03  0.15120113114E+04  0.46999998093E+01 0.  1.
       -5    1    3    3    0  502  0.50874065630E+03  0.10762653110E+04  0.30993788225E+03  0.12301413154E+04  0.46999998093E+01 0. -1.
</event>
<event>
 5   0  0.5036452E-05  0.2765184E+04  0.7818609E-02  0.8314159E-01
        2   -1    0    0  501    0  0.00000000000E+00  0.00000000000E+00  0.25631457469E+04  0.25631457470E+04  0.25500000920E-02 0. -1.
       -2   -1    0    0    0  501  0.00000000000E+00  0.00000000000E+00 -0.74578720921E+03  0.74578720921E+03  0.25500000920E-02 0.  1.
    10030    2    1    2    0    0  0.00000000000E+00  0.00000000000E+00  0.18173585377E+04  0.33089329562E+04  0.27651844882E+04 0.  0.
        2    1    3    3  502    0  0.28224237161E+03  0.80888063328E+03 -0.38988991402E+03  0.94125595897E+03  0.25500000920E-02 0.  1.
       -2    1    3    3    0  502 -0.28224237161E+03 -0.80888063328E+03  0.22072484518E+04  0.23676769972E+04  0.25500000920E-02 0. -1.
</event>
<event>
 5   0  0.5049803E-05  0.2314320E+04  0.7818609E-02  0.8472296E-01
       -2   -1    0    0    0  501  0.00000000000E+00  0.00000000000E+00  0.22665591107E+04  0.22665591107E+04  0.25500000920E-02 0. -1.
        2   -1    0    0  501    0  0.00000000000E+00  0.00000000000E+00 -0.59077194140E+03  0.59077194140E+03  0.25500000920E-02 0.  1.
    10030    2    1    2    0    0  0.00000000000E+00  0.00000000000E+00  0.16757871693E+04  0.28573310521E+04  0.23143202251E+04 0.  0.
        4    1    3    3  502    0 -0.35468550857E+03  0.39071020862E+03 -0.43357333912E+03  0.68296685894E+03  0.12699999809E+01 0.  1.
       -4    1    3    3    0  502  0.35468550857E+03 -0.39071020862E+03  0.21093605084E+04  0.21743641931E+04  0.12699999809E+01 0. -1.
</event>
<event>
 5   0  0.4955675E-05  0.2609090E+04  0.7818609E-02  0.8365120E-01
        2   -1    0    0  501    0  0.00000000000E+00  0.00000000000E+00  0.13385878898E+04  0.13385878898E+04  0.25500000920E-02 0.  1.
       -2   -1    0    0    0  501  0.00000000000E+00  0.00000000000E+00 -0.12713674927E+04  0.12713674927E+04  0.25500000920E-02 0. -1.
    10030    2    1    2    0    0  0.00000000000E+00  0.00000000000E+00  0.67220397146E+02  0.26099553825E+04  0.26090895954E+04 0.  0.
        5    1    3    3  502    0  0.16714688282E+03 -0.10338358977E+04 -0.74450413895E+03  0.12849370595E+04  0.46999998093E+01 0. -1.
       -5    1    3    3    0  502 -0.16714688282E+03  0.10338358977E+04  0.81172453609E+03  0.13250183230E+04  0.46999998093E+01 0.  1.
</event>
<event>
 5   0  0.5182179E-05  0.2703249E+04  0.7818609E-02  0.8333952E-01
       -2   -1    0    0    0  501  0.00000000000E+00  0.00000000000E+00  0.16378987023E+04  0.16378987023E+04  0.25500000920E-02 0.  1.
        2   -1    0    0  501    0  0.00000000000E+00  0.00000000000E+00 -0.11153858174E+04  0.11153858174E+04  0.25500000920E-02 0. -1.
    10030    2    1    2    0    0  0.00000000000E+00  0.00000000000E+00  0.52251288489E+03  0.27532845197E+04  0.27032491434E+04 0.  0.
        3    1    3    3  502    0 -0.19915530925E+03 -0.88176028830E+03 -0.76219338784E+03  0.11824139774E+04  0.10100000352E+00 0. -1.
       -3    1    3    3    0  502  0.19915530925E+03  0.88176028830E+03  0.12847062727E+04  0.15708705423E+04  0.10100000352E+00 0.  1.
</event>
<event>
 5   0  0.4955675E-05  0.2477701E+04  0.7818609E-02  0.8410973E-01
        2   -1    0    0  501    0  0.00000000000E+00  0.00000000000E+00  0.13884106536E+04  0.13884106536E+04  0.25500000920E-02 0. -1.
       -2   -1    0    0    0  501  0.00000000000E+00  0.00000000000E+00 -0.11054008659E+04  0.11054008659E+04  0.25500000920E-02 0.  1.
    10030    2    1    2    0    0  0.00000000000E+00  0.00000000000E+00  0.28300978776E+03  0.24938115195E+04  0.24777008203E+04 0.  0.
        5    1    3    3  502    0  0.54014651727E+02  0.93836553932E+03 -0.67076226282E+03  0.11547257558E+04  0.46999998093E+01 0.  1.
       -5    1    3    3    0  502 -0.54014651727E+02 -0.93836553932E+03  0.95377205058E+03  0.13390857637E+04  0.46999998093E+01 0. -1.
</event>
<event>
 5   0  0.5036452E-05  0.2835642E+04  0.7818609E-02  0.8292288E-01
       -2   -1    0    0    0  501  0.00000000000E+00  0.00000000000E+00  0.10860134500E+04  0.10860134500E+04  0.25500000920E-02 0. -1.
        2   -1    0    0  501    0  0.00000000000E+00  0.00000000000E+00 -0.18510049378E+04  0.18510049378E+04  0.25500000920E-02 0.  1.
    10030    2    1    2    0    0  0.00000000000E+00  0.00000000000E+00 -0.76499148783E+03  0.29370183878E+04  0.28356419086E+04 0.  0.
        2    1    3    3  502    0 -0.13519771484E+04 -0.22702579905E+03 -0.78554498514E+01  0.13709283830E+04  0.25500000920E-02 0.  1.
       -2    1    3    3    0  502  0.13519771484E+04  0.22702579905E+03 -0.75713603798E+03  0.15660900048E+04  0.25500000920E-02 0. -1.
</event>
<event>
 5   0  0.2163800E-05  0.2383101E+04  0.7818609E-02  0.8445858E-01
       -1   -1    0    0    0  501  0.00000000000E+00  0.00000000000E+00  0.81061980152E+03  0.81061980153E+03  0.50400001928E-02 0.  1.
        1   -1    0    0  501    0  0.00000000000E+00  0.00000000000E+00 -0.17514899854E+04  0.17514899854E+04  0.50400001928E-02 0. -1.
    10030    2    1    2    0    0  0.00000000000E+00  0.00000000000E+00 -0.94087018389E+03  0.25621097869E+04  0.23831008912E+04 0.  0.
        1    1    3    3  502    0 -0.10789843147E+04  0.45640002179E+03 -0.70421863700E+03  0.13669060026E+04  0.50400001928E-02 0.  1.
       -1    1    3    3    0  502  0.10789843147E+04 -0.45640002179E+03 -0.23665154689E+03  0.11952037843E+04  0.50400001928E-02 0. -1.
</event>
<event>
 5   0  0.1954502E-05  0.1466083E+04  0.7818609E-02  0.8907326E-01
        1   -1    0    0  501    0  0.00000000000E+00  0.00000000000E+00  0.37605088830E+03  0.37605088834E+03  0.50400001928E-02 0.  1.
       -1   -1    0    0    0  501  0.00000000000E+00  0.00000000000E+00 -0.14289294221E+04  0.14289294221E+04  0.50400001928E-02 0. -1.
    10030    2    1    2    0    0  0.00000000000E+00  0.00000000000E+00 -0.10528785338E+04  0.18049803105E+04  0.14660834609E+04 0.  0.
        4    1    3    3  502    0  0.31273502934E+03 -0.66171125691E+03 -0.57695545780E+03  0.93195718748E+03  0.12699999809E+01 0.  1.
       -4    1    3    3    0  502 -0.31273502934E+03  0.66171125691E+03 -0.47592307603E+03  0.87302312301E+03  0.12699999809E+01 0. -1.
</event>
<event>
 5   0  0.5049803E-05  0.2550295E+04  0.7818609E-02  0.8385283E-01
       -2   -1    0    0    0  501  0.00000000000E+00  0.00000000000E+00  0.10115479745E+04  0.10115479745E+04  0.25500000920E-02 0.  1.
        2   -1    0    0  501    0  0.00000000000E+00  0.00000000000E+00 -0.16074390564E+04  0.16074390564E+04  0.25500000920E-02 0. -1.
    10030    2    1    2    0    0  0.00000000000E+00  0.00000000000E+00 -0.59589108189E+03  0.26189870309E+04  0.25502954508E+04 0.  0.
        4    1    3    3  502    0 -0.63476251425E+03  0.24303770717E+03 -0.14058978902E+04  0.15615829364E+04  0.12699999809E+01 0. -1.
       -4    1    3    3    0  502  0.63476251425E+03 -0.24303770717E+03  0.81000680834E+03  0.10574040945E+04  0.12699999809E+01 0.  1.
</event>
<event>
 5   0  0.5049803E-05  0.2562631E+04  0.7818609E-02  0.8381007E-01
       -2   -1    0    0    0  501  0.00000000000E+00  0.00000000000E+00  0.13847469331E+04  0.13847469331E+04  0.25500000920E-02 0.  1.
        2   -1    0    0  501    0  0.00000000000E+00  0.00000000000E+00 -0.11856095766E+04  0.11856095766E+04  0.25500000920E-02 0. -1.
    10030    2    1    2    0    0  0.00000000000E+00  0.00000000000E+00  0.19913735654E+03  0.25703565097E+04  0.25626308552E+04 0.  0.
        4    1    3    3  502    0 -0.95451974635E+03  0.64633301851E+03 -0.46150425886E+03  0.12417093504E+04  0.12699999809E+01 0.  1.
       -4    1    3    3    0  502  0.95451974635E+03 -0.64633301851E+03  0.66064161539E+03  0.13286471593E+04  0.12699999809E+01 0. -1.
</event>
<event>
 5   0  0.2072710E-05  0.2497999E+04  0.7818609E-02  0.8403699E-01
       -1   -1    0    0    0  501  0.00000000000E+00  0.00000000000E+00  0.19989788004E+04  0.19989788004E+04  0.50400001928E-02 0.  1.
        1   -1    0    0  501    0  0.00000000000E+00  0.00000000000E+00 -0.78039826874E+03  0.78039826875E+03  0.50400001928E-02 0. -1.
    10030    2    1    2    0    0  0.00000000000E+00  0.00000000000E+00  0.12185805316E+04  0.27793770691E+04  0.24979988752E+04 0.  0.
        2    1    3    3  502    0  0.84621093973E+03 -0.82013647109E+03  0.14878195291E+03  0.11877848523E+04  0.25500000920E-02 0. -1.
       -2    1    3    3    0  502 -0.84621093973E+03  0.82013647109E+03  0.10697985787E+04  0.15915922169E+04  0.25500000920E-02 0.  1.
</event>
<event>
 5   0  0.2072710E-05  0.2537867E+04  0.7818609E-02  0.8389618E-01
        1   -1    0    0  501    0  0.00000000000E+00  0.00000000000E+00  0.15556254929E+04  0.15556254929E+04  0.50400001928E-02 0.  1.
       -1   -1    0    0    0  501  0.00000000000E+00  0.00000000000E+00 -0.10350771242E+04  0.10350771242E+04  0.50400001928E-02 0. -1.
    10030    2    1    2    0    0  0.00000000000E+00  0.00000000000E+00  0.52054836872E+03  0.25907026171E+04  0.25378671057E+04 0.  0.
        2    1    3    3  502    0  0.41342220920E+02 -0.11917167642E+04 -0.18268867679E+03  0.12063470387E+04  0.25500000920E-02 0. -1.
       -2    1    3    3    0  502 -0.41342220920E+02  0.11917167642E+04  0.70323704551E+03  0.13843555784E+04  0.25500000920E-02 0.  1.
</event>
<event>
 5   0  0.5036452E-05  0.2573242E+04  0.7818609E-02  0.8377347E-01
       -2   -1    0    0    0  501  0.00000000000E+00  0.00000000000E+00  0.78702857556E+03  0.78702857556E+03  0.25500000920E-02 0.  1.
        2   -1    0    0  501    0  0.00000000000E+00  0.00000000000E+00 -0.21033470083E+04  0.21033470083E+04  0.25500000920E-02 0. -1.
    10030    2    1    2    0    0  0.00000000000E+00  0.00000000000E+00 -0.13163184327E+04  0.28903755839E+04  0.25732424681E+04 0.  0.
        2    1    3    3  502    0  0.11161508189E+04  0.59584909717E+03 -0.39577829568E+03  0.13256957632E+04  0.25500000920E-02 0.  1.
       -2    1    3    3    0  502 -0.11161508189E+04 -0.59584909717E+03 -0.92054013705E+03  0.15646798207E+04  0.25500000920E-02 0. -1.
</event>
<event>
 5   0  0.5182179E-05  0.2621422E+04  0.7818609E-02  0.8360961E-01
        2   -1    0    0  501    0  0.00000000000E+00  0.00000000000E+00  0.16851173400E+04  0.16851173400E+04  0.25500000920E-02 0.  1.
       -2   -1    0    0    0  501  0.00000000000E+00  0.00000000000E+00 -0.10194916628E+04  0.10194916628E+04  0.25500000920E-02 0. -1.
    10030    2    1    2    0    0  0.00000000000E+00  0.00000000000E+00  0.66562567727E+03  0.27046090028E+04  0.26214218119E+04 0.  0.
        3    1    3    3  502    0  0.11362018719E+04  0.64706594266E+03  0.23873796167E+03  0.13291519298E+04  0.10100000352E+00 0.  1.
       -3    1    3    3    0  502 -0.11362018719E+04 -0.64706594266E+03  0.42688771560E+03  0.13754570730E+04  0.10100000352E+00 0. -1.
</event>
<event>
 5   0  0.5036452E-05  0.2407020E+04  0.7818609E-02  0.8436880E-01
       -2   -1    0    0    0  501  0.00000000000E+00  0.00000000000E+00  0.66654570840E+03  0.66654570840E+03  0.25500000920E-02 0.  1.
        2   -1    0    0  501    0  0.00000000000E+00  0.00000000000E+00 -0.21730478775E+04  0.21730478775E+04  0.25500000920E-02 0. -1.
    10030    2    1    2    0    0  0.00000000000E+00  0.00000000000E+00 -0.15065021691E+04  0.28395935859E+04  0.24070195154E+04 0.  0.
        2    1    3    3  502    0 -0.14738719363E+03  0.43007719492E+02  0.65494503449E+03  0.67270026534E+03  0.25500000920E-02 0.  1.
       -2    1    3    3    0  502  0.14738719363E+03 -0.43007719492E+02 -0.21614472036E+04  0.21668933206E+04  0.25500000920E-02 0. -1.
</event>
<event>
 5   0  0.5170532E-05  0.2582642E+04  0.7818609E-02  0.8374121E-01
       -2   -1    0    0    0  501  0.00000000000E+00  0.00000000000E+00  0.11957825707E+04  0.11957825707E+04  0.25500000920E-02 0.  1.
        2   -1    0    0  501    0  0.00000000000E+00  0.00000000000E+00 -0.13944925718E+04  0.13944925718E+04  0.25500000920E-02 0. -1.
    10030    2    1    2    0    0  0.00000000000E+00  0.00000000000E+00 -0.19871000105E+03  0.25902751425E+04  0.25826419902E+04 0.  0.
        1    1    3    3  502    0  0.11608043410E+04  0.30644938717E+03  0.37758381711E+03  0.12585497543E+04  0.50400001928E-02 0.  1.
       -1    1    3    3    0  502 -0.11608043410E+04 -0.30644938717E+03 -0.57629381816E+03  0.13317253883E+04  0.50400001928E-02 0. -1.
</event>
<event>
 5   0  0.1993815E-05  0.2064302E+04  0.7818609E-02  0.8577134E-01
       -1   -1    0    0    0  501  0.00000000000E+00  0.00000000000E+00  0.13150754761E+04  0.13150754761E+04  0.50400001928E-02 0.  1.
        1   -1    0    0  501    0  0.00000000000E+00  0.00000000000E+00 -0.81009461173E+03  0.81009461174E+03  0.50400001928E-02 0. -1.
    10030    2    1    2    0    0  0.00000000000E+00  0.00000000000E+00  0.50498086439E+03  0.21251700879E+04  0.20643018745E+04 0.  0.
        5    1    3    3  502    0  0.76085522473E+03  0.13593497600E+03  0.95671798014E+03  0.12299229139E+04  0.46999998093E+01 0. -1.
       -5    1    3    3    0  502 -0.76085522473E+03 -0.13593497600E+03 -0.45173711575E+03  0.89524717394E+03  0.46999998093E+01 0.  1.
</event>
<event>
 5   0  0.4955675E-05  0.2379539E+04  0.7818609E-02  0.8447204E-01
       -2   -1    0    0    0  501  0.00000000000E+00  0.00000000000E+00  0.96958885895E+03  0.96958885895E+03  0.25500000920E-02 0.  1.
        2   -1    0    0  501    0  0.00000000000E+00  0.00000000000E+00 -0.14599499858E+04  0.14599499858E+04  0.25500000920E-02 0. -1.
    10030    2    1    2    0    0  0.00000000000E+00  0.00000000000E+00 -0.49036112685E+03  0.24295388448E+04  0.23795388132E+04 0.  0.
        5    1    3    3  502    0 -0.83867768701E+03 -0.84076965056E+03 -0.31919715854E+03  0.12297084142E+04  0.46999998093E+01 0.  1.
       -5    1    3    3    0  502  0.83867768701E+03  0.84076965056E+03 -0.17116396831E+03  0.11998304305E+04  0.46999998093E+01 0. -1.
</event>
<event>
 5   0  0.5049803E-05  0.2684595E+04  0.7818609E-02  0.8340021E-01
       -2   -1    0    0    0  501  0.00000000000E+00  0.00000000000E+00  0.12915651388E+04  0.12915651389E+04  0.25500000920E-02 0. -1.
        2   -1    0    0  501    0  0.00000000000E+00  0.00000000000E+00 -0.13950231099E+04  0.13950231099E+04  0.25500000920E-02 0.  1.
    10030    2    1    2    0    0  0.00000000000E+00  0.00000000000E+00 -0.10345797101E+03  0.26865882487E+04  0.26845954754E+04 0.  0.
        4    1    3    3  502    0  0.11888647744E+04 -0.51295441557E+03  0.30242623403E+03  0.13296559420E+04  0.12699999809E+01 0. -1.
       -4    1    3    3    0  502 -0.11888647744E+04  0.51295441557E+03 -0.40588420504E+03  0.13569323067E+04  0.12699999809E+01 0.  1.
</event>
<event>
 5   0  0.5036452E-05  0.2606708E+04  0.7818609E-02  0.8365926E-01
       -2   -1    0    0    0  501  0.00000000000E+00  0.00000000000E+00  0.67994044517E+03  0.67994044518E+03  0.25500000920E-02 0. -1.
        2   -1    0    0  501    0  0.00000000000E+00  0.00000000000E+00 -0.24983529206E+04  0.24983529206E+04  0.25500000920E-02 0.  1.
    10030    2    1    2    0    0  0.00000000000E+00  0.00000000000E+00 -0.18184124755E+04  0.31782933658E+04  0.26067076530E+04 0.  0.
        2    1    3    3  502    0  0.81534676633E+03  0.77500486029E+03 -0.10660437096E+03  0.11299501647E+04  0.25500000920E-02 0. -1.
       -2    1    3    3    0  502 -0.81534676633E+03 -0.77500486029E+03 -0.17118081045E+04  0.20483432011E+04  0.25500000920E-02 0.  1.
</event>
<event>
 5   0  0.1993815E-05  0.2215944E+04  0.7818609E-02  0.8511821E-01
        1   -1    0    0  501    0  0.00000000000E+00  0.00000000000E+00  0.80090692601E+03  0.80090692603E+03  0.50400001928E-02 0.  1.
       -1   -1    0    0    0  501  0.00000000000E+00  0.00000000000E+00 -0.15327643831E+04  0.15327643831E+04  0.50400001928E-02 0. -1.
    10030    2    1    2    0    0  0.00000000000E+00  0.00000000000E+00 -0.73185745711E+03  0.23336713092E+04  0.22159436910E+04 0.  0.
        5    1    3    3  502    0  0.18178271877E+03 -0.92259283241E+03  0.25116898575E+03  0.97330901601E+03  0.46999998093E+01 0.  1.
       -5    1    3    3    0  502 -0.18178271877E+03  0.92259283241E+03 -0.98302644286E+03  0.13603622931E+04  0.46999998093E+01 0. -1.
</event>
<event>
 5   0  0.1993815E-05  0.1350254E+04  0.7818609E-02  0.8990636E-01
        1   -1    0    0  501    0  0.00000000000E+00  0.00000000000E+00  0.39639719093E+03  0.39639719096E+03  0.50400001928E-02 0.  1.
       -1   -1    0    0    0  501  0.00000000000E+00  0.00000000000E+00 -0.11498477002E+04  0.11498477002E+04  0.50400001928E-02 0. -1.
    10030    2    1    2    0    0  0.00000000000E+00  0.00000000000E+00 -0.75345050929E+03  0.15462448912E+04  0.13502538997E+04 0.  0.
        5    1    3    3  502    0  0.33567810870E+03 -0.54668047718E+03 -0.13587577414E+03  0.65576188726E+03  0.46999998093E+01 0.  1.
       -5    1    3    3    0  502 -0.33567810870E+03  0.54668047718E+03 -0.61757473514E+03  0.89048300392E+03  0.46999998093E+01 0. -1.
</event>
<event>
 5   0  0.5170532E-05  0.2615965E+04  0.7818609E-02  0.8362798E-01
       -2   -1    0    0    0  501  0.00000000000E+00  0.00000000000E+00  0.91109881232E+03  0.91109881232E+03  0.25500000920E-02 0.  1.
        2   -1    0    0  501    0  0.00000000000E+00  0.00000000000E+00 -0.18777529065E+04  0.18777529065E+04  0.25500000920E-02 0. -1.
    10030    2    1    2    0    0  0.00000000000E+00  0.00000000000E+00 -0.96665409417E+03  0.27888517188E+04  0.26159651702E+04 0.  0.
        1    1    3    3  502    0  0.67769731901E+03 -0.27517758911E+03 -0.16393441843E+04  0.17951171873E+04  0.50400001928E-02 0. -1.
       -1    1    3    3    0  502 -0.67769731901E+03  0.27517758911E+03  0.67269009009E+03  0.99373453148E+03  0.50400001928E-02 0.  1.
</event>
<event>
 5   0  0.4955675E-05  0.2557308E+04  0.7818609E-02  0.8382849E-01
       -2   -1    0    0    0  501  0.00000000000E+00  0.00000000000E+00  0.94726716580E+03  0.94726716581E+03  0.25500000920E-02 0. -1.
        2   -1    0    0  501    0  0.00000000000E+00  0.00000000000E+00 -0.17259714643E+04  0.17259714643E+04  0.25500000920E-02 0.  1.
    10030    2    1    2    0    0  0.00000000000E+00  0.00000000000E+00 -0.77870429854E+03  0.26732386302E+04  0.25573080356E+04 0.  0.
        5    1    3    3  502    0 -0.87339807145E+03  0.65982224544E+03 -0.10801776617E+04  0.15378541730E+04  0.46999998093E+01 0.  1.
       -5    1    3    3    0  502  0.87339807145E+03 -0.65982224544E+03  0.30147336312E+03  0.11353844571E+04  0.46999998093E+01 0. -1.
</event>
<event>
 5   0  0.4955675E-05  0.1933330E+04  0.7818609E-02  0.8638441E-01
        2   -1    0    0  501    0  0.00000000000E+00  0.00000000000E+00  0.16226747774E+04  0.16226747774E+04  0.25500000920E-02 0. -1.
       -2   -1    0    0    0  501  0.00000000000E+00  0.00000000000E+00 -0.57586492669E+03  0.57586492669E+03  0.25500000920E-02 0.  1.
    10030    2    1    2    0    0  0.00000000000E+00  0.00000000000E+00  0.10468098507E+04  0.21985397041E+04  0.19333302788E+04 0.  0.
        5    1    3    3  502    0 -0.24892297357E+01  0.96603135974E+03  0.56274235063E+03  0.11179999228E+04  0.46999998093E+01 0. -1.
       -5    1    3    3    0  502  0.24892297357E+01 -0.96603135974E+03  0.48406750009E+03  0.10805397813E+04  0.46999998093E+01 0.  1.
</event>
<event>
 5   0  0.1954502E-05  0.2447319E+04  0.7818609E-02  0.8421998E-01
        1   -1    0    0  501    0  0.00000000000E+00  0.00000000000E+00  0.13417615877E+04  0.13417615877E+04  0.50400001928E-02 0. -1.
       -1   -1    0    0    0  501  0.00000000000E+00  0.00000000000E+00 -0.11159527480E+04  0.11159527480E+04  0.50400001928E-02 0.  1.
    10030    2    1    2    0    0  0.00000000000E+00  0.00000000000E+00  0.22580883966E+03  0.24577143357E+04  0.24473189665E+04 0.  0.
        4    1    3    3  502    0 -0.10676473476E+04  0.59013491015E+03  0.16523600683E+02  0.12200019317E+04  0.12699999809E+01 0.  1.
       -4    1    3    3    0  502  0.10676473476E+04 -0.59013491015E+03  0.20928523898E+03  0.12377124040E+04  0.12699999809E+01 0. -1.
</event>
<event>
 5   0  0.1954502E-05  0.2448480E+04  0.7818609E-02  0.8421573E-01
        1   -1    0    0  501    0  0.00000000000E+00  0.00000000000E+00  0.61831277734E+03  0.61831277736E+03  0.50400001928E-02 0. -1.
       -1   -1    0    0    0  501  0.00000000000E+00  0.00000000000E+00 -0.24239565170E+04  0.24239565170E+04  0.50400001928E-02 0.  1.
    10030    2    1    2    0    0  0.00000000000E+00  0.00000000000E+00 -0.18056437397E+04  0.30422692944E+04  0.24484797620E+04 0.  0.
        4    1    3    3  502    0  0.42102514382E+03  0.10449363547E+02  0.52546911397E+03  0.67341722844E+03  0.12699999809E+01 0. -1.
       -4    1    3    3    0  502 -0.42102514382E+03 -0.10449363547E+02 -0.23311128536E+04  0.23688520659E+04  0.12699999809E+01 0.  1.
</event>
<event>
 5   0  0.2072710E-05  0.2607832E+04  0.7818609E-02  0.8365546E-01
       -1   -1    0    0    0  501  0.00000000000E+00  0.00000000000E+00  0.12613264066E+04  0.12613264066E+04  0.50400001928E-02 0.  1.
        1   -1    0    0  501    0  0.00000000000E+00  0.00000000000E+00 -0.13479440416E+04  0.13479440416E+04  0.50400001928E-02 0. -1.
    10030    2    1    2    0    0  0.00000000000E+00  0.00000000000E+00 -0.86617634960E+02  0.26092704482E+04  0.26078323675E+04 0.  0.
        2    1    3    3  502    0 -0.27034349659E+03 -0.12108911505E+04  0.35797896436E+03  0.12913140298E+04  0.25500000920E-02 0.  1.
       -2    1    3    3    0  502  0.27034349659E+03  0.12108911505E+04 -0.44459659932E+03  0.13179564184E+04  0.25500000920E-02 0. -1.
</event>
<event>
 5   0  0.5170532E-05  0.2602189E+04  0.7818609E-02  0.8367458E-01
       -2   -1    0    0    0  501  0.00000000000E+00  0.00000000000E+00  0.76199256517E+03  0.76199256518E+03  0.25500000920E-02 0.  1.
        2   -1    0    0  501    0  0.00000000000E+00  0.00000000000E+00 -0.22216055915E+04  0.22216055915E+04  0.25500000920E-02 0. -1.
    10030    2    1    2    0    0  0.00000000000E+00  0.00000000000E+00 -0.14596130264E+04  0.29835981567E+04  0.26021890350E+04 0.  0.
        1    1    3    3  502    0 -0.15427187650E+03  0.19716538750E+03 -0.21937298288E+04  0.22079684245E+04  0.50400001928E-02 0. -1.
       -1    1    3    3    0  502  0.15427187650E+03 -0.19716538750E+03  0.73411680240E+03  0.77562973222E+03  0.50400001928E-02 0.  1.
</event>
<event>
 5   0  0.4955675E-05  0.1435944E+04  0.7818609E-02  0.8928204E-01
       -2   -1    0    0    0  501  0.00000000000E+00  0.00000000000E+00  0.67554895646E+03  0.67554895647E+03  0.25500000920E-02 0.  1.
        2   -1    0    0  501    0  0.00000000000E+00  0.00000000000E+00 -0.76305927143E+03  0.76305927143E+03  0.25500000920E-02 0. -1.
    10030    2    1    2    0    0  0.00000000000E+00  0.00000000000E+00 -0.87510314968E+02  0.14386082279E+04  0.14359441417E+04 0.  0.
        5    1    3    3  502    0  0.17317864310E+03 -0.48452225847E+03  0.45788244093E+03  0.68878957678E+03  0.46999998093E+01 0.  1.
       -5    1    3    3    0  502 -0.17317864310E+03  0.48452225847E+03 -0.54539275590E+03  0.74981865111E+03  0.46999998093E+01 0. -1.
</event>
<event>
 5   0  0.5182179E-05  0.2561501E+04  0.7818609E-02  0.8381397E-01
       -2   -1    0    0    0  501  0.00000000000E+00  0.00000000000E+00  0.11844520797E+04  0.11844520797E+04  0.25500000920E-02 0.  1.
        2   -1    0    0  501    0  0.00000000000E+00  0.00000000000E+00 -0.13848782060E+04  0.13848782060E+04  0.25500000920E-02 0. -1.
    10030    2    1    2    0    0  0.00000000000E+00  0.00000000000E+00 -0.20042612626E+03  0.25693302857E+04  0.25615010219E+04 0.  0.
        3    1    3    3  502    0  0.60208377906E+03 -0.25799358322E+02 -0.12337784873E+04  0.13730913480E+04  0.10100000352E+00 0. -1.
       -3    1    3    3    0  502 -0.60208377906E+03  0.25799358322E+02  0.10333523611E+04  0.11962389378E+04  0.10100000352E+00 0.  1.
</event>
<event>
 5   0  0.2163800E-05  0.2867569E+04  0.7818609E-02  0.8282592E-01
       -1   -1    0    0    0  501  0.00000000000E+00  0.00000000000E+00  0.69023376914E+03  0.69023376916E+03  0.50400001928E-02 0.  1.
        1   -1    0    0  501    0  0.00000000000E+00  0.00000000000E+00 -0.29783220298E+04  0.29783220298E+04  0.50400001928E-02 0. -1.
    10030    2    1    2    0    0  0.00000000000E+00  0.00000000000E+00 -0.22880882606E+04  0.36685557989E+04  0.28675693124E+04 0.  0.
        1    1    3    3  502    0 -0.27726112953E+03 -0.94891872422E+03  0.18449625658E+03  0.10056636355E+04  0.50400001928E-02 0.  1.
       -1    1    3    3    0  502  0.27726112953E+03  0.94891872422E+03 -0.24725845172E+04  0.26628921634E+04  0.50400001928E-02 0. -1.
</event>
<event>
 5   0  0.5170532E-05  0.2571429E+04  0.7818609E-02  0.8377972E-01
        2   -1    0    0  501    0  0.00000000000E+00  0.00000000000E+00  0.11174301704E+04  0.11174301704E+04  0.25500000920E-02 0. -1.
       -2   -1    0    0    0  501  0.00000000000E+00  0.00000000000E+00 -0.14793418117E+04  0.14793418117E+04  0.25500000920E-02 0.  1.
    10030    2    1    2    0    0  0.00000000000E+00  0.00000000000E+00 -0.36191164129E+03  0.25967719821E+04  0.25714285312E+04 0.  0.
        1    1    3    3  502    0  0.72369846936E+03  0.99730369636E+03 -0.55159770709E+03  0.13500422837E+04  0.50400001928E-02 0. -1.
       -1    1    3    3    0  502 -0.72369846936E+03 -0.99730369636E+03  0.18968606580E+03  0.12467296984E+04  0.50400001928E-02 0.  1.
</event>
<event>
 5   0  0.1954502E-05  0.2538280E+04  0.7818609E-02  0.8389474E-01
        1   -1    0    0  501    0  0.00000000000E+00  0.00000000000E+00  0.65943930304E+03  0.65943930306E+03  0.50400001928E-02 0.  1.
       -1   -1    0    0    0  501  0.00000000000E+00  0.00000000000E+00 -0.24425538934E+04  0.24425538934E+04  0.50400001928E-02 0. -1.
    10030    2    1    2    0    0  0.00000000000E+00  0.00000000000E+00 -0.17831145903E+04  0.31019931965E+04  0.25382797617E+04 0.  0.
        4    1    3    3  502    0 -0.62927554434E+03  0.66657938392E+03  0.18109534782E+03  0.93440511754E+03  0.12699999809E+01 0.  1.
       -4    1    3    3    0  502  0.62927554434E+03 -0.66657938392E+03 -0.19642099382E+04  0.21675880789E+04  0.12699999809E+01 0. -1.
</event>
<event>
 5   0  0.5182179E-05  0.2597743E+04  0.7818609E-02  0.8368968E-01
        2   -1    0    0  501    0  0.00000000000E+00  0.00000000000E+00  0.12312717824E+04  0.12312717824E+04  0.25500000920E-02 0. -1.
       -2   -1    0    0    0  501  0.00000000000E+00  0.00000000000E+00 -0.13701821103E+04  0.13701821103E+04  0.25500000920E-02 0.  1.
    10030    2    1    2    0    0  0.00000000000E+00  0.00000000000E+00 -0.13891032795E+03  0.26014538927E+04  0.25977425347E+04 0.  0.
        3    1    3    3  502    0  0.10252549064E+03 -0.12707567875E+04  0.17935960225E+03  0.12874409370E+04  0.10100000352E+00 0. -1.
       -3    1    3    3    0  502 -0.10252549064E+03  0.12707567875E+04 -0.31826993020E+03  0.13140129557E+04  0.10100000352E+00 0.  1.
</event>
<event>
 5   0  0.5049803E-05  0.2719604E+04  0.7818609E-02  0.8328672E-01
       -2   -1    0    0    0  501  0.00000000000E+00  0.00000000000E+00  0.85450230324E+03  0.85450230324E+03  0.25500000920E-02 0. -1.
        2   -1    0    0  501    0  0.00000000000E+00  0.00000000000E+00 -0.21639038948E+04  0.21639038948E+04  0.25500000920E-02 0.  1.
    10030    2    1    2    0    0  0.00000000000E+00  0.00000000000E+00 -0.13094015915E+04  0.30184061980E+04  0.27196035462E+04 0.  0.
        4    1    3    3  502    0 -0.32145630024E+03 -0.82847905083E+03  0.48762851446E+03  0.10136542170E+04  0.12699999809E+01 0. -1.
       -4    1    3    3    0  502  0.32145630024E+03  0.82847905083E+03 -0.17970301060E+04  0.20047519810E+04  0.12699999809E+01 0.  1.
</event>
<event>
 5   0  0.2163800E-05  0.2620546E+04  0.7818609E-02  0.8361256E-01
        1   -1    0    0  501    0  0.00000000000E+00  0.00000000000E+00  0.14675308521E+04  0.14675308521E+04  0.50400001928E-02 0.  1.
       -1   -1    0    0    0  501  0.00000000000E+00  0.00000000000E+00 -0.11698666283E+04  0.11698666284E+04  0.50400001928E-02 0. -1.
    10030    2    1    2    0    0  0.00000000000E+00  0.00000000000E+00  0.29766422380E+03  0.26373974805E+04  0.26205460271E+04 0.  0.
        1    1    3    3  502    0  0.64556580656E+03 -0.23757073790E+03  0.12711805251E+04  0.14453701926E+04  0.50400001928E-02 0.  1.
       -1    1    3    3    0  502 -0.64556580656E+03  0.23757073790E+03 -0.97351630135E+03  0.11920272879E+04  0.50400001928E-02 0. -1.
</event>
<event>
 5   0  0.5170532E-05  0.2610438E+04  0.7818609E-02  0.8364664E-01
        2   -1    0    0  501    0  0.00000000000E+00  0.00000000000E+00  0.20692719279E+04  0.20692719279E+04  0.25500000920E-02 0. -1.
       -2   -1    0    0    0  501  0.00000000000E+00  0.00000000000E+00 -0.82328292866E+03  0.82328292866E+03  0.25500000920E-02 0.  1.
    10030    2    1    2    0    0  0.00000000000E+00  0.00000000000E+00  0.12459889992E+04  0.28925548566E+04  0.26104377051E+04 0.  0.
        1    1    3    3  502    0 -0.69301061645E+03 -0.70769027508E+03  0.15648608985E+04  0.18519932159E+04  0.50400001928E-02 0. -1.
       -1    1    3    3    0  502  0.69301061645E+03  0.70769027508E+03 -0.31887189923E+03  0.10405616407E+04  0.50400001928E-02 0.  1.
</event>
<event>
 5   0  0.1993815E-05  0.2598218E+04  0.7818609E-02  0.8368807E-01
        1   -1    0    0  501    0  0.00000000000E+00  0.00000000000E+00  0.11642884073E+04  0.11642884073E+04  0.50400001928E-02 0.  1.
       -1   -1    0    0    0  501  0.00000000000E+00  0.00000000000E+00 -0.14495415290E+04  0.14495415290E+04  0.50400001928E-02 0. -1.
    10030    2    1    2    0    0  0.00000000000E+00  0.00000000000E+00 -0.28525312169E+03  0.26138299363E+04  0.25982181572E+04 0.  0.
        5    1    3    3  502    0  0.10764125830E+04 -0.64608487659E+02 -0.87142688774E+03  0.13864505820E+04  0.46999998093E+01 0. -1.
       -5    1    3    3    0  502 -0.10764125830E+04  0.64608487659E+02  0.58617376604E+03  0.12273793544E+04  0.46999998093E+01 0.  1.
</event>
<event>
 5   0  0.1993815E-05  0.2600802E+04  0.7818609E-02  0.8367929E-01
       -1   -1    0    0    0  501  0.00000000000E+00  0.00000000000E+00  0.11022823777E+04  0.11022823777E+04  0.50400001928E-02 0.  1.
        1   -1    0    0  501    0  0.00000000000E+00  0.00000000000E+00 -0.15341290058E+04  0.15341290058E+04  0.50400001928E-02 0. -1.
    10030    2    1    2    0    0  0.00000000000E+00  0.00000000000E+00 -0.43184662807E+03  0.26364113835E+04  0.26008024671E+04 0.  0.
        5    1    3    3  502    0  0.10232075564E+03  0.25318811534E+03  0.10728799113E+04  0.11070985290E+04  0.46999998093E+01 0.  1.
       -5    1    3    3    0  502 -0.10232075564E+03 -0.25318811534E+03 -0.15047265394E+04  0.15293128545E+04  0.46999998093E+01 0. -1.
</event>
<event>
 5   0  0.2163800E-05  0.2252548E+04  0.7818609E-02  0.8496869E-01
        1   -1    0    0  501    0  0.00000000000E+00  0.00000000000E+00  0.12514823599E+04  0.12514823599E+04  0.50400001928E-02 0.  1.
       -1   -1    0    0    0  501  0.00000000000E+00  0.00000000000E+00 -0.10135922849E+04  0.10135922849E+04  0.50400001928E-02 0. -1.
    10030    2    1    2    0    0  0.00000000000E+00  0.00000000000E+00  0.23789007506E+03  0.22650746448E+04  0.22525477706E+04 0.  0.
        1    1    3    3  502    0 -0.45085459347E+03 -0.82139499721E+03 -0.50945690855E+03  0.10665392387E+04  0.50400001928E-02 0. -1.
       -1    1    3    3    0  502  0.45085459347E+03  0.82139499721E+03  0.74734698361E+03  0.11985354062E+04  0.50400001928E-02 0.  1.
</event>
<event>
 5   0  0.2159405E-05  0.2432421E+04  0.7818609E-02  0.8427464E-01
        1   -1    0    0  501    0  0.00000000000E+00  0.00000000000E+00  0.15387318625E+04  0.15387318626E+04  0.50400001928E-02 0.  1.
       -1   -1    0    0    0  501  0.00000000000E+00  0.00000000000E+00 -0.96129024626E+03  0.96129024627E+03  0.50400001928E-02 0. -1.
    10030    2    1    2    0    0  0.00000000000E+00  0.00000000000E+00  0.57744161629E+03  0.25000221088E+04  0.24324209595E+04 0.  0.
        3    1    3    3  502    0  0.38009046427E+03  0.20988525747E+03 -0.87891903922E+03  0.98031590319E+03  0.10100000352E+00 0. -1.
       -3    1    3    3    0  502 -0.38009046427E+03 -0.20988525747E+03  0.14563606555E+04  0.15197062056E+04  0.10100000352E+00 0.  1.
</event>
<event>
 5   0  0.2159405E-05  0.2410126E+04  0.7818609E-02  0.8435722E-01
        1   -1    0    0  501    0  0.00000000000E+00  0.00000000000E+00  0.97738131196E+03  0.97738131197E+03  0.50400001928E-02 0.  1.
       -1   -1    0    0    0  501  0.00000000000E+00  0.00000000000E+00 -0.14857831811E+04  0.14857831811E+04  0.50400001928E-02 0. -1.
    10030    2    1    2    0    0  0.00000000000E+00  0.00000000000E+00 -0.50840186911E+03  0.24631644931E+04  0.24101259011E+04 0.  0.
        3    1    3    3  502    0 -0.85304980979E+03 -0.78818941094E+03 -0.58258196414E+03  0.12993607200E+04  0.10100000352E+00 0. -1.
       -3    1    3    3    0  502  0.85304980979E+03  0.78818941094E+03  0.74180095031E+02  0.11638037731E+04  0.10100000352E+00 0.  1.
</event>
<event>
 5   0  0.1954502E-05  0.2648253E+04  0.7818609E-02  0.8351993E-01
        1   -1    0    0  501    0  0.00000000000E+00  0.00000000000E+00  0.91071923003E+03  0.91071923005E+03  0.50400001928E-02 0.  1.
       -1   -1    0    0    0  501  0.00000000000E+00  0.00000000000E+00 -0.19251936852E+04  0.19251936853E+04  0.50400001928E-02 0. -1.
    10030    2    1    2    0    0  0.00000000000E+00  0.00000000000E+00 -0.10144744552E+04  0.28359129153E+04  0.26482529416E+04 0.  0.
        4    1    3    3  502    0  0.31306587805E+03 -0.58568384771E+03 -0.17339576739E+04  0.18567839512E+04  0.12699999809E+01 0. -1.
       -4    1    3    3    0  502 -0.31306587805E+03  0.58568384771E+03  0.71948321871E+03  0.97912896412E+03  0.12699999809E+01 0.  1.
</event>
<event>
 5   0  0.2159405E-05  0.2640292E+04  0.7818609E-02  0.8354642E-01
        1   -1    0    0  501    0  0.00000000000E+00  0.00000000000E+00  0.19202059903E+04  0.19202059903E+04  0.50400001928E-02 0.  1.
       -1   -1    0    0    0  501  0.00000000000E+00  0.00000000000E+00 -0.90760344977E+03  0.90760344979E+03  0.50400001928E-02 0. -1.
    10030    2    1    2    0    0  0.00000000000E+00  0.00000000000E+00  0.10126025405E+04  0.28278094401E+04  0.26402920907E+04 0.  0.
        3    1    3    3  502    0  0.64091382104E+03  0.10006867888E+04  0.11221534959E+04  0.16344335575E+04  0.10100000352E+00 0.  1.
       -3    1    3    3    0  502 -0.64091382104E+03 -0.10006867888E+04 -0.10955095537E+03  0.11933758826E+04  0.10100000352E+00 0. -1.
</event>
<event>
 5   0  0.2163800E-05  0.2624522E+04  0.7818609E-02  0.8359919E-01
       -1   -1    0    0    0  501  0.00000000000E+00  0.00000000000E+00  0.79601032653E+03  0.79601032655E+03  0.50400001928E-02 0.  1.
        1   -1    0    0  501    0  0.00000000000E+00  0.00000000000E+00 -0.21633253696E+04  0.21633253696E+04  0.50400001928E-02 0. -1.
    10030    2    1    2    0    0  0.00000000000E+00  0.00000000000E+00 -0.13673150430E+04  0.29593356961E+04  0.26245223061E+04 0.  0.
        1    1    3    3  502    0  0.47663390313E+03  0.62003736321E+03  0.50452812586E+03  0.93068514504E+03  0.50400001928E-02 0.  1.
       -1    1    3    3    0  502 -0.47663390313E+03 -0.62003736321E+03 -0.18718431689E+04  0.20286505511E+04  0.50400001928E-02 0. -1.
</event>
<event>
 5   0  0.1993815E-05  0.2602259E+04  0.7818609E-02  0.8367434E-01
       -1   -1    0    0    0  501  0.00000000000E+00  0.00000000000E+00  0.16232495952E+04  0.16232495952E+04  0.50400001928E-02 0. -1.
        1   -1    0    0  501    0  0.00000000000E+00  0.00000000000E+00 -0.10429312599E+04  0.10429312599E+04  0.50400001928E-02 0.  1.
    10030    2    1    2    0    0  0.00000000000E+00  0.00000000000E+00  0.58031833531E+03  0.26661808551E+04  0.26022588229E+04 0.  0.
        5    1    3    3  502    0 -0.72663472796E+02  0.10349800321E+04 -0.51427174584E+03  0.11579987762E+04  0.46999998093E+01 0.  1.
       -5    1    3    3    0  502  0.72663472796E+02 -0.10349800321E+04  0.10945900811E+04  0.15081820788E+04  0.46999998093E+01 0. -1.
</event>
<event>
 5   0  0.5182179E-05  0.2688817E+04  0.7818609E-02  0.8338643E-01
        2   -1    0    0  501    0  0.00000000000E+00  0.00000000000E+00  0.11800377946E+04  0.11800377946E+04  0.25500000920E-02 0.  1.
       -2   -1    0    0    0  501  0.00000000000E+00  0.00000000000E+00 -0.15316749533E+04  0.15316749533E+04  0.25500000920E-02 0. -1.
    10030    2    1    2    0    0  0.00000000000E+00  0.00000000000E+00 -0.35163715873E+03  0.27117127478E+04  0.26888170885E+04 0.  0.
        3    1    3    3  502    0 -0.22844760341E+03 -0.65202256686E+02 -0.15103378108E+04  0.15289080923E+04  0.10100000352E+00 0. -1.
       -3    1    3    3    0  502  0.22844760341E+03  0.65202256686E+02  0.11587006521E+04  0.11828046555E+04  0.10100000352E+00 0.  1.
</event>
<event>
 5   0  0.5036452E-05  0.2547582E+04  0.7818609E-02  0.8386228E-01
       -2   -1    0    0    0  501  0.00000000000E+00  0.00000000000E+00  0.15455038656E+04  0.15455038656E+04  0.25500000920E-02 0.  1.
        2   -1    0    0  501    0  0.00000000000E+00  0.00000000000E+00 -0.10498477720E+04  0.10498477720E+04  0.25500000920E-02 0. -1.
    10030    2    1    2    0    0  0.00000000000E+00  0.00000000000E+00  0.49565609360E+03  0.25953516376E+04  0.25475822184E+04 0.  0.
        2    1    3    3  502    0 -0.23951560426E+02 -0.15453834357E+03  0.15356871308E+04  0.15436290813E+04  0.25500000920E-02 0.  1.
       -2    1    3    3    0  502  0.23951560426E+02  0.15453834357E+03 -0.10400310372E+04  0.10517225562E+04  0.25500000920E-02 0. -1.
</event>
<event>
 5   0  0.1993815E-05  0.2605092E+04  0.7818609E-02  0.8366474E-01
       -1   -1    0    0    0  501  0.00000000000E+00  0.00000000000E+00  0.11524727772E+04  0.11524727772E+04  0.50400001928E-02 0. -1.
        1   -1    0    0  501    0  0.00000000000E+00  0.00000000000E+00 -0.14721618827E+04  0.14721618827E+04  0.50400001928E-02 0.  1.
    10030    2    1    2    0    0  0.00000000000E+00  0.00000000000E+00 -0.31968910553E+03  0.26246346599E+04  0.26050923158E+04 0.  0.
        5    1    3    3  502    0 -0.26586943923E+03 -0.45105739373E+03  0.10417737852E+04  0.11659562773E+04  0.46999998093E+01 0. -1.
       -5    1    3    3    0  502  0.26586943923E+03  0.45105739373E+03 -0.13614628907E+04  0.14586783826E+04  0.46999998093E+01 0.  1.
</event>
<event>
 5   0  0.5182179E-05  0.2664954E+04  0.7818609E-02  0.8346467E-01
       -2   -1    0    0    0  501  0.00000000000E+00  0.00000000000E+00  0.83388390958E+03  0.83388390958E+03  0.25500000920E-02 0. -1.
        2   -1    0    0  501    0  0.00000000000E+00  0.00000000000E+00 -0.21291867285E+04  0.21291867285E+04  0.25500000920E-02 0.  1.
    10030    2    1    2    0    0  0.00000000000E+00  0.00000000000E+00 -0.12953028189E+04  0.29630706381E+04  0.26649536982E+04 0.  0.
        3    1    3    3  502    0 -0.70004685613E+03  0.10250302676E+04 -0.11863522316E+04  0.17170277452E+04  0.10100000352E+00 0. -1.
       -3    1    3    3    0  502  0.70004685613E+03 -0.10250302676E+04 -0.10895058736E+03  0.12460428929E+04  0.10100000352E+00 0.  1.
</event>
<event>
 5   0  0.5170532E-05  0.1485565E+04  0.7818609E-02  0.8894109E-01
        2   -1    0    0  501    0  0.00000000000E+00  0.00000000000E+00  0.78974912155E+03  0.78974912155E+03  0.25500000920E-02 0.  1.
       -2   -1    0    0    0  501  0.00000000000E+00  0.00000000000E+00 -0.69860861823E+03  0.69860861824E+03  0.25500000920E-02 0. -1.
    10030    2    1    2    0    0  0.00000000000E+00  0.00000000000E+00  0.91140503316E+02  0.14883577398E+04  0.14855645965E+04 0.  0.
        1    1    3    3  502    0 -0.42055248903E+03  0.47000473780E+03 -0.34754063958E+03  0.72010648224E+03  0.50400001928E-02 0. -1.
       -1    1    3    3    0  502  0.42055248903E+03 -0.47000473780E+03  0.43868114289E+03  0.76825125755E+03  0.50400001928E-02 0.  1.
</event>
<event>
 5   0  0.5049803E-05  0.2606978E+04  0.7818609E-02  0.8365835E-01
       -2   -1    0    0    0  501  0.00000000000E+00  0.00000000000E+00  0.84300352233E+03  0.84300352233E+03  0.25500000920E-02 0. -1.
        2   -1    0    0  501    0  0.00000000000E+00  0.00000000000E+00 -0.20155118388E+04  0.20155118388E+04  0.25500000920E-02 0.  1.
    10030    2    1    2    0    0  0.00000000000E+00  0.00000000000E+00 -0.11725083165E+04  0.28585153611E+04  0.26069780048E+04 0.  0.
        4    1    3    3  502    0  0.30757472203E+03 -0.31230463057E+03  0.75976718727E+03  0.87714547463E+03  0.12699999809E+01 0. -1.
       -4    1    3    3    0  502 -0.30757472203E+03  0.31230463057E+03 -0.19322755037E+04  0.19813698865E+04  0.12699999809E+01 0.  1.
</event>
<event>
 5   0  0.5036452E-05  0.2613670E+04  0.7818609E-02  0.8363573E-01
        2   -1    0    0  501    0  0.00000000000E+00  0.00000000000E+00  0.15083273853E+04  0.15083273853E+04  0.25500000920E-02 0.  1.
       -2   -1    0    0    0  501  0.00000000000E+00  0.00000000000E+00 -0.11322590591E+04  0.11322590591E+04  0.25500000920E-02 0. -1.
    10030    2    1    2    0    0  0.00000000000E+00  0.00000000000E+00  0.37606832626E+03  0.26405864444E+04  0.26136697160E+04 0.  0.
        2    1    3    3  502    0  0.96205747632E+03  0.33991350070E+03 -0.63690502828E+03  0.12028066307E+04  0.25500000920E-02 0. -1.
       -2    1    3    3    0  502 -0.96205747632E+03 -0.33991350070E+03  0.10129733545E+04  0.14377798137E+04  0.25500000920E-02 0.  1.
</event>
<event>
 5   0  0.1993815E-05  0.2514336E+04  0.7818609E-02  0.8397896E-01
       -1   -1    0    0    0  501  0.00000000000E+00  0.00000000000E+00  0.10802439341E+04  0.10802439341E+04  0.50400001928E-02 0.  1.
        1   -1    0    0  501    0  0.00000000000E+00  0.00000000000E+00 -0.14630692853E+04  0.14630692853E+04  0.50400001928E-02 0. -1.
    10030    2    1    2    0    0  0.00000000000E+00  0.00000000000E+00 -0.38282535117E+03  0.25433132195E+04  0.25143362708E+04 0.  0.
        5    1    3    3  502    0 -0.10109964737E+04  0.28974925926E+03 -0.88810365878E+03  0.13765241377E+04  0.46999998093E+01 0. -1.
       -5    1    3    3    0  502  0.10109964737E+04 -0.28974925926E+03  0.50527830760E+03  0.11667890817E+04  0.46999998093E+01 0.  1.
</event>
<event>
 5   0  0.5036452E-05  0.2601357E+04  0.7818609E-02  0.8367740E-01
        2   -1    0    0  501    0  0.00000000000E+00  0.00000000000E+00  0.19522381923E+04  0.19522381923E+04  0.25500000920E-02 0.  1.
       -2   -1    0    0    0  501  0.00000000000E+00  0.00000000000E+00 -0.86657675280E+03  0.86657675280E+03  0.25500000920E-02 0. -1.
    10030    2    1    2    0    0  0.00000000000E+00  0.00000000000E+00  0.10856614395E+04  0.28188149451E+04  0.26013567486E+04 0.  0.
        2    1    3    3  502    0  0.44184563509E+03  0.12949987894E+02  0.18683498394E+04  0.19199287461E+04  0.25500000920E-02 0.  1.
       -2    1    3    3    0  502 -0.44184563509E+03 -0.12949987894E+02 -0.78268839993E+03  0.89888619904E+03  0.25500000920E-02 0. -1.
</event>
<event>
 5   0  0.1993815E-05  0.2542891E+04  0.7818609E-02  0.8387863E-01
        1   -1    0    0  501    0  0.00000000000E+00  0.00000000000E+00  0.20591202720E+04  0.20591202720E+04  0.50400001928E-02 0. -1.
       -1   -1    0    0    0  501  0.00000000000E+00  0.00000000000E+00 -0.78507993488E+03  0.78507993490E+03  0.50400001928E-02 0.  1.
    10030    2    1    2    0    0  0.00000000000E+00  0.00000000000E+00  0.12740403371E+04  0.28442002069E+04  0.25428912750E+04 0.  0.
        5    1    3    3  502    0  0.26901739796E+03 -0.68087519358E+03 -0.52566718974E+03  0.90128212786E+03  0.46999998093E+01 0.  1.
       -5    1    3    3    0  502 -0.26901739796E+03  0.68087519358E+03  0.17997075269E+04  0.19429180790E+04  0.46999998093E+01 0. -1.
</event>
<event>
 5   0  0.1954502E-05  0.2628792E+04  0.7818609E-02  0.8358487E-01
        1   -1    0    0  501    0  0.00000000000E+00  0.00000000000E+00  0.21840121183E+04  0.21840121183E+04  0.50400001928E-02 0.  1.
       -1   -1    0    0    0  501  0.00000000000E+00  0.00000000000E+00 -0.79103794691E+03  0.79103794693E+03  0.50400001928E-02 0. -1.
    10030    2    1    2    0    0  0.00000000000E+00  0.00000000000E+00  0.13929741713E+04  0.29750500652E+04  0.26287917088E+04 0.  0.
        4    1    3    3  502    0  0.10995308824E+04  0.58617203157E+02 -0.11585503669E+03  0.11071712335E+04  0.12699999809E+01 0. -1.
       -4    1    3    3    0  502 -0.10995308824E+04 -0.58617203157E+02  0.15088292080E+04  0.18678788317E+04  0.12699999809E+01 0.  1.
</event>
<event>
 5   0  0.2072710E-05  0.2567468E+04  0.7818609E-02  0.8379336E-01
       -1   -1    0    0    0  501  0.00000000000E+00  0.00000000000E+00  0.73485728855E+03  0.73485728857E+03  0.50400001928E-02 0.  1.
        1   -1    0    0  501    0  0.00000000000E+00  0.00000000000E+00 -0.22425758855E+04  0.22425758855E+04  0.50400001928E-02 0. -1.
    10030    2    1    2    0    0  0.00000000000E+00  0.00000000000E+00 -0.15077185970E+04  0.29774331741E+04  0.25674681962E+04 0.  0.
        2    1    3    3  502    0  0.36914056424E+03  0.25300241563E+03  0.64146763047E+03  0.78214813139E+03  0.25500000920E-02 0.  1.
       -2    1    3    3    0  502 -0.36914056424E+03 -0.25300241563E+03 -0.21491862275E+04  0.21952850427E+04  0.25500000920E-02 0. -1.
</event>
<event>
 5   0  0.1954502E-05  0.2594472E+04  0.7818609E-02  0.8370081E-01
        1   -1    0    0  501    0  0.00000000000E+00  0.00000000000E+00  0.18681958186E+04  0.18681958186E+04  0.50400001928E-02 0. -1.
       -1   -1    0    0    0  501  0.00000000000E+00  0.00000000000E+00 -0.90077365018E+03  0.90077365019E+03  0.50400001928E-02 0.  1.
    10030    2    1    2    0    0  0.00000000000E+00  0.00000000000E+00  0.96742216844E+03  0.27689694688E+04  0.25944722522E+04 0.  0.
        4    1    3    3  502    0  0.10382607271E+04 -0.19179845080E+03  0.12880917869E+04  0.16655191526E+04  0.12699999809E+01 0. -1.
       -4    1    3    3    0  502 -0.10382607271E+04  0.19179845080E+03 -0.32066961848E+03  0.11034503162E+04  0.12699999809E+01 0.  1.
</event>
<event>
 5   0  0.5170532E-05  0.2694240E+04  0.7818609E-02  0.8336876E-01
        2   -1    0    0  501    0  0.00000000000E+00  0.00000000000E+00  0.27378139646E+04  0.27378139646E+04  0.25500000920E-02 0.  1.
       -2   -1    0    0    0  501  0.00000000000E+00  0.00000000000E+00 -0.66283974660E+03  0.66283974660E+03  0.25500000920E-02 0. -1.
    10030    2    1    2    0    0  0.00000000000E+00  0.00000000000E+00  0.20749742180E+04  0.34006537112E+04  0.26942397180E+04 0.  0.
        1    1    3    3  502    0  0.67541106431E+03 -0.46423604559E+03 -0.31196123180E+03  0.87693501583E+03  0.50400001928E-02 0. -1.
       -1    1    3    3    0  502 -0.67541106431E+03  0.46423604559E+03  0.23869354498E+04  0.25237186953E+04  0.50400001928E-02 0.  1.
</event>
<event>
 5   0  0.5049803E-05  0.1682742E+04  0.7818609E-02  0.8771269E-01
       -2   -1    0    0    0  501  0.00000000000E+00  0.00000000000E+00  0.36683747163E+03  0.36683747163E+03  0.25500000920E-02 0.  1.
        2   -1    0    0  501    0  0.00000000000E+00  0.00000000000E+00 -0.19297518962E+04  0.19297518962E+04  0.25500000920E-02 0. -1.
    10030    2    1    2    0    0  0.00000000000E+00  0.00000000000E+00 -0.15629144246E+04  0.22965893679E+04  0.16827421745E+04 0.  0.
        4    1    3    3  502    0  0.29721597465E+03 -0.66271520308E+03 -0.20182322439E+03  0.75383221129E+03  0.12699999809E+01 0.  1.
       -4    1    3    3    0  502 -0.29721597465E+03  0.66271520308E+03 -0.13610912002E+04  0.15427571566E+04  0.12699999809E+01 0. -1.
</event>
<event>
 5   0  0.2159405E-05  0.2612743E+04  0.7818609E-02  0.8363886E-01
        1   -1    0    0  501    0  0.00000000000E+00  0.00000000000E+00  0.26114468664E+04  0.26114468664E+04  0.50400001928E-02 0. -1.
       -1   -1    0    0    0  501  0.00000000000E+00  0.00000000000E+00 -0.65350979370E+03  0.65350979372E+03  0.50400001928E-02 0.  1.
    10030    2    1    2    0    0  0.00000000000E+00  0.00000000000E+00  0.19579370727E+04  0.32649566601E+04  0.26127426991E+04 0.  0.
        3    1    3    3  502    0  0.94949837988E+03 -0.19881813676E+03  0.20723254644E+04  0.22881452457E+04  0.10100000352E+00 0. -1.
       -3    1    3    3    0  502 -0.94949837988E+03  0.19881813676E+03 -0.11438839172E+03  0.97681141438E+03  0.10100000352E+00 0.  1.
</event>
<event>
 5   0  0.5182179E-05  0.2594825E+04  0.7818609E-02  0.8369961E-01
       -2   -1    0    0    0  501  0.00000000000E+00  0.00000000000E+00  0.99115208328E+03  0.99115208328E+03  0.25500000920E-02 0.  1.
        2   -1    0    0  501    0  0.00000000000E+00  0.00000000000E+00 -0.16983054966E+04  0.16983054966E+04  0.25500000920E-02 0. -1.
    10030    2    1    2    0    0  0.00000000000E+00  0.00000000000E+00 -0.70715341329E+03  0.26894575798E+04  0.25948248735E+04 0.  0.
        3    1    3    3  502    0  0.10892749870E+04 -0.39978578025E+03 -0.95520287082E+03  0.15029175633E+04  0.10100000352E+00 0. -1.
       -3    1    3    3    0  502 -0.10892749870E+04  0.39978578025E+03  0.24804945754E+03  0.11865400166E+04  0.10100000352E+00 0.  1.
</event>
<event>
 5   0  0.2159405E-05  0.2474111E+04  0.7818609E-02  0.8412267E-01
        1   -1    0    0  501    0  0.00000000000E+00  0.00000000000E+00  0.10814261709E+04  0.10814261709E+04  0.50400001928E-02 0. -1.
       -1   -1    0    0    0  501  0.00000000000E+00  0.00000000000E+00 -0.14150815364E+04  0.14150815364E+04  0.50400001928E-02 0.  1.
    10030    2    1    2    0    0  0.00000000000E+00  0.00000000000E+00 -0.33365536547E+03  0.24965077073E+04  0.24741109171E+04 0.  0.
        3    1    3    3  502    0  0.10196553864E+03  0.10467133092E+04 -0.82410781403E+03  0.13360985824E+04  0.10100000352E+00 0.  1.
       -3    1    3    3    0  502 -0.10196553864E+03 -0.10467133092E+04  0.49045244856E+03  0.11604091249E+04  0.10100000352E+00 0. -1.
</event>
<event>
 5   0  0.2072710E-05  0.2940331E+04  0.7818609E-02  0.8260978E-01
        1   -1    0    0  501    0  0.00000000000E+00  0.00000000000E+00  0.22592498730E+04  0.22592498730E+04  0.50400001928E-02 0.  1.
       -1   -1    0    0    0  501  0.00000000000E+00  0.00000000000E+00 -0.95668360368E+03  0.95668360369E+03  0.50400001928E-02 0. -1.
    10030    2    1    2    0    0  0.00000000000E+00  0.00000000000E+00  0.13025662693E+04  0.32159334767E+04  0.29403314848E+04 0.  0.
        2    1    3    3  502    0  0.23139969718E+03  0.64960295233E+02 -0.93505066656E+03  0.96544570477E+03  0.25500000920E-02 0. -1.
       -2    1    3    3    0  502 -0.23139969718E+03 -0.64960295233E+02  0.22376169359E+04  0.22504877719E+04  0.25500000920E-02 0.  1.
</event>
<event>
 5   0  0.5036452E-05  0.2474616E+04  0.7818609E-02  0.8412085E-01
       -2   -1    0    0    0  501  0.00000000000E+00  0.00000000000E+00  0.10003969893E+04  0.10003969893E+04  0.25500000920E-02 0.  1.
        2   -1    0    0  501    0  0.00000000000E+00  0.00000000000E+00 -0.15303241525E+04  0.15303241525E+04  0.25500000920E-02 0. -1.
    10030    2    1    2    0    0  0.00000000000E+00  0.00000000000E+00 -0.52992716324E+03  0.25307211418E+04  0.24746164751E+04 0.  0.
        2    1    3    3  502    0  0.35256845695E+03  0.87881803168E+03 -0.10794536848E+04  0.14359129177E+04  0.25500000920E-02 0. -1.
       -2    1    3    3    0  502 -0.35256845695E+03 -0.87881803168E+03  0.54952652151E+03  0.10948082241E+04  0.25500000920E-02 0.  1.
</event>
<event>
 5   0  0.1698625E-05  0.2497243E+04  0.7818609E-02  0.8403968E-01
       -3   -1    0    0    0  501  0.00000000000E+00  0.00000000000E+00  0.53172303716E+03  0.53172304676E+03  0.10100000352E+00 0.  1.
        3   -1    0    0  501    0  0.00000000000E+00  0.00000000000E+00 -0.29320831429E+04  0.29320831446E+04  0.10100000352E+00 0. -1.
    10030    2    1    2    0    0  0.00000000000E+00  0.00000000000E+00 -0.24003601057E+04  0.34638061914E+04  0.24972434191E+04 0.  0.
        4    1    3    3  502    0  0.50761410703E+02 -0.64872158128E+03  0.27795015848E+03  0.70758343277E+03  0.12699999809E+01 0.  1.
       -4    1    3    3    0  502 -0.50761410703E+02  0.64872158128E+03 -0.26783102642E+04  0.27562227586E+04  0.12699999809E+01 0. -1.
</event>
<event>
 5   0  0.2163800E-05  0.2682593E+04  0.7818609E-02  0.8340675E-01
       -1   -1    0    0    0  501  0.00000000000E+00  0.00000000000E+00  0.13321540419E+04  0.13321540419E+04  0.50400001928E-02 0. -1.
        1   -1    0    0  501    0  0.00000000000E+00  0.00000000000E+00 -0.13505017562E+04  0.13505017562E+04  0.50400001928E-02 0.  1.
    10030    2    1    2    0    0  0.00000000000E+00  0.00000000000E+00 -0.18347714308E+02  0.26826557980E+04  0.26825930538E+04 0.  0.
        1    1    3    3  502    0 -0.41345883146E+03 -0.12139643100E+04  0.38379693738E+03  0.13386402207E+04  0.50400001928E-02 0. -1.
       -1    1    3    3    0  502  0.41345883146E+03  0.12139643100E+04 -0.40214465169E+03  0.13440155774E+04  0.50400001928E-02 0.  1.
</event>
<event>
 5   0  0.5049803E-05  0.1926029E+04  0.7818609E-02  0.8642008E-01
       -2   -1    0    0    0  501  0.00000000000E+00  0.00000000000E+00  0.42598696635E+03  0.42598696636E+03  0.25500000920E-02 0.  1.
        2   -1    0    0  501    0  0.00000000000E+00  0.00000000000E+00 -0.21770540582E+04  0.21770540582E+04  0.25500000920E-02 0. -1.
    10030    2    1    2    0    0  0.00000000000E+00  0.00000000000E+00 -0.17510670918E+04  0.26030410245E+04  0.19260287161E+04 0.  0.
        4    1    3    3  502    0 -0.63547883337E+03 -0.11460209012E+03  0.90040364821E+02  0.65197842520E+03  0.12699999809E+01 0.  1.
       -4    1    3    3    0  502  0.63547883337E+03  0.11460209012E+03 -0.18411074566E+04  0.19510625993E+04  0.12699999809E+01 0. -1.
</event>
<event>
 5   0  0.2163800E-05  0.2602963E+04  0.7818609E-02  0.8367195E-01
        1   -1    0    0  501    0  0.00000000000E+00  0.00000000000E+00  0.16507150729E+04  0.16507150729E+04  0.50400001928E-02 0.  1.
       -1   -1    0    0    0  501  0.00000000000E+00  0.00000000000E+00 -0.10261336359E+04  0.10261336359E+04  0.50400001928E-02 0. -1.
    10030    2    1    2    0    0  0.00000000000E+00  0.00000000000E+00  0.62458143705E+03  0.26768487089E+04  0.26029631266E+04 0.  0.
        1    1    3    3  502    0  0.98253287313E+03  0.69798743041E+03 -0.19287251600E+03  0.12205560648E+04  0.50400001928E-02 0. -1.
       -1    1    3    3    0  502 -0.98253287313E+03 -0.69798743041E+03  0.81745395306E+03  0.14562926441E+04  0.50400001928E-02 0.  1.
</event>
<event>
 5   0  0.5049803E-05  0.2527354E+04  0.7818609E-02  0.8393305E-01
        2   -1    0    0  501    0  0.00000000000E+00  0.00000000000E+00  0.19879113769E+04  0.19879113769E+04  0.25500000920E-02 0. -1.
       -2   -1    0    0    0  501  0.00000000000E+00  0.00000000000E+00 -0.80329506223E+03  0.80329506223E+03  0.25500000920E-02 0.  1.
    10030    2    1    2    0    0  0.00000000000E+00  0.00000000000E+00  0.11846163146E+04  0.27912064391E+04  0.25273538677E+04 0.  0.
        4    1    3    3  502    0  0.92700333434E+03  0.55809339765E+03  0.13131974972E+04  0.17015559650E+04  0.12699999809E+01 0. -1.
       -4    1    3    3    0  502 -0.92700333434E+03 -0.55809339765E+03 -0.12858118254E+03  0.10896504741E+04  0.12699999809E+01 0.  1.
</event>
<event>
 5   0  0.4955675E-05  0.2573073E+04  0.7818609E-02  0.8377405E-01
        2   -1    0    0  501    0  0.00000000000E+00  0.00000000000E+00  0.13568819973E+04  0.13568819973E+04  0.25500000920E-02 0.  1.
       -2   -1    0    0    0  501  0.00000000000E+00  0.00000000000E+00 -0.12198382619E+04  0.12198382619E+04  0.25500000920E-02 0. -1.
    10030    2    1    2    0    0  0.00000000000E+00  0.00000000000E+00  0.13704373533E+03  0.25767202592E+04  0.25730733197E+04 0.  0.
        5    1    3    3  502    0  0.66455189106E+02  0.76627495808E+03 -0.96423071222E+03  0.12334328356E+04  0.46999998093E+01 0. -1.
       -5    1    3    3    0  502 -0.66455189106E+02 -0.76627495808E+03  0.11012744476E+04  0.13432874236E+04  0.46999998093E+01 0.  1.
</event>
<event>
 5   0  0.1954502E-05  0.2615710E+04  0.7818609E-02  0.8362884E-01
        1   -1    0    0  501    0  0.00000000000E+00  0.00000000000E+00  0.11118325950E+04  0.11118325950E+04  0.50400001928E-02 0.  1.
       -1   -1    0    0    0  501  0.00000000000E+00  0.00000000000E+00 -0.15384368951E+04  0.15384368951E+04  0.50400001928E-02 0. -1.
    10030    2    1    2    0    0  0.00000000000E+00  0.00000000000E+00 -0.42660430009E+03  0.26502694901E+04  0.26157096821E+04 0.  0.
        4    1    3    3  502    0 -0.72665476388E+03 -0.57376485109E+03  0.72261735541E+03  0.11744831653E+04  0.12699999809E+01 0.  1.
       -4    1    3    3    0  502  0.72665476388E+03  0.57376485109E+03 -0.11492216555E+04  0.14757863248E+04  0.12699999809E+01 0. -1.
</event>
<event>
 5   0  0.4955675E-05  0.2084802E+04  0.7818609E-02  0.8567968E-01
        2   -1    0    0  501    0  0.00000000000E+00  0.00000000000E+00  0.22529527552E+04  0.22529527552E+04  0.25500000920E-02 0. -1.
       -2   -1    0    0    0  501  0.00000000000E+00  0.00000000000E+00 -0.48230017246E+03  0.48230017246E+03  0.25500000920E-02 0.  1.
    10030    2    1    2    0    0  0.00000000000E+00  0.00000000000E+00  0.17706525827E+04  0.27352529276E+04  0.20848016715E+04 0.  0.
        5    1    3    3  502    0  0.36300790378E+03 -0.78521874341E+02 -0.39253222693E+03  0.54041101223E+03  0.46999998093E+01 0.  1.
       -5    1    3    3    0  502 -0.36300790378E+03  0.78521874341E+02  0.21631848097E+04  0.21948419154E+04  0.46999998093E+01 0. -1.
</event>
<event>
 5   0  0.2072710E-05  0.2632225E+04  0.7818609E-02  0.8357337E-01
        1   -1    0    0  501    0  0.00000000000E+00  0.00000000000E+00  0.98806952826E+03  0.98806952828E+03  0.50400001928E-02 0. -1.
       -1   -1    0    0    0  501  0.00000000000E+00  0.00000000000E+00 -0.17530669249E+04  0.17530669249E+04  0.50400001928E-02 0.  1.
    10030    2    1    2    0    0  0.00000000000E+00  0.00000000000E+00 -0.76499739662E+03  0.27411364532E+04  0.26322249216E+04 0.  0.
        2    1    3    3  502    0  0.59233868297E+03 -0.70215562699E+03  0.59897525683E+03  0.10966581045E+04  0.25500000920E-02 0. -1.
       -2    1    3    3    0  502 -0.59233868297E+03  0.70215562699E+03 -0.13639726535E+04  0.16444783487E+04  0.25500000920E-02 0.  1.
</event>
<event>
 5   0  0.5036452E-05  0.2507418E+04  0.7818609E-02  0.8400347E-01
       -2   -1    0    0    0  501  0.00000000000E+00  0.00000000000E+00  0.10381965592E+04  0.10381965592E+04  0.25500000920E-02 0.  1.
        2   -1    0    0  501    0  0.00000000000E+00  0.00000000000E+00 -0.15139587576E+04  0.15139587576E+04  0.25500000920E-02 0. -1.
    10030    2    1    2    0    0  0.00000000000E+00  0.00000000000E+00 -0.47576219841E+03  0.25521553168E+04  0.25074184118E+04 0.  0.
        2    1    3    3  502    0  0.15430872203E+03 -0.12162364119E+04  0.28988760211E+02  0.12263288872E+04  0.25500000920E-02 0.  1.
       -2    1    3    3    0  502 -0.15430872203E+03  0.12162364119E+04 -0.50475095862E+03  0.13258264297E+04  0.25500000920E-02 0. -1.
</event>
<event>
 5   0  0.1993815E-05  0.2281843E+04  0.7818609E-02  0.8485115E-01
       -1   -1    0    0    0  501  0.00000000000E+00  0.00000000000E+00  0.10784113716E+04  0.10784113716E+04  0.50400001928E-02 0. -1.
        1   -1    0    0  501    0  0.00000000000E+00  0.00000000000E+00 -0.12070550255E+04  0.12070550256E+04  0.50400001928E-02 0.  1.
    10030    2    1    2    0    0  0.00000000000E+00  0.00000000000E+00 -0.12864365398E+03  0.22854663971E+04  0.22818429969E+04 0.  0.
        5    1    3    3  502    0  0.72329375923E+02  0.25989278126E+03  0.10459979007E+04  0.10802358514E+04  0.46999998093E+01 0. -1.
       -5    1    3    3    0  502 -0.72329375923E+02 -0.25989278126E+03 -0.11746415547E+04  0.12052305457E+04  0.46999998093E+01 0.  1.
</event>
</LesHouchesEvents>
